   3   3   0   0
  0.2775248E+02  0.4901316E-09  0.4901316E-09  0.4901316E-09  0.5000000E-15
  1.000000000000000E-004
  CAR
 unknown system
     11.13001359    -38.07856985  301      8.38798701      1.00000000
    -38.079  0.0000E+00  0.0000E+00
    -37.915  0.0000E+00  0.0000E+00
    -37.751  0.0000E+00  0.0000E+00
    -37.586  0.0000E+00  0.0000E+00
    -37.422  0.0000E+00  0.0000E+00
    -37.258  0.0000E+00  0.0000E+00
    -37.094  0.0000E+00  0.0000E+00
    -36.930  0.0000E+00  0.0000E+00
    -36.766  0.0000E+00  0.0000E+00
    -36.602  0.0000E+00  0.0000E+00
    -36.438  0.0000E+00  0.0000E+00
    -36.274  0.0000E+00  0.0000E+00
    -36.110  0.0000E+00  0.0000E+00
    -35.946  0.0000E+00  0.0000E+00
    -35.782  0.1219E+02  0.2000E+01
    -35.618  0.0000E+00  0.2000E+01
    -35.454  0.0000E+00  0.2000E+01
    -35.290  0.0000E+00  0.2000E+01
    -35.126  0.0000E+00  0.2000E+01
    -34.962  0.0000E+00  0.2000E+01
    -34.798  0.0000E+00  0.2000E+01
    -34.634  0.0000E+00  0.2000E+01
    -34.470  0.0000E+00  0.2000E+01
    -34.306  0.0000E+00  0.2000E+01
    -34.142  0.0000E+00  0.2000E+01
    -33.978  0.0000E+00  0.2000E+01
    -33.814  0.0000E+00  0.2000E+01
    -33.650  0.0000E+00  0.2000E+01
    -33.486  0.0000E+00  0.2000E+01
    -33.322  0.0000E+00  0.2000E+01
    -33.158  0.0000E+00  0.2000E+01
    -32.994  0.0000E+00  0.2000E+01
    -32.830  0.0000E+00  0.2000E+01
    -32.666  0.0000E+00  0.2000E+01
    -32.502  0.0000E+00  0.2000E+01
    -32.338  0.0000E+00  0.2000E+01
    -32.174  0.0000E+00  0.2000E+01
    -32.010  0.0000E+00  0.2000E+01
    -31.845  0.0000E+00  0.2000E+01
    -31.681  0.0000E+00  0.2000E+01
    -31.517  0.0000E+00  0.2000E+01
    -31.353  0.0000E+00  0.2000E+01
    -31.189  0.0000E+00  0.2000E+01
    -31.025  0.0000E+00  0.2000E+01
    -30.861  0.0000E+00  0.2000E+01
    -30.697  0.0000E+00  0.2000E+01
    -30.533  0.0000E+00  0.2000E+01
    -30.369  0.0000E+00  0.2000E+01
    -30.205  0.0000E+00  0.2000E+01
    -30.041  0.0000E+00  0.2000E+01
    -29.877  0.0000E+00  0.2000E+01
    -29.713  0.0000E+00  0.2000E+01
    -29.549  0.0000E+00  0.2000E+01
    -29.385  0.0000E+00  0.2000E+01
    -29.221  0.0000E+00  0.2000E+01
    -29.057  0.0000E+00  0.2000E+01
    -28.893  0.0000E+00  0.2000E+01
    -28.729  0.0000E+00  0.2000E+01
    -28.565  0.0000E+00  0.2000E+01
    -28.401  0.0000E+00  0.2000E+01
    -28.237  0.0000E+00  0.2000E+01
    -28.073  0.0000E+00  0.2000E+01
    -27.909  0.0000E+00  0.2000E+01
    -27.745  0.0000E+00  0.2000E+01
    -27.581  0.0000E+00  0.2000E+01
    -27.417  0.0000E+00  0.2000E+01
    -27.253  0.0000E+00  0.2000E+01
    -27.089  0.0000E+00  0.2000E+01
    -26.925  0.0000E+00  0.2000E+01
    -26.761  0.0000E+00  0.2000E+01
    -26.597  0.0000E+00  0.2000E+01
    -26.433  0.0000E+00  0.2000E+01
    -26.269  0.0000E+00  0.2000E+01
    -26.104  0.0000E+00  0.2000E+01
    -25.940  0.0000E+00  0.2000E+01
    -25.776  0.0000E+00  0.2000E+01
    -25.612  0.0000E+00  0.2000E+01
    -25.448  0.0000E+00  0.2000E+01
    -25.284  0.0000E+00  0.2000E+01
    -25.120  0.0000E+00  0.2000E+01
    -24.956  0.0000E+00  0.2000E+01
    -24.792  0.0000E+00  0.2000E+01
    -24.628  0.0000E+00  0.2000E+01
    -24.464  0.0000E+00  0.2000E+01
    -24.300  0.0000E+00  0.2000E+01
    -24.136  0.0000E+00  0.2000E+01
    -23.972  0.0000E+00  0.2000E+01
    -23.808  0.0000E+00  0.2000E+01
    -23.644  0.0000E+00  0.2000E+01
    -23.480  0.0000E+00  0.2000E+01
    -23.316  0.0000E+00  0.2000E+01
    -23.152  0.0000E+00  0.2000E+01
    -22.988  0.0000E+00  0.2000E+01
    -22.824  0.0000E+00  0.2000E+01
    -22.660  0.0000E+00  0.2000E+01
    -22.496  0.0000E+00  0.2000E+01
    -22.332  0.0000E+00  0.2000E+01
    -22.168  0.0000E+00  0.2000E+01
    -22.004  0.0000E+00  0.2000E+01
    -21.840  0.0000E+00  0.2000E+01
    -21.676  0.0000E+00  0.2000E+01
    -21.512  0.0000E+00  0.2000E+01
    -21.348  0.0000E+00  0.2000E+01
    -21.184  0.0000E+00  0.2000E+01
    -21.020  0.0000E+00  0.2000E+01
    -20.856  0.0000E+00  0.2000E+01
    -20.692  0.0000E+00  0.2000E+01
    -20.528  0.0000E+00  0.2000E+01
    -20.363  0.0000E+00  0.2000E+01
    -20.199  0.0000E+00  0.2000E+01
    -20.035  0.0000E+00  0.2000E+01
    -19.871  0.0000E+00  0.2000E+01
    -19.707  0.0000E+00  0.2000E+01
    -19.543  0.0000E+00  0.2000E+01
    -19.379  0.0000E+00  0.2000E+01
    -19.215  0.0000E+00  0.2000E+01
    -19.051  0.0000E+00  0.2000E+01
    -18.887  0.0000E+00  0.2000E+01
    -18.723  0.0000E+00  0.2000E+01
    -18.559  0.0000E+00  0.2000E+01
    -18.395  0.0000E+00  0.2000E+01
    -18.231  0.0000E+00  0.2000E+01
    -18.067  0.0000E+00  0.2000E+01
    -17.903  0.0000E+00  0.2000E+01
    -17.739  0.0000E+00  0.2000E+01
    -17.575  0.0000E+00  0.2000E+01
    -17.411  0.0000E+00  0.2000E+01
    -17.247  0.0000E+00  0.2000E+01
    -17.083  0.0000E+00  0.2000E+01
    -16.919  0.0000E+00  0.2000E+01
    -16.755  0.0000E+00  0.2000E+01
    -16.591  0.0000E+00  0.2000E+01
    -16.427  0.0000E+00  0.2000E+01
    -16.263  0.0000E+00  0.2000E+01
    -16.099  0.0000E+00  0.2000E+01
    -15.935  0.0000E+00  0.2000E+01
    -15.771  0.0000E+00  0.2000E+01
    -15.607  0.0000E+00  0.2000E+01
    -15.443  0.0000E+00  0.2000E+01
    -15.279  0.0000E+00  0.2000E+01
    -15.115  0.0000E+00  0.2000E+01
    -14.951  0.0000E+00  0.2000E+01
    -14.787  0.0000E+00  0.2000E+01
    -14.622  0.0000E+00  0.2000E+01
    -14.458  0.0000E+00  0.2000E+01
    -14.294  0.6062E+02  0.1194E+02
    -14.130  0.0000E+00  0.1200E+02
    -13.966  0.0000E+00  0.1200E+02
    -13.802  0.0000E+00  0.1200E+02
    -13.638  0.0000E+00  0.1200E+02
    -13.474  0.0000E+00  0.1200E+02
    -13.310  0.0000E+00  0.1200E+02
    -13.146  0.0000E+00  0.1200E+02
    -12.982  0.0000E+00  0.1200E+02
    -12.818  0.0000E+00  0.1200E+02
    -12.654  0.0000E+00  0.1200E+02
    -12.490  0.0000E+00  0.1200E+02
    -12.326  0.0000E+00  0.1200E+02
    -12.162  0.0000E+00  0.1200E+02
    -11.998  0.0000E+00  0.1200E+02
    -11.834  0.0000E+00  0.1200E+02
    -11.670  0.0000E+00  0.1200E+02
    -11.506  0.0000E+00  0.1200E+02
    -11.342  0.0000E+00  0.1200E+02
    -11.178  0.1559E-02  0.1200E+02
    -11.014  0.2403E+02  0.1776E+02
    -10.850  0.0000E+00  0.1800E+02
    -10.686  0.0000E+00  0.1800E+02
    -10.522  0.0000E+00  0.1800E+02
    -10.358  0.0000E+00  0.1800E+02
    -10.194  0.0000E+00  0.1800E+02
    -10.030  0.0000E+00  0.1800E+02
     -9.866  0.0000E+00  0.1800E+02
     -9.702  0.0000E+00  0.1800E+02
     -9.538  0.0000E+00  0.1800E+02
     -9.374  0.0000E+00  0.1800E+02
     -9.210  0.0000E+00  0.1800E+02
     -9.046  0.0000E+00  0.1800E+02
     -8.881  0.0000E+00  0.1800E+02
     -8.717  0.0000E+00  0.1800E+02
     -8.553  0.0000E+00  0.1800E+02
     -8.389  0.0000E+00  0.1800E+02
     -8.225  0.0000E+00  0.1800E+02
     -8.061  0.0000E+00  0.1800E+02
     -7.897  0.0000E+00  0.1800E+02
     -7.733  0.0000E+00  0.1800E+02
     -7.569  0.0000E+00  0.1800E+02
     -7.405  0.0000E+00  0.1800E+02
     -7.241  0.0000E+00  0.1800E+02
     -7.077  0.0000E+00  0.1800E+02
     -6.913  0.0000E+00  0.1800E+02
     -6.749  0.0000E+00  0.1800E+02
     -6.585  0.0000E+00  0.1800E+02
     -6.421  0.0000E+00  0.1800E+02
     -6.257  0.0000E+00  0.1800E+02
     -6.093  0.0000E+00  0.1800E+02
     -5.929  0.0000E+00  0.1800E+02
     -5.765  0.0000E+00  0.1800E+02
     -5.601  0.0000E+00  0.1800E+02
     -5.437  0.0000E+00  0.1800E+02
     -5.273  0.0000E+00  0.1800E+02
     -5.109  0.0000E+00  0.1800E+02
     -4.945  0.0000E+00  0.1800E+02
     -4.781  0.0000E+00  0.1800E+02
     -4.617  0.0000E+00  0.1800E+02
     -4.453  0.0000E+00  0.1800E+02
     -4.289  0.0000E+00  0.1800E+02
     -4.125  0.0000E+00  0.1800E+02
     -3.961  0.0000E+00  0.1800E+02
     -3.797  0.0000E+00  0.1800E+02
     -3.633  0.0000E+00  0.1800E+02
     -3.469  0.3523E-07  0.1800E+02
     -3.305  0.9479E-01  0.1802E+02
     -3.140  0.2988E+00  0.1810E+02
     -2.976  0.4506E+00  0.1823E+02
     -2.812  0.1155E+01  0.1851E+02
     -2.648  0.4888E+01  0.1972E+02
     -2.484  0.0000E+00  0.2000E+02
     -2.320  0.0000E+00  0.2000E+02
     -2.156  0.0000E+00  0.2000E+02
     -1.992  0.0000E+00  0.2000E+02
     -1.828  0.0000E+00  0.2000E+02
     -1.664  0.0000E+00  0.2000E+02
     -1.500  0.0000E+00  0.2000E+02
     -1.336  0.0000E+00  0.2000E+02
     -1.172  0.0000E+00  0.2000E+02
     -1.008  0.0000E+00  0.2000E+02
     -0.844  0.0000E+00  0.2000E+02
     -0.680  0.0000E+00  0.2000E+02
     -0.516  0.0000E+00  0.2000E+02
     -0.352  0.0000E+00  0.2000E+02
     -0.188  0.0000E+00  0.2000E+02
     -0.024  0.0000E+00  0.2000E+02
      0.140  0.0000E+00  0.2000E+02
      0.304  0.0000E+00  0.2000E+02
      0.468  0.0000E+00  0.2000E+02
      0.632  0.0000E+00  0.2000E+02
      0.796  0.0000E+00  0.2000E+02
      0.960  0.0000E+00  0.2000E+02
      1.124  0.0000E+00  0.2000E+02
      1.288  0.0000E+00  0.2000E+02
      1.452  0.0000E+00  0.2000E+02
      1.616  0.0000E+00  0.2000E+02
      1.780  0.0000E+00  0.2000E+02
      1.944  0.0000E+00  0.2000E+02
      2.108  0.0000E+00  0.2000E+02
      2.272  0.0000E+00  0.2000E+02
      2.436  0.0000E+00  0.2000E+02
      2.601  0.0000E+00  0.2000E+02
      2.765  0.5447E-01  0.2001E+02
      2.929  0.4653E+00  0.2015E+02
      3.093  0.2970E+01  0.2079E+02
      3.257  0.9539E+00  0.2121E+02
      3.421  0.3709E+00  0.2149E+02
      3.585  0.5074E+00  0.2176E+02
      3.749  0.4087E+00  0.2196E+02
      3.913  0.4144E+01  0.2275E+02
      4.077  0.2641E+01  0.2391E+02
      4.241  0.3047E+01  0.2496E+02
      4.405  0.2555E+01  0.2600E+02
      4.569  0.2204E+00  0.2605E+02
      4.733  0.4644E+01  0.2690E+02
      4.897  0.5530E+01  0.2914E+02
      5.061  0.2797E+01  0.3057E+02
      5.225  0.2122E+01  0.3124E+02
      5.389  0.9131E+00  0.3159E+02
      5.553  0.8766E+00  0.3184E+02
      5.717  0.7326E+00  0.3204E+02
      5.881  0.1577E+01  0.3234E+02
      6.045  0.7094E+00  0.3257E+02
      6.209  0.1079E+01  0.3283E+02
      6.373  0.4269E+00  0.3311E+02
      6.537  0.7204E+00  0.3333E+02
      6.701  0.5663E+00  0.3364E+02
      6.865  0.4182E+01  0.3434E+02
      7.029  0.2013E+01  0.3563E+02
      7.193  0.7527E+00  0.3593E+02
      7.357  0.9133E-01  0.3598E+02
      7.521  0.2048E-01  0.3600E+02
      7.685  0.1217E+00  0.3604E+02
      7.849  0.1137E+01  0.3624E+02
      8.013  0.1979E+01  0.3680E+02
      8.177  0.2978E+01  0.3770E+02
      8.342  0.5015E+00  0.3804E+02
      8.506  0.8295E+01  0.4190E+02
      8.670  0.1303E+02  0.4586E+02
      8.834  0.2050E+01  0.4798E+02
      8.998  0.0000E+00  0.4800E+02
      9.162  0.0000E+00  0.4800E+02
      9.326  0.0000E+00  0.4800E+02
      9.490  0.0000E+00  0.4800E+02
      9.654  0.0000E+00  0.4800E+02
      9.818  0.0000E+00  0.4800E+02
      9.982  0.0000E+00  0.4800E+02
     10.146  0.0000E+00  0.4800E+02
     10.310  0.0000E+00  0.4800E+02
     10.474  0.0000E+00  0.4800E+02
     10.638  0.0000E+00  0.4800E+02
     10.802  0.0000E+00  0.4800E+02
     10.966  0.0000E+00  0.4800E+02
     11.130  0.0000E+00  0.4800E+02
