    3    3    1    1
  0.2775248E+02  0.4901316E-09  0.4901316E-09  0.4901316E-09  0.5000000E-15
  1.000000000000000E-004
  CAR
 unknown system
     39     84     24

  0.0000000E+00  0.0000000E+00  0.0000000E+00  0.4551661E-03
    1      -35.841816   1.000000
    2      -14.334380   1.000000
    3      -14.334380   1.000000
    4      -14.312608   1.000000
    5      -14.312608   1.000000
    6      -14.312608   1.000000
    7      -11.039483   1.000000
    8      -11.039483   1.000000
    9      -11.039483   1.000000
   10       -3.437666   1.000000
   11        4.325596   1.000000
   12        4.325596   1.000000
   13        4.325596   1.000000
   14        4.664620   1.000000
   15        4.664620   1.000000
   16        6.392632   1.000000
   17        7.425971   1.000000
   18        7.425971   1.000000
   19        7.425971   1.000000
   20        8.375707   0.958770
   21        8.468446   0.000000
   22        8.468493   0.000000
   23        8.472109   0.000000
   24        8.559260   0.000000

  0.7692308E-01 -0.5432147E-17 -0.5966967E-18  0.3641329E-02
    1      -35.841700   1.000000
    2      -14.335168   1.000000
    3      -14.335168   1.000000
    4      -14.312735   1.000000
    5      -14.312487   1.000000
    6      -14.312487   1.000000
    7      -11.047269   1.000000
    8      -11.037916   1.000000
    9      -11.037916   1.000000
   10       -3.389909   1.000000
   11        4.192898   1.000000
   12        4.257147   1.000000
   13        4.257147   1.000000
   14        4.729012   1.000000
   15        4.729012   1.000000
   16        6.246043   1.000000
   17        7.375855   1.000000
   18        7.375855   1.000000
   19        7.522070   1.000000
   20        8.313809   1.000000
   21        8.414940   0.000069
   22        8.414940   0.000069
   23        8.546176   0.000000
   24        8.599168   0.000000

  0.1538462E+00 -0.5303773E-17  0.5270334E-17  0.3641329E-02
    1      -35.841384   1.000000
    2      -14.337391   1.000000
    3      -14.337391   1.000000
    4      -14.313116   1.000000
    5      -14.312142   1.000000
    6      -14.312142   1.000000
    7      -11.068403   1.000000
    8      -11.033601   1.000000
    9      -11.033601   1.000000
   10       -3.256141   1.000000
   11        3.870416   1.000000
   12        4.141199   1.000000
   13        4.141199   1.000000
   14        4.825762   1.000000
   15        4.825762   1.000000
   16        5.905985   1.000000
   17        7.260881   1.000000
   18        7.260881   1.000000
   19        7.604451   1.000000
   20        8.376200   0.952231
   21        8.376200   0.952230
   22        8.456329   0.000000
   23        8.562184   0.000000
   24        8.626637   0.000000

  0.2307692E+00  0.3141868E-17 -0.3192027E-17  0.3641329E-02
    1      -35.840933   1.000000
    2      -14.340538   1.000000
    3      -14.340538   1.000000
    4      -14.313731   1.000000
    5      -14.311627   1.000000
    6      -14.311627   1.000000
    7      -11.097108   1.000000
    8      -11.027529   1.000000
    9      -11.027529   1.000000
   10       -3.063687   1.000000
   11        3.488140   1.000000
   12        4.047627   1.000000
   13        4.047627   1.000000
   14        4.871383   1.000000
   15        4.871383   1.000000
   16        5.515535   1.000000
   17        7.147116   1.000000
   18        7.147116   1.000000
   19        7.623005   1.000000
   20        8.367528   0.998094
   21        8.367528   0.998094
   22        8.597117   0.000000
   23        8.600835   0.000000
   24        8.804108   0.000000

  0.3076923E+00 -0.1060755E-16  0.1054067E-16  0.3641329E-02
    1      -35.840456   1.000000
    2      -14.343890   1.000000
    3      -14.343890   1.000000
    4      -14.314467   1.000000
    5      -14.311047   1.000000
    6      -14.311047   1.000000
    7      -11.126260   1.000000
    8      -11.021119   1.000000
    9      -11.021119   1.000000
   10       -2.853825   1.000000
   11        3.138559   1.000000
   12        3.994632   1.000000
   13        3.994632   1.000000
   14        4.846794   1.000000
   15        4.846794   1.000000
   16        5.176046   1.000000
   17        7.075908   1.000000
   18        7.075908   1.000000
   19        7.664697   1.000000
   20        8.379333   0.889499
   21        8.379333   0.889499
   22        8.568401   0.000000
   23        8.648329   0.000000
   24        8.760446   0.000000

  0.3846154E+00 -0.4015445E-17  0.3931847E-17  0.3641329E-02
    1      -35.840061   1.000000
    2      -14.346678   1.000000
    3      -14.346678   1.000000
    4      -14.315153   1.000000
    5      -14.310550   1.000000
    6      -14.310550   1.000000
    7      -11.149428   1.000000
    8      -11.015827   1.000000
    9      -11.015827   1.000000
   10       -2.674996   1.000000
   11        2.877568   1.000000
   12        3.979292   1.000000
   13        3.979292   1.000000
   14        4.779034   1.000000
   15        4.779034   1.000000
   16        4.938235   1.000000
   17        7.047931   1.000000
   18        7.047931   1.000000
   19        7.729601   1.000000
   20        8.404657   0.009200
   21        8.404657   0.009200
   22        8.683685   0.000000
   23        8.688899   0.000000
   24        8.689939   0.000000

  0.4615385E+00 -0.1799920E-18  0.7967359E-19  0.3641329E-02
    1      -35.839837   1.000000
    2      -14.348245   1.000000
    3      -14.348245   1.000000
    4      -14.315576   1.000000
    5      -14.310265   1.000000
    6      -14.310265   1.000000
    7      -11.162123   1.000000
    8      -11.012847   1.000000
    9      -11.012847   1.000000
   10       -2.571870   1.000000
   11        2.738786   1.000000
   12        3.982917   1.000000
   13        3.982917   1.000000
   14        4.722131   1.000000
   15        4.722131   1.000000
   16        4.818311   1.000000
   17        7.042237   1.000000
   18        7.042237   1.000000
   19        7.781147   1.000000
   20        8.430683   0.000000
   21        8.430683   0.000000
   22        8.635911   0.000000
   23        8.636081   0.000000
   24        8.717854   0.000000

  0.7692308E-01  0.7692308E-01 -0.2825076E-17  0.2730997E-02
    1      -35.841664   1.000000
    2      -14.336564   1.000000
    3      -14.334169   1.000000
    4      -14.312864   1.000000
    5      -14.312402   1.000000
    6      -14.312402   1.000000
    7      -11.043660   1.000000
    8      -11.040586   1.000000
    9      -11.040586   1.000000
   10       -3.375054   1.000000
   11        4.012116   1.000000
   12        4.339933   1.000000
   13        4.339933   1.000000
   14        4.677826   1.000000
   15        4.755135   1.000000
   16        6.236097   1.000000
   17        7.296446   1.000000
   18        7.296446   1.000000
   19        7.670476   1.000000
   20        8.264030   1.000000
   21        8.412668   0.000241
   22        8.412669   0.000241
   23        8.561897   0.000000
   24        8.567796   0.000000

  0.1538462E+00  0.7692308E-01 -0.1105303E-17  0.1092399E-01
    1      -35.841414   1.000000
    2      -14.339025   1.000000
    3      -14.334797   1.000000
    4      -14.313182   1.000000
    5      -14.312152   1.000000
    6      -14.312089   1.000000
    7      -11.059782   1.000000
    8      -11.040020   1.000000
    9      -11.035372   1.000000
   10       -3.273205   1.000000
   11        3.747512   1.000000
   12        4.253005   1.000000
   13        4.294336   1.000000
   14        4.737841   1.000000
   15        4.825516   1.000000
   16        6.019996   1.000000
   17        7.158805   1.000000
   18        7.171371   1.000000
   19        7.797888   1.000000
   20        8.325465   1.000000
   21        8.387221   0.543145
   22        8.408298   0.002037
   23        8.572327   0.000000
   24        8.615979   0.000000

  0.2307692E+00  0.7692308E-01  0.5236894E-17  0.1092399E-01
    1      -35.841010   1.000000
    2      -14.342015   1.000000
    3      -14.336946   1.000000
    4      -14.313646   1.000000
    5      -14.311793   1.000000
    6      -14.311578   1.000000
    7      -11.086140   1.000000
    8      -11.036366   1.000000
    9      -11.028489   1.000000
   10       -3.105656   1.000000
   11        3.459043   1.000000
   12        4.090085   1.000000
   13        4.210394   1.000000
   14        4.797409   1.000000
   15        4.897792   1.000000
   16        5.675179   1.000000
   17        7.011112   1.000000
   18        7.063934   1.000000
   19        7.798988   1.000000
   20        8.361223   0.999923
   21        8.373977   0.976222
   22        8.571538   0.000000
   23        8.574307   0.000000
   24        8.731324   0.000000

  0.3076923E+00  0.7692308E-01  0.3238261E-17  0.1092399E-01
    1      -35.840543   1.000000
    2      -14.344855   1.000000
    3      -14.340101   1.000000
    4      -14.314236   1.000000
    5      -14.311345   1.000000
    6      -14.310981   1.000000
    7      -11.115102   1.000000
    8      -11.030480   1.000000
    9      -11.022405   1.000000
   10       -2.908666   1.000000
   11        3.179045   1.000000
   12        3.971939   1.000000
   13        4.141595   1.000000
   14        4.794907   1.000000
   15        4.911587   1.000000
   16        5.318916   1.000000
   17        6.918344   1.000000
   18        7.007712   1.000000
   19        7.790699   1.000000
   20        8.377071   0.938681
   21        8.378009   0.920894
   22        8.575829   0.000000
   23        8.623721   0.000000
   24        8.748415   0.000000

  0.3846154E+00  0.7692308E-01  0.1050723E-16  0.1092399E-01
    1      -35.840121   1.000000
    2      -14.346904   1.000000
    3      -14.343524   1.000000
    4      -14.314846   1.000000
    5      -14.310889   1.000000
    6      -14.310462   1.000000
    7      -11.140061   1.000000
    8      -11.023715   1.000000
    9      -11.018456   1.000000
   10       -2.726976   1.000000
   11        2.952002   1.000000
   12        3.924971   1.000000
   13        4.089961   1.000000
   14        4.750759   1.000000
   15        4.863099   1.000000
   16        5.037367   1.000000
   17        6.879825   1.000000
   18        6.995642   1.000000
   19        7.813411   1.000000
   20        8.395669   0.138665
   21        8.405308   0.007152
   22        8.576009   0.000000
   23        8.646245   0.000000
   24        8.709329   0.000000

  0.4615385E+00  0.7692308E-01 -0.4885610E-16  0.1092399E-01
    1      -35.839842   1.000000
    2      -14.347709   1.000000
    3      -14.346410   1.000000
    4      -14.315289   1.000000
    5      -14.310549   1.000000
    6      -14.310165   1.000000
    7      -11.156009   1.000000
    8      -11.017614   1.000000
    9      -11.017486   1.000000
   10       -2.603957   1.000000
   11        2.811444   1.000000
   12        3.940012   1.000000
   13        4.037066   1.000000
   14        4.723012   1.000000
   15        4.787278   1.000000
   16        4.867634   1.000000
   17        6.869485   1.000000
   18        7.001911   1.000000
   19        7.851175   1.000000
   20        8.425310   0.000000
   21        8.430977   0.000000
   22        8.572717   0.000000
   23        8.628790   0.000000
   24        8.704349   0.000000

 -0.4615385E+00  0.7692308E-01  0.1020279E-16  0.1092399E-01
    1      -35.839768   1.000000
    2      -14.348099   1.000000
    3      -14.347063   1.000000
    4      -14.315397   1.000000
    5      -14.310397   1.000000
    6      -14.310148   1.000000
    7      -11.160092   1.000000
    8      -11.019659   1.000000
    9      -11.013550   1.000000
   10       -2.570193   1.000000
   11        2.774701   1.000000
   12        3.972026   1.000000
   13        3.994187   1.000000
   14        4.728151   1.000000
   15        4.752744   1.000000
   16        4.824133   1.000000
   17        6.858993   1.000000
   18        7.010641   1.000000
   19        7.866611   1.000000
   20        8.430870   0.000000
   21        8.447904   0.000000
   22        8.569937   0.000000
   23        8.633510   0.000000
   24        8.673574   0.000000

 -0.3846154E+00  0.7692308E-01  0.6350614E-17  0.1092399E-01
    1      -35.839915   1.000000
    2      -14.348225   1.000000
    3      -14.345114   1.000000
    4      -14.315127   1.000000
    5      -14.310506   1.000000
    6      -14.310423   1.000000
    7      -11.151661   1.000000
    8      -11.024426   1.000000
    9      -11.012445   1.000000
   10       -2.634350   1.000000
   11        2.847646   1.000000
   12        3.912598   1.000000
   13        4.061327   1.000000
   14        4.716288   1.000000
   15        4.829540   1.000000
   16        4.910882   1.000000
   17        6.832944   1.000000
   18        7.025823   1.000000
   19        7.843599   1.000000
   20        8.406047   0.005325
   21        8.434460   0.000000
   22        8.570948   0.000000
   23        8.659616   0.000000
   24        8.669083   0.000000

 -0.3076923E+00  0.7692308E-01 -0.3965286E-17  0.1092399E-01
    1      -35.840252   1.000000
    2      -14.346775   1.000000
    3      -14.342288   1.000000
    4      -14.314574   1.000000
    5      -14.310904   1.000000
    6      -14.310837   1.000000
    7      -11.132243   1.000000
    8      -11.030658   1.000000
    9      -11.014561   1.000000
   10       -2.780358   1.000000
   11        3.026821   1.000000
   12        3.886253   1.000000
   13        4.130508   1.000000
   14        4.749419   1.000000
   15        4.910181   1.000000
   16        5.118949   1.000000
   17        6.799823   1.000000
   18        7.066011   1.000000
   19        7.806568   1.000000
   20        8.381894   0.805551
   21        8.402957   0.017125
   22        8.573652   0.000000
   23        8.652632   0.000000
   24        8.713372   0.000000

 -0.2307692E+00  0.7692308E-01 -0.4033001E-18  0.1092399E-01
    1      -35.840701   1.000000
    2      -14.344080   1.000000
    3      -14.339231   1.000000
    4      -14.313933   1.000000
    5      -14.311470   1.000000
    6      -14.311315   1.000000
    7      -11.105577   1.000000
    8      -11.036837   1.000000
    9      -11.019428   1.000000
   10       -2.972253   1.000000
   11        3.296202   1.000000
   12        3.910471   1.000000
   13        4.211052   1.000000
   14        4.777420   1.000000
   15        4.949163   1.000000
   16        5.429829   1.000000
   17        6.798415   1.000000
   18        7.148274   1.000000
   19        7.786896   1.000000
   20        8.369538   0.995461
   21        8.377447   0.931970
   22        8.572503   0.000000
   23        8.616112   0.000000
   24        8.777797   0.000000

 -0.1538462E+00  0.7692308E-01  0.3158587E-17  0.1092399E-01
    1      -35.841158   1.000000
    2      -14.340751   1.000000
    3      -14.336657   1.000000
    4      -14.313365   1.000000
    5      -14.311984   1.000000
    6      -14.311820   1.000000
    7      -11.077572   1.000000
    8      -11.041287   1.000000
    9      -11.025952   1.000000
   10       -3.164692   1.000000
   11        3.621525   1.000000
   12        3.989602   1.000000
   13        4.304697   1.000000
   14        4.753911   1.000000
   15        4.921916   1.000000
   16        5.785379   1.000000
   17        6.892153   1.000000
   18        7.262901   1.000000
   19        7.783363   1.000000
   20        8.367717   0.997926
   21        8.369636   0.995274
   22        8.543872   0.000000
   23        8.569372   0.000000
   24        8.688089   0.000000

 -0.7692308E-01  0.7692308E-01  0.1159954E-17  0.5461994E-02
    1      -35.841519   1.000000
    2      -14.337548   1.000000
    3      -14.335198   1.000000
    4      -14.312960   1.000000
    5      -14.312341   1.000000
    6      -14.312232   1.000000
    7      -11.056058   1.000000
    8      -11.041854   1.000000
    9      -11.032631   1.000000
   10       -3.314597   1.000000
   11        3.947487   1.000000
   12        4.114704   1.000000
   13        4.352217   1.000000
   14        4.710331   1.000000
   15        4.836317   1.000000
   16        6.080403   1.000000
   17        7.124590   1.000000
   18        7.359787   1.000000
   19        7.704759   1.000000
   20        8.334543   1.000000
   21        8.382178   0.794322
   22        8.405915   0.005616
   23        8.564882   0.000000
   24        8.594001   0.000000

  0.1538462E+00  0.1538462E+00 -0.5650151E-17  0.2730997E-02
    1      -35.841244   1.000000
    2      -14.341154   1.000000
    3      -14.333601   1.000000
    4      -14.313592   1.000000
    5      -14.311812   1.000000
    6      -14.311812   1.000000
    7      -11.056262   1.000000
    8      -11.043730   1.000000
    9      -11.043730   1.000000
   10       -3.212523   1.000000
   11        3.491844   1.000000
   12        4.372748   1.000000
   13        4.372748   1.000000
   14        4.714885   1.000000
   15        4.774373   1.000000
   16        6.005766   1.000000
   17        7.047130   1.000000
   18        7.047130   1.000000
   19        7.901936   1.000000
   20        8.322549   1.000000
   21        8.385836   0.619496
   22        8.385836   0.619495
   23        8.593133   0.000000
   24        8.642534   0.000000

  0.2307692E+00  0.1538462E+00 -0.1361459E-16  0.1092399E-01
    1      -35.840911   1.000000
    2      -14.343283   1.000000
    3      -14.334127   1.000000
    4      -14.314047   1.000000
    5      -14.311441   1.000000
    6      -14.311327   1.000000
    7      -11.075947   1.000000
    8      -11.043887   1.000000
    9      -11.038925   1.000000
   10       -3.088591   1.000000
   11        3.264986   1.000000
   12        4.282608   1.000000
   13        4.346898   1.000000
   14        4.756080   1.000000
   15        4.813108   1.000000
   16        5.817230   1.000000
   17        6.871994   1.000000
   18        6.948004   1.000000
   19        7.922126   1.000000
   20        8.359050   0.999979
   21        8.381635   0.815503
   22        8.515203   0.000000
   23        8.603258   0.000000
   24        8.722176   0.000000

  0.3076923E+00  0.1538462E+00 -0.2255212E-16  0.1092399E-01
    1      -35.840491   1.000000
    2      -14.344929   1.000000
    3      -14.336267   1.000000
    4      -14.314446   1.000000
    5      -14.311147   1.000000
    6      -14.310723   1.000000
    7      -11.102573   1.000000
    8      -11.040470   1.000000
    9      -11.033136   1.000000
   10       -2.930294   1.000000
   11        3.096776   1.000000
   12        4.112811   1.000000
   13        4.286382   1.000000
   14        4.772573   1.000000
   15        4.875000   1.000000
   16        5.521999   1.000000
   17        6.686380   1.000000
   18        6.904312   1.000000
   19        7.935838   1.000000
   20        8.372030   0.987985
   21        8.384440   0.692011
   22        8.578584   0.000000
   23        8.604396   0.000000
   24        8.752801   0.000000

  0.3846154E+00  0.1538462E+00 -0.6965985E-17  0.1092399E-01
    1      -35.840084   1.000000
    2      -14.345737   1.000000
    3      -14.339484   1.000000
    4      -14.314751   1.000000
    5      -14.310960   1.000000
    6      -14.310185   1.000000
    7      -11.126989   1.000000
    8      -11.034287   1.000000
    9      -11.030518   1.000000
   10       -2.774271   1.000000
   11        2.994624   1.000000
   12        3.983858   1.000000
   13        4.214287   1.000000
   14        4.756077   1.000000
   15        4.884270   1.000000
   16        5.219546   1.000000
   17        6.578374   1.000000
   18        6.904343   1.000000
   19        7.944097   1.000000
   20        8.399258   0.055471
   21        8.400993   0.032938
   22        8.596053   0.000000
   23        8.600413   0.000000
   24        8.731794   0.000000

  0.4615385E+00  0.1538462E+00 -0.6474504E-18  0.1092399E-01
    1      -35.839779   1.000000
    2      -14.345540   1.000000
    3      -14.342997   1.000000
    4      -14.314921   1.000000
    5      -14.310863   1.000000
    6      -14.309861   1.000000
    7      -11.143970   1.000000
    8      -11.031686   1.000000
    9      -11.026743   1.000000
   10       -2.655643   1.000000
   11        2.945792   1.000000
   12        3.933757   1.000000
   13        4.119597   1.000000
   14        4.756962   1.000000
   15        4.833715   1.000000
   16        5.002970   1.000000
   17        6.529120   1.000000
   18        6.917329   1.000000
   19        7.964365   1.000000
   20        8.426341   0.000000
   21        8.427526   0.000000
   22        8.589657   0.000000
   23        8.605814   0.000000
   24        8.716277   0.000000

 -0.4615385E+00  0.1538462E+00 -0.1373405E-16  0.1092399E-01
    1      -35.839647   1.000000
    2      -14.346014   1.000000
    3      -14.344402   1.000000
    4      -14.314886   1.000000
    5      -14.310848   1.000000
    6      -14.309833   1.000000
    7      -11.150504   1.000000
    8      -11.036158   1.000000
    9      -11.019553   1.000000
   10       -2.599967   1.000000
   11        2.927144   1.000000
   12        3.966105   1.000000
   13        4.006257   1.000000
   14        4.760197   1.000000
   15        4.805916   1.000000
   16        4.917698   1.000000
   17        6.496229   1.000000
   18        6.927166   1.000000
   19        7.984280   1.000000
   20        8.426284   0.000000
   21        8.463872   0.000000
   22        8.567143   0.000000
   23        8.626775   0.000000
   24        8.702193   0.000000

 -0.3846154E+00  0.1538462E+00  0.2755189E-17  0.1092399E-01
    1      -35.839719   1.000000
    2      -14.347848   1.000000
    3      -14.342558   1.000000
    4      -14.314637   1.000000
    5      -14.310910   1.000000
    6      -14.310097   1.000000
    7      -11.145812   1.000000
    8      -11.042566   1.000000
    9      -11.014346   1.000000
   10       -2.619292   1.000000
   11        2.932372   1.000000
   12        3.902399   1.000000
   13        4.061455   1.000000
   14        4.716140   1.000000
   15        4.888458   1.000000
   16        4.964990   1.000000
   17        6.446617   1.000000
   18        6.942127   1.000000
   19        7.983045   1.000000
   20        8.404101   0.011337
   21        8.478083   0.000000
   22        8.554252   0.000000
   23        8.652033   0.000000
   24        8.667340   0.000000

 -0.3076923E+00  0.1538462E+00 -0.1465525E-18  0.1092399E-01
    1      -35.839977   1.000000
    2      -14.348123   1.000000
    3      -14.340399   1.000000
    4      -14.314274   1.000000
    5      -14.311044   1.000000
    6      -14.310565   1.000000
    7      -11.131311   1.000000
    8      -11.048889   1.000000
    9      -11.012309   1.000000
   10       -2.710779   1.000000
   11        2.985607   1.000000
   12        3.836531   1.000000
   13        4.187568   1.000000
   14        4.703348   1.000000
   15        4.968079   1.000000
   16        5.144918   1.000000
   17        6.379053   1.000000
   18        6.984316   1.000000
   19        7.962573   1.000000
   20        8.382389   0.785708
   21        8.445547   0.000000
   22        8.575129   0.000000
   23        8.645195   0.000000
   24        8.674211   0.000000

 -0.2307692E+00  0.1538462E+00 -0.2916461E-18  0.1092399E-01
    1      -35.840364   1.000000
    2      -14.346779   1.000000
    3      -14.338397   1.000000
    4      -14.313926   1.000000
    5      -14.311236   1.000000
    6      -14.311118   1.000000
    7      -11.110831   1.000000
    8      -11.052547   1.000000
    9      -11.013928   1.000000
   10       -2.855347   1.000000
   11        3.118352   1.000000
   12        3.826456   1.000000
   13        4.309575   1.000000
   14        4.704940   1.000000
   15        5.008260   1.000000
   16        5.410810   1.000000
   17        6.351018   1.000000
   18        7.069026   1.000000
   19        7.937438   1.000000
   20        8.370965   0.991965
   21        8.407895   0.002435
   22        8.583078   0.000000
   23        8.623463   0.000000
   24        8.727668   0.000000

 -0.1538462E+00  0.1538462E+00 -0.6900467E-17  0.5461994E-02
    1      -35.840790   1.000000
    2      -14.344133   1.000000
    3      -14.337036   1.000000
    4      -14.313639   1.000000
    5      -14.311629   1.000000
    6      -14.311494   1.000000
    7      -11.090924   1.000000
    8      -11.050299   1.000000
    9      -11.018847   1.000000
   10       -3.019717   1.000000
   11        3.339319   1.000000
   12        3.878874   1.000000
   13        4.379258   1.000000
   14        4.705024   1.000000
   15        4.990625   1.000000
   16        5.647679   1.000000
   17        6.502938   1.000000
   18        7.180026   1.000000
   19        7.900077   1.000000
   20        8.367970   0.997679
   21        8.379322   0.889784
   22        8.578857   0.000000
   23        8.596429   0.000000
   24        8.749909   0.000000

  0.2307692E+00  0.2307692E+00 -0.8475227E-17  0.2730997E-02
    1      -35.840661   1.000000
    2      -14.344023   1.000000
    3      -14.332800   1.000000
    4      -14.314638   1.000000
    5      -14.310883   1.000000
    6      -14.310883   1.000000
    7      -11.076670   1.000000
    8      -11.048367   1.000000
    9      -11.048367   1.000000
   10       -3.019001   1.000000
   11        3.098098   1.000000
   12        4.398765   1.000000
   13        4.398765   1.000000
   14        4.693922   1.000000
   15        4.768372   1.000000
   16        5.790311   1.000000
   17        6.857218   1.000000
   18        6.857218   1.000000
   19        7.902925   1.000000
   20        8.386046   0.608154
   21        8.386046   0.608153
   22        8.483291   0.000000
   23        8.633940   0.000000
   24        8.846484   0.000000

  0.3076923E+00  0.2307692E+00 -0.1412320E-16  0.1092399E-01
    1      -35.840316   1.000000
    2      -14.344063   1.000000
    3      -14.333304   1.000000
    4      -14.315111   1.000000
    5      -14.310460   1.000000
    6      -14.310311   1.000000
    7      -11.095380   1.000000
    8      -11.048796   1.000000
    9      -11.046903   1.000000
   10       -2.916390   1.000000
   11        3.014145   1.000000
   12        4.287266   1.000000
   13        4.376656   1.000000
   14        4.729454   1.000000
   15        4.791884   1.000000
   16        5.623124   1.000000
   17        6.689413   1.000000
   18        6.822215   1.000000
   19        7.967198   1.000000
   20        8.376337   0.950275
   21        8.392271   0.272290
   22        8.520405   0.000000
   23        8.648305   0.000000
   24        8.797030   0.000000

  0.3846154E+00  0.2307692E+00  0.5170015E-17  0.1092399E-01
    1      -35.839955   1.000000
    2      -14.343397   1.000000
    3      -14.335494   1.000000
    4      -14.315320   1.000000
    5      -14.310328   1.000000
    6      -14.309761   1.000000
    7      -11.116378   1.000000
    8      -11.046002   1.000000
    9      -11.045094   1.000000
   10       -2.806298   1.000000
   11        3.022654   1.000000
   12        4.114605   1.000000
   13        4.312423   1.000000
   14        4.796527   1.000000
   15        4.804562   1.000000
   16        5.388031   1.000000
   17        6.447743   1.000000
   18        6.829217   1.000000
   19        8.032614   1.000000
   20        8.388459   0.473380
   21        8.405969   0.005495
   22        8.543349   0.000000
   23        8.646891   0.000000
   24        8.765190   0.000000

  0.4615385E+00  0.2307692E+00  0.3171382E-17  0.1092399E-01
    1      -35.839662   1.000000
    2      -14.342213   1.000000
    3      -14.338814   1.000000
    4      -14.315191   1.000000
    5      -14.310514   1.000000
    6      -14.309417   1.000000
    7      -11.131352   1.000000
    8      -11.049541   1.000000
    9      -11.038119   1.000000
   10       -2.712411   1.000000
   11        3.095304   1.000000
   12        3.992530   1.000000
   13        4.208036   1.000000
   14        4.813412   1.000000
   15        4.821941   1.000000
   16        5.166901   1.000000
   17        6.263787   1.000000
   18        6.842129   1.000000
   19        8.060821   1.000000
   20        8.412095   0.000326
   21        8.430568   0.000000
   22        8.570982   0.000000
   23        8.632683   0.000000
   24        8.732424   0.000000

 -0.4615385E+00  0.2307692E+00  0.2430398E-16  0.1092399E-01
    1      -35.839504   1.000000
    2      -14.342463   1.000000
    3      -14.340815   1.000000
    4      -14.314726   1.000000
    5      -14.310943   1.000000
    6      -14.309374   1.000000
    7      -11.137113   1.000000
    8      -11.056940   1.000000
    9      -11.029461   1.000000
   10       -2.651544   1.000000
   11        3.159204   1.000000
   12        3.951019   1.000000
   13        4.075937   1.000000
   14        4.764347   1.000000
   15        4.865069   1.000000
   16        5.064609   1.000000
   17        6.146532   1.000000
   18        6.843698   1.000000
   19        8.078243   1.000000
   20        8.414857   0.000072
   21        8.465540   0.000000
   22        8.601568   0.000000
   23        8.613615   0.000000
   24        8.713460   0.000000

 -0.3846154E+00  0.2307692E+00 -0.7303767E-17  0.1092399E-01
    1      -35.839515   1.000000
    2      -14.345642   1.000000
    3      -14.339530   1.000000
    4      -14.314062   1.000000
    5      -14.311445   1.000000
    6      -14.309622   1.000000
    7      -11.133571   1.000000
    8      -11.065637   1.000000
    9      -11.021080   1.000000
   10       -2.634063   1.000000
   11        3.140384   1.000000
   12        3.946869   1.000000
   13        4.001434   1.000000
   14        4.715542   1.000000
   15        4.938288   1.000000
   16        5.094323   1.000000
   17        6.062997   1.000000
   18        6.847582   1.000000
   19        8.082740   1.000000
   20        8.396554   0.112831
   21        8.504797   0.000000
   22        8.556064   0.000000