       N       E                     dE             d eps       ncg     rms          rms(c)
DAV:   1     0.427073136978E+03    0.42707E+03   -0.22187E+04  4032   0.223E+03
DAV:   2     0.269084719602E+02   -0.40016E+03   -0.39324E+03  4664   0.492E+02
DAV:   3    -0.202987821294E+02   -0.47207E+02   -0.46162E+02  5032   0.172E+02
DAV:   4    -0.253692373953E+02   -0.50705E+01   -0.50397E+01  7656   0.436E+01
DAV:   5    -0.255609008169E+02   -0.19166E+00   -0.19129E+00  5696   0.727E+00    0.149E+01
DAV:   6    -0.361734644350E+02   -0.10613E+02   -0.25347E+02  6040   0.968E+01    0.222E+01
DAV:   7    -0.250366852664E+02    0.11137E+02   -0.27657E+01  5768   0.285E+01    0.124E+01
DAV:   8    -0.243558115217E+02    0.68087E+00   -0.46766E+01  6024   0.243E+01    0.994E+00
DAV:   9    -0.233433193992E+02    0.10125E+01   -0.10250E+01  6232   0.177E+01    0.209E+00
DAV:  10    -0.234607912504E+02   -0.11747E+00   -0.20081E+00  6176   0.561E+00    0.291E+00
DAV:  11    -0.233611999221E+02    0.99591E-01   -0.55702E-01  5952   0.323E+00    0.865E-01
DAV:  12    -0.233576569419E+02    0.35430E-02   -0.17470E-01  7336   0.154E+00    0.490E-01
DAV:  13    -0.233609943791E+02   -0.33374E-02   -0.11242E-02  6456   0.417E-01    0.670E-01
DAV:  14    -0.233562874321E+02    0.47069E-02   -0.49931E-02  6096   0.976E-01    0.884E-02
DAV:  15    -0.233562866691E+02    0.76307E-06   -0.20624E-03  6952   0.235E-01    0.241E-02
DAV:  16    -0.233562922482E+02   -0.55791E-05   -0.69574E-05  5672   0.383E-02    0.214E-02
DAV:  17    -0.233562899573E+02    0.22909E-05   -0.16697E-05  6360   0.207E-02    0.518E-03
DAV:  18    -0.233562901817E+02   -0.22442E-06   -0.92496E-06  6792   0.150E-02    0.726E-03
DAV:  19    -0.233562902521E+02   -0.70370E-07   -0.43087E-07  4248   0.371E-03
   1 F= -.23356290E+02 E0= -.23355204E+02  d E =-.217272E-02
