 vasp.6.0.8 29Jun18 (build Jun 13 2019 12:54:44) complex

 executed on      IFC18_CrayMPICH date 2021.12.05  14:21:49
 running   64 mpi-ranks, with    1 threads/rank
 distrk:  each k-point on   16 cores,    4 groups
 distr:  one band on NCORES_PER_BAND=   4 cores,    4 groups


--------------------------------------------------------------------------------------------------------


 INCAR:
 POTCAR:    PAW_PBE U 06Sep2000
 POTCAR:    PAW_PBE Bi_d 06Sep2000
 POTCAR:    PAW_PBE Pt 04Feb2005
 POTCAR:    PAW_PBE U 06Sep2000
   VRHFIN =U:  [Xe,5d,4f]
   LEXCH  = PE
   EATOM  =  1405.3058 eV,  103.2871 Ry

   TITEL  = PAW_PBE U 06Sep2000
   LULTRA =        F    use ultrasoft PP ?
   IUNSCR =        1    unscreen: 0-lin 1-nonlin 2-no
   RPACOR =    2.200    partial core radius
   POMASS =  238.029; ZVAL   =   14.000    mass and valenz
   RCORE  =    2.800    outmost cutoff radius
   RWIGS  =    3.000; RWIGS  =    1.588    wigner-seitz radius (au A)
   ENMAX  =  252.502; ENMIN  =  189.376 eV
   RCLOC  =    1.811    cutoff for local pot
   LCOR   =        T    correct aug charges
   LPAW   =        T    paw PP
   EAUG   =  526.410
   DEXC   =    0.000
   RMAX   =    2.863    core radius for proj-oper
   RAUG   =    1.300    factor for augmentation sphere
   RDEP   =    2.950    radius for radial grids
   RDEPT  =    2.270    core radius for aug-charge

   Atomic configuration
   18 entries
     n  l   j            E        occ.
     1  0  0.50   -116038.1941   2.0000
     2  0  0.50    -21694.8835   2.0000
     2  1  1.50    -18009.1553   6.0000
     3  0  0.50     -5481.2929   2.0000
     3  1  1.50     -4458.9283   6.0000
     3  2  2.50     -3575.9978  10.0000
     4  0  0.50     -1400.5351   2.0000
     4  1  1.50     -1066.7807   6.0000
     4  2  2.50      -732.1336  10.0000
     4  3  3.50      -377.4393  14.0000
     5  0  0.50      -314.7366   2.0000
     5  1  1.50      -211.6057   6.0000
     5  2  2.50      -103.2045  10.0000
     6  0  0.50       -50.6026   2.0000
     7  0  0.50        -4.5896   2.0000
     6  1  1.50       -25.2884   6.0000
     6  2  1.50        -3.1039   2.0000
     5  3  2.50        -6.3670   2.0000
   Description
     l       E           TYP  RCUT    TYP  RCUT
     0    -50.6026097     23  2.600
     0     -4.5896371     23  2.600
     1    -25.2883770     23  2.500
     1     27.2116520     23  2.500
     2     -3.1038686     23  2.500
     2      0.8290654     23  2.500
     3     -6.3670133     23  2.800
     3     -7.7275959     23  2.800
  local pseudopotential read in
  partial core-charges read in
  partial kinetic energy density read in
  atomic valenz-charges read in
  non local Contribution for L=           0  read in
    real space projection operators read in
  non local Contribution for L=           0  read in
    real space projection operators read in
  non local Contribution for L=           1  read in
    real space projection operators read in
  non local Contribution for L=           1  read in
    real space projection operators read in
  non local Contribution for L=           2  read in
    real space projection operators read in
  non local Contribution for L=           2  read in
    real space projection operators read in
  non local Contribution for L=           3  read in
    real space projection operators read in
  non local Contribution for L=           3  read in
    real space projection operators read in
    PAW grid and wavefunctions read in

   number of l-projection  operators is LMAX  =           8
   number of lm-projection operators is LMMAX =          32

 POTCAR:    PAW_PBE Bi_d 06Sep2000
   VRHFIN =Bi:
   LEXCH  = PE
   EATOM  =  1959.2045 eV,  143.9975 Ry

   TITEL  = PAW_PBE Bi_d 06Sep2000
   LULTRA =        F    use ultrasoft PP ?
   IUNSCR =        1    unscreen: 0-lin 1-nonlin 2-no
   RPACOR =    2.200    partial core radius
   POMASS =  208.980; ZVAL   =   15.000    mass and valenz
   RCORE  =    2.500    outmost cutoff radius
   RWIGS  =    3.090; RWIGS  =    1.635    wigner-seitz radius (au A)
   ENMAX  =  242.839; ENMIN  =  182.129 eV
   ICORE  =        3    local potential
   LCOR   =        T    correct aug charges
   LPAW   =        T    paw PP
   EAUG   =  442.899
   DEXC   =    0.000
   RMAX   =    2.551    core radius for proj-oper
   RAUG   =    1.300    factor for augmentation sphere
   RDEP   =    2.650    radius for radial grids
   RDEPT  =    2.039    core radius for aug-charge

   Atomic configuration
   16 entries
     n  l   j            E        occ.
     1  0  0.50    -90639.6581   2.0000
     2  0  0.50    -16282.4666   2.0000
     2  1  1.50    -13922.8286   6.0000
     3  0  0.50     -3930.4763   2.0000
     3  1  1.50     -3256.7013   6.0000
     3  2  2.50     -2581.6168  10.0000
     4  0  0.50      -902.2614   2.0000
     4  1  1.50      -681.5915   6.0000
     4  2  2.50      -429.8249  10.0000
     4  3  3.50      -152.6004  14.0000
     5  0  0.50      -157.7156   2.0000
     5  1  1.50       -95.8054   6.0000
     5  2  2.50       -27.0806  10.0000
     6  0  0.50       -14.4732   2.0000
     6  1  1.50        -4.5702   3.0000
     5  3  2.50        -2.7212   0.0000
   Description
     l       E           TYP  RCUT    TYP  RCUT
     2    -27.0805982     23  2.500
     2     -1.3605826     23  2.500
     0    -14.4732271     23  2.500
     0      6.8029130     23  2.500
     1     -4.5701651     23  2.500
     1     13.6058260     23  2.500
     3     -1.3605826      7  2.500
  local pseudopotential read in
  partial core-charges read in
  partial kinetic energy density read in
  atomic valenz-charges read in
  non local Contribution for L=           2  read in
    real space projection operators read in
  non local Contribution for L=           2  read in
    real space projection operators read in
  non local Contribution for L=           0  read in
    real space projection operators read in
  non local Contribution for L=           0  read in
    real space projection operators read in
  non local Contribution for L=           1  read in
    real space projection operators read in
  non local Contribution for L=           1  read in
    real space projection operators read in
    PAW grid and wavefunctions read in

   number of l-projection  operators is LMAX  =           6
   number of lm-projection operators is LMMAX =          18

 POTCAR:    PAW_PBE Pt 04Feb2005
   VRHFIN =Pt: s1d9
   LEXCH  = PE
   EATOM  =   729.1176 eV,   53.5886 Ry

   TITEL  = PAW_PBE Pt 04Feb2005
   LULTRA =        F    use ultrasoft PP ?
   IUNSCR =        1    unscreen: 0-lin 1-nonlin 2-no
   RPACOR =    2.330    partial core radius
   POMASS =  195.080; ZVAL   =   10.000    mass and valenz
   RCORE  =    2.600    outmost cutoff radius
   RWIGS  =    2.750; RWIGS  =    1.455    wigner-seitz radius (au A)
   ENMAX  =  230.283; ENMIN  =  172.712 eV
   ICORE  =        3    local potential
   LCOR   =        T    correct aug charges
   LPAW   =        T    paw PP
   EAUG   =  358.966
   DEXC   =    0.000
   RMAX   =    2.658    core radius for proj-oper
   RAUG   =    1.300    factor for augmentation sphere
   RDEP   =    2.761    radius for radial grids
   RDEPT  =    2.203    core radius for aug-charge

   Atomic configuration
   16 entries
     n  l   j            E        occ.
     1  0  0.50    -78401.1885   2.0000
     2  0  0.50    -13770.7750   2.0000
     2  1  1.50    -11931.0468   6.0000
     3  0  0.50     -3234.7234   2.0000
     3  1  1.50     -2699.2216   6.0000
     3  2  2.50     -2119.5714  10.0000
     4  0  0.50      -695.1528   2.0000
     4  1  1.50      -519.6034   6.0000
     4  2  2.50      -306.6786  10.0000
     4  3  3.50       -70.1041  14.0000
     5  0  0.50      -101.7747   2.0000
     5  1  1.50       -55.9873   6.0000
     5  2  2.50        -6.1423   9.0000
     6  0  0.50        -5.6573   1.0000
     6  1  1.50        -6.8029   0.0000
     5  3  2.50        -1.3606   0.0000
   Description
     l       E           TYP  RCUT    TYP  RCUT
     2     -6.1423404     23  2.500
     2     -7.5029230     23  2.500
     0     -5.6573207     23  2.500
     0      0.7416693     23  2.500
     1     -2.7211652     23  2.600
     1     20.4087390     23  2.600
     3     -1.3605826     23  2.500
  local pseudopotential read in
  partial core-charges read in
  partial kinetic energy density read in
  atomic valenz-charges read in
  non local Contribution for L=           2  read in
    real space projection operators read in
  non local Contribution for L=           2  read in
    real space projection operators read in
  non local Contribution for L=           0  read in
    real space projection operators read in
  non local Contribution for L=           0  read in
    real space projection operators read in
  non local Contribution for L=           1  read in
    real space projection operators read in
  non local Contribution for L=           1  read in
    real space projection operators read in
    PAW grid and wavefunctions read in

   number of l-projection  operators is LMAX  =           6
   number of lm-projection operators is LMMAX =          18

 WARNING: PSMAXN for non-local potential too small
          PSMAXN should be >   13.5545592237991       NTYP=           1

 -----------------------------------------------------------------------------
|                                                                             |
|  ADVICE TO THIS USER RUNNING 'VASP/VAMP'   (HEAR YOUR MASTER'S VOICE ...):  |
|                                                                             |
|      You enforced a specific xc-type in the INCAR file,                     |
|      a different type was found on the POTCAR file                          |
|          I HOPE YOU KNOW, WHAT YOU ARE  DOING                               |
|                                                                             |
 -----------------------------------------------------------------------------

  PAW_PBE U 06Sep2000                   :
 energy of atom  1       EATOM=-1405.3058
 kinetic energy error for atom=    0.0006 (will be added to EATOM!!)
  PAW_PBE Bi_d 06Sep2000                :
 energy of atom  2       EATOM=-1959.2045
 kinetic energy error for atom=    0.0012 (will be added to EATOM!!)
  PAW_PBE Pt 04Feb2005                  :
 energy of atom  3       EATOM= -729.1176
 kinetic energy error for atom=    0.0010 (will be added to EATOM!!)


 POSCAR: U1 Bi1 Pt1
  positions in direct lattice
  No initial velocities read in
 exchange correlation table for  LEXCH =       14
   RHO(1)=    0.500       N(1)  =     2000
   RHO(2)=  100.500       N(2)  =     4000



--------------------------------------------------------------------------------------------------------


 ion  position               nearest neighbor table
   1  0.250  0.250  0.250-   3 3.00   3 3.00   3 3.00   3 3.00   2 3.47   2 3.47   2 3.47   2 3.47
                             2 3.47   2 3.47
   2  0.750  0.750  0.750-   3 3.00   3 3.00   3 3.00   3 3.00   1 3.47   1 3.47   1 3.47   1 3.47
                             1 3.47   1 3.47
   3  0.000  0.000  0.000-   2 3.00   2 3.00   2 3.00   1 3.00   2 3.00   1 3.00   1 3.00   1 3.00


  LATTYP: Found a face centered cubic cell.
 ALAT       =     6.9315070441

  Lattice vectors:

 A1 = (   0.0000000000,   3.4657535220,   3.4657535220)
 A2 = (   3.4657535220,   0.0000000000,   3.4657535220)
 A3 = (   3.4657535220,   3.4657535220,   0.0000000000)


Analysis of symmetry for initial positions (statically):
=====================================================================
 Subroutine PRICEL returns:
 Original cell was already a primitive cell.


 Routine SETGRP: Setting up the symmetry group for a
 face centered cubic supercell.


 Subroutine GETGRP returns: Found 24 space group operations
 (whereof 24 operations were pure point group operations)
 out of a pool of 48 trial point group operations.


The static configuration has the point symmetry T_d .


Analysis of symmetry for dynamics (positions and initial velocities):
=====================================================================
 Subroutine PRICEL returns:
 Original cell was already a primitive cell.


 Routine SETGRP: Setting up the symmetry group for a
 face centered cubic supercell.


 Subroutine GETGRP returns: Found 24 space group operations
 (whereof 24 operations were pure point group operations)
 out of a pool of 48 trial point group operations.


The dynamic configuration has the point symmetry T_d .


 Subroutine INISYM returns: Found 24 space group operations
 (whereof 24 operations are pure point group operations),
 and found     1 'primitive' translations


----------------------------------------------------------------------------------------

                                     Primitive cell

  volume of cell :      83.2574

  direct lattice vectors                    reciprocal lattice vectors
     0.000000000  3.465753522  3.465753522    -0.144268771  0.144268771  0.144268771
     3.465753522  0.000000000  3.465753522     0.144268771 -0.144268771  0.144268771
     3.465753522  3.465753522  0.000000000     0.144268771  0.144268771 -0.144268771

  length of vectors
     4.901315635  4.901315635  4.901315635     0.249880841  0.249880841  0.249880841

  position of ions in fractional coordinates (direct lattice)
     0.250000000  0.250000000  0.250000000
     0.750000000  0.750000000  0.750000000
     0.000000000  0.000000000  0.000000000

  ion indices of the primitive-cell ions
   primitive index   ion index
                 1           1
                 2           2
                 3           3

----------------------------------------------------------------------------------------



 KPOINTS: KPOINTS

Automatic generation of k-mesh.
Space group operators:
 irot       det(A)        alpha          n_x          n_y          n_z        tau_x        tau_y        tau_z
    1     1.000000     0.000000     1.000000     0.000000     0.000000     0.000000     0.000000     0.000000
    2     1.000000   120.000000    -0.577350    -0.577350    -0.577350     0.000000     0.000000     0.000000
    3     1.000000   120.000000     0.577350     0.577350     0.577350     0.000000     0.000000     0.000000
    4    -1.000000    90.000000     0.000000     0.000000    -1.000000     0.000000     0.000000     0.000000
    5    -1.000000   180.000000    -0.000000     0.707107     0.707107     0.000000     0.000000     0.000000
    6    -1.000000    90.000000     0.000000     1.000000     0.000000     0.000000     0.000000     0.000000
    7     1.000000   180.000000    -0.000000     0.000000    -1.000000     0.000000     0.000000     0.000000
    8     1.000000   120.000000    -0.577350     0.577350     0.577350     0.000000     0.000000     0.000000
    9     1.000000   120.000000    -0.577350     0.577350    -0.577350     0.000000     0.000000     0.000000
   10    -1.000000    90.000000     0.000000     0.000000     1.000000     0.000000     0.000000     0.000000
   11    -1.000000    90.000000    -1.000000    -0.000000     0.000000     0.000000     0.000000     0.000000
   12    -1.000000   180.000000     0.707107     0.000000     0.707107     0.000000     0.000000     0.000000
   13     1.000000   120.000000     0.577350    -0.577350     0.577350     0.000000     0.000000     0.000000
   14     1.000000   120.000000    -0.577350    -0.577350     0.577350     0.000000     0.000000     0.000000
   15     1.000000   180.000000     1.000000     0.000000     0.000000     0.000000     0.000000     0.000000
   16    -1.000000    90.000000     0.000000    -1.000000     0.000000     0.000000     0.000000     0.000000
   17    -1.000000   180.000000     0.707107     0.707107     0.000000     0.000000     0.000000     0.000000
   18    -1.000000    90.000000     1.000000     0.000000    -0.000000     0.000000     0.000000     0.000000
   19     1.000000   120.000000     0.577350    -0.577350    -0.577350     0.000000     0.000000     0.000000
   20     1.000000   180.000000     0.000000    -1.000000     0.000000     0.000000     0.000000     0.000000
   21     1.000000   120.000000     0.577350     0.577350    -0.577350     0.000000     0.000000     0.000000
   22    -1.000000   180.000000     0.000000    -0.707107     0.707107     0.000000     0.000000     0.000000
   23    -1.000000   180.000000     0.707107    -0.707107    -0.000000     0.000000     0.000000     0.000000
   24    -1.000000   180.000000     0.707107     0.000000    -0.707107     0.000000     0.000000     0.000000

 Subroutine IBZKPT returns following result:
 ===========================================

 Found     84 irreducible k-points:

 Following reciprocal coordinates:
            Coordinates               Weight
  0.000000  0.000000  0.000000      1.000000
  0.076923 -0.000000 -0.000000      8.000000
  0.153846 -0.000000  0.000000      8.000000
  0.230769  0.000000 -0.000000      8.000000
  0.307692 -0.000000  0.000000      8.000000
  0.384615 -0.000000  0.000000      8.000000
  0.461538 -0.000000  0.000000      8.000000
  0.076923  0.076923 -0.000000      6.000000
  0.153846  0.076923 -0.000000     24.000000
  0.230769  0.076923  0.000000     24.000000
  0.307692  0.076923  0.000000     24.000000
  0.384615  0.076923  0.000000     24.000000
  0.461538  0.076923 -0.000000     24.000000
 -0.461538  0.076923  0.000000     24.000000
 -0.384615  0.076923  0.000000     24.000000
 -0.307692  0.076923 -0.000000     24.000000
 -0.230769  0.076923 -0.000000     24.000000
 -0.153846  0.076923  0.000000     24.000000
 -0.076923  0.076923  0.000000     12.000000
  0.153846  0.153846 -0.000000      6.000000
  0.230769  0.153846 -0.000000     24.000000
  0.307692  0.153846 -0.000000     24.000000
  0.384615  0.153846 -0.000000     24.000000
  0.461538  0.153846 -0.000000     24.000000
 -0.461538  0.153846 -0.000000     24.000000
 -0.384615  0.153846  0.000000     24.000000
 -0.307692  0.153846 -0.000000     24.000000
 -0.230769  0.153846 -0.000000     24.000000
 -0.153846  0.153846 -0.000000     12.000000
  0.230769  0.230769 -0.000000      6.000000
  0.307692  0.230769 -0.000000     24.000000
  0.384615  0.230769  0.000000     24.000000
  0.461538  0.230769  0.000000     24.000000
 -0.461538  0.230769  0.000000     24.000000
 -0.384615  0.230769 -0.000000     24.000000
 -0.307692  0.230769  0.000000     24.000000
 -0.230769  0.230769  0.000000     12.000000
  0.307692  0.307692 -0.000000      6.000000
  0.384615  0.307692 -0.000000     24.000000
  0.461538  0.307692 -0.000000     24.000000
 -0.461538  0.307692 -0.000000     24.000000
 -0.384615  0.307692  0.000000     24.000000
 -0.307692  0.307692 -0.000000     12.000000
  0.384615  0.384615 -0.000000      6.000000
  0.461538  0.384615 -0.000000     24.000000
 -0.461538  0.384615 -0.000000     24.000000
 -0.384615  0.384615 -0.000000     12.000000
  0.461538  0.461538 -0.000000      6.000000
 -0.461538  0.461538 -0.000000     12.000000
  0.230769  0.153846  0.076923     24.000000
  0.307692  0.153846  0.076923     48.000000
  0.384615  0.153846  0.076923     48.000000
  0.461538  0.153846  0.076923     48.000000
 -0.461538  0.153846  0.076923     48.000000
  0.307692  0.230769  0.076923     24.000000
  0.384615  0.230769  0.076923     48.000000
  0.461538  0.230769  0.076923     48.000000
 -0.461538  0.230769  0.076923     48.000000
 -0.384615  0.230769  0.076923     48.000000
 -0.307692  0.230769  0.076923     48.000000
 -0.230769  0.230769  0.076923     48.000000
 -0.153846  0.230769  0.076923     24.000000
  0.384615  0.307692  0.076923     24.000000
  0.461538  0.307692  0.076923     48.000000
 -0.461538  0.307692  0.076923     48.000000
 -0.384615  0.307692  0.076923     48.000000
 -0.307692  0.307692  0.076923     48.000000
 -0.230769  0.307692  0.076923     24.000000
  0.461538  0.384615  0.076923     24.000000
 -0.461538  0.384615  0.076923     48.000000
 -0.384615  0.384615  0.076923     48.000000
 -0.307692  0.384615  0.076923     24.000000
 -0.461538  0.461538  0.076923     24.000000
 -0.384615  0.461538  0.076923     24.000000
  0.461538  0.307692  0.153846     24.000000
 -0.461538  0.307692  0.153846     48.000000
 -0.384615  0.307692  0.153846     48.000000
 -0.461538  0.384615  0.153846     24.000000
 -0.384615  0.384615  0.153846     48.000000
 -0.307692  0.384615  0.153846     48.000000
 -0.230769  0.384615  0.153846     24.000000
 -0.384615  0.461538  0.153846     24.000000
 -0.307692  0.461538  0.153846     24.000000
 -0.307692  0.461538  0.230769     24.000000

 Following cartesian coordinates:
            Coordinates               Weight
  0.000000  0.000000  0.000000      1.000000
 -0.011593  0.011593  0.011593      8.000000
 -0.023186  0.023186  0.023186      8.000000
 -0.034779  0.034779  0.034779      8.000000
 -0.046372  0.046372  0.046372      8.000000
 -0.057965  0.057965  0.057965      8.000000
 -0.069558  0.069558  0.069558      8.000000
 -0.000000  0.000000  0.023186      6.000000
 -0.011593  0.011593  0.034779     24.000000
 -0.023186  0.023186  0.046372     24.000000
 -0.034779  0.034779  0.057965     24.000000
 -0.046372  0.046372  0.069558     24.000000
 -0.057965  0.057965  0.081151     24.000000
  0.081151 -0.081151 -0.057965     24.000000
  0.069558 -0.069558 -0.046372     24.000000
  0.057965 -0.057965 -0.034779     24.000000
  0.046372 -0.046372 -0.023186     24.000000
  0.034779 -0.034779 -0.011593     24.000000
  0.023186 -0.023186  0.000000     12.000000
  0.000000 -0.000000  0.046372      6.000000
 -0.011593  0.011593  0.057965     24.000000
 -0.023186  0.023186  0.069558     24.000000
 -0.034779  0.034779  0.081151     24.000000
 -0.046372  0.046372  0.092744     24.000000
  0.092744 -0.092744 -0.046372     24.000000
  0.081151 -0.081151 -0.034779     24.000000
  0.069558 -0.069558 -0.023186     24.000000
  0.057965 -0.057965 -0.011593     24.000000
  0.046372 -0.046372  0.000000     12.000000
  0.000000 -0.000000  0.069558      6.000000
 -0.011593  0.011593  0.081151     24.000000
 -0.023186  0.023186  0.092744     24.000000
 -0.034779  0.034779  0.104337     24.000000
  0.104337 -0.104337 -0.034779     24.000000
  0.092744 -0.092744 -0.023186     24.000000
  0.081151 -0.081151 -0.011593     24.000000
  0.069558 -0.069558  0.000000     12.000000
  0.000000 -0.000000  0.092744      6.000000
 -0.011593  0.011593  0.104337     24.000000
 -0.023186  0.023186  0.115930     24.000000
  0.115930 -0.115930 -0.023186     24.000000
  0.104337 -0.104337 -0.011593     24.000000
  0.092744 -0.092744  0.000000     12.000000
  0.000000 -0.000000  0.115930      6.000000
 -0.011593  0.011593  0.127523     24.000000
  0.127523 -0.127523 -0.011593     24.000000
  0.115930 -0.115930 -0.000000     12.000000
  0.000000 -0.000000  0.139116      6.000000
  0.139116 -0.139116  0.000000     12.000000
 -0.000000  0.023186  0.046372     24.000000
 -0.011593  0.034779  0.057965     48.000000
 -0.023186  0.046372  0.069558     48.000000
 -0.034779  0.057965  0.081151     48.000000
  0.104337 -0.081151 -0.057965     48.000000
  0.000000  0.023186  0.069558     24.000000
 -0.011593  0.034779  0.081151     48.000000
 -0.023186  0.046372  0.092744     48.000000
  0.115930 -0.092744 -0.046372     48.000000
  0.104337 -0.081151 -0.034779     48.000000
  0.092744 -0.069558 -0.023186     48.000000
  0.081151 -0.057965 -0.011593     48.000000
  0.069558 -0.046372  0.000000     24.000000
 -0.000000  0.023186  0.092744     24.000000
 -0.011593  0.034779  0.104337     48.000000
  0.127523 -0.104337 -0.034779     48.000000
  0.115930 -0.092744 -0.023186     48.000000
  0.104337 -0.081151 -0.011593     48.000000
  0.092744 -0.069558 -0.000000     24.000000
  0.000000  0.023186  0.115930     24.000000
  0.139116 -0.115930 -0.023186     48.000000
  0.127523 -0.104337 -0.011593     48.000000
  0.115930 -0.092744  0.000000     24.000000
  0.150709 -0.127523 -0.011593     24.000000
  0.139116 -0.115930 -0.000000     24.000000
 -0.000000  0.046372  0.092744     24.000000
  0.139116 -0.092744 -0.046372     48.000000
  0.127523 -0.081151 -0.034779     48.000000
  0.150709 -0.104337 -0.034779     24.000000
  0.139116 -0.092744 -0.023186     48.000000
  0.127523 -0.081151 -0.011593     48.000000
  0.115930 -0.069558  0.000000     24.000000
  0.150709 -0.104337 -0.011593     24.000000
  0.139116 -0.092744  0.000000     24.000000
  0.150709 -0.081151 -0.011593     24.000000



--------------------------------------------------------------------------------------------------------




 Dimension of arrays:
   k-points           NKPTS =     84   k-points in BZ     NKDIM =     84   number of bands    NBANDS=     24
   number of dos      NEDOS =    301   number of ions     NIONS =      3
   non local maximal  LDIM  =      8   non local SUM 2l+1 LMDIM =     32
   total plane-waves  NPLWV =  74088
   max r-space proj   IRMAX =      1   max aug-charges    IRDMAX= 434345
   dimension x,y,z NGX =    42 NGY =   42 NGZ =   42
   dimension x,y,z NGXF=    84 NGYF=   84 NGZF=   84
   support grid    NGXF=   168 NGYF=  168 NGZF=  168
   ions per type =               1   1   1
   NGX,Y,Z   is equivalent  to a cutoff of  14.25, 14.25, 14.25 a.u.
   NGXF,Y,Z  is equivalent  to a cutoff of  28.49, 28.49, 28.49 a.u.

 SYSTEM =  unknown system
 POSCAR =  U1 Bi1 Pt1

 Startparameter for this run:
   NWRITE =      2    write-flag & timer
   PREC   = acc       normal or accurate (medium, high low for compatibility)
   ISTART =      0    job   : 0-new  1-cont  2-samecut
   ICHARG =      2    charge: 1-file 2-atom 10-const
   ISPIN  =      1    spin polarized calculation?
   LNONCOLLINEAR =      F non collinear calculations
   LSORBIT =      F    spin-orbit coupling
   INIWAV =      1    electr: 0-lowe 1-rand  2-diag
   LASPH  =      F    aspherical Exc in radial PAW
   METAGGA=      F    non-selfconsistent MetaGGA calc.

 Electronic Relaxation 1
   ENCUT  =  700.0 eV  51.45 Ry    7.17 a.u.  10.57 10.57 10.57*2*pi/ulx,y,z
   ENINI  =  700.0     initial cutoff
   ENAUG  =  526.4 eV  augmentation charge cutoff
   NELM   =     60;   NELMIN=  5; NELMDL= -5     # of ELM steps
   EDIFF  = 0.1E-06   stopping-criterion for ELM
   LREAL  =      F    real-space projection
   NLSPLINE    = F    spline interpolate recip. space projectors
   LCOMPAT=      F    compatible to vasp.4.4
   GGA_COMPAT  = T    GGA compatible to vasp.4.4-vasp.4.6
   LMAXPAW     = -100 max onsite density
   LMAXMIX     =    2 max onsite mixed and CHGCAR
   VOSKOWN=      0    Vosko Wilk Nusair interpolation
   ROPT   =    0.00000   0.00000   0.00000
 Ionic relaxation
   EDIFFG = 0.1E-05   stopping-criterion for IOM
   NSW    =      0    number of steps for IOM
   NBLOCK =      1;   KBLOCK =      1    inner block; outer block
   IBRION =     -1    ionic relax: 0-MD 1-quasi-New 2-CG
   NFREE  =      0    steps in history (QN), initial steepest desc. (CG)
   ISIF   =      3    stress and relaxation
   IWAVPR =     10    prediction:  0-non 1-charg 2-wave 3-comb
   ISYM   =      2    0-nonsym 1-usesym 2-fastsym
   LCORR  =      T    Harris-Foulkes like correction to forces

   POTIM  = 0.5000    time-step for ionic-motion
   TEIN   =    0.0    initial temperature
   TEBEG  =    0.0;   TEEND  =   0.0 temperature during run
   SMASS  =  -3.00    Nose mass-parameter (am)
   estimated Nose-frequenzy (Omega)   =  0.10E-29 period in steps = 0.13E+47 mass=  -0.549E-27a.u.
   SCALEE = 1.0000    scale energy and forces
   NPACO  =    256;   APACO  = 16.0  distance and # of slots for P.C.
   PSTRESS=    0.0 pullay stress

  Mass of Ions in am
   POMASS = 238.03208.98195.08
  Ionic Valenz
   ZVAL   =  14.00 15.00 10.00
  Atomic Wigner-Seitz radii
   RWIGS  =  -1.00 -1.00 -1.00
  virtual crystal weights
   VCA    =   1.00  1.00  1.00
   NELECT =      39.0000    total number of electrons
   NUPDOWN=      -1.0000    fix difference up-down

 DOS related values:
   EMIN   =  10.00;   EMAX   =-10.00  energy-range for DOS
   EFERMI =   0.00
   ISMEAR =     0;   SIGMA  =   0.01  broadening in eV -4-tet -1-fermi 0-gaus

 Electronic relaxation 2 (details)
   IALGO  =     38    algorithm
   LDIAG  =      T    sub-space diagonalisation (order eigenvalues)
   LSUBROT=      F    optimize rotation matrix (better conditioning)
   TURBO    =      0    0=normal 1=particle mesh
   IRESTART =      0    0=no restart 2=restart with 2 vectors
   NREBOOT  =      0    no. of reboots
   NMIN     =      0    reboot dimension
   EREF     =   0.00    reference energy to select bands
   IMIX   =      4    mixing-type and parameters
     AMIX     =   0.40;   BMIX     =  1.00
     AMIX_MAG =   1.60;   BMIX_MAG =  1.00
     AMIN     =   0.10
     WC   =   100.;   INIMIX=   1;  MIXPRE=   1;  MAXMIX= -45

 Intra band minimization:
   WEIMIN = 0.0000     energy-eigenvalue tresh-hold
   EBREAK =  0.10E-08  absolut break condition
   DEPER  =   0.30     relativ break condition

   TIME   =   0.40     timestep for ELM

  volume/ion in A,a.u.               =      27.75       187.28
  Fermi-wavevector in a.u.,A,eV,Ry     =   1.271419  2.402634 21.993903  1.616506
  Thomas-Fermi vector in A             =   2.404353

 Write flags
   LWAVE        =      F    write WAVECAR
   LDOWNSAMPLE  =      F    k-point downsampling of WAVECAR
   LCHARG       =      F    write CHGCAR
   LVTOT        =      F    write LOCPOT, total local potential
   LVHAR        =      F    write LOCPOT, Hartree potential only
   LELF         =      F    write electronic localiz. function (ELF)
   LORBIT       =      0    0 simple, 1 ext, 2 COOP (PROOUT), +10 PAW based schemes


 Dipole corrections
   LMONO  =      F    monopole corrections only (constant potential shift)
   LDIPOL =      F    correct potential (dipole corrections)
   IDIPOL =      0    1-x, 2-y, 3-z, 4-all directions
   EPSILON=  1.0000000 bulk dielectric constant

 Exchange correlation treatment:
   GGA     =    PS    GGA type
   LEXCH   =    14    internal setting for exchange type
   VOSKOWN=      0    Vosko Wilk Nusair interpolation
   LHFCALC =     F    Hartree Fock is set to
   LHFONE  =     F    Hartree Fock one center treatment
   AEXX    =    0.0000 exact exchange contribution

 Linear response parameters
   LEPSILON=     F    determine dielectric tensor
   LRPA    =     F    only Hartree local field effects (RPA)
   LNABLA  =     F    use nabla operator in PAW spheres
   LVEL    =     F    velocity operator in full k-point grid
   LINTERFAST=   F  fast interpolation
   KINTER  =     0    interpolate to denser k-point grid
   CSHIFT  =0.1000    complex shift for real part using Kramers Kronig
   OMEGAMAX=  -1.0    maximum frequency
   DEG_THRESHOLD= 0.2000000E-02 threshold for treating states as degnerate
   RTIME   =   -0.100 relaxation time in fs
  (WPLASMAI=    0.000 imaginary part of plasma frequency in eV, 0.658/RTIME)
   DFIELD  = 0.0000000 0.0000000 0.0000000 field for delta impulse in time

 Orbital magnetization related:
   ORBITALMAG=     F  switch on orbital magnetization
   LCHIMAG   =     F  perturbation theory with respect to B field
   DQ        =  0.001000  dq finite difference perturbation B field
   LLRAUG    =     F  two centre corrections for induced B field



--------------------------------------------------------------------------------------------------------


 Static calculation
 charge density and potential will be updated during run
 non-spin polarized calculation
 Variant of blocked Davidson
 Davidson routine will perform the subspace rotation
 perform sub-space diagonalisation
    after iterative eigenvector-optimisation
 modified Broyden-mixing scheme, WC =      100.0
 initial mixing is a Kerker type mixing with AMIX =  0.4000 and BMIX =      1.0000
 Hartree-type preconditioning will be used
 using additional bands            4
 reciprocal scheme for non local part
 use partial core corrections
 calculate Harris-corrections to forces
   (improved forces if not selfconsistent)
 use gradient corrections
 use of overlap-Matrix (Vanderbilt PP)
 Gauss-broadening in eV      SIGMA  =   0.01


--------------------------------------------------------------------------------------------------------


  energy-cutoff  :      700.00
  volume of cell :       83.26
      direct lattice vectors                 reciprocal lattice vectors
     0.000000000  3.465753522  3.465753522    -0.144268771  0.144268771  0.144268771
     3.465753522  0.000000000  3.465753522     0.144268771 -0.144268771  0.144268771
     3.465753522  3.465753522  0.000000000     0.144268771  0.144268771 -0.144268771

  length of vectors
     4.901315635  4.901315635  4.901315635     0.249880841  0.249880841  0.249880841



 k-points in units of 2pi/SCALE and weight: KPOINTS
   0.00000000  0.00000000  0.00000000       0.000
  -0.01159304  0.01159304  0.01159304       0.004
  -0.02318608  0.02318608  0.02318608       0.004
  -0.03477911  0.03477911  0.03477911       0.004
  -0.04637215  0.04637215  0.04637215       0.004
  -0.05796519  0.05796519  0.05796519       0.004
  -0.06955823  0.06955823  0.06955823       0.004
  -0.00000000  0.00000000  0.02318608       0.003
  -0.01159304  0.01159304  0.03477911       0.011
  -0.02318608  0.02318608  0.04637215       0.011
  -0.03477911  0.03477911  0.05796519       0.011
  -0.04637215  0.04637215  0.06955823       0.011
  -0.05796519  0.05796519  0.08115127       0.011
   0.08115127 -0.08115127 -0.05796519       0.011
   0.06955823 -0.06955823 -0.04637215       0.011
   0.05796519 -0.05796519 -0.03477911       0.011
   0.04637215 -0.04637215 -0.02318608       0.011
   0.03477911 -0.03477911 -0.01159304       0.011
   0.02318608 -0.02318608  0.00000000       0.005
   0.00000000 -0.00000000  0.04637215       0.003
  -0.01159304  0.01159304  0.05796519       0.011
  -0.02318608  0.02318608  0.06955823       0.011
  -0.03477911  0.03477911  0.08115127       0.011
  -0.04637215  0.04637215  0.09274430       0.011
   0.09274430 -0.09274430 -0.04637215       0.011
   0.08115127 -0.08115127 -0.03477911       0.011
   0.06955823 -0.06955823 -0.02318608       0.011
   0.05796519 -0.05796519 -0.01159304       0.011
   0.04637215 -0.04637215  0.00000000       0.005
   0.00000000 -0.00000000  0.06955823       0.003
  -0.01159304  0.01159304  0.08115127       0.011
  -0.02318608  0.02318608  0.09274430       0.011
  -0.03477911  0.03477911  0.10433734       0.011
   0.10433734 -0.10433734 -0.03477911       0.011
   0.09274430 -0.09274430 -0.02318608       0.011
   0.08115127 -0.08115127 -0.01159304       0.011
   0.06955823 -0.06955823  0.00000000       0.005
   0.00000000 -0.00000000  0.09274430       0.003
  -0.01159304  0.01159304  0.10433734       0.011
  -0.02318608  0.02318608  0.11593038       0.011
   0.11593038 -0.11593038 -0.02318608       0.011
   0.10433734 -0.10433734 -0.01159304       0.011
   0.09274430 -0.09274430  0.00000000       0.005
   0.00000000 -0.00000000  0.11593038       0.003
  -0.01159304  0.01159304  0.12752342       0.011
   0.12752342 -0.12752342 -0.01159304       0.011
   0.11593038 -0.11593038 -0.00000000       0.005
   0.00000000 -0.00000000  0.13911646       0.003
   0.13911646 -0.13911646  0.00000000       0.005
  -0.00000000  0.02318608  0.04637215       0.011
  -0.01159304  0.03477911  0.05796519       0.022
  -0.02318608  0.04637215  0.06955823       0.022
  -0.03477911  0.05796519  0.08115127       0.022
   0.10433734 -0.08115127 -0.05796519       0.022
   0.00000000  0.02318608  0.06955823       0.011
  -0.01159304  0.03477911  0.08115127       0.022
  -0.02318608  0.04637215  0.09274430       0.022
   0.11593038 -0.09274430 -0.04637215       0.022
   0.10433734 -0.08115127 -0.03477911       0.022
   0.09274430 -0.06955823 -0.02318608       0.022
   0.08115127 -0.05796519 -0.01159304       0.022
   0.06955823 -0.04637215  0.00000000       0.011
  -0.00000000  0.02318608  0.09274430       0.011
  -0.01159304  0.03477911  0.10433734       0.022
   0.12752342 -0.10433734 -0.03477911       0.022
   0.11593038 -0.09274430 -0.02318608       0.022
   0.10433734 -0.08115127 -0.01159304       0.022
   0.09274430 -0.06955823 -0.00000000       0.011
   0.00000000  0.02318608  0.11593038       0.011
   0.13911646 -0.11593038 -0.02318608       0.022
   0.12752342 -0.10433734 -0.01159304       0.022
   0.11593038 -0.09274430  0.00000000       0.011
   0.15070950 -0.12752342 -0.01159304       0.011
   0.13911646 -0.11593038 -0.00000000       0.011
  -0.00000000  0.04637215  0.09274430       0.011
   0.13911646 -0.09274430 -0.04637215       0.022
   0.12752342 -0.08115127 -0.03477911       0.022
   0.15070950 -0.10433734 -0.03477911       0.011
   0.13911646 -0.09274430 -0.02318608       0.022
   0.12752342 -0.08115127 -0.01159304       0.022
   0.11593038 -0.06955823  0.00000000       0.011
   0.15070950 -0.10433734 -0.01159304       0.011
   0.13911646 -0.09274430  0.00000000       0.011
   0.15070950 -0.08115127 -0.01159304       0.011

 k-points in reciprocal lattice and weights: KPOINTS
   0.00000000  0.00000000  0.00000000       0.000
   0.07692308 -0.00000000 -0.00000000       0.004
   0.15384615 -0.00000000  0.00000000       0.004
   0.23076923  0.00000000 -0.00000000       0.004
   0.30769231 -0.00000000  0.00000000       0.004
   0.38461538 -0.00000000  0.00000000       0.004
   0.46153846 -0.00000000  0.00000000       0.004
   0.07692308  0.07692308 -0.00000000       0.003
   0.15384615  0.07692308 -0.00000000       0.011
   0.23076923  0.07692308  0.00000000       0.011
   0.30769231  0.07692308  0.00000000       0.011
   0.38461538  0.07692308  0.00000000       0.011
   0.46153846  0.07692308 -0.00000000       0.011
  -0.46153846  0.07692308  0.00000000       0.011
  -0.38461538  0.07692308  0.00000000       0.011
  -0.30769231  0.07692308 -0.00000000       0.011
  -0.23076923  0.07692308 -0.00000000       0.011
  -0.15384615  0.07692308  0.00000000       0.011
  -0.07692308  0.07692308  0.00000000       0.005
   0.15384615  0.15384615 -0.00000000       0.003
   0.23076923  0.15384615 -0.00000000       0.011
   0.30769231  0.15384615 -0.00000000       0.011
   0.38461538  0.15384615 -0.00000000       0.011
   0.46153846  0.15384615 -0.00000000       0.011
  -0.46153846  0.15384615 -0.00000000       0.011
  -0.38461538  0.15384615  0.00000000       0.011
  -0.30769231  0.15384615 -0.00000000       0.011
  -0.23076923  0.15384615 -0.00000000       0.011
  -0.15384615  0.15384615 -0.00000000       0.005
   0.23076923  0.23076923 -0.00000000       0.003
   0.30769231  0.23076923 -0.00000000       0.011
   0.38461538  0.23076923  0.00000000       0.011
   0.46153846  0.23076923  0.00000000       0.011
  -0.46153846  0.23076923  0.00000000       0.011
  -0.38461538  0.23076923 -0.00000000       0.011
  -0.30769231  0.23076923  0.00000000       0.011
  -0.23076923  0.23076923  0.00000000       0.005
   0.30769231  0.30769231 -0.00000000       0.003
   0.38461538  0.30769231 -0.00000000       0.011
   0.46153846  0.30769231 -0.00000000       0.011
  -0.46153846  0.30769231 -0.00000000       0.011
  -0.38461538  0.30769231  0.00000000       0.011
  -0.30769231  0.30769231 -0.00000000       0.005
   0.38461538  0.38461538 -0.00000000       0.003
   0.46153846  0.38461538 -0.00000000       0.011
  -0.46153846  0.38461538 -0.00000000       0.011
  -0.38461538  0.38461538 -0.00000000       0.005
   0.46153846  0.46153846 -0.00000000       0.003
  -0.46153846  0.46153846 -0.00000000       0.005
   0.23076923  0.15384615  0.07692308       0.011
   0.30769231  0.15384615  0.07692308       0.022
   0.38461538  0.15384615  0.07692308       0.022
   0.46153846  0.15384615  0.07692308       0.022
  -0.46153846  0.15384615  0.07692308       0.022
   0.30769231  0.23076923  0.07692308       0.011
   0.38461538  0.23076923  0.07692308       0.022
   0.46153846  0.23076923  0.07692308       0.022
  -0.46153846  0.23076923  0.07692308       0.022
  -0.38461538  0.23076923  0.07692308       0.022
  -0.30769231  0.23076923  0.07692308       0.022
  -0.23076923  0.23076923  0.07692308       0.022
  -0.15384615  0.23076923  0.07692308       0.011
   0.38461538  0.30769231  0.07692308       0.011
   0.46153846  0.30769231  0.07692308       0.022
  -0.46153846  0.30769231  0.07692308       0.022
  -0.38461538  0.30769231  0.07692308       0.022
  -0.30769231  0.30769231  0.07692308       0.022
  -0.23076923  0.30769231  0.07692308       0.011
   0.46153846  0.38461538  0.07692308       0.011
  -0.46153846  0.38461538  0.07692308       0.022
  -0.38461538  0.38461538  0.07692308       0.022
  -0.30769231  0.38461538  0.07692308       0.011
  -0.46153846  0.46153846  0.07692308       0.011
  -0.38461538  0.46153846  0.07692308       0.011
   0.46153846  0.30769231  0.15384615       0.011
  -0.46153846  0.30769231  0.15384615       0.022
  -0.38461538  0.30769231  0.15384615       0.022
  -0.46153846  0.38461538  0.15384615       0.011
  -0.38461538  0.38461538  0.15384615       0.022
  -0.30769231  0.38461538  0.15384615       0.022
  -0.23076923  0.38461538  0.15384615       0.011
  -0.38461538  0.46153846  0.15384615       0.011
  -0.30769231  0.46153846  0.15384615       0.011
  -0.30769231  0.46153846  0.23076923       0.011

 position of ions in fractional coordinates (direct lattice)
   0.25000000  0.25000000  0.25000000
   0.75000000  0.75000000  0.75000000
   0.00000000  0.00000000  0.00000000

 position of ions in cartesian coordinates  (Angst):
   1.73287676  1.73287676  1.73287676
   5.19863028  5.19863028  5.19863028
   0.00000000  0.00000000  0.00000000



--------------------------------------------------------------------------------------------------------


 k-point  1 :   0.0000 0.0000 0.0000  plane waves:    3479
 k-point  2 :   0.0769-0.0000-0.0000  plane waves:    3509
 k-point  3 :   0.1538-0.0000 0.0000  plane waves:    3521
 k-point  4 :   0.2308 0.0000-0.0000  plane waves:    3521
 k-point  5 :   0.3077-0.0000 0.0000  plane waves:    3506
 k-point  6 :   0.3846-0.0000 0.0000  plane waves:    3489
 k-point  7 :   0.4615-0.0000 0.0000  plane waves:    3495
 k-point  8 :   0.0769 0.0769-0.0000  plane waves:    3515
 k-point  9 :   0.1538 0.0769-0.0000  plane waves:    3522
 k-point 10 :   0.2308 0.0769 0.0000  plane waves:    3519
 k-point 11 :   0.3077 0.0769 0.0000  plane waves:    3511
 k-point 12 :   0.3846 0.0769 0.0000  plane waves:    3504
 k-point 13 :   0.4615 0.0769-0.0000  plane waves:    3512
 k-point 14 :  -0.4615 0.0769 0.0000  plane waves:    3507
 k-point 15 :  -0.3846 0.0769 0.0000  plane waves:    3503
 k-point 16 :  -0.3077 0.0769-0.0000  plane waves:    3498
 k-point 17 :  -0.2308 0.0769-0.0000  plane waves:    3511
 k-point 18 :  -0.1538 0.0769 0.0000  plane waves:    3519
 k-point 19 :  -0.0769 0.0769 0.0000  plane waves:    3529
 k-point 20 :   0.1538 0.1538-0.0000  plane waves:    3535
 k-point 21 :   0.2308 0.1538-0.0000  plane waves:    3522
 k-point 22 :   0.3077 0.1538-0.0000  plane waves:    3507
 k-point 23 :   0.3846 0.1538-0.0000  plane waves:    3507
 k-point 24 :   0.4615 0.1538-0.0000  plane waves:    3503
 k-point 25 :  -0.4615 0.1538-0.0000  plane waves:    3507
 k-point 26 :  -0.3846 0.1538 0.0000  plane waves:    3503
 k-point 27 :  -0.3077 0.1538-0.0000  plane waves:    3501
 k-point 28 :  -0.2308 0.1538-0.0000  plane waves:    3505
 k-point 29 :  -0.1538 0.1538-0.0000  plane waves:    3515
 k-point 30 :   0.2308 0.2308-0.0000  plane waves:    3519
 k-point 31 :   0.3077 0.2308-0.0000  plane waves:    3514
 k-point 32 :   0.3846 0.2308 0.0000  plane waves:    3499
 k-point 33 :   0.4615 0.2308 0.0000  plane waves:    3501
 k-point 34 :  -0.4615 0.2308 0.0000  plane waves:    3508
 k-point 35 :  -0.3846 0.2308-0.0000  plane waves:    3502
 k-point 36 :  -0.3077 0.2308 0.0000  plane waves:    3501
 k-point 37 :  -0.2308 0.2308 0.0000  plane waves:    3499
 k-point 38 :   0.3077 0.3077-0.0000  plane waves:    3503
 k-point 39 :   0.3846 0.3077-0.0000  plane waves:    3485
 k-point 40 :   0.4615 0.3077-0.0000  plane waves:    3488
 k-point 41 :  -0.4615 0.3077-0.0000  plane waves:    3491
 k-point 42 :  -0.3846 0.3077 0.0000  plane waves:    3499
 k-point 43 :  -0.3077 0.3077-0.0000  plane waves:    3500
 k-point 44 :   0.3846 0.3846-0.0000  plane waves:    3503
 k-point 45 :   0.4615 0.3846-0.0000  plane waves:    3486
 k-point 46 :  -0.4615 0.3846-0.0000  plane waves:    3485
 k-point 47 :  -0.3846 0.3846-0.0000  plane waves:    3480
 k-point 48 :   0.4615 0.4615-0.0000  plane waves:    3491
 k-point 49 :  -0.4615 0.4615-0.0000  plane waves:    3500
 k-point 50 :   0.2308 0.1538 0.0769  plane waves:    3518
 k-point 51 :   0.3077 0.1538 0.0769  plane waves:    3510
 k-point 52 :   0.3846 0.1538 0.0769  plane waves:    3507
 k-point 53 :   0.4615 0.1538 0.0769  plane waves:    3501
 k-point 54 :  -0.4615 0.1538 0.0769  plane waves:    3503
 k-point 55 :   0.3077 0.2308 0.0769  plane waves:    3516
 k-point 56 :   0.3846 0.2308 0.0769  plane waves:    3502
 k-point 57 :   0.4615 0.2308 0.0769  plane waves:    3509
 k-point 58 :  -0.4615 0.2308 0.0769  plane waves:    3506
 k-point 59 :  -0.3846 0.2308 0.0769  plane waves:    3504
 k-point 60 :  -0.3077 0.2308 0.0769  plane waves:    3502
 k-point 61 :  -0.2308 0.2308 0.0769  plane waves:    3501
 k-point 62 :  -0.1538 0.2308 0.0769  plane waves:    3507
 k-point 63 :   0.3846 0.3077 0.0769  plane waves:    3499
 k-point 64 :   0.4615 0.3077 0.0769  plane waves:    3498
 k-point 65 :  -0.4615 0.3077 0.0769  plane waves:    3496
 k-point 66 :  -0.3846 0.3077 0.0769  plane waves:    3503
 k-point 67 :  -0.3077 0.3077 0.0769  plane waves:    3503
 k-point 68 :  -0.2308 0.3077 0.0769  plane waves:    3499
 k-point 69 :   0.4615 0.3846 0.0769  plane waves:    3492
 k-point 70 :  -0.4615 0.3846 0.0769  plane waves:    3487
 k-point 71 :  -0.3846 0.3846 0.0769  plane waves:    3495
 k-point 72 :  -0.3077 0.3846 0.0769  plane waves:    3502
 k-point 73 :  -0.4615 0.4615 0.0769  plane waves:    3476
 k-point 74 :  -0.3846 0.4615 0.0769  plane waves:    3488
 k-point 75 :   0.4615 0.3077 0.1538  plane waves:    3510
 k-point 76 :  -0.4615 0.3077 0.1538  plane waves:    3502
 k-point 77 :  -0.3846 0.3077 0.1538  plane waves:    3504
 k-point 78 :  -0.4615 0.3846 0.1538  plane waves:    3491
 k-point 79 :  -0.3846 0.3846 0.1538  plane waves:    3496
 k-point 80 :  -0.3077 0.3846 0.1538  plane waves:    3499
 k-point 81 :  -0.2308 0.3846 0.1538  plane waves:    3505
 k-point 82 :  -0.3846 0.4615 0.1538  plane waves:    3483
 k-point 83 :  -0.3077 0.4615 0.1538  plane waves:    3486
 k-point 84 :  -0.3077 0.4615 0.2308  plane waves:    3489

 maximum and minimum number of plane-waves per node :       889      859

 maximum number of plane-waves:      3535
 maximum index in each direction:
   IXMAX=   11   IYMAX=   10   IZMAX=   10
   IXMIN=  -11   IYMIN=  -11   IZMIN=  -10


 parallel 3D FFT for wavefunctions:
    minimum data exchange during FFTs selected (reduces bandwidth)
 parallel 3D FFT for charge:
    minimum data exchange during FFTs selected (reduces bandwidth)


 total amount of memory used by VASP MPI-rank0   104620. kBytes
=======================================================================

   base      :      30000. kBytes
   nonl-proj :      57329. kBytes
   fftplans  :       6283. kBytes
   grid      :       3541. kBytes
   one-center:         49. kBytes
   wavefun   :       7418. kBytes

     INWAV:  cpu time    0.0003: real time    0.0006
 Broyden mixing: mesh for mixing (old mesh)
   NGX = 21   NGY = 21   NGZ = 21
  (NGX  = 84   NGY  = 84   NGZ  = 84)
  gives a total of   9261 points

 initial charge density was supplied:
 charge density of overlapping atoms calculated
 number of electron      39.0000000 magnetization
 keeping initial charge density in first step


--------------------------------------------------------------------------------------------------------


 Maximum index for augmentation-charges        29325 (set IRDMAX)


--------------------------------------------------------------------------------------------------------


 First call to EWALD:  gamma=   0.406
 Maximum number of real-space cells 3x 3x 3
 Maximum number of reciprocal cells 3x 3x 3

    FEWALD:  cpu time    0.0052: real time    0.0059


--------------------------------------- Iteration      1(   1)  ---------------------------------------


    POTLOK:  cpu time    0.0576: real time    0.1121
    SETDIJ:  cpu time    0.1006: real time    0.1010
     EDDAV:  cpu time    1.5169: real time    1.5247
       DOS:  cpu time    0.0045: real time    0.0051
    --------------------------------------------
      LOOP:  cpu time    1.6799: real time    1.7447

 eigenvalue-minimisations  :  4032
 total energy-change (2. order) : 0.4270731E+03  (-0.2218671E+04)
 number of electron      39.0000000 magnetization
 augmentation part       39.0000000 magnetization

 Free energy of the ion-electron system (eV)
  ---------------------------------------------------
  alpha Z        PSCENC =       188.86943960
  Ewald energy   TEWEN  =     -3439.74540141
  -Hartree energ DENC   =      -851.37405424
  -exchange      EXHF   =         0.00000000
  -V(xc)+E(xc)   XCENC  =        88.86728652
  PAW double counting   =      3513.29252893    -3436.88002192
  entropy T*S    EENTRO =        -0.00008261
  eigenvalues    EBANDS =       268.69135578
  atomic energy  EATOM  =      4095.35208632
  Solvation  Ediel_sol  =         0.00000000
  ---------------------------------------------------
  free energy    TOTEN  =       427.07313698 eV

  energy without entropy =      427.07321959  energy(sigma->0) =      427.07317828


--------------------------------------------------------------------------------------------------------




--------------------------------------- Iteration      1(   2)  ---------------------------------------


     EDDAV:  cpu time    1.6905: real time    1.7100
       DOS:  cpu time    0.0030: real time    0.0042
    --------------------------------------------
      LOOP:  cpu time    1.6935: real time    1.7140

 eigenvalue-minimisations  :  4664
 total energy-change (2. order) :-0.4001647E+03  (-0.3932414E+03)
 number of electron      39.0000000 magnetization
 augmentation part       39.0000000 magnetization

 Free energy of the ion-electron system (eV)
  ---------------------------------------------------
  alpha Z        PSCENC =       188.86943960
  Ewald energy   TEWEN  =     -3439.74540141
  -Hartree energ DENC   =      -851.37405424
  -exchange      EXHF   =         0.00000000
  -V(xc)+E(xc)   XCENC  =        88.86728652
  PAW double counting   =      3513.29252893    -3436.88002192
  entropy T*S    EENTRO =        -0.00032900
  eigenvalues    EBANDS =      -131.47306285
  atomic energy  EATOM  =      4095.35208632
  Solvation  Ediel_sol  =         0.00000000
  ---------------------------------------------------
  free energy    TOTEN  =        26.90847196 eV

  energy without entropy =       26.90880096  energy(sigma->0) =       26.90863646


--------------------------------------------------------------------------------------------------------




--------------------------------------- Iteration      1(   3)  ---------------------------------------


     EDDAV:  cpu time    1.7871: real time    1.8143
       DOS:  cpu time    0.0033: real time    0.0047
    --------------------------------------------
      LOOP:  cpu time    1.7905: real time    1.8198

 eigenvalue-minimisations  :  5032
 total energy-change (2. order) :-0.4720725E+02  (-0.4616203E+02)
 number of electron      39.0000000 magnetization
 augmentation part       39.0000000 magnetization

 Free energy of the ion-electron system (eV)
  ---------------------------------------------------
  alpha Z        PSCENC =       188.86943960
  Ewald energy   TEWEN  =     -3439.74540141
  -Hartree energ DENC   =      -851.37405424
  -exchange      EXHF   =         0.00000000
  -V(xc)+E(xc)   XCENC  =        88.86728652
  PAW double counting   =      3513.29252893    -3436.88002192
  entropy T*S    EENTRO =        -0.00118080
  eigenvalues    EBANDS =      -178.67946514
  atomic energy  EATOM  =      4095.35208632
  Solvation  Ediel_sol  =         0.00000000
  ---------------------------------------------------
  free energy    TOTEN  =       -20.29878213 eV

  energy without entropy =      -20.29760133  energy(sigma->0) =      -20.29819173


--------------------------------------------------------------------------------------------------------




--------------------------------------- Iteration      1(   4)  ---------------------------------------


     EDDAV:  cpu time    2.4972: real time    2.5170
       DOS:  cpu time    0.0030: real time    0.0035
    --------------------------------------------
      LOOP:  cpu time    2.5001: real time    2.5196

 eigenvalue-minimisations  :  7656
 total energy-change (2. order) :-0.5070455E+01  (-0.5039675E+01)
 number of electron      39.0000000 magnetization
 augmentation part       39.0000000 magnetization

 Free energy of the ion-electron system (eV)
  ---------------------------------------------------
  alpha Z        PSCENC =       188.86943960
  Ewald energy   TEWEN  =     -3439.74540141
  -Hartree energ DENC   =      -851.37405424
  -exchange      EXHF   =         0.00000000
  -V(xc)+E(xc)   XCENC  =        88.86728652
  PAW double counting   =      3513.29252893    -3436.88002192
  entropy T*S    EENTRO =        -0.00116357
  eigenvalues    EBANDS =      -183.74993763
  atomic energy  EATOM  =      4095.35208632
  Solvation  Ediel_sol  =         0.00000000
  ---------------------------------------------------
  free energy    TOTEN  =       -25.36923740 eV

  energy without entropy =      -25.36807382  energy(sigma->0) =      -25.36865561


--------------------------------------------------------------------------------------------------------




--------------------------------------- Iteration      1(   5)  ---------------------------------------


     EDDAV:  cpu time    1.9562: real time    1.9799
       DOS:  cpu time    0.0032: real time    0.0058
    CHARGE:  cpu time    0.3558: real time    0.3566
    MIXING:  cpu time    0.0073: real time    0.0075
    --------------------------------------------
      LOOP:  cpu time    2.3225: real time    2.3499

 eigenvalue-minimisations  :  5696
 total energy-change (2. order) :-0.1916634E+00  (-0.1912912E+00)
 number of electron      39.0000000 magnetization
 augmentation part        9.1369654 magnetization

 Broyden mixing:
  rms(total) = 0.14875E+01    rms(broyden)= 0.14875E+01
  rms(prec ) = 0.45727E+01
  weight for this iteration     100.00

 Free energy of the ion-electron system (eV)
  ---------------------------------------------------
  alpha Z        PSCENC =       188.86943960
  Ewald energy   TEWEN  =     -3439.74540141
  -Hartree energ DENC   =      -851.37405424
  -exchange      EXHF   =         0.00000000
  -V(xc)+E(xc)   XCENC  =        88.86728652
  PAW double counting   =      3513.29252893    -3436.88002192
  entropy T*S    EENTRO =        -0.00129209
  eigenvalues    EBANDS =      -183.94147253
  atomic energy  EATOM  =      4095.35208632
  Solvation  Ediel_sol  =         0.00000000
  ---------------------------------------------------
  free energy    TOTEN  =       -25.56090082 eV

  energy without entropy =      -25.55960872  energy(sigma->0) =      -25.56025477


--------------------------------------------------------------------------------------------------------




--------------------------------------- Iteration      1(   6)  ---------------------------------------


    POTLOK:  cpu time    0.0420: real time    0.0659
    SETDIJ:  cpu time    0.0837: real time    0.0839
     EDDAV:  cpu time    2.0815: real time    2.0818
       DOS:  cpu time    0.0030: real time    0.0033
    CHARGE:  cpu time    0.3068: real time    0.3071
    MIXING:  cpu time    0.0053: real time    0.0056
    --------------------------------------------
      LOOP:  cpu time    2.5223: real time    2.5482

 eigenvalue-minimisations  :  6040
 total energy-change (2. order) :-0.1061256E+02  (-0.2534688E+02)
 number of electron      39.0000000 magnetization
 augmentation part        7.0279070 magnetization

 Broyden mixing:
  rms(total) = 0.22150E+01    rms(broyden)= 0.22150E+01
  rms(prec ) = 0.63363E+01
  weight for this iteration     100.00

 eigenvalues of (default mixing * dielectric matrix)
  average eigenvalue GAMMA=   0.3752
  0.3752

 Free energy of the ion-electron system (eV)
  ---------------------------------------------------
  alpha Z        PSCENC =       188.86943960
  Ewald energy   TEWEN  =     -3439.74540141
  -Hartree energ DENC   =      -865.79929765
  -exchange      EXHF   =         0.00000000
  -V(xc)+E(xc)   XCENC  =        89.64110140
  PAW double counting   =      3726.90124825    -3649.44130731
  entropy T*S    EENTRO =        -0.00019634
  eigenvalues    EBANDS =      -181.95113730
  atomic energy  EATOM  =      4095.35208632
  Solvation  Ediel_sol  =         0.00000000
  ---------------------------------------------------
  free energy    TOTEN  =       -36.17346444 eV

  energy without entropy =      -36.17326809  energy(sigma->0) =      -36.17336626


--------------------------------------------------------------------------------------------------------




--------------------------------------- Iteration      1(   7)  ---------------------------------------


    POTLOK:  cpu time    0.0420: real time    0.0641
    SETDIJ:  cpu time    0.0881: real time    0.0882
     EDDAV:  cpu time    2.0125: real time    2.0128
       DOS:  cpu time    0.0031: real time    0.0034
    CHARGE:  cpu time    0.2855: real time    0.2860
    MIXING:  cpu time    0.0050: real time    0.0059
    --------------------------------------------
      LOOP:  cpu time    2.4362: real time    2.4604

 eigenvalue-minimisations  :  5768
 total energy-change (2. order) : 0.1113678E+02  (-0.2765714E+01)
 number of electron      39.0000000 magnetization
 augmentation part        7.3558487 magnetization

 Broyden mixing:
  rms(total) = 0.12362E+01    rms(broyden)= 0.12362E+01
  rms(prec ) = 0.37220E+01
  weight for this iteration     100.00

 eigenvalues of (default mixing * dielectric matrix)
  average eigenvalue GAMMA=   0.7146
  0.7146  0.7146

 Free energy of the ion-electron system (eV)
  ---------------------------------------------------
  alpha Z        PSCENC =       188.86943960
  Ewald energy   TEWEN  =     -3439.74540141
  -Hartree energ DENC   =      -850.54076385
  -exchange      EXHF   =         0.00000000
  -V(xc)+E(xc)   XCENC  =        88.93045866
  PAW double counting   =      3794.90700358    -3721.92907425
  entropy T*S    EENTRO =        -0.00036285
  eigenvalues    EBANDS =      -180.88007107
  atomic energy  EATOM  =      4095.35208632
  Solvation  Ediel_sol  =         0.00000000
  ---------------------------------------------------
  free energy    TOTEN  =       -25.03668527 eV

  energy without entropy =      -25.03632241  energy(sigma->0) =      -25.03650384


--------------------------------------------------------------------------------------------------------




--------------------------------------- Iteration      1(   8)  ---------------------------------------


    POTLOK:  cpu time    0.0355: real time    0.0679
    SETDIJ:  cpu time    0.0861: real time    0.0872
     EDDAV:  cpu time    2.0559: real time    2.0564
       DOS:  cpu time    0.0034: real time    0.0040
    CHARGE:  cpu time    0.2932: real time    0.2934
    MIXING:  cpu time    0.0068: real time    0.0070
    --------------------------------------------
      LOOP:  cpu time    2.4808: real time    2.5171

 eigenvalue-minimisations  :  6024
 total energy-change (2. order) : 0.6808737E+00  (-0.4676593E+01)
 number of electron      39.0000000 magnetization
 augmentation part        9.2689355 magnetization

 Broyden mixing:
  rms(total) = 0.99379E+00    rms(broyden)= 0.99379E+00
  rms(prec ) = 0.31426E+01
  weight for this iteration     100.00

 eigenvalues of (default mixing * dielectric matrix)
  average eigenvalue GAMMA=   0.8338
  1.4762  0.5126  0.5126

 Free energy of the ion-electron system (eV)
  ---------------------------------------------------
  alpha Z        PSCENC =       188.86943960
  Ewald energy   TEWEN  =     -3439.74540141
  -Hartree energ DENC   =      -837.60843611
  -exchange      EXHF   =         0.00000000
  -V(xc)+E(xc)   XCENC  =        88.37630746
  PAW double counting   =      3804.80395763    -3734.70221589
  entropy T*S    EENTRO =        -0.00152888
  eigenvalues    EBANDS =      -189.70002024
  atomic energy  EATOM  =      4095.35208632
  Solvation  Ediel_sol  =         0.00000000
  ---------------------------------------------------
  free energy    TOTEN  =       -24.35581152 eV

  energy without entropy =      -24.35428264  energy(sigma->0) =      -24.35504708


--------------------------------------------------------------------------------------------------------




--------------------------------------- Iteration      1(   9)  ---------------------------------------


    POTLOK:  cpu time    0.0351: real time    0.0662
    SETDIJ:  cpu time    0.0701: real time    0.0981
     EDDAV:  cpu time    2.0912: real time    2.0917
       DOS:  cpu time    0.0031: real time    0.0051
    CHARGE:  cpu time    0.2935: real time    0.2937
    MIXING:  cpu time    0.0066: real time    0.0067
    --------------------------------------------
      LOOP:  cpu time    2.4996: real time    2.5657

 eigenvalue-minimisations  :  6232
 total energy-change (2. order) : 0.1012492E+01  (-0.1024977E+01)
 number of electron      39.0000000 magnetization
 augmentation part        8.2856655 magnetization

 Broyden mixing:
  rms(total) = 0.20879E+00    rms(broyden)= 0.20879E+00
  rms(prec ) = 0.46198E+00
  weight for this iteration     100.00

 eigenvalues of (default mixing * dielectric matrix)
  average eigenvalue GAMMA=   0.8401
  1.7875  0.5675  0.5675  0.4379

 Free energy of the ion-electron system (eV)
  ---------------------------------------------------
  alpha Z        PSCENC =       188.86943960
  Ewald energy   TEWEN  =     -3439.74540141
  -Hartree energ DENC   =      -842.99444038
  -exchange      EXHF   =         0.00000000
  -V(xc)+E(xc)   XCENC  =        88.63114643
  PAW double counting   =      3884.59252614    -3814.87871032
  entropy T*S    EENTRO =        -0.00179071
  eigenvalues    EBANDS =      -183.16817508
  atomic energy  EATOM  =      4095.35208632
  Solvation  Ediel_sol  =         0.00000000
  ---------------------------------------------------
  free energy    TOTEN  =       -23.34331940 eV

  energy without entropy =      -23.34152869  energy(sigma->0) =      -23.34242404


--------------------------------------------------------------------------------------------------------




--------------------------------------- Iteration      1(  10)  ---------------------------------------


    POTLOK:  cpu time    0.0420: real time    0.0961
    SETDIJ:  cpu time    0.0835: real time    0.0856
     EDDAV:  cpu time    2.0788: real time    2.0797
       DOS:  cpu time    0.0033: real time    0.0040
    CHARGE:  cpu time    0.2936: real time    0.2938
    MIXING:  cpu time    0.0070: real time    0.0075
    --------------------------------------------
      LOOP:  cpu time    2.5082: real time    2.5609

 eigenvalue-minimisations  :  6176
 total energy-change (2. order) :-0.1174719E+00  (-0.2008136E+00)
 number of electron      39.0000000 magnetization
 augmentation part        7.9119473 magnetization

 Broyden mixing:
  rms(total) = 0.29138E+00    rms(broyden)= 0.29138E+00
  rms(prec ) = 0.92728E+00
  weight for this iteration     100.00

 eigenvalues of (default mixing * dielectric matrix)
  average eigenvalue GAMMA=   0.9378
  1.9341  1.0641  0.5070  0.5070  0.6768

 Free energy of the ion-electron system (eV)
  ---------------------------------------------------
  alpha Z        PSCENC =       188.86943960
  Ewald energy   TEWEN  =     -3439.74540141
  -Hartree energ DENC   =      -843.50197310
  -exchange      EXHF   =         0.00000000
  -V(xc)+E(xc)   XCENC  =        88.67196968
  PAW double counting   =      3951.53730421    -3882.54455333
  entropy T*S    EENTRO =        -0.00139057
  eigenvalues    EBANDS =      -182.09827265
  atomic energy  EATOM  =      4095.35208632
  Solvation  Ediel_sol  =         0.00000000
  ---------------------------------------------------
  free energy    TOTEN  =       -23.46079125 eV

  energy without entropy =      -23.45940068  energy(sigma->0) =      -23.46009597


--------------------------------------------------------------------------------------------------------




--------------------------------------- Iteration      1(  11)  ---------------------------------------


    POTLOK:  cpu time    0.0358: real time    0.0649
    SETDIJ:  cpu time    0.0880: real time    0.0882
     EDDAV:  cpu time    2.0092: real time    2.0094
       DOS:  cpu time    0.0034: real time    0.0040
    CHARGE:  cpu time    0.2927: real time    0.2937
    MIXING:  cpu time    0.0070: real time    0.0074
    --------------------------------------------
      LOOP:  cpu time    2.4361: real time    2.4688

 eigenvalue-minimisations  :  5952
 total energy-change (2. order) : 0.9959133E-01  (-0.5570180E-01)
 number of electron      39.0000000 magnetization
 augmentation part        8.1220272 magnetization

 Broyden mixing:
  rms(total) = 0.86513E-01    rms(broyden)= 0.86513E-01
  rms(prec ) = 0.27357E+00
  weight for this iteration     100.00

 eigenvalues of (default mixing * dielectric matrix)
  average eigenvalue GAMMA=   1.0190
  1.8486  1.8486  0.5161  0.5161  0.6924  0.6924

 Free energy of the ion-electron system (eV)
  ---------------------------------------------------
  alpha Z        PSCENC =       188.86943960
  Ewald energy   TEWEN  =     -3439.74540141
  -Hartree energ DENC   =      -841.72173213
  -exchange      EXHF   =         0.00000000
  -V(xc)+E(xc)   XCENC  =        88.59899486
  PAW double counting   =      3946.45503645    -3877.78191369
  entropy T*S    EENTRO =        -0.00191111
  eigenvalues    EBANDS =      -183.38579882
  atomic energy  EATOM  =      4095.35208632
  Solvation  Ediel_sol  =         0.00000000
  ---------------------------------------------------
  free energy    TOTEN  =       -23.36119992 eV

  energy without entropy =      -23.35928881  energy(sigma->0) =      -23.36024437


--------------------------------------------------------------------------------------------------------




--------------------------------------- Iteration      1(  12)  ---------------------------------------


    POTLOK:  cpu time    0.0351: real time    0.0803
    SETDIJ:  cpu time    0.0834: real time    0.0840
     EDDAV:  cpu time    2.4136: real time    2.4148
       DOS:  cpu time    0.0034: real time    0.0041
    CHARGE:  cpu time    0.2943: real time    0.2954
    MIXING:  cpu time    0.0049: real time    0.0063
    --------------------------------------------
      LOOP:  cpu time    2.8347: real time    2.8853

 eigenvalue-minimisations  :  7336
 total energy-change (2. order) : 0.3542980E-02  (-0.1747027E-01)
 number of electron      39.0000000 magnetization
 augmentation part        8.2347080 magnetization

 Broyden mixing:
  rms(total) = 0.49011E-01    rms(broyden)= 0.49011E-01
  rms(prec ) = 0.13022E+00
  weight for this iteration     100.00

 eigenvalues of (default mixing * dielectric matrix)
  average eigenvalue GAMMA=   1.2117
  2.4969  2.4969  0.9051  0.9051  0.5159  0.5159  0.6466

 Free energy of the ion-electron system (eV)
  ---------------------------------------------------
  alpha Z        PSCENC =       188.86943960
  Ewald energy   TEWEN  =     -3439.74540141
  -Hartree energ DENC   =      -841.10948544
  -exchange      EXHF   =         0.00000000
  -V(xc)+E(xc)   XCENC  =        88.57091344
  PAW double counting   =      3944.11699841    -3875.52139095
  entropy T*S    EENTRO =        -0.00221012
  eigenvalues    EBANDS =      -183.88860679
  atomic energy  EATOM  =      4095.35208632
  Solvation  Ediel_sol  =         0.00000000
  ---------------------------------------------------
  free energy    TOTEN  =       -23.35765694 eV

  energy without entropy =      -23.35544682  energy(sigma->0) =      -23.35655188


--------------------------------------------------------------------------------------------------------




--------------------------------------- Iteration      1(  13)  ---------------------------------------


    POTLOK:  cpu time    0.0353: real time    0.0913
    SETDIJ:  cpu time    0.0838: real time    0.0841
     EDDAV:  cpu time    2.2157: real time    2.2161
       DOS:  cpu time    0.0033: real time    0.0039
    CHARGE:  cpu time    0.2943: real time    0.2952
    MIXING:  cpu time    0.0064: real time    0.0067
    --------------------------------------------
      LOOP:  cpu time    2.6387: real time    2.6963

 eigenvalue-minimisations  :  6456
 total energy-change (2. order) :-0.3337437E-02  (-0.1124220E-02)
 number of electron      39.0000000 magnetization
 augmentation part        8.2523597 magnetization

 Broyden mixing:
  rms(total) = 0.67013E-01    rms(broyden)= 0.67013E-01
  rms(prec ) = 0.20394E+00
  weight for this iteration     100.00

 eigenvalues of (default mixing * dielectric matrix)
  average eigenvalue GAMMA=   1.2048
  2.5914  2.1262  1.4506  0.5167  0.5167  0.8997  0.8997  0.6372

 Free energy of the ion-electron system (eV)
  ---------------------------------------------------
  alpha Z        PSCENC =       188.86943960
  Ewald energy   TEWEN  =     -3439.74540141
  -Hartree energ DENC   =      -841.32782362
  -exchange      EXHF   =         0.00000000
  -V(xc)+E(xc)   XCENC  =        88.57337968
  PAW double counting   =      3941.64446755    -3872.95302390
  entropy T*S    EENTRO =        -0.00225285
  eigenvalues    EBANDS =      -183.77186576
  atomic energy  EATOM  =      4095.35208632
  Solvation  Ediel_sol  =         0.00000000
  ---------------------------------------------------
  free energy    TOTEN  =       -23.36099438 eV

  energy without entropy =      -23.35874153  energy(sigma->0) =      -23.35986795


--------------------------------------------------------------------------------------------------------




--------------------------------------- Iteration      1(  14)  ---------------------------------------


    POTLOK:  cpu time    0.0355: real time    0.0802
    SETDIJ:  cpu time    0.0848: real time    0.0850
     EDDAV:  cpu time    2.0504: real time    2.0513
       DOS:  cpu time    0.0032: real time    0.0036
    CHARGE:  cpu time    0.2932: real time    0.2946
    MIXING:  cpu time    0.0067: real time    0.0070
    --------------------------------------------
      LOOP:  cpu time    2.4738: real time    2.5213

 eigenvalue-minimisations  :  6096
 total energy-change (2. order) : 0.4706947E-02  (-0.4993134E-02)
 number of electron      39.0000000 magnetization
 augmentation part        8.1863582 magnetization

 Broyden mixing:
  rms(total) = 0.88365E-02    rms(broyden)= 0.88363E-02
  rms(prec ) = 0.26557E-01
  weight for this iteration     100.00

 eigenvalues of (default mixing * dielectric matrix)
  average eigenvalue GAMMA=   1.1959
  2.4667  2.3666  1.2817  1.2817  0.5166  0.5166  0.6341  0.8498  0.8498

 Free energy of the ion-electron system (eV)
  ---------------------------------------------------
  alpha Z        PSCENC =       188.86943960
  Ewald energy   TEWEN  =     -3439.74540141
  -Hartree energ DENC   =      -841.91248634
  -exchange      EXHF   =         0.00000000
  -V(xc)+E(xc)   XCENC  =        88.59490325
  PAW double counting   =      3947.71392164    -3878.90691222
  entropy T*S    EENTRO =        -0.00212692
  eigenvalues    EBANDS =      -183.31971135
  atomic energy  EATOM  =      4095.35208632
  Solvation  Ediel_sol  =         0.00000000
  ---------------------------------------------------
  free energy    TOTEN  =       -23.35628743 eV

  energy without entropy =      -23.35416051  energy(sigma->0) =      -23.35522397


--------------------------------------------------------------------------------------------------------




--------------------------------------- Iteration      1(  15)  ---------------------------------------


    POTLOK:  cpu time    0.0388: real time    0.0704
    SETDIJ:  cpu time    0.0859: real time    0.0866
     EDDAV:  cpu time    2.2857: real time    2.2862
       DOS:  cpu time    0.0032: real time    0.0060
    CHARGE:  cpu time    0.2937: real time    0.2940
    MIXING:  cpu time    0.0062: real time    0.0080
    --------------------------------------------
      LOOP:  cpu time    2.7136: real time    2.7591

 eigenvalue-minimisations  :  6952
 total energy-change (2. order) : 0.7630733E-06  (-0.2062352E-03)
 number of electron      39.0000000 magnetization
 augmentation part        8.1959075 magnetization

 Broyden mixing:
  rms(total) = 0.24149E-02    rms(broyden)= 0.24149E-02
  rms(prec ) = 0.39404E-02
  weight for this iteration     100.00

 eigenvalues of (default mixing * dielectric matrix)
  average eigenvalue GAMMA=   1.1639
  2.9001  2.0557  1.2343  1.2343  0.5166  0.5166  0.9698  0.9698  0.6485  0.5930

 Free energy of the ion-electron system (eV)
  ---------------------------------------------------
  alpha Z        PSCENC =       188.86943960
  Ewald energy   TEWEN  =     -3439.74540141
  -Hartree energ DENC   =      -841.85548291
  -exchange      EXHF   =         0.00000000
  -V(xc)+E(xc)   XCENC  =        88.59255454
  PAW double counting   =      3947.12533048    -3878.30362463
  entropy T*S    EENTRO =        -0.00217626
  eigenvalues    EBANDS =      -183.38901240
  atomic energy  EATOM  =      4095.35208632
  Solvation  Ediel_sol  =         0.00000000
  ---------------------------------------------------
  free energy    TOTEN  =       -23.35628667 eV

  energy without entropy =      -23.35411041  energy(sigma->0) =      -23.35519854


--------------------------------------------------------------------------------------------------------




--------------------------------------- Iteration      1(  16)  ---------------------------------------


    POTLOK:  cpu time    0.0401: real time    0.0772
    SETDIJ:  cpu time    0.0865: real time    0.0866
     EDDAV:  cpu time    1.9687: real time    1.9706
       DOS:  cpu time    0.0033: real time    0.0044
    CHARGE:  cpu time    0.2943: real time    0.2945
    MIXING:  cpu time    0.0057: real time    0.0084
    --------------------------------------------
      LOOP:  cpu time    2.3985: real time    2.4344

 eigenvalue-minimisations  :  5672
 total energy-change (2. order) :-0.5579095E-05  (-0.6957358E-05)
 number of electron      39.0000000 magnetization
 augmentation part        8.1953818 magnetization

 Broyden mixing:
  rms(total) = 0.21352E-02    rms(broyden)= 0.21352E-02
  rms(prec ) = 0.35207E-02
  weight for this iteration     100.00

 eigenvalues of (default mixing * dielectric matrix)
  average eigenvalue GAMMA=   1.2204
  2.8451  2.0899  1.5433  1.5433  0.5166  0.5166  1.0652  1.0652  0.6347  0.8021
  0.8021

 Free energy of the ion-electron system (eV)
  ---------------------------------------------------
  alpha Z        PSCENC =       188.86943960
  Ewald energy   TEWEN  =     -3439.74540141
  -Hartree energ DENC   =      -841.85828931
  -exchange      EXHF   =         0.00000000
  -V(xc)+E(xc)   XCENC  =        88.59296285
  PAW double counting   =      3947.36181300    -3878.54504100
  entropy T*S    EENTRO =        -0.00216911
  eigenvalues    EBANDS =      -183.38169318
  atomic energy  EATOM  =      4095.35208632
  Solvation  Ediel_sol  =         0.00000000
  ---------------------------------------------------
  free energy    TOTEN  =       -23.35629225 eV

  energy without entropy =      -23.35412313  energy(sigma->0) =      -23.35520769


--------------------------------------------------------------------------------------------------------




--------------------------------------- Iteration      1(  17)  ---------------------------------------


    POTLOK:  cpu time    0.0395: real time    0.0822
    SETDIJ:  cpu time    0.0857: real time    0.0861
     EDDAV:  cpu time    2.1432: real time    2.1436
       DOS:  cpu time    0.0032: real time    0.0036
    CHARGE:  cpu time    0.2934: real time    0.2937
    MIXING:  cpu time    0.0081: real time    0.0085
    --------------------------------------------
      LOOP:  cpu time    2.5731: real time    2.6192

 eigenvalue-minimisations  :  6360
 total energy-change (2. order) : 0.2290895E-05  (-0.1669687E-05)
 number of electron      39.0000000 magnetization
 augmentation part        8.1949834 magnetization

 Broyden mixing:
  rms(total) = 0.51799E-03    rms(broyden)= 0.51793E-03
  rms(prec ) = 0.12267E-02
  weight for this iteration     100.00

 eigenvalues of (default mixing * dielectric matrix)
  average eigenvalue GAMMA=   1.2413
  2.6976  2.1303  1.9257  1.5189  1.5189  0.5166  0.5166  0.8699  0.8699  0.9343
  0.6327  0.7643

 Free energy of the ion-electron system (eV)
  ---------------------------------------------------
  alpha Z        PSCENC =       188.86943960
  Ewald energy   TEWEN  =     -3439.74540141
  -Hartree energ DENC   =      -841.81591781
  -exchange      EXHF   =         0.00000000
  -V(xc)+E(xc)   XCENC  =        88.59248843
  PAW double counting   =      3947.44249586    -3878.64571596
  entropy T*S    EENTRO =        -0.00216993
  eigenvalues    EBANDS =      -183.40359507
  atomic energy  EATOM  =      4095.35208632
  Solvation  Ediel_sol  =         0.00000000
  ---------------------------------------------------
  free energy    TOTEN  =       -23.35628996 eV

  energy without entropy =      -23.35412003  energy(sigma->0) =      -23.35520499


--------------------------------------------------------------------------------------------------------




--------------------------------------- Iteration      1(  18)  ---------------------------------------


    POTLOK:  cpu time    0.0390: real time    0.0711
    SETDIJ:  cpu time    0.0884: real time    0.0885
     EDDAV:  cpu time    2.2888: real time    2.2894
       DOS:  cpu time    0.0032: real time    0.0034
    CHARGE:  cpu time    0.2961: real time    0.2968
    MIXING:  cpu time    0.0069: real time    0.0070
    --------------------------------------------
      LOOP:  cpu time    2.7224: real time    2.7546

 eigenvalue-minimisations  :  6792
 total energy-change (2. order) :-0.2244151E-06  (-0.9249640E-06)
 number of electron      39.0000000 magnetization
 augmentation part        8.1958060 magnetization

 Broyden mixing:
  rms(total) = 0.72622E-03    rms(broyden)= 0.72617E-03
  rms(prec ) = 0.19188E-02
  weight for this iteration     100.00

 eigenvalues of (default mixing * dielectric matrix)
  average eigenvalue GAMMA=   1.3076
  2.7709  2.7709  1.9945  1.5263  1.5263  0.5166  0.5166  0.6339  1.0680  1.0095
  1.0095  0.8282  0.8282

 Free energy of the ion-electron system (eV)
  ---------------------------------------------------
  alpha Z        PSCENC =       188.86943960
  Ewald energy   TEWEN  =     -3439.74540141
  -Hartree energ DENC   =      -841.80769757
  -exchange      EXHF   =         0.00000000
  -V(xc)+E(xc)   XCENC  =        88.59216633
  PAW double counting   =      3947.59891821    -3878.80204292
  entropy T*S    EENTRO =        -0.00217224
  eigenvalues    EBANDS =      -183.41158651
  atomic energy  EATOM  =      4095.35208632
  Solvation  Ediel_sol  =         0.00000000
  ---------------------------------------------------
  free energy    TOTEN  =       -23.35629018 eV

  energy without entropy =      -23.35411794  energy(sigma->0) =      -23.35520406


--------------------------------------------------------------------------------------------------------




[...]
  212              fftbas_plan_mpi                       0.079889                     12   6
  213                dfftw_execute                         0.035363                   36   7
  214                map_backward                          0.004758                   12   7
  215                  map_gather                            0.001174                  6   8
  216                  m_alltoallv_z                         0.002220                  6   8
  217                  map_scatter                           0.001079                  6   8
  218                map_forward                           0.036761                   12   7
  219                  map_gather                            0.017932                  6   8
  220                  m_alltoallv_z                         0.006261                  6   8
  221                  map_scatter                           0.012279                  6   8
  222            M_sumb_d                              0.004086                        6   5
  223          M_sumb_d                              0.000023                          1   4
  224        setdij_                               1.460099                           20   3
  225          fft3d_mpi                             0.281179                         40   4
  226            fftbas_plan_mpi                       0.258328                       40   5
  227              dfftw_execute                         0.117525                    120   6
  228              map_backward                          0.015041                     40   6
  229                map_gather                            0.004169                   20   7
  230                m_alltoallv_z                         0.006316                   20   7
  231                map_scatter                           0.003608                   20   7
  232              map_forward                           0.115553                     40   6
  233                map_gather                            0.056352                   20   7
  234                m_alltoallv_z                         0.019616                   20   7
  235                map_scatter                           0.038543                   20   7
  236          M_sumb_d                              0.007467                         20   4
  237        set_dd_magatom                        0.000003                            1   3
  238        set_dd_paw                            0.019236                            1   3
  239          set_rsgf_all                          0.000003                          1   4
  240          M_sumb_d                              0.019091                          8   4
  241        strkin                                0.001083                            1   3
  242          M_sumb_d                              0.000406                          1   4
  243        strelo                                0.003109                            1   3
  244          M_sumb_d                              0.000386                          2   4
  245        strenl                                1.213663                            1   3
  246          spher                                 0.895554                         19   4
  247          phase                                 0.014266                        189   4
  248          proj1                                 0.277241                       1134   4
  249            crexp_mul_wave                        0.036330                     3402   5
  250            M_sumb_d                              0.085205                     1134   5
  251          M_sumb_d                              0.003315                          1   4
  252        M_sumb_d                              0.000214                            6   3
  253        fft3d_mpi                             0.017345                           11   3
  254          fftbas_plan_mpi                       0.015968                         11   4
  255            dfftw_execute                         0.006138                       33   5
  256            map_forward                           0.003231                       10   5
  257              map_gather                            0.000648                      5   6
  258              m_alltoallv_z                         0.001253                      5   6
  259              map_scatter                           0.001086                      5   6
  260            map_backward                          0.004331                       12   5
  261              map_gather                            0.001375                      6   6
  262              m_alltoallv_z                         0.001592                      6   6
  263              map_scatter                           0.001068                      6   6
  264        ggaall_grid                           0.001992                            1   3
  265        forhar                                0.007288                            2   3
  266          M_sumb_d                              0.000122                          2   4
  267        strehar                               0.003174                            1   3
  268          M_sumb_d                              0.000075                          1   4
  269        chggra                                0.007410                            1   3
  270          fft3d_mpi                             0.004850                          3   4
  271            fftbas_plan_mpi                       0.004418                        3   5
  272              dfftw_execute                         0.001801                      9   6
  273              map_backward                          0.000698                      2   6
  274                map_gather                            0.000211                    1   7
  275                m_alltoallv_z                         0.000252                    1   7
  276                map_scatter                           0.000182                    1   7
  277              map_forward                           0.001251                      4   6
  278                map_gather                            0.000270                    2   7
  279                m_alltoallv_z                         0.000479                    2   7
  280                map_scatter                           0.000399                    2   7
  281          M_sumb_d                              0.000123                          3   4
  282        brmix                                 0.030535                            1   3
  283          M_sumb_d                              0.000224                          6   4
  284          brpre                                 0.000048                          1   4
  285          setg0                                 0.001788                          1   4
  286          broyd                                 0.002884                          1   4
  287            M_sumb_d                              0.000580                       21   5
  288            brget                                 0.000456                       79   5
  289            brsav                                 0.000103                       19   5
  290          M_bcast_z                             0.024462                          1   4
  291          M_bcast_d                             0.000060                          1   4
  292        M_bcast_d                             0.000051                            2   3
  293      potlok                                0.031918                              1   2
  294        fft3d_mpi                             0.021171                           13   3
  295          fftbas_plan_mpi                       0.019650                         13   4
  296            dfftw_execute                         0.007092                       39   5
  297            map_forward                           0.005578                       14   5
  298              map_gather                            0.001017                      8   6
  299              m_alltoallv_z                         0.002082                      8   6
  300              map_scatter                           0.002105                      8   6
  301            map_backward                          0.004281                       12   5
  302              map_gather                            0.001295                      6   6
  303              m_alltoallv_z                         0.001602                      6   6
  304              map_scatter                           0.001092                      6   6
  305        ggaall_grid                           0.002083                            1   3
  306        M_sumb_d                              0.000258                            6   3
  307        M_bcast_d                             0.000110                            1   3
  308      potlok_metagga                        0.000004                              1   2
  309      set_dd_magatom                        0.000004                              1   2
  310      set_dd_paw                            0.000465                              1   2
  311        set_rsgf_all                          0.000004                            1   3
  312        M_sumb_d                              0.000282                            8   3
  313      densta                                0.002556                              1   2
  314        M_sumb_d                              0.000836                           43   3
  315      lprj_proall                           0.000008                              1   2

 Flat profile
 ============

             routine name                   CPU           calls
 ---------------------------------------------------------------
 total_time                             14.033004           1
 dfftw_execute                           7.576787       63063
 eddav                                   6.744085          19
 fftbas_plan_mpi                         4.594579       21023
 M_sumb_d                                3.392624       57378
 setdij_                                 2.589191          43
 set_charge                              2.484493          15
 m_alltoallv_z                           2.159200       21052
 elmin                                   1.799857           1
 pdssyex_zheevx                          1.780879         399
 M_alltoall_d                            1.539562       69300
 proj1                                   1.269674        8334
 orth1                                   1.232306       14223
 gemm                                    1.143414       28404
 vhamil                                  1.140658        9468
 spher                                   1.039960          20
 fftwav_mpi                              0.957136       11214
 map_forward                             0.935878       22754
 map_scatter                             0.863800       21052
 map_gather                              0.838964       21052
 vnlac0                                  0.644576        9468
 redis_pw                                0.596695       26850
 M_bcast_z                               0.585379        7291
 hamiltmu                                0.530271        4734
 redis_proj                              0.521781       33945
 w1_copy                                 0.436138       28404
 work_mul_crexp                          0.370364       28404
 fft3d_mpi                               0.345416       21021
 map_backward                            0.340354       19288
 fftext_mpi                              0.325883        9468
 crpa_reader                             0.276793           1
 crexp_mul_wave                          0.276722       25002
 eccp                                    0.247869        2394
 kinhamil                                0.198383        9468
 overl                                   0.188673       16563
 M_bcast_d                               0.154545        4772
 pw_charge                               0.134486        1746
 potlok                                  0.130825          16
 overl1                                  0.115993        9468
 apply_precond                           0.106472        7074
 setup_precond                           0.084163        2394
 w1_projall                              0.078805        3537
 lincom                                  0.076645         420
 fornl                                   0.052249           1
 phase                                   0.047093         631
 force_and_stress                        0.046513           1
 soft_charge                             0.045515          15
 truncate_high_frequency_w1              0.040382       11862
 ggaall_grid                             0.034443          17
 densta                                  0.033299          20
 strenl                                  0.023287           1
 brmix                                   0.021868          15
 setg0                                   0.021395          16
 broyd                                   0.016052          15
 forhar                                  0.007166           2
 depsum                                  0.006613          15
 brgrid                                  0.003797           1
 forloc                                  0.003661           1
 brget                                   0.003479         654
 strehar                                 0.003099           1
 set_dd_paw                              0.002940          17
 strelo                                  0.002723           1
 chggra                                  0.002437           1
 orthch                                  0.002264           1
 choleski                                0.001828          21
 proj                                    0.001590          21
 brsav                                   0.001263         182
 brpre                                   0.000879          15
 strkin                                  0.000677           1
 fordep                                  0.000112           1
 set_rsgf_all                            0.000076          17
 vectorpot                               0.000072          16
 potlok_metagga                          0.000063          16
 set_dd_magatom                          0.000061          17
 set_kineden                             0.000049          14
 rotate_active_occupied_orbital          0.000015           1
 lprj_proall                             0.000008           1
 redis_pw_over_bands                     0.000003           1
 ---------------------------------------------------------------
  summed up times    65.3102509975433

 Accumulative profile
 ====================

             routine name                   CPU           calls
 ---------------------------------------------------------------
 total_time                             65.310251           1
 elmin                                  46.555311           1
 eddav                                  38.691155          19
 fft3d_mpi                              17.633345       21021
 fftbas_plan_mpi                        17.309562       21023
 hamiltmu                               12.258479        4734
 fftwav_mpi                             10.150186       11214
 kinhamil                                7.724788        9468
 dfftw_execute                           7.576787       63063
 fftext_mpi                              7.526406        9468
 set_charge                              4.469743          15
 force_and_stress                        3.623591           1
 M_sumb_d                                3.392624       57378
 setdij_                                 3.253511          43
 map_forward                             3.159758       22754
 vnlac0                                  2.746769        9468
 m_alltoallv_z                           2.159200       21052
 proj1                                   2.141866        8334
 map_backward                            1.978439       19288
 w1_projall                              1.913620        3537
 pdssyex_zheevx                          1.780879         399
 soft_charge                             1.729445          15
 M_alltoall_d                            1.539562       69300
 redis_pw                                1.458259       26850
 orth1                                   1.232306       14223
 strenl                                  1.213663           1
 redis_proj                              1.199780       33945
 gemm                                    1.143414       28404
 vhamil                                  1.140658        9468
 spher                                   1.039960          20
 map_scatter                             0.863800       21052
 map_gather                              0.838964       21052
 M_bcast_z                               0.585379        7291
 potlok                                  0.501609          16
 fordep                                  0.443993           1
 w1_copy                                 0.436138       28404
 eccp                                    0.386508        2394
 work_mul_crexp                          0.370364       28404
 crpa_reader                             0.276793           1
 crexp_mul_wave                          0.276722       25002
 overl                                   0.188673       16563
 set_dd_paw                              0.181917          17
 M_bcast_d                               0.154545        4772
 setup_precond                           0.143357        2394
 pw_charge                               0.134486        1746
 brmix                                   0.119457          15
 overl1                                  0.115993        9468
 apply_precond                           0.106472        7074
 lincom                                  0.076645         420
 fornl                                   0.069122           1
 densta                                  0.049192          20
 phase                                   0.047093         631
 truncate_high_frequency_w1              0.040382       11862
 ggaall_grid                             0.034443          17
 proj                                    0.031400          21
 orthch                                  0.030603           1
 broyd                                   0.027659          15
 setg0                                   0.021395          16
 depsum                                  0.011936          15
 chggra                                  0.007410           1
 forhar                                  0.007288           2
 brgrid                                  0.003797           1
 forloc                                  0.003721           1
 brget                                   0.003479         654
 strehar                                 0.003174           1
 strelo                                  0.003109           1
 choleski                                0.001828          21
 brsav                                   0.001263         182
 strkin                                  0.001083           1
 brpre                                   0.000879          15
 set_rsgf_all                            0.000076          17
 vectorpot                               0.000072          16
 potlok_metagga                          0.000063          16
 set_dd_magatom                          0.000061          17
 set_kineden                             0.000049          14
 rotate_active_occupied_orbital          0.000015           1
 lprj_proall                             0.000008           1
 redis_pw_over_bands                     0.000003           1
 ---------------------------------------------------------------

Profiling took   1.674567  1.995691  0.006538  0.005105 seconds
Profiling took   1.634919 seconds
