<?xml version="1.0" encoding="ISO-8859-1"?>
<modeling>
 <generator>
  <i name="program" type="string">vasp </i>
  <i name="version" type="string">6.0.8  </i>
  <i name="subversion" type="string">29Jun18 (build Jun 13 2019 12:54:44) complex                          parallel </i>
  <i name="platform" type="string">IFC18_CrayMPICH </i>
  <i name="date" type="string">2021 12 05 </i>
  <i name="time" type="string">14:21:49 </i>
 </generator>
 <incar>
  <i type="int" name="KPAR">     4</i>
  <i type="int" name="NPAR">     4</i>
  <i type="int" name="ISTART">     0</i>
  <i type="string" name="PREC"> ACC</i>
  <i type="string" name="ALGO"> Normal</i>
  <i type="logical" name="ADDGRID"> T  </i>
  <i type="int" name="ISPIN">     1</i>
  <i type="int" name="NELMIN">     5</i>
  <i type="int" name="IBRION">    -1</i>
  <i name="EDIFF">      0.00000010</i>
  <i type="int" name="NSW">     0</i>
  <i type="int" name="ISIF">     3</i>
  <i name="ENCUT">    700.00000000</i>
  <i type="logical" name="LREAL"> F  </i>
  <i type="int" name="ISMEAR">     0</i>
  <i name="SIGMA">      0.01000000</i>
  <i type="logical" name="LWAVE"> F  </i>
  <i type="logical" name="LCHARG"> F  </i>
  <i type="logical" name="LVTOT"> F  </i>
  <i type="string" name="ALGO"> Normal</i>
  <i type="string" name="GGA"> PS</i>
  <i name="EDIFF">      0.00000010</i>
  <i type="int" name="ISPIN">     1</i>
 </incar>
 <structure name="primitive_cell" >
  <crystal>
   <varray name="basis" >
    <v>       0.00000000       3.46575352       3.46575352 </v>
    <v>       3.46575352       0.00000000       3.46575352 </v>
    <v>       3.46575352       3.46575352       0.00000000 </v>
   </varray>
   <i name="volume">     83.25743279 </i>
   <varray name="rec_basis" >
    <v>      -0.14426877       0.14426877       0.14426877 </v>
    <v>       0.14426877      -0.14426877       0.14426877 </v>
    <v>       0.14426877       0.14426877      -0.14426877 </v>
   </varray>
  </crystal>
  <varray name="positions" >
   <v>       0.25000000       0.25000000       0.25000000 </v>
   <v>       0.75000000       0.75000000       0.75000000 </v>
   <v>       0.00000000       0.00000000       0.00000000 </v>
  </varray>
 </structure>
 <varray name="primitive_index" >
  <v type="int" >        1 </v>
  <v type="int" >        2 </v>
  <v type="int" >        3 </v>
 </varray>
 <kpoints>
  <generation param="Gamma">
   <v type="int" name="divisions">      13       13       13 </v>
   <v name="usershift">      0.00000000       0.00000000       0.00000000 </v>
   <v name="genvec1">      0.07692308      -0.00000000       0.00000000 </v>
   <v name="genvec2">     -0.00000000       0.07692308      -0.00000000 </v>
   <v name="genvec3">      0.00000000       0.00000000       0.07692308 </v>
   <v name="shift">      0.00000000       0.00000000       0.00000000 </v>
  </generation>
  <varray name="kpointlist" >
   <v>       0.00000000       0.00000000       0.00000000 </v>
   <v>       0.07692308      -0.00000000      -0.00000000 </v>
   <v>       0.15384615      -0.00000000       0.00000000 </v>
   <v>       0.23076923       0.00000000      -0.00000000 </v>
   <v>       0.30769231      -0.00000000       0.00000000 </v>
   <v>       0.38461538      -0.00000000       0.00000000 </v>
   <v>       0.46153846      -0.00000000       0.00000000 </v>
   <v>       0.07692308       0.07692308      -0.00000000 </v>
   <v>       0.15384615       0.07692308      -0.00000000 </v>
   <v>       0.23076923       0.07692308       0.00000000 </v>
   <v>       0.30769231       0.07692308       0.00000000 </v>
   <v>       0.38461538       0.07692308       0.00000000 </v>
   <v>       0.46153846       0.07692308      -0.00000000 </v>
   <v>      -0.46153846       0.07692308       0.00000000 </v>
   <v>      -0.38461538       0.07692308       0.00000000 </v>
   <v>      -0.30769231       0.07692308      -0.00000000 </v>
   <v>      -0.23076923       0.07692308      -0.00000000 </v>
   <v>      -0.15384615       0.07692308       0.00000000 </v>
   <v>      -0.07692308       0.07692308       0.00000000 </v>
   <v>       0.15384615       0.15384615      -0.00000000 </v>
   <v>       0.23076923       0.15384615      -0.00000000 </v>
   <v>       0.30769231       0.15384615      -0.00000000 </v>
   <v>       0.38461538       0.15384615      -0.00000000 </v>
   <v>       0.46153846       0.15384615      -0.00000000 </v>
   <v>      -0.46153846       0.15384615      -0.00000000 </v>
   <v>      -0.38461538       0.15384615       0.00000000 </v>
   <v>      -0.30769231       0.15384615      -0.00000000 </v>
   <v>      -0.23076923       0.15384615      -0.00000000 </v>
   <v>      -0.15384615       0.15384615      -0.00000000 </v>
   <v>       0.23076923       0.23076923      -0.00000000 </v>
   <v>       0.30769231       0.23076923      -0.00000000 </v>
   <v>       0.38461538       0.23076923       0.00000000 </v>
   <v>       0.46153846       0.23076923       0.00000000 </v>
   <v>      -0.46153846       0.23076923       0.00000000 </v>
   <v>      -0.38461538       0.23076923      -0.00000000 </v>
   <v>      -0.30769231       0.23076923       0.00000000 </v>
   <v>      -0.23076923       0.23076923       0.00000000 </v>
   <v>       0.30769231       0.30769231      -0.00000000 </v>
   <v>       0.38461538       0.30769231      -0.00000000 </v>
   <v>       0.46153846       0.30769231      -0.00000000 </v>
   <v>      -0.46153846       0.30769231      -0.00000000 </v>
   <v>      -0.38461538       0.30769231       0.00000000 </v>
   <v>      -0.30769231       0.30769231      -0.00000000 </v>
   <v>       0.38461538       0.38461538      -0.00000000 </v>
   <v>       0.46153846       0.38461538      -0.00000000 </v>
   <v>      -0.46153846       0.38461538      -0.00000000 </v>
   <v>      -0.38461538       0.38461538      -0.00000000 </v>
   <v>       0.46153846       0.46153846      -0.00000000 </v>
   <v>      -0.46153846       0.46153846      -0.00000000 </v>
   <v>       0.23076923       0.15384615       0.07692308 </v>
   <v>       0.30769231       0.15384615       0.07692308 </v>
   <v>       0.38461538       0.15384615       0.07692308 </v>
   <v>       0.46153846       0.15384615       0.07692308 </v>
   <v>      -0.46153846       0.15384615       0.07692308 </v>
   <v>       0.30769231       0.23076923       0.07692308 </v>
   <v>       0.38461538       0.23076923       0.07692308 </v>
   <v>       0.46153846       0.23076923       0.07692308 </v>
   <v>      -0.46153846       0.23076923       0.07692308 </v>
   <v>      -0.38461538       0.23076923       0.07692308 </v>
   <v>      -0.30769231       0.23076923       0.07692308 </v>
   <v>      -0.23076923       0.23076923       0.07692308 </v>
   <v>      -0.15384615       0.23076923       0.07692308 </v>
   <v>       0.38461538       0.30769231       0.07692308 </v>
   <v>       0.46153846       0.30769231       0.07692308 </v>
   <v>      -0.46153846       0.30769231       0.07692308 </v>
   <v>      -0.38461538       0.30769231       0.07692308 </v>
   <v>      -0.30769231       0.30769231       0.07692308 </v>
   <v>      -0.23076923       0.30769231       0.07692308 </v>
   <v>       0.46153846       0.38461538       0.07692308 </v>
   <v>      -0.46153846       0.38461538       0.07692308 </v>
   <v>      -0.38461538       0.38461538       0.07692308 </v>
   <v>      -0.30769231       0.38461538       0.07692308 </v>
   <v>      -0.46153846       0.46153846       0.07692308 </v>
   <v>      -0.38461538       0.46153846       0.07692308 </v>
   <v>       0.46153846       0.30769231       0.15384615 </v>
   <v>      -0.46153846       0.30769231       0.15384615 </v>
   <v>      -0.38461538       0.30769231       0.15384615 </v>
   <v>      -0.46153846       0.38461538       0.15384615 </v>
   <v>      -0.38461538       0.38461538       0.15384615 </v>
   <v>      -0.30769231       0.38461538       0.15384615 </v>
   <v>      -0.23076923       0.38461538       0.15384615 </v>
   <v>      -0.38461538       0.46153846       0.15384615 </v>
   <v>      -0.30769231       0.46153846       0.15384615 </v>
   <v>      -0.30769231       0.46153846       0.23076923 </v>
  </varray>
  <varray name="weights" >
   <v>       0.00045517 </v>
   <v>       0.00364133 </v>
   <v>       0.00364133 </v>
   <v>       0.00364133 </v>
   <v>       0.00364133 </v>
   <v>       0.00364133 </v>
   <v>       0.00364133 </v>
   <v>       0.00273100 </v>
   <v>       0.01092399 </v>
   <v>       0.01092399 </v>
   <v>       0.01092399 </v>
   <v>       0.01092399 </v>
   <v>       0.01092399 </v>
   <v>       0.01092399 </v>
   <v>       0.01092399 </v>
   <v>       0.01092399 </v>
   <v>       0.01092399 </v>
   <v>       0.01092399 </v>
   <v>       0.00546199 </v>
   <v>       0.00273100 </v>
   <v>       0.01092399 </v>
   <v>       0.01092399 </v>
   <v>       0.01092399 </v>
   <v>       0.01092399 </v>
   <v>       0.01092399 </v>
   <v>       0.01092399 </v>
   <v>       0.01092399 </v>
   <v>       0.01092399 </v>
   <v>       0.00546199 </v>
   <v>       0.00273100 </v>
   <v>       0.01092399 </v>
   <v>       0.01092399 </v>
   <v>       0.01092399 </v>
   <v>       0.01092399 </v>
   <v>       0.01092399 </v>
   <v>       0.01092399 </v>
   <v>       0.00546199 </v>
   <v>       0.00273100 </v>
   <v>       0.01092399 </v>
   <v>       0.01092399 </v>
   <v>       0.01092399 </v>
   <v>       0.01092399 </v>
   <v>       0.00546199 </v>
   <v>       0.00273100 </v>
   <v>       0.01092399 </v>
   <v>       0.01092399 </v>
   <v>       0.00546199 </v>
   <v>       0.00273100 </v>
   <v>       0.00546199 </v>
   <v>       0.01092399 </v>
   <v>       0.02184797 </v>
   <v>       0.02184797 </v>
   <v>       0.02184797 </v>
   <v>       0.02184797 </v>
   <v>       0.01092399 </v>
   <v>       0.02184797 </v>
   <v>       0.02184797 </v>
   <v>       0.02184797 </v>
   <v>       0.02184797 </v>
   <v>       0.02184797 </v>
   <v>       0.02184797 </v>
   <v>       0.01092399 </v>
   <v>       0.01092399 </v>
   <v>       0.02184797 </v>
   <v>       0.02184797 </v>
   <v>       0.02184797 </v>
   <v>       0.02184797 </v>
   <v>       0.01092399 </v>
   <v>       0.01092399 </v>
   <v>       0.02184797 </v>
   <v>       0.02184797 </v>
   <v>       0.01092399 </v>
   <v>       0.01092399 </v>
   <v>       0.01092399 </v>
   <v>       0.01092399 </v>
   <v>       0.02184797 </v>
   <v>       0.02184797 </v>
   <v>       0.01092399 </v>
   <v>       0.02184797 </v>
   <v>       0.02184797 </v>
   <v>       0.01092399 </v>
   <v>       0.01092399 </v>
   <v>       0.01092399 </v>
   <v>       0.01092399 </v>
  </varray>
 </kpoints>
 <parameters>
  <separator name="general" >
   <i type="string" name="SYSTEM">unknown system</i>
   <i type="logical" name="LCOMPAT"> F  </i>
  </separator>
  <separator name="electronic" >
   <i type="string" name="PREC">acc</i>
   <i name="ENMAX">    700.00000000</i>
   <i name="ENAUG">    526.41000000</i>
   <i name="EDIFF">      0.00000010</i>
   <i type="int" name="IALGO">    38</i>
   <i type="int" name="IWAVPR">    10</i>
   <i type="int" name="NBANDS">    24</i>
   <i type="int" name="NBANDSLOW">    -1</i>
   <i type="int" name="NBANDSHIGH">    -1</i>
   <i name="NELECT">     39.00000000</i>
   <i type="int" name="TURBO">     0</i>
   <i type="int" name="IRESTART">     0</i>
   <i type="int" name="NREBOOT">     0</i>
   <i type="int" name="NMIN">     0</i>
   <i name="EREF">      0.00000000</i>
   <separator name="electronic smearing" >
    <i type="int" name="ISMEAR">     0</i>
    <i name="SIGMA">      0.01000000</i>
    <i name="KSPACING">      0.50000000</i>
    <i type="logical" name="KGAMMA"> T  </i>
    <i type="logical" name="KBLOWUP"> T  </i>
   </separator>
   <separator name="electronic projectors" >
    <i type="logical" name="LREAL"> F  </i>
    <v name="ROPT">      0.00000000      0.00000000      0.00000000</v>
    <i type="int" name="LMAXPAW">  -100</i>
    <i type="int" name="LMAXMIX">     2</i>
    <i type="logical" name="NLSPLINE"> F  </i>
   </separator>
   <separator name="electronic startup" >
    <i type="int" name="ISTART">     0</i>
    <i type="int" name="ICHARG">     2</i>
    <i type="int" name="INIWAV">     1</i>
   </separator>
   <separator name="electronic spin" >
    <i type="int" name="ISPIN">     1</i>
    <i type="logical" name="LNONCOLLINEAR"> F  </i>
    <v name="MAGMOM">      1.00000000      1.00000000      1.00000000</v>
    <i name="NUPDOWN">     -1.00000000</i>
    <i type="logical" name="LSORBIT"> F  </i>
    <v name="SAXIS">      0.00000000      0.00000000      1.00000000</v>
    <i type="logical" name="LSPIRAL"> F  </i>
    <v name="QSPIRAL">      0.00000000      0.00000000      0.00000000</v>
    <i type="logical" name="LZEROZ"> F  </i>
   </separator>
   <separator name="electronic exchange-correlation" >
    <i type="logical" name="LASPH"> F  </i>
    <i type="logical" name="LMETAGGA"> F  </i>
   </separator>
   <separator name="electronic convergence" >
    <i type="int" name="NELM">    60</i>
    <i type="int" name="NELMDL">    -5</i>
    <i type="int" name="NELMIN">     5</i>
    <i name="ENINI">    700.00000000</i>
    <separator name="electronic convergence detail" >
     <i type="logical" name="LDIAG"> T  </i>
     <i type="logical" name="LSUBROT"> F  </i>
     <i name="WEIMIN">      0.00000000</i>
     <i name="EBREAK">      0.00000000</i>
     <i name="DEPER">      0.30000000</i>
     <i type="int" name="NRMM">     4</i>
     <i name="TIME">      0.40000000</i>
    </separator>
   </separator>
   <separator name="electronic mixer" >
    <i name="AMIX">      0.40000000</i>
    <i name="BMIX">      1.00000000</i>
    <i name="AMIN">      0.10000000</i>
    <i name="AMIX_MAG">      1.60000000</i>
    <i name="BMIX_MAG">      1.00000000</i>
    <separator name="electronic mixer details" >
     <i type="int" name="IMIX">     4</i>
     <i type="logical" name="MIXFIRST"> F  </i>
     <i type="int" name="MAXMIX">   -45</i>
     <i name="WC">    100.00000000</i>
     <i type="int" name="INIMIX">     1</i>
     <i type="int" name="MIXPRE">     1</i>
     <i type="int" name="MREMOVE">     5</i>
    </separator>
   </separator>
   <separator name="electronic dipolcorrection" >
    <i type="logical" name="LDIPOL"> F  </i>
    <i type="logical" name="LMONO"> F  </i>
    <i type="int" name="IDIPOL">     0</i>
    <i name="EPSILON">      1.00000000</i>
    <v name="DIPOL">   -100.00000000   -100.00000000   -100.00000000</v>
    <i name="EFIELD">      0.00000000</i>
   </separator>
  </separator>
  <separator name="grids" >
   <i type="int" name="NGX">    42</i>
   <i type="int" name="NGY">    42</i>
   <i type="int" name="NGZ">    42</i>
   <i type="int" name="NGXF">    84</i>
   <i type="int" name="NGYF">    84</i>
   <i type="int" name="NGZF">    84</i>
   <i type="logical" name="ADDGRID"> T  </i>
  </separator>
  <separator name="ionic" >
   <i type="int" name="NSW">     0</i>
   <i type="int" name="IBRION">    -1</i>
   <i type="int" name="MDALGO">     0</i>
   <i type="int" name="ISIF">     3</i>
   <i name="PSTRESS">      0.00000000</i>
   <i name="EDIFFG">      0.00000100</i>
   <i type="int" name="NFREE">     0</i>
   <i name="POTIM">      0.50000000</i>
   <i name="SMASS">     -3.00000000</i>
   <i name="SCALEE">      1.00000000</i>
  </separator>
  <separator name="ionic md" >
   <i name="TEBEG">      0.00010000</i>
   <i name="TEEND">      0.00010000</i>
   <i type="int" name="NBLOCK">     1</i>
   <i type="int" name="KBLOCK">     1</i>
   <i type="int" name="NPACO">   256</i>
   <i name="APACO">     16.00000000</i>
  </separator>
  <separator name="symmetry" >
   <i type="int" name="ISYM">     2</i>
   <i name="SYMPREC">      0.00001000</i>
  </separator>
  <separator name="dos" >
   <i type="int" name="LORBIT">     0</i>
   <v name="RWIGS">     -1.00000000     -1.00000000     -1.00000000</v>
   <i type="int" name="NEDOS">   301</i>
   <i name="EMIN">     10.00000000</i>
   <i name="EMAX">    -10.00000000</i>
   <i name="EFERMI">      0.00000000</i>
  </separator>
  <separator name="writing" >
   <i type="int" name="NWRITE">     2</i>
   <i type="logical" name="LWAVE"> F  </i>
   <i type="logical" name="LDOWNSAMPLE"> F  </i>
   <i type="logical" name="LCHARG"> F  </i>
   <i type="logical" name="LPARD"> F  </i>
   <i type="logical" name="LVTOT"> F  </i>
   <i type="logical" name="LVHAR"> F  </i>
   <i type="logical" name="LELF"> F  </i>
   <i type="logical" name="LOPTICS"> F  </i>
   <v name="STM">      0.00000000      0.00000000      0.00000000      0.00000000      0.00000000      0.00000000      0.00000000</v>
  </separator>
  <separator name="performance" >
   <i type="int" name="NPAR">     4</i>
   <i type="int" name="NSIM">     4</i>
   <i type="int" name="NBLK">    -1</i>
   <i type="logical" name="LPLANE"> T  </i>
   <i type="logical" name="LSCALAPACK"> T  </i>
   <i type="logical" name="LSCAAWARE"> F  </i>
   <i type="logical" name="LSCALU"> F  </i>
   <i type="logical" name="LASYNC"> F  </i>
   <i type="logical" name="LORBITALREAL"> F  </i>
  </separator>
  <separator name="miscellaneous" >
   <i type="int" name="IDIOT">     3</i>
   <i type="int" name="PHON_NSTRUCT">    -1</i>
   <i type="logical" name="LMUSIC"> F  </i>
   <v name="POMASS">    238.02900000    208.98000000    195.08000000</v>
   <v name="DARWINR">      0.00000000      0.00000000      0.00000000</v>
   <v name="DARWINV">      1.00000000      1.00000000      1.00000000</v>
   <i type="logical" name="LCORR"> T  </i>
  </separator>
  <i type="logical" name="GGA_COMPAT"> T  </i>
  <i type="logical" name="LBERRY"> F  </i>
  <i type="int" name="ICORELEVEL">     0</i>
  <i type="logical" name="LDAU"> F  </i>
  <i type="int" name="I_CONSTRAINED_M">     0</i>
  <separator name="electronic exchange-correlation" >
   <i type="string" name="GGA">PS</i>
   <i type="int" name="VOSKOWN">     0</i>
   <i type="logical" name="LHFCALC"> F  </i>
   <i type="string" name="PRECFOCK"></i>
   <i type="logical" name="LSYMGRAD"> F  </i>
   <i type="logical" name="LHFONE"> F  </i>
   <i type="logical" name="LRHFCALC"> F  </i>
   <i type="logical" name="LTHOMAS"> F  </i>
   <i type="logical" name="LMODELHF"> F  </i>
   <i type="logical" name="LFOCKACE"> F  </i>
   <i name="ENCUT4O">     -1.00000000</i>
   <i type="int" name="EXXOEP">     0</i>
   <i type="int" name="FOURORBIT">     0</i>
   <i name="AEXX">      0.00000000</i>
   <i name="HFALPHA">      0.00000000</i>
   <i name="MCALPHA">      0.00000000</i>
   <i name="ALDAX">      1.00000000</i>
   <i name="AGGAX">      1.00000000</i>
   <i name="ALDAC">      1.00000000</i>
   <i name="AGGAC">      1.00000000</i>
   <i type="int" name="NKREDX">     1</i>
   <i type="int" name="NKREDY">     1</i>
   <i type="int" name="NKREDZ">     1</i>
   <i type="logical" name="SHIFTRED"> F  </i>
   <i type="logical" name="ODDONLY"> F  </i>
   <i type="logical" name="EVENONLY"> F  </i>
   <i type="int" name="LMAXFOCK">     0</i>
   <i type="int" name="NMAXFOCKAE">     0</i>
   <i type="logical" name="LFOCKAEDFT"> F  </i>
   <i name="HFSCREEN">      0.00000000</i>
   <i name="HFSCREENC">      0.00000000</i>
   <i type="int" name="NBANDSGWLOW">     0</i>
  </separator>
  <separator name="vdW DFT" >
   <i type="logical" name="LUSE_VDW"> F  </i>
   <i name="Zab_VDW">     -0.84910000</i>
   <i name="PARAM1">      0.12340000</i>
   <i name="PARAM2">      1.00000000</i>
   <i name="PARAM3">      0.00000000</i>
  </separator>
  <separator name="model GW" >
   <i type="int" name="MODEL_GW">     0</i>
   <i name="MODEL_EPS0">     16.65148656</i>
   <i name="MODEL_ALPHA">      1.00000000</i>
  </separator>
  <separator name="linear response parameters" >
   <i type="logical" name="LEPSILON"> F  </i>
   <i type="logical" name="LRPA"> F  </i>
   <i type="logical" name="LNABLA"> F  </i>
   <i type="logical" name="LVEL"> F  </i>
   <i type="int" name="KINTER">     0</i>
   <i name="CSHIFT">      0.10000000</i>
   <i name="OMEGAMAX">     -1.00000000</i>
   <i name="DEG_THRESHOLD">      0.00200000</i>
   <i name="RTIME">     -0.10000000</i>
   <i name="WPLASMAI">      0.00000000</i>
   <v name="DFIELD">      0.00000000      0.00000000      0.00000000</v>
   <v name="WPLASMA">      0.00000000      0.00000000      0.00000000      0.00000000      0.00000000      0.00000000      0.00000000      0.00000000      0.00000000</v>
  </separator>
  <separator name="orbital magnetization" >
   <i type="logical" name="NUCIND"> F  </i>
   <v name="MAGPOS">      0.00000000      0.00000000      0.00000000</v>
   <i type="logical" name="LNICSALL"> T  </i>
   <i type="logical" name="ORBITALMAG"> F  </i>
   <i type="logical" name="LMAGBLOCH"> F  </i>
   <i type="logical" name="LCHIMAG"> F  </i>
   <i type="logical" name="LGAUGE"> T  </i>
   <i type="int" name="MAGATOM">     0</i>
   <v name="MAGDIPOL">      0.00000000      0.00000000      0.00000000</v>
   <v name="AVECCONST">      0.00000000      0.00000000      0.00000000</v>
  </separator>
  <separator name="response functions" >
   <i type="logical" name="LFINITE_TEMPERATURE"> F  </i>
   <i type="logical" name="LADDER"> F  </i>
   <i type="logical" name="LRPAFORCE"> F  </i>
   <i type="logical" name="LFXC"> F  </i>
   <i type="logical" name="LHARTREE"> T  </i>
   <i type="int" name="IBSE">     0</i>
   <v type="int" name="KPOINT">    -1     0     0     0</v>
   <i type="logical" name="LTCTC"> F  </i>
   <i type="logical" name="LTCTE"> F  </i>
   <i type="logical" name="LTETE"> F  </i>
   <i type="logical" name="LTRIPLET"> F  </i>
   <i type="logical" name="LFXCEPS"> F  </i>
   <i type="logical" name="LFXHEG"> F  </i>
   <i type="int" name="NATURALO">     2</i>
   <i type="logical" name="L2ORDER"> F  </i>
   <i type="logical" name="LDMP1"> F  </i>
   <i type="logical" name="LMP2LT"> F  </i>
   <i type="logical" name="LSMP2LT"> F  </i>
   <i type="logical" name="LUSEW"> F  </i>
   <i name="ENCUTGW">     -2.00000000</i>
   <i name="ENCUTGWSOFT">     -2.00000000</i>
   <i name="ENCUTLF">     -1.00000000</i>
   <i type="int" name="LMAXMP2">    -1</i>
   <i name="SCISSOR">      0.00000000</i>
   <i type="int" name="NOMEGA">     0</i>
   <i type="int" name="NOMEGAR">     0</i>
   <i type="int" name="NBANDSGW">    -1</i>
   <i type="int" name="NBANDSO">    -1</i>
   <i type="int" name="NBANDSV">    -1</i>
   <i type="int" name="NELM">     1</i>
   <i type="int" name="NELMHF">     1</i>
   <i type="int" name="DIM">     3</i>
   <i type="int" name="IESPILON">     4</i>
   <i type="int" name="ANTIRES">     0</i>
   <i name="OMEGAMAX">    -30.00000000</i>
   <i name="OMEGAMIN">    -30.00000000</i>
   <i name="OMEGATL">   -200.00000000</i>
   <i type="int" name="OMEGAGRID">   145</i>
   <i name="CSHIFT">     -0.10000000</i>
   <i type="logical" name="LSELFENERGY"> F  </i>
   <i type="logical" name="LSPECTRAL"> F  </i>
   <i type="logical" name="LSPECTRALGW"> F  </i>
   <i type="logical" name="LSINGLES"> F  </i>
   <i type="logical" name="LFERMIGW"> F  </i>
   <i type="logical" name="ODDONLYGW"> F  </i>
   <i type="logical" name="EVENONLYGW"> F  </i>
   <i type="int" name="NKREDLFX">     1</i>
   <i type="int" name="NKREDLFY">     1</i>
   <i type="int" name="NKREDLFZ">     1</i>
   <i type="int" name="MAXMEM">  2800</i>
   <i type="int" name="TELESCOPE">     0</i>
   <i type="int" name="NTAUPAR">     1</i>
   <i type="int" name="NOMEGAPAR">    -1</i>
   <i name="LAMBDA">      1.00000000</i>
  </separator>
  <separator name="External order field" >
   <i name="OFIELD_KAPPA">      0.00000000</i>
   <v name="OFIELD_K">      0.00000000      0.00000000      0.00000000</v>
   <i name="OFIELD_Q6_NEAR">      0.00000000</i>
   <i name="OFIELD_Q6_FAR">      0.00000000</i>
   <i name="OFIELD_A">      0.00000000</i>
  </separator>
 </parameters>
 <atominfo>
  <atoms>       3 </atoms>
  <types>       3 </types>
  <array name="atoms" >
   <dimension dim="1">ion</dimension>
   <field type="string">element</field>
   <field type="int">atomtype</field>
   <set>
    <rc><c>U </c><c>   1</c></rc>
    <rc><c>Bi</c><c>   2</c></rc>
    <rc><c>Pt</c><c>   3</c></rc>
   </set>
  </array>
  <array name="atomtypes" >
   <dimension dim="1">type</dimension>
   <field type="int">atomspertype</field>
   <field type="string">element</field>
   <field>mass</field>
   <field>valence</field>
   <field type="string">pseudopotential</field>
   <set>
    <rc><c>   1</c><c>U </c><c>    238.02900000</c><c>     14.00000000</c><c>  PAW_PBE U 06Sep2000                   </c></rc>
    <rc><c>   1</c><c>Bi</c><c>    208.98000000</c><c>     15.00000000</c><c>  PAW_PBE Bi_d 06Sep2000                </c></rc>
    <rc><c>   1</c><c>Pt</c><c>    195.08000000</c><c>     10.00000000</c><c>  PAW_PBE Pt 04Feb2005                  </c></rc>
   </set>
  </array>
 </atominfo>
 <structure name="initialpos" >
  <crystal>
   <varray name="basis" >
    <v>       0.00000000       3.46575352       3.46575352 </v>
    <v>       3.46575352       0.00000000       3.46575352 </v>
    <v>       3.46575352       3.46575352       0.00000000 </v>
   </varray>
   <i name="volume">     83.25743279 </i>
   <varray name="rec_basis" >
    <v>      -0.14426877       0.14426877       0.14426877 </v>
    <v>       0.14426877      -0.14426877       0.14426877 </v>
    <v>       0.14426877       0.14426877      -0.14426877 </v>
   </varray>
  </crystal>
  <varray name="positions" >
   <v>       0.25000000       0.25000000       0.25000000 </v>
   <v>       0.75000000       0.75000000       0.75000000 </v>
   <v>       0.00000000       0.00000000       0.00000000 </v>
  </varray>
 </structure>
 <calculation>
  <scstep>
   <time name="dav">    1.52    1.52</time>
   <time name="total">    1.68    1.74</time>
   <energy>
    <i name="alphaZ">    188.86943960 </i>
    <i name="ewald">  -3439.74540141 </i>
    <i name="hartreedc">   -851.37405424 </i>
    <i name="XCdc">     88.86728652 </i>
    <i name="pawpsdc">   3513.29252893 </i>
    <i name="pawaedc">  -3436.88002192 </i>
    <i name="eentropy">     -0.00008261 </i>
    <i name="bandstr">    268.69135578 </i>
    <i name="atom">   4095.35208632 </i>
    <i name="e_fr_energy">    427.07313698 </i>
    <i name="e_wo_entrp">    427.07321959 </i>
    <i name="e_0_energy">    427.07317828 </i>
   </energy>
  </scstep>
  <scstep>
   <time name="dav">    1.69    1.71</time>
   <time name="total">    1.69    1.71</time>
   <energy>
    <i name="e_fr_energy">     26.90847196 </i>
    <i name="e_wo_entrp">     26.90880096 </i>
    <i name="e_0_energy">     26.90863646 </i>
   </energy>
  </scstep>
  <scstep>
   <time name="dav">    1.79    1.81</time>
   <time name="total">    1.79    1.82</time>
   <energy>
    <i name="e_fr_energy">    -20.29878213 </i>
    <i name="e_wo_entrp">    -20.29760133 </i>
    <i name="e_0_energy">    -20.29819173 </i>
   </energy>
  </scstep>
  <scstep>
   <time name="dav">    2.50    2.52</time>
   <time name="total">    2.50    2.52</time>
   <energy>
    <i name="e_fr_energy">    -25.36923740 </i>
    <i name="e_wo_entrp">    -25.36807382 </i>
    <i name="e_0_energy">    -25.36865561 </i>
   </energy>
  </scstep>
  <scstep>
   <time name="dav">    1.96    1.98</time>
   <time name="total">    2.32    2.35</time>
   <energy>
    <i name="e_fr_energy">    -25.56090082 </i>
    <i name="e_wo_entrp">    -25.55960872 </i>
    <i name="e_0_energy">    -25.56025477 </i>
   </energy>
  </scstep>
  <scstep>
   <time name="dav">    2.08    2.08</time>
   <time name="total">    2.52    2.55</time>
   <energy>
    <i name="e_fr_energy">    -36.17346444 </i>
    <i name="e_wo_entrp">    -36.17326809 </i>
    <i name="e_0_energy">    -36.17336626 </i>
   </energy>
  </scstep>
  <scstep>
   <time name="dav">    2.01    2.01</time>
   <time name="total">    2.44    2.46</time>
   <energy>
    <i name="e_fr_energy">    -25.03668527 </i>
    <i name="e_wo_entrp">    -25.03632241 </i>
    <i name="e_0_energy">    -25.03650384 </i>
   </energy>
  </scstep>
  <scstep>
   <time name="dav">    2.06    2.06</time>
   <time name="total">    2.48    2.52</time>
   <energy>
    <i name="e_fr_energy">    -24.35581152 </i>
    <i name="e_wo_entrp">    -24.35428264 </i>
    <i name="e_0_energy">    -24.35504708 </i>
   </energy>
  </scstep>
  <scstep>
   <time name="dav">    2.09    2.09</time>
   <time name="total">    2.50    2.57</time>
   <energy>
    <i name="e_fr_energy">    -23.34331940 </i>
    <i name="e_wo_entrp">    -23.34152869 </i>
    <i name="e_0_energy">    -23.34242404 </i>
   </energy>
  </scstep>
  <scstep>
   <time name="dav">    2.08    2.08</time>
   <time name="total">    2.51    2.56</time>
   <energy>
    <i name="e_fr_energy">    -23.46079125 </i>
    <i name="e_wo_entrp">    -23.45940068 </i>
    <i name="e_0_energy">    -23.46009597 </i>
   </energy>
  </scstep>
  <scstep>
   <time name="dav">    2.01    2.01</time>
   <time name="total">    2.44    2.47</time>
   <energy>
    <i name="e_fr_energy">    -23.36119992 </i>
    <i name="e_wo_entrp">    -23.35928881 </i>
    <i name="e_0_energy">    -23.36024437 </i>
   </energy>
  </scstep>
  <scstep>
   <time name="dav">    2.41    2.41</time>
   <time name="total">    2.83    2.89</time>
   <energy>
    <i name="e_fr_energy">    -23.35765694 </i>
    <i name="e_wo_entrp">    -23.35544682 </i>
    <i name="e_0_energy">    -23.35655188 </i>
   </energy>
  </scstep>
  <scstep>
   <time name="dav">    2.22    2.22</time>
   <time name="total">    2.64    2.70</time>
   <energy>
    <i name="e_fr_energy">    -23.36099438 </i>
    <i name="e_wo_entrp">    -23.35874153 </i>
    <i name="e_0_energy">    -23.35986795 </i>
   </energy>
  </scstep>
  <scstep>
   <time name="dav">    2.05    2.05</time>
   <time name="total">    2.47    2.52</time>
   <energy>
    <i name="e_fr_energy">    -23.35628743 </i>
    <i name="e_wo_entrp">    -23.35416051 </i>
    <i name="e_0_energy">    -23.35522397 </i>
   </energy>
  </scstep>
  <scstep>
   <time name="dav">    2.29    2.29</time>
   <time name="total">    2.71    2.76</time>
   <energy>
    <i name="e_fr_energy">    -23.35628667 </i>
    <i name="e_wo_entrp">    -23.35411041 </i>
    <i name="e_0_energy">    -23.35519854 </i>
   </energy>
  </scstep>
  <scstep>
   <time name="dav">    1.97    1.97</time>
   <time name="total">    2.40    2.43</time>
   <energy>
    <i name="e_fr_energy">    -23.35629225 </i>
    <i name="e_wo_entrp">    -23.35412313 </i>
    <i name="e_0_energy">    -23.35520769 </i>
   </energy>
  </scstep>
  <scstep>
   <time name="dav">    2.14    2.14</time>
   <time name="total">    2.57    2.62</time>
   <energy>
    <i name="e_fr_energy">    -23.35628996 </i>
    <i name="e_wo_entrp">    -23.35412003 </i>
    <i name="e_0_energy">    -23.35520499 </i>
   </energy>
  </scstep>
  <scstep>
   <time name="dav">    2.29    2.29</time>
   <time name="total">    2.72    2.75</time>
   <energy>
    <i name="e_fr_energy">    -23.35629018 </i>
    <i name="e_wo_entrp">    -23.35411794 </i>
    <i name="e_0_energy">    -23.35520406 </i>
   </energy>
  </scstep>
  <scstep>
   <time name="dav">    1.59    1.59</time>
   <time name="total">    1.73    1.75</time>
   <energy>
    <i name="alphaZ">    188.86943960 </i>
    <i name="ewald">  -3439.74540141 </i>
    <i name="hartreedc">   -841.81206595 </i>
    <i name="XCdc">     88.59218136 </i>
    <i name="pawpsdc">   3947.79202152 </i>
    <i name="pawaedc">  -3878.99168803 </i>
    <i name="eentropy">     -0.00217272 </i>
    <i name="bandstr">   -183.41069094 </i>
    <i name="atom">   4095.35208632 </i>
    <i name="e_fr_energy">    -23.35629025 </i>
    <i name="e_wo_entrp">    -23.35411753 </i>
    <i name="e_0_energy">    -23.35520389 </i>
   </energy>
  </scstep>
  <structure>
   <crystal>
    <varray name="basis" >
     <v>       0.00000000       3.46575352       3.46575352 </v>
     <v>       3.46575352       0.00000000       3.46575352 </v>
     <v>       3.46575352       3.46575352       0.00000000 </v>
    </varray>
    <i name="volume">     83.25743279 </i>
    <varray name="rec_basis" >
     <v>      -0.14426877       0.14426877       0.14426877 </v>
     <v>       0.14426877      -0.14426877       0.14426877 </v>
     <v>       0.14426877       0.14426877      -0.14426877 </v>
    </varray>
   </crystal>
   <varray name="positions" >
    <v>       0.25000000       0.25000000       0.25000000 </v>
    <v>       0.75000000       0.75000000       0.75000000 </v>
    <v>       0.00000000       0.00000000       0.00000000 </v>
   </varray>
  </structure>
  <varray name="forces" >
   <v>       0.00000000       0.00000000       0.00000000 </v>
   <v>       0.00000000       0.00000000       0.00000000 </v>
   <v>      -0.00000000      -0.00000000      -0.00000000 </v>
  </varray>
  <varray name="stress" >
   <v>    -113.80512267      -0.00000000       0.00000000 </v>
   <v>       0.00000000    -113.80512267      -0.00000000 </v>
   <v>       0.00000000       0.00000000    -113.80512267 </v>
  </varray>
  <energy>
   <i name="e_fr_energy">    -23.35629025 </i>
   <i name="e_wo_entrp">    -23.35520389 </i>
   <i name="e_0_energy">     -0.00217272 </i>
  </energy>
  <time name="totalsc">   48.85   50.37</time>
  <eigenvalues>
   <array>
    <dimension dim="1">band</dimension>
    <dimension dim="2">kpoint</dimension>
    <dimension dim="3">spin</dimension>
    <field>eigene</field>
    <field>occ</field>
    <set>
     <set comment="spin 1">
      <set comment="kpoint 1">
       <r>  -35.8418    1.0000 </r>
       <r>  -14.3344    1.0000 </r>
       <r>  -14.3344    1.0000 </r>
       <r>  -14.3126    1.0000 </r>
       <r>  -14.3126    1.0000 </r>
       <r>  -14.3126    1.0000 </r>
       <r>  -11.0395    1.0000 </r>
       <r>  -11.0395    1.0000 </r>
       <r>  -11.0395    1.0000 </r>
       <r>   -3.4377    1.0000 </r>
       <r>    4.3256    1.0000 </r>
       <r>    4.3256    1.0000 </r>
       <r>    4.3256    1.0000 </r>
       <r>    4.6646    1.0000 </r>
       <r>    4.6646    1.0000 </r>
       <r>    6.3926    1.0000 </r>
       <r>    7.4260    1.0000 </r>
       <r>    7.4260    1.0000 </r>
       <r>    7.4260    1.0000 </r>
       <r>    8.3757    0.9588 </r>
       <r>    8.4684    0.0000 </r>
       <r>    8.4685    0.0000 </r>
       <r>    8.4721    0.0000 </r>
       <r>    8.5593    0.0000 </r>
      </set>
      <set comment="kpoint 2">
       <r>  -35.8417    1.0000 </r>
       <r>  -14.3352    1.0000 </r>
       <r>  -14.3352    1.0000 </r>
       <r>  -14.3127    1.0000 </r>
       <r>  -14.3125    1.0000 </r>
       <r>  -14.3125    1.0000 </r>
       <r>  -11.0473    1.0000 </r>
       <r>  -11.0379    1.0000 </r>
       <r>  -11.0379    1.0000 </r>
       <r>   -3.3899    1.0000 </r>
       <r>    4.1929    1.0000 </r>
       <r>    4.2571    1.0000 </r>
       <r>    4.2571    1.0000 </r>
       <r>    4.7290    1.0000 </r>
       <r>    4.7290    1.0000 </r>
       <r>    6.2460    1.0000 </r>
       <r>    7.3759    1.0000 </r>
       <r>    7.3759    1.0000 </r>
       <r>    7.5221    1.0000 </r>
       <r>    8.3138    1.0000 </r>
       <r>    8.4149    0.0001 </r>
       <r>    8.4149    0.0001 </r>
       <r>    8.5462    0.0000 </r>
       <r>    8.5992    0.0000 </r>
      </set>
      <set comment="kpoint 3">
       <r>  -35.8414    1.0000 </r>
       <r>  -14.3374    1.0000 </r>
       <r>  -14.3374    1.0000 </r>
       <r>  -14.3131    1.0000 </r>
       <r>  -14.3121    1.0000 </r>
       <r>  -14.3121    1.0000 </r>
       <r>  -11.0684    1.0000 </r>
       <r>  -11.0336    1.0000 </r>
       <r>  -11.0336    1.0000 </r>
       <r>   -3.2561    1.0000 </r>
       <r>    3.8704    1.0000 </r>
       <r>    4.1412    1.0000 </r>
       <r>    4.1412    1.0000 </r>
       <r>    4.8258    1.0000 </r>
       <r>    4.8258    1.0000 </r>
       <r>    5.9060    1.0000 </r>
       <r>    7.2609    1.0000 </r>
       <r>    7.2609    1.0000 </r>
       <r>    7.6045    1.0000 </r>
       <r>    8.3762    0.9522 </r>
       <r>    8.3762    0.9522 </r>
       <r>    8.4563    0.0000 </r>
       <r>    8.5622    0.0000 </r>
       <r>    8.6266    0.0000 </r>
      </set>
      <set comment="kpoint 4">
       <r>  -35.8409    1.0000 </r>
       <r>  -14.3405    1.0000 </r>
       <r>  -14.3405    1.0000 </r>
       <r>  -14.3137    1.0000 </r>
       <r>  -14.3116    1.0000 </r>
       <r>  -14.3116    1.0000 </r>
       <r>  -11.0971    1.0000 </r>
       <r>  -11.0275    1.0000 </r>
       <r>  -11.0275    1.0000 </r>
       <r>   -3.0637    1.0000 </r>
       <r>    3.4881    1.0000 </r>
       <r>    4.0476    1.0000 </r>
       <r>    4.0476    1.0000 </r>
       <r>    4.8714    1.0000 </r>
       <r>    4.8714    1.0000 </r>
       <r>    5.5155    1.0000 </r>
       <r>    7.1471    1.0000 </r>
       <r>    7.1471    1.0000 </r>
       <r>    7.6230    1.0000 </r>
       <r>    8.3675    0.9981 </r>
       <r>    8.3675    0.9981 </r>
       <r>    8.5971    0.0000 </r>
       <r>    8.6008    0.0000 </r>
       <r>    8.8041    0.0000 </r>
      </set>
      <set comment="kpoint 5">
       <r>  -35.8405    1.0000 </r>
       <r>  -14.3439    1.0000 </r>
       <r>  -14.3439    1.0000 </r>
       <r>  -14.3145    1.0000 </r>
       <r>  -14.3110    1.0000 </r>
       <r>  -14.3110    1.0000 </r>
       <r>  -11.1263    1.0000 </r>
       <r>  -11.0211    1.0000 </r>
       <r>  -11.0211    1.0000 </r>
       <r>   -2.8538    1.0000 </r>
       <r>    3.1386    1.0000 </r>
       <r>    3.9946    1.0000 </r>
       <r>    3.9946    1.0000 </r>
       <r>    4.8468    1.0000 </r>
       <r>    4.8468    1.0000 </r>
       <r>    5.1760    1.0000 </r>
       <r>    7.0759    1.0000 </r>
       <r>    7.0759    1.0000 </r>
       <r>    7.6647    1.0000 </r>
       <r>    8.3793    0.8895 </r>
       <r>    8.3793    0.8895 </r>
       <r>    8.5684    0.0000 </r>
       <r>    8.6483    0.0000 </r>
       <r>    8.7604    0.0000 </r>
      </set>
      <set comment="kpoint 6">
       <r>  -35.8401    1.0000 </r>
       <r>  -14.3467    1.0000 </r>
       <r>  -14.3467    1.0000 </r>
       <r>  -14.3152    1.0000 </r>
       <r>  -14.3105    1.0000 </r>
       <r>  -14.3105    1.0000 </r>
       <r>  -11.1494    1.0000 </r>
       <r>  -11.0158    1.0000 </r>
       <r>  -11.0158    1.0000 </r>
       <r>   -2.6750    1.0000 </r>
       <r>    2.8776    1.0000 </r>
       <r>    3.9793    1.0000 </r>
       <r>    3.9793    1.0000 </r>
       <r>    4.7790    1.0000 </r>
       <r>    4.7790    1.0000 </r>
       <r>    4.9382    1.0000 </r>
       <r>    7.0479    1.0000 </r>
       <r>    7.0479    1.0000 </r>
       <r>    7.7296    1.0000 </r>
       <r>    8.4047    0.0092 </r>
       <r>    8.4047    0.0092 </r>
       <r>    8.6837    0.0000 </r>
       <r>    8.6889    0.0000 </r>
       <r>    8.6899    0.0000 </r>
      </set>
      <set comment="kpoint 7">
       <r>  -35.8398    1.0000 </r>
       <r>  -14.3482    1.0000 </r>
       <r>  -14.3482    1.0000 </r>
       <r>  -14.3156    1.0000 </r>
       <r>  -14.3103    1.0000 </r>
       <r>  -14.3103    1.0000 </r>
       <r>  -11.1621    1.0000 </r>
       <r>  -11.0128    1.0000 </r>
       <r>  -11.0128    1.0000 </r>
       <r>   -2.5719    1.0000 </r>
       <r>    2.7388    1.0000 </r>
       <r>    3.9829    1.0000 </r>
       <r>    3.9829    1.0000 </r>
       <r>    4.7221    1.0000 </r>
       <r>    4.7221    1.0000 </r>
       <r>    4.8183    1.0000 </r>
       <r>    7.0422    1.0000 </r>
       <r>    7.0422    1.0000 </r>
       <r>    7.7811    1.0000 </r>
       <r>    8.4307    0.0000 </r>
       <r>    8.4307    0.0000 </r>
       <r>    8.6359    0.0000 </r>
       <r>    8.6361    0.0000 </r>
       <r>    8.7179    0.0000 </r>
      </set>
      <set comment="kpoint 8">
       <r>  -35.8417    1.0000 </r>
       <r>  -14.3366    1.0000 </r>
       <r>  -14.3342    1.0000 </r>
       <r>  -14.3129    1.0000 </r>
       <r>  -14.3124    1.0000 </r>
       <r>  -14.3124    1.0000 </r>
       <r>  -11.0437    1.0000 </r>
       <r>  -11.0406    1.0000 </r>
       <r>  -11.0406    1.0000 </r>
       <r>   -3.3751    1.0000 </r>
       <r>    4.0121    1.0000 </r>
       <r>    4.3399    1.0000 </r>
       <r>    4.3399    1.0000 </r>
       <r>    4.6778    1.0000 </r>
       <r>    4.7551    1.0000 </r>
       <r>    6.2361    1.0000 </r>
       <r>    7.2964    1.0000 </r>
       <r>    7.2964    1.0000 </r>
       <r>    7.6705    1.0000 </r>
       <r>    8.2640    1.0000 </r>
       <r>    8.4127    0.0002 </r>
       <r>    8.4127    0.0002 </r>
       <r>    8.5619    0.0000 </r>
       <r>    8.5678    0.0000 </r>
      </set>
      <set comment="kpoint 9">
       <r>  -35.8414    1.0000 </r>
       <r>  -14.3390    1.0000 </r>
       <r>  -14.3348    1.0000 </r>
       <r>  -14.3132    1.0000 </r>
       <r>  -14.3122    1.0000 </r>
       <r>  -14.3121    1.0000 </r>
       <r>  -11.0598    1.0000 </r>
       <r>  -11.0400    1.0000 </r>
       <r>  -11.0354    1.0000 </r>
       <r>   -3.2732    1.0000 </r>
       <r>    3.7475    1.0000 </r>
       <r>    4.2530    1.0000 </r>
       <r>    4.2943    1.0000 </r>
       <r>    4.7378    1.0000 </r>
       <r>    4.8255    1.0000 </r>
       <r>    6.0200    1.0000 </r>
       <r>    7.1588    1.0000 </r>
       <r>    7.1714    1.0000 </r>
       <r>    7.7979    1.0000 </r>
       <r>    8.3255    1.0000 </r>
       <r>    8.3872    0.5431 </r>
       <r>    8.4083    0.0020 </r>
       <r>    8.5723    0.0000 </r>
       <r>    8.6160    0.0000 </r>
      </set>
      <set comment="kpoint 10">
       <r>  -35.8410    1.0000 </r>
       <r>  -14.3420    1.0000 </r>
       <r>  -14.3369    1.0000 </r>
       <r>  -14.3136    1.0000 </r>
       <r>  -14.3118    1.0000 </r>
       <r>  -14.3116    1.0000 </r>
       <r>  -11.0861    1.0000 </r>
       <r>  -11.0364    1.0000 </r>
       <r>  -11.0285    1.0000 </r>
       <r>   -3.1057    1.0000 </r>
       <r>    3.4590    1.0000 </r>
       <r>    4.0901    1.0000 </r>
       <r>    4.2104    1.0000 </r>
       <r>    4.7974    1.0000 </r>
       <r>    4.8978    1.0000 </r>
       <r>    5.6752    1.0000 </r>
       <r>    7.0111    1.0000 </r>
       <r>    7.0639    1.0000 </r>
       <r>    7.7990    1.0000 </r>
       <r>    8.3612    0.9999 </r>
       <r>    8.3740    0.9762 </r>
       <r>    8.5715    0.0000 </r>
       <r>    8.5743    0.0000 </r>
       <r>    8.7313    0.0000 </r>
      </set>
      <set comment="kpoint 11">
       <r>  -35.8405    1.0000 </r>
       <r>  -14.3449    1.0000 </r>
       <r>  -14.3401    1.0000 </r>
       <r>  -14.3142    1.0000 </r>
       <r>  -14.3113    1.0000 </r>
       <r>  -14.3110    1.0000 </r>
       <r>  -11.1151    1.0000 </r>
       <r>  -11.0305    1.0000 </r>
       <r>  -11.0224    1.0000 </r>
       <r>   -2.9087    1.0000 </r>
       <r>    3.1790    1.0000 </r>
       <r>    3.9719    1.0000 </r>
       <r>    4.1416    1.0000 </r>
       <r>    4.7949    1.0000 </r>
       <r>    4.9116    1.0000 </r>
       <r>    5.3189    1.0000 </r>
       <r>    6.9183    1.0000 </r>
       <r>    7.0077    1.0000 </r>
       <r>    7.7907    1.0000 </r>
       <r>    8.3771    0.9387 </r>
       <r>    8.3780    0.9209 </r>
       <r>    8.5758    0.0000 </r>
       <r>    8.6237    0.0000 </r>
       <r>    8.7484    0.0000 </r>
      </set>
      <set comment="kpoint 12">
       <r>  -35.8401    1.0000 </r>
       <r>  -14.3469    1.0000 </r>
       <r>  -14.3435    1.0000 </r>
       <r>  -14.3148    1.0000 </r>
       <r>  -14.3109    1.0000 </r>
       <r>  -14.3105    1.0000 </r>
       <r>  -11.1401    1.0000 </r>
       <r>  -11.0237    1.0000 </r>
       <r>  -11.0185    1.0000 </r>
       <r>   -2.7270    1.0000 </r>
       <r>    2.9520    1.0000 </r>
       <r>    3.9250    1.0000 </r>
       <r>    4.0900    1.0000 </r>
       <r>    4.7508    1.0000 </r>
       <r>    4.8631    1.0000 </r>
       <r>    5.0374    1.0000 </r>
       <r>    6.8798    1.0000 </r>
       <r>    6.9956    1.0000 </r>
       <r>    7.8134    1.0000 </r>
       <r>    8.3957    0.1387 </r>
       <r>    8.4053    0.0072 </r>
       <r>    8.5760    0.0000 </r>
       <r>    8.6462    0.0000 </r>
       <r>    8.7093    0.0000 </r>
      </set>
      <set comment="kpoint 13">
       <r>  -35.8398    1.0000 </r>
       <r>  -14.3477    1.0000 </r>
       <r>  -14.3464    1.0000 </r>
       <r>  -14.3153    1.0000 </r>
       <r>  -14.3105    1.0000 </r>
       <r>  -14.3102    1.0000 </r>
       <r>  -11.1560    1.0000 </r>
       <r>  -11.0176    1.0000 </r>
       <r>  -11.0175    1.0000 </r>
       <r>   -2.6040    1.0000 </r>
       <r>    2.8114    1.0000 </r>
       <r>    3.9400    1.0000 </r>
       <r>    4.0371    1.0000 </r>
       <r>    4.7230    1.0000 </r>
       <r>    4.7873    1.0000 </r>
       <r>    4.8676    1.0000 </r>
       <r>    6.8695    1.0000 </r>
       <r>    7.0019    1.0000 </r>
       <r>    7.8512    1.0000 </r>
       <r>    8.4253    0.0000 </r>
       <r>    8.4310    0.0000 </r>
       <r>    8.5727    0.0000 </r>
       <r>    8.6288    0.0000 </r>
       <r>    8.7043    0.0000 </r>
      </set>
      <set comment="kpoint 14">
       <r>  -35.8398    1.0000 </r>
       <r>  -14.3481    1.0000 </r>
       <r>  -14.3471    1.0000 </r>
       <r>  -14.3154    1.0000 </r>
       <r>  -14.3104    1.0000 </r>
       <r>  -14.3101    1.0000 </r>
       <r>  -11.1601    1.0000 </r>
       <r>  -11.0197    1.0000 </r>
       <r>  -11.0136    1.0000 </r>
       <r>   -2.5702    1.0000 </r>
       <r>    2.7747    1.0000 </r>
       <r>    3.9720    1.0000 </r>
       <r>    3.9942    1.0000 </r>
       <r>    4.7282    1.0000 </r>
       <r>    4.7527    1.0000 </r>
       <r>    4.8241    1.0000 </r>
       <r>    6.8590    1.0000 </r>
       <r>    7.0106    1.0000 </r>
       <r>    7.8666    1.0000 </r>
       <r>    8.4309    0.0000 </r>
       <r>    8.4479    0.0000 </r>
       <r>    8.5699    0.0000 </r>
       <r>    8.6335    0.0000 </r>
       <r>    8.6736    0.0000 </r>
      </set>
      <set comment="kpoint 15">
       <r>  -35.8399    1.0000 </r>
       <r>  -14.3482    1.0000 </r>
       <r>  -14.3451    1.0000 </r>
       <r>  -14.3151    1.0000 </r>
       <r>  -14.3105    1.0000 </r>
       <r>  -14.3104    1.0000 </r>
       <r>  -11.1517    1.0000 </r>
       <r>  -11.0244    1.0000 </r>
       <r>  -11.0124    1.0000 </r>
       <r>   -2.6343    1.0000 </r>
       <r>    2.8476    1.0000 </r>
       <r>    3.9126    1.0000 </r>
       <r>    4.0613    1.0000 </r>
       <r>    4.7163    1.0000 </r>
       <r>    4.8295    1.0000 </r>
       <r>    4.9109    1.0000 </r>
       <r>    6.8329    1.0000 </r>
       <r>    7.0258    1.0000 </r>
       <r>    7.8436    1.0000 </r>
       <r>    8.4060    0.0053 </r>
       <r>    8.4345    0.0000 </r>
       <r>    8.5709    0.0000 </r>
       <r>    8.6596    0.0000 </r>
       <r>    8.6691    0.0000 </r>
      </set>
      <set comment="kpoint 16">
       <r>  -35.8403    1.0000 </r>
       <r>  -14.3468    1.0000 </r>
       <r>  -14.3423    1.0000 </r>
       <r>  -14.3146    1.0000 </r>
       <r>  -14.3109    1.0000 </r>
       <r>  -14.3108    1.0000 </r>
       <r>  -11.1322    1.0000 </r>
       <r>  -11.0307    1.0000 </r>
       <r>  -11.0146    1.0000 </r>
       <r>   -2.7804    1.0000 </r>
       <r>    3.0268    1.0000 </r>
       <r>    3.8863    1.0000 </r>
       <r>    4.1305    1.0000 </r>
       <r>    4.7494    1.0000 </r>
       <r>    4.9102    1.0000 </r>
       <r>    5.1189    1.0000 </r>
       <r>    6.7998    1.0000 </r>
       <r>    7.0660    1.0000 </r>
       <r>    7.8066    1.0000 </r>
       <r>    8.3819    0.8056 </r>
       <r>    8.4030    0.0171 </r>
       <r>    8.5737    0.0000 </r>
       <r>    8.6526    0.0000 </r>
       <r>    8.7134    0.0000 </r>
      </set>
      <set comment="kpoint 17">
       <r>  -35.8407    1.0000 </r>
       <r>  -14.3441    1.0000 </r>
       <r>  -14.3392    1.0000 </r>
       <r>  -14.3139    1.0000 </r>
       <r>  -14.3115    1.0000 </r>
       <r>  -14.3113    1.0000 </r>
       <r>  -11.1056    1.0000 </r>
       <r>  -11.0368    1.0000 </r>
       <r>  -11.0194    1.0000 </r>
       <r>   -2.9723    1.0000 </r>
       <r>    3.2962    1.0000 </r>
       <r>    3.9105    1.0000 </r>
       <r>    4.2111    1.0000 </r>
       <r>    4.7774    1.0000 </r>
       <r>    4.9492    1.0000 </r>
       <r>    5.4298    1.0000 </r>
       <r>    6.7984    1.0000 </r>
       <r>    7.1483    1.0000 </r>
       <r>    7.7869    1.0000 </r>
       <r>    8.3695    0.9955 </r>
       <r>    8.3774    0.9320 </r>
       <r>    8.5725    0.0000 </r>
       <r>    8.6161    0.0000 </r>
       <r>    8.7778    0.0000 </r>
      </set>
      <set comment="kpoint 18">
       <r>  -35.8412    1.0000 </r>
       <r>  -14.3408    1.0000 </r>
       <r>  -14.3367    1.0000 </r>
       <r>  -14.3134    1.0000 </r>
       <r>  -14.3120    1.0000 </r>
       <r>  -14.3118    1.0000 </r>
       <r>  -11.0776    1.0000 </r>
       <r>  -11.0413    1.0000 </r>
       <r>  -11.0260    1.0000 </r>
       <r>   -3.1647    1.0000 </r>
       <r>    3.6215    1.0000 </r>
       <r>    3.9896    1.0000 </r>
       <r>    4.3047    1.0000 </r>
       <r>    4.7539    1.0000 </r>
       <r>    4.9219    1.0000 </r>
       <r>    5.7854    1.0000 </r>
       <r>    6.8922    1.0000 </r>
       <r>    7.2629    1.0000 </r>
       <r>    7.7834    1.0000 </r>
       <r>    8.3677    0.9979 </r>
       <r>    8.3696    0.9953 </r>
       <r>    8.5439    0.0000 </r>
       <r>    8.5694    0.0000 </r>
       <r>    8.6881    0.0000 </r>
      </set>
      <set comment="kpoint 19">
       <r>  -35.8415    1.0000 </r>
       <r>  -14.3375    1.0000 </r>
       <r>  -14.3352    1.0000 </r>
       <r>  -14.3130    1.0000 </r>
       <r>  -14.3123    1.0000 </r>
       <r>  -14.3122    1.0000 </r>
       <r>  -11.0561    1.0000 </r>
       <r>  -11.0419    1.0000 </r>
       <r>  -11.0326    1.0000 </r>
       <r>   -3.3146    1.0000 </r>
       <r>    3.9475    1.0000 </r>
       <r>    4.1147    1.0000 </r>
       <r>    4.3522    1.0000 </r>
       <r>    4.7103    1.0000 </r>
       <r>    4.8363    1.0000 </r>
       <r>    6.0804    1.0000 </r>
       <r>    7.1246    1.0000 </r>
       <r>    7.3598    1.0000 </r>
       <r>    7.7048    1.0000 </r>
       <r>    8.3345    1.0000 </r>
       <r>    8.3822    0.7943 </r>
       <r>    8.4059    0.0056 </r>
       <r>    8.5649    0.0000 </r>
       <r>    8.5940    0.0000 </r>
      </set>
      <set comment="kpoint 20">
       <r>  -35.8412    1.0000 </r>
       <r>  -14.3412    1.0000 </r>
       <r>  -14.3336    1.0000 </r>
       <r>  -14.3136    1.0000 </r>
       <r>  -14.3118    1.0000 </r>
       <r>  -14.3118    1.0000 </r>
       <r>  -11.0563    1.0000 </r>
       <r>  -11.0437    1.0000 </r>
       <r>  -11.0437    1.0000 </r>
       <r>   -3.2125    1.0000 </r>
       <r>    3.4918    1.0000 </r>
       <r>    4.3727    1.0000 </r>
       <r>    4.3727    1.0000 </r>
       <r>    4.7149    1.0000 </r>
       <r>    4.7744    1.0000 </r>
       <r>    6.0058    1.0000 </r>
       <r>    7.0471    1.0000 </r>
       <r>    7.0471    1.0000 </r>
       <r>    7.9019    1.0000 </r>
       <r>    8.3225    1.0000 </r>
       <r>    8.3858    0.6195 </r>
       <r>    8.3858    0.6195 </r>
       <r>    8.5931    0.0000 </r>
       <r>    8.6425    0.0000 </r>
      </set>
      <set comment="kpoint 21">
       <r>  -35.8409    1.0000 </r>
       <r>  -14.3433    1.0000 </r>
       <r>  -14.3341    1.0000 </r>
       <r>  -14.3140    1.0000 </r>
       <r>  -14.3114    1.0000 </r>
       <r>  -14.3113    1.0000 </r>
       <r>  -11.0759    1.0000 </r>
       <r>  -11.0439    1.0000 </r>
       <r>  -11.0389    1.0000 </r>
       <r>   -3.0886    1.0000 </r>
       <r>    3.2650    1.0000 </r>
       <r>    4.2826    1.0000 </r>
       <r>    4.3469    1.0000 </r>
       <r>    4.7561    1.0000 </r>
       <r>    4.8131    1.0000 </r>
       <r>    5.8172    1.0000 </r>
       <r>    6.8720    1.0000 </r>
       <r>    6.9480    1.0000 </r>
       <r>    7.9221    1.0000 </r>
       <r>    8.3590    1.0000 </r>
       <r>    8.3816    0.8155 </r>
       <r>    8.5152    0.0000 </r>
       <r>    8.6033    0.0000 </r>
       <r>    8.7222    0.0000 </r>
      </set>
      <set comment="kpoint 22">
       <r>  -35.8405    1.0000 </r>
       <r>  -14.3449    1.0000 </r>
       <r>  -14.3363    1.0000 </r>
       <r>  -14.3144    1.0000 </r>
       <r>  -14.3111    1.0000 </r>
       <r>  -14.3107    1.0000 </r>
       <r>  -11.1026    1.0000 </r>
       <r>  -11.0405    1.0000 </r>
       <r>  -11.0331    1.0000 </r>
       <r>   -2.9303    1.0000 </r>
       <r>    3.0968    1.0000 </r>
       <r>    4.1128    1.0000 </r>
       <r>    4.2864    1.0000 </r>
       <r>    4.7726    1.0000 </r>
       <r>    4.8750    1.0000 </r>
       <r>    5.5220    1.0000 </r>
       <r>    6.6864    1.0000 </r>
       <r>    6.9043    1.0000 </r>
       <r>    7.9358    1.0000 </r>
       <r>    8.3720    0.9880 </r>
       <r>    8.3844    0.6920 </r>
       <r>    8.5786    0.0000 </r>
       <r>    8.6044    0.0000 </r>
       <r>    8.7528    0.0000 </r>
      </set>
      <set comment="kpoint 23">
       <r>  -35.8401    1.0000 </r>
       <r>  -14.3457    1.0000 </r>
       <r>  -14.3395    1.0000 </r>
       <r>  -14.3148    1.0000 </r>
       <r>  -14.3110    1.0000 </r>
       <r>  -14.3102    1.0000 </r>
       <r>  -11.1270    1.0000 </r>
       <r>  -11.0343    1.0000 </r>
       <r>  -11.0305    1.0000 </r>
       <r>   -2.7743    1.0000 </r>
       <r>    2.9946    1.0000 </r>
       <r>    3.9839    1.0000 </r>
       <r>    4.2143    1.0000 </r>
       <r>    4.7561    1.0000 </r>
       <r>    4.8843    1.0000 </r>
       <r>    5.2195    1.0000 </r>
       <r>    6.5784    1.0000 </r>
       <r>    6.9043    1.0000 </r>
       <r>    7.9441    1.0000 </r>
       <r>    8.3993    0.0555 </r>
       <r>    8.4010    0.0329 </r>
       <r>    8.5961    0.0000 </r>
       <r>    8.6004    0.0000 </r>
       <r>    8.7318    0.0000 </r>
      </set>
      <set comment="kpoint 24">
       <r>  -35.8398    1.0000 </r>
       <r>  -14.3455    1.0000 </r>
       <r>  -14.3430    1.0000 </r>
       <r>  -14.3149    1.0000 </r>
       <r>  -14.3109    1.0000 </r>
       <r>  -14.3099    1.0000 </r>
       <r>  -11.1440    1.0000 </r>
       <r>  -11.0317    1.0000 </r>
       <r>  -11.0267    1.0000 </r>
       <r>   -2.6556    1.0000 </r>
       <r>    2.9458    1.0000 </r>
       <r>    3.9338    1.0000 </r>
       <r>    4.1196    1.0000 </r>
       <r>    4.7570    1.0000 </r>
       <r>    4.8337    1.0000 </r>
       <r>    5.0030    1.0000 </r>
       <r>    6.5291    1.0000 </r>
       <r>    6.9173    1.0000 </r>
       <r>    7.9644    1.0000 </r>
       <r>    8.4263    0.0000 </r>
       <r>    8.4275    0.0000 </r>
       <r>    8.5897    0.0000 </r>
       <r>    8.6058    0.0000 </r>
       <r>    8.7163    0.0000 </r>
      </set>
      <set comment="kpoint 25">
       <r>  -35.8396    1.0000 </r>
       <r>  -14.3460    1.0000 </r>
       <r>  -14.3444    1.0000 </r>
       <r>  -14.3149    1.0000 </r>
       <r>  -14.3108    1.0000 </r>
       <r>  -14.3098    1.0000 </r>
       <r>  -11.1505    1.0000 </r>
       <r>  -11.0362    1.0000 </r>
       <r>  -11.0196    1.0000 </r>
       <r>   -2.6000    1.0000 </r>
       <r>    2.9271    1.0000 </r>
       <r>    3.9661    1.0000 </r>
       <r>    4.0063    1.0000 </r>
       <r>    4.7602    1.0000 </r>
       <r>    4.8059    1.0000 </r>
       <r>    4.9177    1.0000 </r>
       <r>    6.4962    1.0000 </r>
       <r>    6.9272    1.0000 </r>
       <r>    7.9843    1.0000 </r>
       <r>    8.4263    0.0000 </r>
       <r>    8.4639    0.0000 </r>
       <r>    8.5671    0.0000 </r>
       <r>    8.6268    0.0000 </r>
       <r>    8.7022    0.0000 </r>
      </set>
      <set comment="kpoint 26">
       <r>  -35.8397    1.0000 </r>
       <r>  -14.3478    1.0000 </r>
       <r>  -14.3426    1.0000 </r>
       <r>  -14.3146    1.0000 </r>
       <r>  -14.3109    1.0000 </r>
       <r>  -14.3101    1.0000 </r>
       <r>  -11.1458    1.0000 </r>
       <r>  -11.0426    1.0000 </r>
       <r>  -11.0143    1.0000 </r>
       <r>   -2.6193    1.0000 </r>
       <r>    2.9324    1.0000 </r>
       <r>    3.9024    1.0000 </r>
       <r>    4.0615    1.0000 </r>
       <r>    4.7161    1.0000 </r>
       <r>    4.8885    1.0000 </r>
       <r>    4.9650    1.0000 </r>
       <r>    6.4466    1.0000 </r>
       <r>    6.9421    1.0000 </r>
       <r>    7.9830    1.0000 </r>
       <r>    8.4041    0.0113 </r>
       <r>    8.4781    0.0000 </r>
       <r>    8.5543    0.0000 </r>
       <r>    8.6520    0.0000 </r>
       <r>    8.6673    0.0000 </r>
      </set>
      <set comment="kpoint 27">
       <r>  -35.8400    1.0000 </r>
       <r>  -14.3481    1.0000 </r>
       <r>  -14.3404    1.0000 </r>
       <r>  -14.3143    1.0000 </r>
       <r>  -14.3110    1.0000 </r>
       <r>  -14.3106    1.0000 </r>
       <r>  -11.1313    1.0000 </r>
       <r>  -11.0489    1.0000 </r>
       <r>  -11.0123    1.0000 </r>
       <r>   -2.7108    1.0000 </r>
       <r>    2.9856    1.0000 </r>
       <r>    3.8365    1.0000 </r>
       <r>    4.1876    1.0000 </r>
       <r>    4.7033    1.0000 </r>
       <r>    4.9681    1.0000 </r>
       <r>    5.1449    1.0000 </r>
       <r>    6.3791    1.0000 </r>
       <r>    6.9843    1.0000 </r>
       <r>    7.9626    1.0000 </r>
       <r>    8.3824    0.7857 </r>
       <r>    8.4455    0.0000 </r>
       <r>    8.5751    0.0000 </r>
       <r>    8.6452    0.0000 </r>
       <r>    8.6742    0.0000 </r>
      </set>
      <set comment="kpoint 28">
       <r>  -35.8404    1.0000 </r>
       <r>  -14.3468    1.0000 </r>
       <r>  -14.3384    1.0000 </r>
       <r>  -14.3139    1.0000 </r>
       <r>  -14.3112    1.0000 </r>
       <r>  -14.3111    1.0000 </r>
       <r>  -11.1108    1.0000 </r>
       <r>  -11.0525    1.0000 </r>
       <r>  -11.0139    1.0000 </r>
       <r>   -2.8553    1.0000 </r>
       <r>    3.1184    1.0000 </r>
       <r>    3.8265    1.0000 </r>
       <r>    4.3096    1.0000 </r>
       <r>    4.7049    1.0000 </r>
       <r>    5.0083    1.0000 </r>
       <r>    5.4108    1.0000 </r>
       <r>    6.3510    1.0000 </r>
       <r>    7.0690    1.0000 </r>
       <r>    7.9374    1.0000 </r>
       <r>    8.3710    0.9920 </r>
       <r>    8.4079    0.0024 </r>
       <r>    8.5831    0.0000 </r>
       <r>    8.6235    0.0000 </r>
       <r>    8.7277    0.0000 </r>
      </set>
      <set comment="kpoint 29">
       <r>  -35.8408    1.0000 </r>
       <r>  -14.3441    1.0000 </r>
       <r>  -14.3370    1.0000 </r>
       <r>  -14.3136    1.0000 </r>
       <r>  -14.3116    1.0000 </r>
       <r>  -14.3115    1.0000 </r>
       <r>  -11.0909    1.0000 </r>
       <r>  -11.0503    1.0000 </r>
       <r>  -11.0188    1.0000 </r>
       <r>   -3.0197    1.0000 </r>
       <r>    3.3393    1.0000 </r>
       <r>    3.8789    1.0000 </r>
       <r>    4.3793    1.0000 </r>
       <r>    4.7050    1.0000 </r>
       <r>    4.9906    1.0000 </r>
       <r>    5.6477    1.0000 </r>
       <r>    6.5029    1.0000 </r>
       <r>    7.1800    1.0000 </r>
       <r>    7.9001    1.0000 </r>
       <r>    8.3680    0.9977 </r>
       <r>    8.3793    0.8898 </r>
       <r>    8.5789    0.0000 </r>
       <r>    8.5964    0.0000 </r>
       <r>    8.7499    0.0000 </r>
      </set>
      <set comment="kpoint 30">
       <r>  -35.8407    1.0000 </r>
       <r>  -14.3440    1.0000 </r>
       <r>  -14.3328    1.0000 </r>
       <r>  -14.3146    1.0000 </r>
       <r>  -14.3109    1.0000 </r>
       <r>  -14.3109    1.0000 </r>
       <r>  -11.0767    1.0000 </r>
       <r>  -11.0484    1.0000 </r>
       <r>  -11.0484    1.0000 </r>
       <r>   -3.0190    1.0000 </r>
       <r>    3.0981    1.0000 </r>
       <r>    4.3988    1.0000 </r>
       <r>    4.3988    1.0000 </r>
       <r>    4.6939    1.0000 </r>
       <r>    4.7684    1.0000 </r>
       <r>    5.7903    1.0000 </r>
       <r>    6.8572    1.0000 </r>
       <r>    6.8572    1.0000 </r>
       <r>    7.9029    1.0000 </r>
       <r>    8.3860    0.6082 </r>
       <r>    8.3860    0.6082 </r>
       <r>    8.4833    0.0000 </r>
       <r>    8.6339    0.0000 </r>
       <r>    8.8465    0.0000 </r>
      </set>
      <set comment="kpoint 31">
       <r>  -35.8403    1.0000 </r>
       <r>  -14.3441    1.0000 </r>
       <r>  -14.3333    1.0000 </r>
       <r>  -14.3151    1.0000 </r>
       <r>  -14.3105    1.0000 </r>
       <r>  -14.3103    1.0000 </r>
       <r>  -11.0954    1.0000 </r>
       <r>  -11.0488    1.0000 </r>
       <r>  -11.0469    1.0000 </r>
       <r>   -2.9164    1.0000 </r>
       <r>    3.0141    1.0000 </r>
       <r>    4.2873    1.0000 </r>
       <r>    4.3767    1.0000 </r>
       <r>    4.7295    1.0000 </r>
       <r>    4.7919    1.0000 </r>
       <r>    5.6231    1.0000 </r>
       <r>    6.6894    1.0000 </r>
       <r>    6.8222    1.0000 </r>
       <r>    7.9672    1.0000 </r>
       <r>    8.3763    0.9503 </r>
       <r>    8.3923    0.2723 </r>
       <r>    8.5204    0.0000 </r>
       <r>    8.6483    0.0000 </r>
       <r>    8.7970    0.0000 </r>
      </set>
      <set comment="kpoint 32">
       <r>  -35.8400    1.0000 </r>
       <r>  -14.3434    1.0000 </r>
       <r>  -14.3355    1.0000 </r>
       <r>  -14.3153    1.0000 </r>
       <r>  -14.3103    1.0000 </r>
       <r>  -14.3098    1.0000 </r>
       <r>  -11.1164    1.0000 </r>
       <r>  -11.0460    1.0000 </r>
       <r>  -11.0451    1.0000 </r>
       <r>   -2.8063    1.0000 </r>
       <r>    3.0227    1.0000 </r>
       <r>    4.1146    1.0000 </r>
       <r>    4.3124    1.0000 </r>
       <r>    4.7965    1.0000 </r>
       <r>    4.8046    1.0000 </r>
       <r>    5.3880    1.0000 </r>
       <r>    6.4477    1.0000 </r>
       <r>    6.8292    1.0000 </r>
       <r>    8.0326    1.0000 </r>
       <r>    8.3885    0.4734 </r>
       <r>    8.4060    0.0055 </r>
       <r>    8.5433    0.0000 </r>
       <r>    8.6469    0.0000 </r>
       <r>    8.7652    0.0000 </r>
      </set>
      <set comment="kpoint 33">
       <r>  -35.8397    1.0000 </r>
       <r>  -14.3422    1.0000 </r>
       <r>  -14.3388    1.0000 </r>
       <r>  -14.3152    1.0000 </r>
       <r>  -14.3105    1.0000 </r>
       <r>  -14.3094    1.0000 </r>
       <r>  -11.1314    1.0000 </r>
       <r>  -11.0495    1.0000 </r>
       <r>  -11.0381    1.0000 </r>
       <r>   -2.7124    1.0000 </r>
       <r>    3.0953    1.0000 </r>
       <r>    3.9925    1.0000 </r>
       <r>    4.2080    1.0000 </r>
       <r>    4.8134    1.0000 </r>
       <r>    4.8219    1.0000 </r>
       <r>    5.1669    1.0000 </r>
       <r>    6.2638    1.0000 </r>
       <r>    6.8421    1.0000 </r>
       <r>    8.0608    1.0000 </r>
       <r>    8.4121    0.0003 </r>
       <r>    8.4306    0.0000 </r>
       <r>    8.5710    0.0000 </r>
       <r>    8.6327    0.0000 </r>
       <r>    8.7324    0.0000 </r>
      </set>
      <set comment="kpoint 34">
       <r>  -35.8395    1.0000 </r>
       <r>  -14.3425    1.0000 </r>
       <r>  -14.3408    1.0000 </r>
       <r>  -14.3147    1.0000 </r>
       <r>  -14.3109    1.0000 </r>
       <r>  -14.3094    1.0000 </r>
       <r>  -11.1371    1.0000 </r>
       <r>  -11.0569    1.0000 </r>
       <r>  -11.0295    1.0000 </r>
       <r>   -2.6515    1.0000 </r>
       <r>    3.1592    1.0000 </r>
       <r>    3.9510    1.0000 </r>
       <r>    4.0759    1.0000 </r>
       <r>    4.7643    1.0000 </r>
       <r>    4.8651    1.0000 </r>
       <r>    5.0646    1.0000 </r>
       <r>    6.1465    1.0000 </r>
       <r>    6.8437    1.0000 </r>
       <r>    8.0782    1.0000 </r>
       <r>    8.4149    0.0001 </r>
       <r>    8.4655    0.0000 </r>
       <r>    8.6016    0.0000 </r>
       <r>    8.6136    0.0000 </r>
       <r>    8.7135    0.0000 </r>
      </set>
      <set comment="kpoint 35">
       <r>  -35.8395    1.0000 </r>
       <r>  -14.3456    1.0000 </r>
       <r>  -14.3395    1.0000 </r>
       <r>  -14.3141    1.0000 </r>
       <r>  -14.3114    1.0000 </r>
       <r>  -14.3096    1.0000 </r>
       <r>  -11.1336    1.0000 </r>
       <r>  -11.0656    1.0000 </r>
       <r>  -11.0211    1.0000 </r>
       <r>   -2.6341    1.0000 </r>
       <r>    3.1404    1.0000 </r>
       <r>    3.9469    1.0000 </r>
       <r>    4.0014    1.0000 </r>
       <r>    4.7155    1.0000 </r>
       <r>    4.9383    1.0000 </r>
       <r>    5.0943    1.0000 </r>
       <r>    6.0630    1.0000 </r>
       <r>    6.8476    1.0000 </r>
       <r>    8.0827    1.0000 </r>
       <r>    8.3966    0.1128 </r>
       <r>    8.5048    0.0000 </r>
       <r>    8.5561    0.0000 </r>
       <r>    8.6409    0.0000 </r>
       <r>    8.6850    0.0000 </r>
      </set>
      <set comment="kpoint 36">
       <r>  -35.8397    1.0000 </r>
       <r>  -14.3477    1.0000 </r>
       <r>  -14.3386    1.0000 </r>
       <r>  -14.3136    1.0000 </r>
       <r>  -14.3117    1.0000 </r>
       <r>  -14.3101    1.0000 </r>
       <r>  -11.1241    1.0000 </r>
       <r>  -11.0711    1.0000 </r>
       <r>  -11.0149    1.0000 </r>
       <r>   -2.6655    1.0000 </r>
       <r>    3.0690    1.0000 </r>
       <r>    3.8503    1.0000 </r>
       <r>    4.1177    1.0000 </r>
       <r>    4.7026    1.0000 </r>
       <r>    5.0025    1.0000 </r>
       <r>    5.2335    1.0000 </r>
       <r>    6.0009    1.0000 </r>
       <r>    6.8817    1.0000 </r>
       <r>    8.0633    1.0000 </r>
       <r>    8.3779    0.9223 </r>
       <r>    8.4956    0.0000 </r>
       <r>    8.5560    0.0000 </r>
       <r>    8.6385    0.0000 </r>
       <r>    8.6702    0.0000 </r>
      </set>
      <set comment="kpoint 37">
       <r>  -35.8400    1.0000 </r>
       <r>  -14.3481    1.0000 </r>
       <r>  -14.3382    1.0000 </r>
       <r>  -14.3137    1.0000 </r>
       <r>  -14.3115    1.0000 </r>
       <r>  -14.3106    1.0000 </r>
       <r>  -11.1155    1.0000 </r>
       <r>  -11.0669    1.0000 </r>
       <r>  -11.0123    1.0000 </r>
       <r>   -2.7441    1.0000 </r>
       <r>    3.0417    1.0000 </r>
       <r>    3.8066    1.0000 </r>
       <r>    4.2475    1.0000 </r>
       <r>    4.6965    1.0000 </r>
       <r>    5.0293    1.0000 </r>
       <r>    5.3799    1.0000 </r>
       <r>    6.0517    1.0000 </r>
       <r>    6.9620    1.0000 </r>
       <r>    8.0173    1.0000 </r>
       <r>    8.3714    0.9906 </r>
       <r>    8.4498    0.0000 </r>
       <r>    8.5818    0.0000 </r>
       <r>    8.6301    0.0000 </r>
       <r>    8.6814    0.0000 </r>
      </set>
      <set comment="kpoint 38">
       <r>  -35.8401    1.0000 </r>
       <r>  -14.3424    1.0000 </r>
       <r>  -14.3319    1.0000 </r>
       <r>  -14.3158    1.0000 </r>
       <r>  -14.3098    1.0000 </r>
       <r>  -14.3098    1.0000 </r>
       <r>  -11.1019    1.0000 </r>
       <r>  -11.0536    1.0000 </r>
       <r>  -11.0536    1.0000 </r>
       <r>   -2.8751    1.0000 </r>
       <r>    3.0082    1.0000 </r>
       <r>    4.3968    1.0000 </r>
       <r>    4.3968    1.0000 </r>
       <r>    4.5648    1.0000 </r>
       <r>    4.8268    1.0000 </r>
       <r>    5.5352    1.0000 </r>
       <r>    6.7947    1.0000 </r>
       <r>    6.7947    1.0000 </r>
       <r>    7.9640    1.0000 </r>
       <r>    8.4008    0.0352 </r>
       <r>    8.4008    0.0352 </r>
       <r>    8.4744    0.0000 </r>
       <r>    8.6859    0.0000 </r>
       <r>    8.8933    0.0000 </r>
      </set>
      <set comment="kpoint 39">
       <r>  -35.8398    1.0000 </r>
       <r>  -14.3404    1.0000 </r>
       <r>  -14.3325    1.0000 </r>
       <r>  -14.3161    1.0000 </r>
       <r>  -14.3094    1.0000 </r>
       <r>  -14.3093    1.0000 </r>
       <r>  -11.1163    1.0000 </r>
       <r>  -11.0556    1.0000 </r>
       <r>  -11.0537    1.0000 </r>
       <r>   -2.8194    1.0000 </r>
       <r>    3.0970    1.0000 </r>
       <r>    4.2559    1.0000 </r>
       <r>    4.3642    1.0000 </r>
       <r>    4.6300    1.0000 </r>
       <r>    4.8464    1.0000 </r>
       <r>    5.3582    1.0000 </r>
       <r>    6.6409    1.0000 </r>
       <r>    6.8083    1.0000 </r>
       <r>    8.0716    1.0000 </r>
       <r>    8.3907    0.3509 </r>
       <r>    8.4137    0.0001 </r>
       <r>    8.4885    0.0000 </r>
       <r>    8.7015    0.0000 </r>
       <r>    8.8204    0.0000 </r>
      </set>
      <set comment="kpoint 40">
       <r>  -35.8395    1.0000 </r>
       <r>  -14.3385    1.0000 </r>
       <r>  -14.3348    1.0000 </r>
       <r>  -14.3160    1.0000 </r>
       <r>  -14.3096    1.0000 </r>
       <r>  -14.3089    1.0000 </r>
       <r>  -11.1268    1.0000 </r>
       <r>  -11.0611    1.0000 </r>
       <r>  -11.0491    1.0000 </r>
       <r>   -2.7615    1.0000 </r>
       <r>    3.2557    1.0000 </r>
       <r>    4.0923    1.0000 </r>
       <r>    4.2836    1.0000 </r>
       <r>    4.7260    1.0000 </r>
       <r>    4.8668    1.0000 </r>
       <r>    5.1729    1.0000 </r>
       <r>    6.3273    1.0000 </r>
       <r>    6.8201    1.0000 </r>
       <r>    8.1492    1.0000 </r>
       <r>    8.3951    0.1579 </r>
       <r>    8.4338    0.0000 </r>
       <r>    8.5301    0.0000 </r>
       <r>    8.6957    0.0000 </r>
       <r>    8.7572    0.0000 </r>
      </set>
      <set comment="kpoint 41">
       <r>  -35.8394    1.0000 </r>
       <r>  -14.3383    1.0000 </r>
       <r>  -14.3371    1.0000 </r>
       <r>  -14.3155    1.0000 </r>
       <r>  -14.3102    1.0000 </r>
       <r>  -14.3089    1.0000 </r>
       <r>  -11.1285    1.0000 </r>
       <r>  -11.0718    1.0000 </r>
       <r>  -11.0410    1.0000 </r>
       <r>   -2.7098    1.0000 </r>
       <r>    3.4065    1.0000 </r>
       <r>    3.9836    1.0000 </r>
       <r>    4.1645    1.0000 </r>
       <r>    4.7304    1.0000 </r>
       <r>    4.9083    1.0000 </r>
       <r>    5.0989    1.0000 </r>
       <r>    6.0302    1.0000 </r>
       <r>    6.8085    1.0000 </r>
       <r>    8.1630    1.0000 </r>
       <r>    8.4034    0.0148 </r>
       <r>    8.4609    0.0000 </r>
       <r>    8.5924    0.0000 </r>
       <r>    8.6651    0.0000 </r>
       <r>    8.7098    0.0000 </r>
      </set>
      <set comment="kpoint 42">
       <r>  -35.8394    1.0000 </r>
       <r>  -14.3421    1.0000 </r>
       <r>  -14.3367    1.0000 </r>
       <r>  -14.3144    1.0000 </r>
       <r>  -14.3111    1.0000 </r>
       <r>  -14.3091    1.0000 </r>
       <r>  -11.1213    1.0000 </r>
       <r>  -11.0848    1.0000 </r>
       <r>  -11.0311    1.0000 </r>
       <r>   -2.6711    1.0000 </r>
       <r>    3.4147    1.0000 </r>
       <r>    3.9525    1.0000 </r>
       <r>    4.0338    1.0000 </r>
       <r>    4.6904    1.0000 </r>
       <r>    4.9612    1.0000 </r>
       <r>    5.1725    1.0000 </r>
       <r>    5.8297    1.0000 </r>
       <r>    6.7932    1.0000 </r>
       <r>    8.1549    1.0000 </r>
       <r>    8.3931    0.2346 </r>
       <r>    8.4923    0.0000 </r>
       <r>    8.6075    0.0000 </r>
       <r>    8.6341    0.0000 </r>
       <r>    8.7085    0.0000 </r>
      </set>
      <set comment="kpoint 43">
       <r>  -35.8395    1.0000 </r>
       <r>  -14.3455    1.0000 </r>
       <r>  -14.3373    1.0000 </r>
       <r>  -14.3134    1.0000 </r>
       <r>  -14.3120    1.0000 </r>
       <r>  -14.3096    1.0000 </r>
       <r>  -11.1159    1.0000 </r>
       <r>  -11.0885    1.0000 </r>
       <r>  -11.0217    1.0000 </r>
       <r>   -2.6534    1.0000 </r>
       <r>    3.2498    1.0000 </r>
       <r>    3.9213    1.0000 </r>
       <r>    4.0151    1.0000 </r>
       <r>    4.6947    1.0000 </r>
       <r>    4.9996    1.0000 </r>
       <r>    5.2670    1.0000 </r>
       <r>    5.7878    1.0000 </r>
       <r>    6.8112    1.0000 </r>
       <r>    8.1253    1.0000 </r>
       <r>    8.3790    0.8990 </r>
       <r>    8.5247    0.0000 </r>
       <r>    8.5491    0.0000 </r>
       <r>    8.6362    0.0000 </r>
       <r>    8.6875    0.0000 </r>
      </set>
      <set comment="kpoint 44">
       <r>  -35.8396    1.0000 </r>
       <r>  -14.3374    1.0000 </r>
       <r>  -14.3312    1.0000 </r>
       <r>  -14.3167    1.0000 </r>
       <r>  -14.3088    1.0000 </r>
       <r>  -14.3088    1.0000 </r>
       <r>  -11.1257    1.0000 </r>
       <r>  -11.0581    1.0000 </r>
       <r>  -11.0581    1.0000 </r>
       <r>   -2.8146    1.0000 </r>
       <r>    3.2429    1.0000 </r>
       <r>    4.3719    1.0000 </r>
       <r>    4.3719    1.0000 </r>
       <r>    4.4433    1.0000 </r>
       <r>    4.8767    1.0000 </r>
       <r>    5.1886    1.0000 </r>
       <r>    6.8324    1.0000 </r>
       <r>    6.8324    1.0000 </r>
       <r>    8.1213    1.0000 </r>
       <r>    8.4239    0.0000 </r>
       <r>    8.4239    0.0000 </r>
       <r>    8.4375    0.0000 </r>
       <r>    8.7386    0.0000 </r>
       <r>    8.8897    0.0000 </r>
      </set>
      <set comment="kpoint 45">
       <r>  -35.8394    1.0000 </r>
       <r>  -14.3352    1.0000 </r>
       <r>  -14.3319    1.0000 </r>
       <r>  -14.3168    1.0000 </r>
       <r>  -14.3086    1.0000 </r>
       <r>  -14.3085    1.0000 </r>
       <r>  -11.1333    1.0000 </r>
       <r>  -11.0618    1.0000 </r>
       <r>  -11.0573    1.0000 </r>
       <r>   -2.7942    1.0000 </r>
       <r>    3.4388    1.0000 </r>
       <r>    4.2139    1.0000 </r>
       <r>    4.3344    1.0000 </r>
       <r>    4.5552    1.0000 </r>
       <r>    4.8955    1.0000 </r>
       <r>    4.9948    1.0000 </r>
       <r>    6.6736    1.0000 </r>
       <r>    6.8515    1.0000 </r>
       <r>    8.2354    1.0000 </r>
       <r>    8.3930    0.2391 </r>
       <r>    8.4381    0.0000 </r>
       <r>    8.4856    0.0000 </r>
       <r>    8.7507    0.0000 </r>
       <r>    8.7740    0.0000 </r>
      </set>
      <set comment="kpoint 46">
       <r>  -35.8393    1.0000 </r>
       <r>  -14.3344    1.0000 </r>
       <r>  -14.3342    1.0000 </r>
       <r>  -14.3164    1.0000 </r>
       <r>  -14.3091    1.0000 </r>
       <r>  -14.3084    1.0000 </r>
       <r>  -11.1328    1.0000 </r>
       <r>  -11.0710    1.0000 </r>
       <r>  -11.0515    1.0000 </r>
       <r>   -2.7606    1.0000 </r>
       <r>    3.6073    1.0000 </r>
       <r>    4.0697    1.0000 </r>
       <r>    4.2527    1.0000 </r>
       <r>    4.6507    1.0000 </r>
       <r>    4.9084    1.0000 </r>
       <r>    4.9220    1.0000 </r>
       <r>    6.3006    1.0000 </r>
       <r>    6.8328    1.0000 </r>
       <r>    8.2509    1.0000 </r>
       <r>    8.3971    0.0979 </r>
       <r>    8.4555    0.0000 </r>
       <r>    8.5729    0.0000 </r>
       <r>    8.6886    0.0000 </r>
       <r>    8.7444    0.0000 </r>
      </set>
      <set comment="kpoint 47">
       <r>  -35.8393    1.0000 </r>
       <r>  -14.3381    1.0000 </r>
       <r>  -14.3347    1.0000 </r>
       <r>  -14.3155    1.0000 </r>
       <r>  -14.3100    1.0000 </r>
       <r>  -14.3087    1.0000 </r>
       <r>  -11.1244    1.0000 </r>
       <r>  -11.0834    1.0000 </r>
       <r>  -11.0421    1.0000 </r>
       <r>   -2.7172    1.0000 </r>
       <r>    3.6195    1.0000 </r>
       <r>    3.9682    1.0000 </r>
       <r>    4.1439    1.0000 </r>
       <r>    4.6565    1.0000 </r>
       <r>    4.9511    1.0000 </r>
       <r>    5.0475    1.0000 </r>
       <r>    5.9497    1.0000 </r>
       <r>    6.7973    1.0000 </r>
       <r>    8.2096    1.0000 </r>
       <r>    8.3980    0.0786 </r>
       <r>    8.4742    0.0000 </r>
       <r>    8.6374    0.0000 </r>
       <r>    8.6824    0.0000 </r>
       <r>    8.7273    0.0000 </r>
      </set>
      <set comment="kpoint 48">
       <r>  -35.8393    1.0000 </r>
       <r>  -14.3331    1.0000 </r>
       <r>  -14.3308    1.0000 </r>
       <r>  -14.3172    1.0000 </r>
       <r>  -14.3082    1.0000 </r>
       <r>  -14.3082    1.0000 </r>
       <r>  -11.1403    1.0000 </r>
       <r>  -11.0607    1.0000 </r>
       <r>  -11.0607    1.0000 </r>
       <r>   -2.8057    1.0000 </r>
       <r>    3.6184    1.0000 </r>
       <r>    4.3495    1.0000 </r>
       <r>    4.3495    1.0000 </r>
       <r>    4.3720    1.0000 </r>
       <r>    4.8089    1.0000 </r>
       <r>    4.9055    1.0000 </r>
       <r>    6.8869    1.0000 </r>
       <r>    6.8869    1.0000 </r>
       <r>    8.3353    1.0000 </r>
       <r>    8.4188    0.0000 </r>
       <r>    8.4436    0.0000 </r>
       <r>    8.4436    0.0000 </r>
       <r>    8.7084    0.0000 </r>
       <r>    8.7738    0.0000 </r>
      </set>
      <set comment="kpoint 49">
       <r>  -35.8392    1.0000 </r>
       <r>  -14.3328    1.0000 </r>
       <r>  -14.3317    1.0000 </r>
       <r>  -14.3171    1.0000 </r>
       <r>  -14.3083    1.0000 </r>
       <r>  -14.3082    1.0000 </r>
       <r>  -11.1400    1.0000 </r>
       <r>  -11.0641    1.0000 </r>
       <r>  -11.0586    1.0000 </r>
       <r>   -2.7941    1.0000 </r>
       <r>    3.6978    1.0000 </r>
       <r>    4.1960    1.0000 </r>
       <r>    4.3203    1.0000 </r>
       <r>    4.5264    1.0000 </r>
       <r>    4.7476    1.0000 </r>
       <r>    4.9148    1.0000 </r>
       <r>    6.6988    1.0000 </r>
       <r>    6.8774    1.0000 </r>
       <r>    8.3410    1.0000 </r>
       <r>    8.3942    0.1894 </r>
       <r>    8.4497    0.0000 </r>
       <r>    8.5360    0.0000 </r>
       <r>    8.6466    0.0000 </r>
       <r>    8.7734    0.0000 </r>
      </set>
      <set comment="kpoint 50">
       <r>  -35.8411    1.0000 </r>
       <r>  -14.3417    1.0000 </r>
       <r>  -14.3351    1.0000 </r>
       <r>  -14.3136    1.0000 </r>
       <r>  -14.3118    1.0000 </r>
       <r>  -14.3117    1.0000 </r>
       <r>  -11.0722    1.0000 </r>
       <r>  -11.0454    1.0000 </r>
       <r>  -11.0300    1.0000 </r>
       <r>   -3.1582    1.0000 </r>
       <r>    3.4821    1.0000 </r>
       <r>    4.1239    1.0000 </r>
       <r>    4.3781    1.0000 </r>
       <r>    4.7207    1.0000 </r>
       <r>    4.8898    1.0000 </r>
       <r>    5.8609    1.0000 </r>
       <r>    6.8295    1.0000 </r>
       <r>    7.1609    1.0000 </r>
       <r>    7.8899    1.0000 </r>
       <r>    8.3533    1.0000 </r>
       <r>    8.3787    0.9056 </r>
       <r>    8.5137    0.0000 </r>
       <r>    8.5820    0.0000 </r>
       <r>    8.6806    0.0000 </r>
      </set>
      <set comment="kpoint 51">
       <r>  -35.8407    1.0000 </r>
       <r>  -14.3444    1.0000 </r>
       <r>  -14.3367    1.0000 </r>
       <r>  -14.3139    1.0000 </r>
       <r>  -14.3115    1.0000 </r>
       <r>  -14.3112    1.0000 </r>
       <r>  -11.0949    1.0000 </r>
       <r>  -11.0461    1.0000 </r>
       <r>  -11.0234    1.0000 </r>
       <r>   -2.9955    1.0000 </r>
       <r>    3.2414    1.0000 </r>
       <r>    3.9901    1.0000 </r>
       <r>    4.3336    1.0000 </r>
       <r>    4.7372    1.0000 </r>
       <r>    4.9447    1.0000 </r>
       <r>    5.5972    1.0000 </r>
       <r>    6.6097    1.0000 </r>
       <r>    7.0821    1.0000 </r>
       <r>    7.9078    1.0000 </r>
       <r>    8.3666    0.9987 </r>
       <r>    8.3803    0.8619 </r>
       <r>    8.5862    0.0000 </r>
       <r>    8.5917    0.0000 </r>
       <r>    8.7515    0.0000 </r>
      </set>
      <set comment="kpoint 52">
       <r>  -35.8403    1.0000 </r>
       <r>  -14.3465    1.0000 </r>
       <r>  -14.3393    1.0000 </r>
       <r>  -14.3144    1.0000 </r>
[...]
       <r>    8.1717    1.0000 </r>
       <r>    8.4158    0.0000 </r>
       <r>    8.5314    0.0000 </r>
       <r>    8.5871    0.0000 </r>
       <r>    8.6350    0.0000 </r>
       <r>    8.7022    0.0000 </r>
      </set>
      <set comment="kpoint 81">
       <r>  -35.8394    1.0000 </r>
       <r>  -14.3436    1.0000 </r>
       <r>  -14.3354    1.0000 </r>
       <r>  -14.3139    1.0000 </r>
       <r>  -14.3121    1.0000 </r>
       <r>  -14.3088    1.0000 </r>
       <r>  -11.1166    1.0000 </r>
       <r>  -11.0848    1.0000 </r>
       <r>  -11.0336    1.0000 </r>
       <r>   -2.6781    1.0000 </r>
       <r>    3.3706    1.0000 </r>
       <r>    3.8422    1.0000 </r>
       <r>    4.2240    1.0000 </r>
       <r>    4.7563    1.0000 </r>
       <r>    4.9370    1.0000 </r>
       <r>    5.2259    1.0000 </r>
       <r>    5.6229    1.0000 </r>
       <r>    6.8857    1.0000 </r>
       <r>    8.1528    1.0000 </r>
       <r>    8.4023    0.0216 </r>
       <r>    8.5244    0.0000 </r>
       <r>    8.5761    0.0000 </r>
       <r>    8.6184    0.0000 </r>
       <r>    8.7057    0.0000 </r>
      </set>
      <set comment="kpoint 82">
       <r>  -35.8393    1.0000 </r>
       <r>  -14.3386    1.0000 </r>
       <r>  -14.3325    1.0000 </r>
       <r>  -14.3157    1.0000 </r>
       <r>  -14.3104    1.0000 </r>
       <r>  -14.3081    1.0000 </r>
       <r>  -11.1255    1.0000 </r>
       <r>  -11.0753    1.0000 </r>
       <r>  -11.0516    1.0000 </r>
       <r>   -2.7329    1.0000 </r>
       <r>    3.6304    1.0000 </r>
       <r>    3.9193    1.0000 </r>
       <r>    4.3336    1.0000 </r>
       <r>    4.7451    1.0000 </r>
       <r>    4.8988    1.0000 </r>
       <r>    4.9635    1.0000 </r>
       <r>    5.8139    1.0000 </r>
       <r>    6.9358    1.0000 </r>
       <r>    8.2219    1.0000 </r>
       <r>    8.4165    0.0000 </r>
       <r>    8.4893    0.0000 </r>
       <r>    8.6059    0.0000 </r>
       <r>    8.6726    0.0000 </r>
       <r>    8.6996    0.0000 </r>
      </set>
      <set comment="kpoint 83">
       <r>  -35.8392    1.0000 </r>
       <r>  -14.3406    1.0000 </r>
       <r>  -14.3326    1.0000 </r>
       <r>  -14.3148    1.0000 </r>
       <r>  -14.3114    1.0000 </r>
       <r>  -14.3082    1.0000 </r>
       <r>  -11.1182    1.0000 </r>
       <r>  -11.0843    1.0000 </r>
       <r>  -11.0480    1.0000 </r>
       <r>   -2.7088    1.0000 </r>
       <r>    3.6833    1.0000 </r>
       <r>    3.8394    1.0000 </r>
       <r>    4.3060    1.0000 </r>
       <r>    4.7447    1.0000 </r>
       <r>    4.9404    1.0000 </r>
       <r>    5.0466    1.0000 </r>
       <r>    5.5273    1.0000 </r>
       <r>    6.9347    1.0000 </r>
       <r>    8.2032    1.0000 </r>
       <r>    8.4257    0.0000 </r>
       <r>    8.5147    0.0000 </r>
       <r>    8.6247    0.0000 </r>
       <r>    8.6564    0.0000 </r>
       <r>    8.6706    0.0000 </r>
      </set>
      <set comment="kpoint 84">
       <r>  -35.8392    1.0000 </r>
       <r>  -14.3418    1.0000 </r>
       <r>  -14.3326    1.0000 </r>
       <r>  -14.3141    1.0000 </r>
       <r>  -14.3123    1.0000 </r>
       <r>  -14.3081    1.0000 </r>
       <r>  -11.1136    1.0000 </r>
       <r>  -11.0876    1.0000 </r>
       <r>  -11.0472    1.0000 </r>
       <r>   -2.6980    1.0000 </r>
       <r>    3.6668    1.0000 </r>
       <r>    3.8021    1.0000 </r>
       <r>    4.3181    1.0000 </r>
       <r>    4.7895    1.0000 </r>
       <r>    4.9597    1.0000 </r>
       <r>    5.1233    1.0000 </r>
       <r>    5.3253    1.0000 </r>
       <r>    6.9496    1.0000 </r>
       <r>    8.1922    1.0000 </r>
       <r>    8.4311    0.0000 </r>
       <r>    8.5405    0.0000 </r>
       <r>    8.5976    0.0000 </r>
       <r>    8.6412    0.0000 </r>
       <r>    8.6891    0.0000 </r>
      </set>
     </set>
    </set>
   </array>
  </eigenvalues>
  <separator name="orbital magnetization" >
   <v name="MAGDIPOLOUT">      0.00000000      0.00000000      0.00000000</v>
  </separator>
  <dos>
   <i name="efermi">      8.38798701 </i>
   <total>
    <array>
     <dimension dim="1">gridpoints</dimension>
     <dimension dim="2">spin</dimension>
     <field>energy</field>
     <field>total</field>
     <field>integrated</field>
     <set>
      <set comment="spin 1">
       <r>   -38.0786     0.0000     0.0000 </r>
       <r>   -37.9145     0.0000     0.0000 </r>
       <r>   -37.7505     0.0000     0.0000 </r>
       <r>   -37.5865     0.0000     0.0000 </r>
       <r>   -37.4225     0.0000     0.0000 </r>
       <r>   -37.2584     0.0000     0.0000 </r>
       <r>   -37.0944     0.0000     0.0000 </r>
       <r>   -36.9304     0.0000     0.0000 </r>
       <r>   -36.7663     0.0000     0.0000 </r>
       <r>   -36.6023     0.0000     0.0000 </r>
       <r>   -36.4383     0.0000     0.0000 </r>
       <r>   -36.2743     0.0000     0.0000 </r>
       <r>   -36.1102     0.0000     0.0000 </r>
       <r>   -35.9462     0.0000     0.0000 </r>
       <r>   -35.7822    12.1930     2.0000 </r>
       <r>   -35.6181     0.0000     2.0000 </r>
       <r>   -35.4541     0.0000     2.0000 </r>
       <r>   -35.2901     0.0000     2.0000 </r>
       <r>   -35.1261     0.0000     2.0000 </r>
       <r>   -34.9620     0.0000     2.0000 </r>
       <r>   -34.7980     0.0000     2.0000 </r>
       <r>   -34.6340     0.0000     2.0000 </r>
       <r>   -34.4699     0.0000     2.0000 </r>
       <r>   -34.3059     0.0000     2.0000 </r>
       <r>   -34.1419     0.0000     2.0000 </r>
       <r>   -33.9779     0.0000     2.0000 </r>
       <r>   -33.8138     0.0000     2.0000 </r>
       <r>   -33.6498     0.0000     2.0000 </r>
       <r>   -33.4858     0.0000     2.0000 </r>
       <r>   -33.3217     0.0000     2.0000 </r>
       <r>   -33.1577     0.0000     2.0000 </r>
       <r>   -32.9937     0.0000     2.0000 </r>
       <r>   -32.8297     0.0000     2.0000 </r>
       <r>   -32.6656     0.0000     2.0000 </r>
       <r>   -32.5016     0.0000     2.0000 </r>
       <r>   -32.3376     0.0000     2.0000 </r>
       <r>   -32.1735     0.0000     2.0000 </r>
       <r>   -32.0095     0.0000     2.0000 </r>
       <r>   -31.8455     0.0000     2.0000 </r>
       <r>   -31.6815     0.0000     2.0000 </r>
       <r>   -31.5174     0.0000     2.0000 </r>
       <r>   -31.3534     0.0000     2.0000 </r>
       <r>   -31.1894     0.0000     2.0000 </r>
       <r>   -31.0253     0.0000     2.0000 </r>
       <r>   -30.8613     0.0000     2.0000 </r>
       <r>   -30.6973     0.0000     2.0000 </r>
       <r>   -30.5333     0.0000     2.0000 </r>
       <r>   -30.3692     0.0000     2.0000 </r>
       <r>   -30.2052     0.0000     2.0000 </r>
       <r>   -30.0412     0.0000     2.0000 </r>
       <r>   -29.8771     0.0000     2.0000 </r>
       <r>   -29.7131     0.0000     2.0000 </r>
       <r>   -29.5491     0.0000     2.0000 </r>
       <r>   -29.3851     0.0000     2.0000 </r>
       <r>   -29.2210     0.0000     2.0000 </r>
       <r>   -29.0570     0.0000     2.0000 </r>
       <r>   -28.8930     0.0000     2.0000 </r>
       <r>   -28.7289     0.0000     2.0000 </r>
       <r>   -28.5649     0.0000     2.0000 </r>
       <r>   -28.4009     0.0000     2.0000 </r>
       <r>   -28.2369     0.0000     2.0000 </r>
       <r>   -28.0728     0.0000     2.0000 </r>
       <r>   -27.9088     0.0000     2.0000 </r>
       <r>   -27.7448     0.0000     2.0000 </r>
       <r>   -27.5807     0.0000     2.0000 </r>
       <r>   -27.4167     0.0000     2.0000 </r>
       <r>   -27.2527     0.0000     2.0000 </r>
       <r>   -27.0887     0.0000     2.0000 </r>
       <r>   -26.9246     0.0000     2.0000 </r>
       <r>   -26.7606     0.0000     2.0000 </r>
       <r>   -26.5966     0.0000     2.0000 </r>
       <r>   -26.4325     0.0000     2.0000 </r>
       <r>   -26.2685     0.0000     2.0000 </r>
       <r>   -26.1045     0.0000     2.0000 </r>
       <r>   -25.9405     0.0000     2.0000 </r>
       <r>   -25.7764     0.0000     2.0000 </r>
       <r>   -25.6124     0.0000     2.0000 </r>
       <r>   -25.4484     0.0000     2.0000 </r>
       <r>   -25.2843     0.0000     2.0000 </r>
       <r>   -25.1203     0.0000     2.0000 </r>
       <r>   -24.9563     0.0000     2.0000 </r>
       <r>   -24.7923     0.0000     2.0000 </r>
       <r>   -24.6282     0.0000     2.0000 </r>
       <r>   -24.4642     0.0000     2.0000 </r>
       <r>   -24.3002     0.0000     2.0000 </r>
       <r>   -24.1361     0.0000     2.0000 </r>
       <r>   -23.9721     0.0000     2.0000 </r>
       <r>   -23.8081     0.0000     2.0000 </r>
       <r>   -23.6441     0.0000     2.0000 </r>
       <r>   -23.4800     0.0000     2.0000 </r>
       <r>   -23.3160     0.0000     2.0000 </r>
       <r>   -23.1520     0.0000     2.0000 </r>
       <r>   -22.9879     0.0000     2.0000 </r>
       <r>   -22.8239     0.0000     2.0000 </r>
       <r>   -22.6599     0.0000     2.0000 </r>
       <r>   -22.4959     0.0000     2.0000 </r>
       <r>   -22.3318     0.0000     2.0000 </r>
       <r>   -22.1678     0.0000     2.0000 </r>
       <r>   -22.0038     0.0000     2.0000 </r>
       <r>   -21.8397     0.0000     2.0000 </r>
       <r>   -21.6757     0.0000     2.0000 </r>
       <r>   -21.5117     0.0000     2.0000 </r>
       <r>   -21.3477     0.0000     2.0000 </r>
       <r>   -21.1836     0.0000     2.0000 </r>
       <r>   -21.0196     0.0000     2.0000 </r>
       <r>   -20.8556     0.0000     2.0000 </r>
       <r>   -20.6915     0.0000     2.0000 </r>
       <r>   -20.5275     0.0000     2.0000 </r>
       <r>   -20.3635     0.0000     2.0000 </r>
       <r>   -20.1995     0.0000     2.0000 </r>
       <r>   -20.0354     0.0000     2.0000 </r>
       <r>   -19.8714     0.0000     2.0000 </r>
       <r>   -19.7074     0.0000     2.0000 </r>
       <r>   -19.5433     0.0000     2.0000 </r>
       <r>   -19.3793     0.0000     2.0000 </r>
       <r>   -19.2153     0.0000     2.0000 </r>
       <r>   -19.0513     0.0000     2.0000 </r>
       <r>   -18.8872     0.0000     2.0000 </r>
       <r>   -18.7232     0.0000     2.0000 </r>
       <r>   -18.5592     0.0000     2.0000 </r>
       <r>   -18.3951     0.0000     2.0000 </r>
       <r>   -18.2311     0.0000     2.0000 </r>
       <r>   -18.0671     0.0000     2.0000 </r>
       <r>   -17.9031     0.0000     2.0000 </r>
       <r>   -17.7390     0.0000     2.0000 </r>
       <r>   -17.5750     0.0000     2.0000 </r>
       <r>   -17.4110     0.0000     2.0000 </r>
       <r>   -17.2469     0.0000     2.0000 </r>
       <r>   -17.0829     0.0000     2.0000 </r>
       <r>   -16.9189     0.0000     2.0000 </r>
       <r>   -16.7549     0.0000     2.0000 </r>
       <r>   -16.5908     0.0000     2.0000 </r>
       <r>   -16.4268     0.0000     2.0000 </r>
       <r>   -16.2628     0.0000     2.0000 </r>
       <r>   -16.0987     0.0000     2.0000 </r>
       <r>   -15.9347     0.0000     2.0000 </r>
       <r>   -15.7707     0.0000     2.0000 </r>
       <r>   -15.6067     0.0000     2.0000 </r>
       <r>   -15.4426     0.0000     2.0000 </r>
       <r>   -15.2786     0.0000     2.0000 </r>
       <r>   -15.1146     0.0000     2.0000 </r>
       <r>   -14.9505     0.0000     2.0000 </r>
       <r>   -14.7865     0.0000     2.0000 </r>
       <r>   -14.6225     0.0000     2.0000 </r>
       <r>   -14.4584     0.0000     2.0000 </r>
       <r>   -14.2944    60.6204    11.9435 </r>
       <r>   -14.1304     0.0000    12.0000 </r>
       <r>   -13.9664     0.0000    12.0000 </r>
       <r>   -13.8023     0.0000    12.0000 </r>
       <r>   -13.6383     0.0000    12.0000 </r>
       <r>   -13.4743     0.0000    12.0000 </r>
       <r>   -13.3102     0.0000    12.0000 </r>
       <r>   -13.1462     0.0000    12.0000 </r>
       <r>   -12.9822     0.0000    12.0000 </r>
       <r>   -12.8182     0.0000    12.0000 </r>
       <r>   -12.6541     0.0000    12.0000 </r>
       <r>   -12.4901     0.0000    12.0000 </r>
       <r>   -12.3261     0.0000    12.0000 </r>
       <r>   -12.1620     0.0000    12.0000 </r>
       <r>   -11.9980     0.0000    12.0000 </r>
       <r>   -11.8340     0.0000    12.0000 </r>
       <r>   -11.6700     0.0000    12.0000 </r>
       <r>   -11.5059     0.0000    12.0000 </r>
       <r>   -11.3419     0.0000    12.0000 </r>
       <r>   -11.1779     0.0016    12.0003 </r>
       <r>   -11.0138    24.0253    17.7560 </r>
       <r>   -10.8498     0.0000    18.0000 </r>
       <r>   -10.6858     0.0000    18.0000 </r>
       <r>   -10.5218     0.0000    18.0000 </r>
       <r>   -10.3577     0.0000    18.0000 </r>
       <r>   -10.1937     0.0000    18.0000 </r>
       <r>   -10.0297     0.0000    18.0000 </r>
       <r>    -9.8656     0.0000    18.0000 </r>
       <r>    -9.7016     0.0000    18.0000 </r>
       <r>    -9.5376     0.0000    18.0000 </r>
       <r>    -9.3736     0.0000    18.0000 </r>
       <r>    -9.2095     0.0000    18.0000 </r>
       <r>    -9.0455     0.0000    18.0000 </r>
       <r>    -8.8815     0.0000    18.0000 </r>
       <r>    -8.7174     0.0000    18.0000 </r>
       <r>    -8.5534     0.0000    18.0000 </r>
       <r>    -8.3894     0.0000    18.0000 </r>
       <r>    -8.2254     0.0000    18.0000 </r>
       <r>    -8.0613     0.0000    18.0000 </r>
       <r>    -7.8973     0.0000    18.0000 </r>
       <r>    -7.7333     0.0000    18.0000 </r>
       <r>    -7.5692     0.0000    18.0000 </r>
       <r>    -7.4052     0.0000    18.0000 </r>
       <r>    -7.2412     0.0000    18.0000 </r>
       <r>    -7.0772     0.0000    18.0000 </r>
       <r>    -6.9131     0.0000    18.0000 </r>
       <r>    -6.7491     0.0000    18.0000 </r>
       <r>    -6.5851     0.0000    18.0000 </r>
       <r>    -6.4210     0.0000    18.0000 </r>
       <r>    -6.2570     0.0000    18.0000 </r>
       <r>    -6.0930     0.0000    18.0000 </r>
       <r>    -5.9290     0.0000    18.0000 </r>
       <r>    -5.7649     0.0000    18.0000 </r>
       <r>    -5.6009     0.0000    18.0000 </r>
       <r>    -5.4369     0.0000    18.0000 </r>
       <r>    -5.2728     0.0000    18.0000 </r>
       <r>    -5.1088     0.0000    18.0000 </r>
       <r>    -4.9448     0.0000    18.0000 </r>
       <r>    -4.7808     0.0000    18.0000 </r>
       <r>    -4.6167     0.0000    18.0000 </r>
       <r>    -4.4527     0.0000    18.0000 </r>
       <r>    -4.2887     0.0000    18.0000 </r>
       <r>    -4.1246     0.0000    18.0000 </r>
       <r>    -3.9606     0.0000    18.0000 </r>
       <r>    -3.7966     0.0000    18.0000 </r>
       <r>    -3.6326     0.0000    18.0000 </r>
       <r>    -3.4685     0.0000    18.0000 </r>
       <r>    -3.3045     0.0948    18.0237 </r>
       <r>    -3.1405     0.2988    18.1027 </r>
       <r>    -2.9764     0.4506    18.2278 </r>
       <r>    -2.8124     1.1552    18.5127 </r>
       <r>    -2.6484     4.8878    19.7166 </r>
       <r>    -2.4844     0.0000    20.0000 </r>
       <r>    -2.3203     0.0000    20.0000 </r>
       <r>    -2.1563     0.0000    20.0000 </r>
       <r>    -1.9923     0.0000    20.0000 </r>
       <r>    -1.8282     0.0000    20.0000 </r>
       <r>    -1.6642     0.0000    20.0000 </r>
       <r>    -1.5002     0.0000    20.0000 </r>
       <r>    -1.3362     0.0000    20.0000 </r>
       <r>    -1.1721     0.0000    20.0000 </r>
       <r>    -1.0081     0.0000    20.0000 </r>
       <r>    -0.8441     0.0000    20.0000 </r>
       <r>    -0.6800     0.0000    20.0000 </r>
       <r>    -0.5160     0.0000    20.0000 </r>
       <r>    -0.3520     0.0000    20.0000 </r>
       <r>    -0.1880     0.0000    20.0000 </r>
       <r>    -0.0239     0.0000    20.0000 </r>
       <r>     0.1401     0.0000    20.0000 </r>
       <r>     0.3041     0.0000    20.0000 </r>
       <r>     0.4682     0.0000    20.0000 </r>
       <r>     0.6322     0.0000    20.0000 </r>
       <r>     0.7962     0.0000    20.0000 </r>
       <r>     0.9602     0.0000    20.0000 </r>
       <r>     1.1243     0.0000    20.0000 </r>
       <r>     1.2883     0.0000    20.0000 </r>
       <r>     1.4523     0.0000    20.0000 </r>
       <r>     1.6164     0.0000    20.0000 </r>
       <r>     1.7804     0.0000    20.0000 </r>
       <r>     1.9444     0.0000    20.0000 </r>
       <r>     2.1084     0.0000    20.0000 </r>
       <r>     2.2725     0.0000    20.0000 </r>
       <r>     2.4365     0.0000    20.0000 </r>
       <r>     2.6005     0.0000    20.0000 </r>
       <r>     2.7646     0.0545    20.0089 </r>
       <r>     2.9286     0.4653    20.1491 </r>
       <r>     3.0926     2.9700    20.7912 </r>
       <r>     3.2566     0.9539    21.2052 </r>
       <r>     3.4207     0.3709    21.4864 </r>
       <r>     3.5847     0.5074    21.7619 </r>
       <r>     3.7487     0.4087    21.9587 </r>
       <r>     3.9128     4.1440    22.7462 </r>
       <r>     4.0768     2.6409    23.9052 </r>
       <r>     4.2408     3.0473    24.9568 </r>
       <r>     4.4048     2.5551    26.0013 </r>
       <r>     4.5689     0.2204    26.0471 </r>
       <r>     4.7329     4.6444    26.8984 </r>
       <r>     4.8969     5.5295    29.1373 </r>
       <r>     5.0610     2.7969    30.5662 </r>
       <r>     5.2250     2.1221    31.2420 </r>
       <r>     5.3890     0.9131    31.5917 </r>
       <r>     5.5530     0.8766    31.8370 </r>
       <r>     5.7171     0.7326    32.0446 </r>
       <r>     5.8811     1.5767    32.3415 </r>
       <r>     6.0451     0.7094    32.5670 </r>
       <r>     6.2092     1.0794    32.8298 </r>
       <r>     6.3732     0.4269    33.1069 </r>
       <r>     6.5372     0.7204    33.3307 </r>
       <r>     6.7012     0.5663    33.6441 </r>
       <r>     6.8653     4.1820    34.3355 </r>
       <r>     7.0293     2.0128    35.6292 </r>
       <r>     7.1933     0.7527    35.9250 </r>
       <r>     7.3574     0.0913    35.9767 </r>
       <r>     7.5214     0.0205    36.0043 </r>
       <r>     7.6854     0.1217    36.0354 </r>
       <r>     7.8494     1.1375    36.2403 </r>
       <r>     8.0135     1.9788    36.8007 </r>
       <r>     8.1775     2.9781    37.7020 </r>
       <r>     8.3415     0.5015    38.0440 </r>
       <r>     8.5056     8.2945    41.9049 </r>
       <r>     8.6696    13.0261    45.8581 </r>
       <r>     8.8336     2.0504    47.9831 </r>
       <r>     8.9976     0.0000    48.0000 </r>
       <r>     9.1617     0.0000    48.0000 </r>
       <r>     9.3257     0.0000    48.0000 </r>
       <r>     9.4897     0.0000    48.0000 </r>
       <r>     9.6538     0.0000    48.0000 </r>
       <r>     9.8178     0.0000    48.0000 </r>
       <r>     9.9818     0.0000    48.0000 </r>
       <r>    10.1458     0.0000    48.0000 </r>
       <r>    10.3099     0.0000    48.0000 </r>
       <r>    10.4739     0.0000    48.0000 </r>
       <r>    10.6379     0.0000    48.0000 </r>
       <r>    10.8020     0.0000    48.0000 </r>
       <r>    10.9660     0.0000    48.0000 </r>
       <r>    11.1300     0.0000    48.0000 </r>
      </set>
     </set>
    </array>
   </total>
  </dos>
 </calculation>
 <structure name="finalpos" >
  <crystal>
   <varray name="basis" >
    <v>       0.00000000       3.46575352       3.46575352 </v>
    <v>       3.46575352       0.00000000       3.46575352 </v>
    <v>       3.46575352       3.46575352       0.00000000 </v>
   </varray>
   <i name="volume">     83.25743279 </i>
   <varray name="rec_basis" >
    <v>      -0.14426877       0.14426877       0.14426877 </v>
    <v>       0.14426877      -0.14426877       0.14426877 </v>
    <v>       0.14426877       0.14426877      -0.14426877 </v>
   </varray>
  </crystal>
  <varray name="positions" >
   <v>       0.25000000       0.25000000       0.25000000 </v>
   <v>       0.75000000       0.75000000       0.75000000 </v>
   <v>       0.00000000       0.00000000       0.00000000 </v>
  </varray>
 </structure>
</modeling>
