   2   2   0   0
  0.1978929E+02  0.3825237E-09  0.3825237E-09  0.3825237E-09  0.0000000E+00
  1.000000000000000E-004
  CAR 
 unknown system                          
     17.60480025     -8.74397739  301      5.14402416      1.00000000
     -8.744  0.0000E+00  0.0000E+00
     -8.656  0.0000E+00  0.0000E+00
     -8.568  0.0000E+00  0.0000E+00
     -8.480  0.0000E+00  0.0000E+00
     -8.393  0.0000E+00  0.0000E+00
     -8.305  0.0000E+00  0.0000E+00
     -8.217  0.0000E+00  0.0000E+00
     -8.129  0.0000E+00  0.0000E+00
     -8.041  0.0000E+00  0.0000E+00
     -7.954  0.0000E+00  0.0000E+00
     -7.866  0.0000E+00  0.0000E+00
     -7.778  0.0000E+00  0.0000E+00
     -7.690  0.0000E+00  0.0000E+00
     -7.602  0.0000E+00  0.0000E+00
     -7.514  0.6258E-01  0.1002E-02
     -7.427  0.1348E+00  0.1008E-01
     -7.339  0.1854E+00  0.2442E-01
     -7.251  0.2298E+00  0.4264E-01
     -7.163  0.2634E+00  0.6421E-01
     -7.075  0.2994E+00  0.8902E-01
     -6.987  0.3322E+00  0.1167E+00
     -6.900  0.3662E+00  0.1474E+00
     -6.812  0.3986E+00  0.1810E+00
     -6.724  0.4340E+00  0.2175E+00
     -6.636  0.4688E+00  0.2572E+00
     -6.548  0.5063E+00  0.3000E+00
     -6.460  0.5466E+00  0.3462E+00
     -6.373  0.5908E+00  0.3961E+00
     -6.285  0.6390E+00  0.4501E+00
     -6.197  0.6958E+00  0.5086E+00
     -6.109  0.7623E+00  0.5726E+00
     -6.021  0.8396E+00  0.6428E+00
     -5.933  0.9502E+00  0.7212E+00
     -5.846  0.1112E+01  0.8111E+00
     -5.758  0.1425E+01  0.9226E+00
     -5.670  0.1421E+01  0.1049E+01
     -5.582  0.1414E+01  0.1174E+01
     -5.494  0.1429E+01  0.1299E+01
     -5.406  0.1439E+01  0.1424E+01
     -5.319  0.1479E+01  0.1553E+01
     -5.231  0.1572E+01  0.1686E+01
     -5.143  0.1817E+01  0.1830E+01
     -5.055  0.8510E+00  0.1994E+01
     -4.967  0.0000E+00  0.2000E+01
     -4.879  0.0000E+00  0.2000E+01
     -4.792  0.0000E+00  0.2000E+01
     -4.704  0.0000E+00  0.2000E+01
     -4.616  0.0000E+00  0.2000E+01
     -4.528  0.0000E+00  0.2000E+01
     -4.440  0.0000E+00  0.2000E+01
     -4.353  0.0000E+00  0.2000E+01
     -4.265  0.0000E+00  0.2000E+01
     -4.177  0.0000E+00  0.2000E+01
     -4.089  0.0000E+00  0.2000E+01
     -4.001  0.0000E+00  0.2000E+01
     -3.913  0.0000E+00  0.2000E+01
     -3.826  0.0000E+00  0.2000E+01
     -3.738  0.0000E+00  0.2000E+01
     -3.650  0.0000E+00  0.2000E+01
     -3.562  0.0000E+00  0.2000E+01
     -3.474  0.0000E+00  0.2000E+01
     -3.386  0.0000E+00  0.2000E+01
     -3.299  0.0000E+00  0.2000E+01
     -3.211  0.0000E+00  0.2000E+01
     -3.123  0.0000E+00  0.2000E+01
     -3.035  0.0000E+00  0.2000E+01
     -2.947  0.0000E+00  0.2000E+01
     -2.859  0.0000E+00  0.2000E+01
     -2.772  0.0000E+00  0.2000E+01
     -2.684  0.0000E+00  0.2000E+01
     -2.596  0.0000E+00  0.2000E+01
     -2.508  0.0000E+00  0.2000E+01
     -2.420  0.0000E+00  0.2000E+01
     -2.332  0.0000E+00  0.2000E+01
     -2.245  0.0000E+00  0.2000E+01
     -2.157  0.0000E+00  0.2000E+01
     -2.069  0.0000E+00  0.2000E+01
     -1.981  0.0000E+00  0.2000E+01
     -1.893  0.0000E+00  0.2000E+01
     -1.805  0.0000E+00  0.2000E+01
     -1.718  0.0000E+00  0.2000E+01
     -1.630  0.0000E+00  0.2000E+01
     -1.542  0.0000E+00  0.2000E+01
     -1.454  0.0000E+00  0.2000E+01
     -1.366  0.0000E+00  0.2000E+01
     -1.278  0.0000E+00  0.2000E+01
     -1.191  0.0000E+00  0.2000E+01
     -1.103  0.0000E+00  0.2000E+01
     -1.015  0.2219E+00  0.2009E+01
     -0.927  0.3307E+00  0.2033E+01
     -0.839  0.4545E+00  0.2068E+01
     -0.752  0.7312E+00  0.2117E+01
     -0.664  0.1031E+01  0.2194E+01
     -0.576  0.1384E+01  0.2300E+01
     -0.488  0.2344E+01  0.2454E+01
     -0.400  0.2869E+01  0.2697E+01
     -0.312  0.1682E+01  0.2923E+01
     -0.225  0.1120E+01  0.3040E+01
     -0.137  0.8654E+00  0.3128E+01
     -0.049  0.7572E+00  0.3199E+01
      0.039  0.6475E+00  0.3261E+01
      0.127  0.5772E+00  0.3314E+01
      0.215  0.5293E+00  0.3362E+01
      0.302  0.4747E+00  0.3407E+01
      0.390  0.4297E+00  0.3446E+01
      0.478  0.4034E+00  0.3483E+01
      0.566  0.3744E+00  0.3517E+01
      0.654  0.3412E+00  0.3548E+01
      0.742  0.3164E+00  0.3577E+01
      0.829  0.3000E+00  0.3604E+01
      0.917  0.2834E+00  0.3630E+01
      1.005  0.2644E+00  0.3654E+01
      1.093  0.5269E+00  0.3688E+01
      1.181  0.7151E+00  0.3742E+01
      1.269  0.9942E+00  0.3816E+01
      1.356  0.1135E+01  0.3916E+01
      1.444  0.1039E+01  0.4011E+01
      1.532  0.9827E+00  0.4099E+01
      1.620  0.9547E+00  0.4185E+01
      1.708  0.9324E+00  0.4268E+01
      1.796  0.9158E+00  0.4349E+01
      1.883  0.9091E+00  0.4430E+01
      1.971  0.9641E+00  0.4515E+01
      2.059  0.9920E+00  0.4600E+01
      2.147  0.1029E+01  0.4690E+01
      2.235  0.1077E+01  0.4782E+01
      2.323  0.1113E+01  0.4879E+01
      2.410  0.1177E+01  0.4980E+01
      2.498  0.1233E+01  0.5086E+01
      2.586  0.1399E+01  0.5203E+01
      2.674  0.1576E+01  0.5336E+01
      2.762  0.1538E+01  0.5472E+01
      2.849  0.1518E+01  0.5606E+01
      2.937  0.1503E+01  0.5738E+01
      3.025  0.1485E+01  0.5869E+01
      3.113  0.1450E+01  0.5998E+01
      3.201  0.1442E+01  0.6125E+01
      3.289  0.1425E+01  0.6251E+01
      3.376  0.1405E+01  0.6376E+01
      3.464  0.1394E+01  0.6498E+01
      3.552  0.1368E+01  0.6620E+01
      3.640  0.1364E+01  0.6740E+01
      3.728  0.1359E+01  0.6859E+01
      3.816  0.1340E+01  0.6978E+01
      3.903  0.1328E+01  0.7095E+01
      3.991  0.1309E+01  0.7211E+01
      4.079  0.1331E+01  0.7327E+01
      4.167  0.1311E+01  0.7443E+01
      4.255  0.1010E+01  0.7546E+01
      4.343  0.8530E+00  0.7627E+01
      4.430  0.7497E+00  0.7697E+01
      4.518  0.6585E+00  0.7759E+01
      4.606  0.5812E+00  0.7813E+01
      4.694  0.5087E+00  0.7861E+01
      4.782  0.4401E+00  0.7903E+01
      4.870  0.3701E+00  0.7939E+01
      4.957  0.3156E+00  0.7969E+01
      5.045  0.1970E+00  0.7991E+01
      5.133  0.0000E+00  0.8000E+01
      5.221  0.0000E+00  0.8000E+01
      5.309  0.0000E+00  0.8000E+01
      5.397  0.0000E+00  0.8000E+01
      5.484  0.0000E+00  0.8000E+01
      5.572  0.0000E+00  0.8000E+01
      5.660  0.0000E+00  0.8000E+01
      5.748  0.0000E+00  0.8000E+01
      5.836  0.0000E+00  0.8000E+01
      5.924  0.0000E+00  0.8000E+01
      6.011  0.0000E+00  0.8000E+01
      6.099  0.0000E+00  0.8000E+01
      6.187  0.0000E+00  0.8000E+01
      6.275  0.0000E+00  0.8000E+01
      6.363  0.2184E-01  0.8001E+01
      6.450  0.6541E-01  0.8004E+01
      6.538  0.8579E-01  0.8011E+01
      6.626  0.1149E+00  0.8020E+01
      6.714  0.1395E+00  0.8031E+01
      6.802  0.1680E+00  0.8044E+01
      6.890  0.2013E+00  0.8061E+01
      6.977  0.2305E+00  0.8080E+01
      7.065  0.2615E+00  0.8101E+01
      7.153  0.2949E+00  0.8125E+01
      7.241  0.3294E+00  0.8153E+01
      7.329  0.3576E+00  0.8183E+01
      7.417  0.3873E+00  0.8216E+01
      7.504  0.4582E+00  0.8253E+01
      7.592  0.5173E+00  0.8296E+01
      7.680  0.5582E+00  0.8343E+01
      7.768  0.6010E+00  0.8394E+01
      7.856  0.6627E+00  0.8449E+01
      7.944  0.7635E+00  0.8512E+01
      8.031  0.8567E+00  0.8583E+01
      8.119  0.9379E+00  0.8662E+01
      8.207  0.1031E+01  0.8749E+01
      8.295  0.1136E+01  0.8844E+01
      8.383  0.1308E+01  0.8950E+01
      8.471  0.1568E+01  0.9079E+01
      8.558  0.1575E+01  0.9218E+01
      8.646  0.1536E+01  0.9355E+01
      8.734  0.1556E+01  0.9490E+01
      8.822  0.1651E+01  0.9630E+01
      8.910  0.1593E+01  0.9773E+01
      8.998  0.1539E+01  0.9911E+01
      9.085  0.1313E+01  0.1004E+02
      9.173  0.1046E+01  0.1014E+02
      9.261  0.8161E+00  0.1022E+02
      9.349  0.5476E+00  0.1028E+02
      9.437  0.4541E+00  0.1032E+02
      9.525  0.5378E+00  0.1036E+02
      9.612  0.9172E+00  0.1043E+02
      9.700  0.1356E+01  0.1053E+02
      9.788  0.1719E+01  0.1066E+02
      9.876  0.2133E+01  0.1083E+02
      9.964  0.2779E+01  0.1102E+02
     10.051  0.1826E+01  0.1123E+02
     10.139  0.1755E+01  0.1138E+02
     10.227  0.1484E+01  0.1153E+02
     10.315  0.1322E+01  0.1165E+02
     10.403  0.1407E+01  0.1177E+02
     10.491  0.1239E+01  0.1188E+02
     10.578  0.1213E+01  0.1199E+02
     10.666  0.1194E+01  0.1210E+02
     10.754  0.1268E+01  0.1220E+02
     10.842  0.1397E+01  0.1232E+02
     10.930  0.1535E+01  0.1245E+02
     11.018  0.1453E+01  0.1258E+02
     11.105  0.1216E+01  0.1269E+02
     11.193  0.1197E+01  0.1280E+02
     11.281  0.1360E+01  0.1291E+02
     11.369  0.1207E+01  0.1303E+02
     11.457  0.1179E+01  0.1313E+02
     11.545  0.1153E+01  0.1323E+02
     11.632  0.1162E+01  0.1333E+02
     11.720  0.1281E+01  0.1344E+02
     11.808  0.1086E+01  0.1354E+02
     11.896  0.1088E+01  0.1363E+02
     11.984  0.1109E+01  0.1373E+02
     12.072  0.1009E+01  0.1382E+02
     12.159  0.9914E+00  0.1391E+02
     12.247  0.1030E+01  0.1400E+02
     12.335  0.9866E+00  0.1409E+02
     12.423  0.9756E+00  0.1417E+02
     12.511  0.1033E+01  0.1426E+02
     12.599  0.9593E+00  0.1435E+02
     12.686  0.8402E+00  0.1443E+02
     12.774  0.8173E+00  0.1450E+02
     12.862  0.8673E+00  0.1457E+02
     12.950  0.9431E+00  0.1465E+02
     13.038  0.1117E+01  0.1474E+02
     13.126  0.1093E+01  0.1484E+02
     13.213  0.1275E+01  0.1494E+02
     13.301  0.1072E+01  0.1504E+02
     13.389  0.9186E+00  0.1513E+02
     13.477  0.8188E+00  0.1521E+02
     13.565  0.8083E+00  0.1528E+02
     13.652  0.7793E+00  0.1535E+02
     13.740  0.6970E+00  0.1541E+02
     13.828  0.5891E+00  0.1547E+02
     13.916  0.4713E+00  0.1552E+02
     14.004  0.4008E+00  0.1555E+02
     14.092  0.3698E+00  0.1559E+02
     14.179  0.3394E+00  0.1562E+02
     14.267  0.3211E+00  0.1565E+02
     14.355  0.3039E+00  0.1568E+02
     14.443  0.2872E+00  0.1570E+02
     14.531  0.2739E+00  0.1573E+02
     14.619  0.2610E+00  0.1575E+02
     14.706  0.2489E+00  0.1577E+02
     14.794  0.2352E+00  0.1579E+02
     14.882  0.2202E+00  0.1581E+02
     14.970  0.2112E+00  0.1583E+02
     15.058  0.2093E+00  0.1585E+02
     15.146  0.1982E+00  0.1587E+02
     15.233  0.1716E+00  0.1589E+02
     15.321  0.1530E+00  0.1590E+02
     15.409  0.1384E+00  0.1591E+02
     15.497  0.1265E+00  0.1592E+02
     15.585  0.1160E+00  0.1594E+02
     15.673  0.1095E+00  0.1594E+02
     15.760  0.1074E+00  0.1595E+02
     15.848  0.1074E+00  0.1596E+02
     15.936  0.9092E-01  0.1597E+02
     16.024  0.7518E-01  0.1598E+02
     16.112  0.6080E-01  0.1599E+02
     16.200  0.4778E-01  0.1599E+02
     16.287  0.3795E-01  0.1599E+02
     16.375  0.3508E-01  0.1600E+02
     16.463  0.0000E+00  0.1600E+02
     16.551  0.0000E+00  0.1600E+02
     16.639  0.0000E+00  0.1600E+02
     16.727  0.0000E+00  0.1600E+02
     16.814  0.0000E+00  0.1600E+02
     16.902  0.0000E+00  0.1600E+02
     16.990  0.0000E+00  0.1600E+02
     17.078  0.0000E+00  0.1600E+02
     17.166  0.0000E+00  0.1600E+02
     17.253  0.0000E+00  0.1600E+02
     17.341  0.0000E+00  0.1600E+02
     17.429  0.0000E+00  0.1600E+02
     17.517  0.0000E+00  0.1600E+02
     17.605  0.0000E+00  0.1600E+02
