    2    2    1    1
  0.1978929E+02  0.3825237E-09  0.3825237E-09  0.3825237E-09  0.0000000E+00
  1.000000000000000E-004
  CAR 
 unknown system                          
      8    286      8
 
  0.0000000E+00  0.0000000E+00  0.0000000E+00  0.1079797E-03
    1       -7.546306   1.000000
    2        5.132430   1.000000
    3        5.132430   1.000000
    4        5.132430   1.000000
    5        8.345801   0.000000
    6        9.650906   0.000000
    7        9.650906   0.000000
    8        9.650906   0.000000
 
  0.4761905E-01  0.0000000E+00  0.0000000E+00  0.8638376E-03
    1       -7.519689   1.000000
    2        4.845500   1.000000
    3        5.102656   1.000000
    4        5.102657   1.000000
    5        8.536082   0.000000
    6        9.695959   0.000000
    7        9.705040   0.000000
    8        9.705041   0.000000
 
  0.9523810E-01  0.0000000E+00  0.0000000E+00  0.8638376E-03
    1       -7.440362   1.000000
    2        4.174211   1.000000
    3        5.019962   1.000000
    4        5.019962   1.000000
    5        8.769228   0.000000
    6        9.851649   0.000000
    7        9.851649   0.000000
    8        9.996770   0.000000
 
  0.1428571E+00  0.0000000E+00  0.0000000E+00  0.8638376E-03
    1       -7.310270   1.000000
    2        3.357083   1.000000
    3        4.900620   1.000000
    4        4.900620   1.000000
    5        8.735462   0.000000
    6       10.044521   0.000000
    7       10.044522   0.000000
    8       10.662327   0.000000
 
  0.1904762E+00  0.0000000E+00  0.0000000E+00  0.8638376E-03
    1       -7.132883   1.000000
    2        2.506944   1.000000
    3        4.763399   1.000000
    4        4.763399   1.000000
    5        8.573256   0.000000
    6       10.212616   0.000000
    7       10.212617   0.000000
    8       11.472997   0.000000
 
  0.2380952E+00  0.0000000E+00  0.0000000E+00  0.8638376E-03
    1       -6.914143   1.000000
    2        1.676046   1.000000
    3        4.624562   1.000000
    4        4.624563   1.000000
    5        8.384390   0.000000
    6       10.286997   0.000000
    7       10.286998   0.000000
    8       12.274331   0.000000
 
  0.2857143E+00  0.0000000E+00  0.0000000E+00  0.8638376E-03
    1       -6.663534   1.000000
    2        0.896558   1.000000
    3        4.496202   1.000000
    4        4.496202   1.000000
    5        8.206346   0.000000
    6       10.252060   0.000000
    7       10.252060   0.000000
    8       12.916779   0.000000
 
  0.3333333E+00  0.0000000E+00  0.0000000E+00  0.8638376E-03
    1       -6.396454   1.000000
    2        0.196297   1.000000
    3        4.386522   1.000000
    4        4.386523   1.000000
    5        8.055076   0.000000
    6       10.150682   0.000000
    7       10.150683   0.000000
    8       13.211503   0.000000
 
  0.3809524E+00  0.0000000E+00  0.0000000E+00  0.8638376E-03
    1       -6.137281   1.000000
    2       -0.392828   1.000000
    3        4.300783   1.000000
    4        4.300783   1.000000
    5        7.938025   0.000000
    6       10.035770   0.000000
    7       10.035770   0.000000
    8       13.223050   0.000000
 
  0.4285714E+00  0.0000000E+00  0.0000000E+00  0.8638376E-03
    1       -5.922454   1.000000
    2       -0.829846   1.000000
    3        4.242170   1.000000
    4        4.242170   1.000000
    5        7.858732   0.000000
    6        9.943368   0.000000
    7        9.943368   0.000000
    8       13.157804   0.000000
 
  0.4761905E+00  0.0000000E+00  0.0000000E+00  0.8638376E-03
    1       -5.797267   1.000000
    2       -1.066736   1.000000
    3        4.212473   1.000000
    4        4.212473   1.000000
    5        7.818791   0.000000
    6        9.893019   0.000000
    7        9.893019   0.000000
    8       13.110868   0.000000
 
  0.4761905E-01  0.4761905E-01  0.0000000E+00  0.6478782E-03
    1       -7.510804   1.000000
    2        4.871915   1.000000
    3        5.029969   1.000000
    4        5.029969   1.000000
    5        8.625414   0.000000
    6        9.528089   0.000000
    7        9.804417   0.000000
    8        9.804417   0.000000
 
  0.9523810E-01  0.4761905E-01  0.0000000E+00  0.2591513E-02
    1       -7.449007   1.000000
    2        4.357313   1.000000
    3        4.911425   1.000000
    4        4.990643   1.000000
    5        8.905937   0.000000
    6        9.479516   0.000000
    7        9.993084   0.000000
    8       10.053268   0.000000
 
  0.1428571E+00  0.4761905E-01  0.0000000E+00  0.2591513E-02
    1       -7.335779   1.000000
    2        3.599938   1.000000
    3        4.766873   1.000000
    4        4.920065   1.000000
    5        8.946300   0.000000
    6        9.634717   0.000000
    7       10.225435   0.000000
    8       10.563880   0.000000
 
  0.1904762E+00  0.4761905E-01  0.0000000E+00  0.2591513E-02
    1       -7.173993   1.000000
    2        2.772552   1.000000
    3        4.615512   1.000000
    4        4.803637   1.000000
    5        8.799737   0.000000
    6        9.860232   0.000000
    7       10.433874   0.000000
    8       11.214330   0.000000
 
  0.2380952E+00  0.4761905E-01  0.0000000E+00  0.2591513E-02
    1       -6.968709   1.000000
    2        1.944180   1.000000
    3        4.472547   1.000000
    4        4.661188   1.000000
    5        8.614333   0.000000
    6       10.016045   0.000000
    7       10.545903   0.000000
    8       11.813217   0.000000
 
  0.2857143E+00  0.4761905E-01  0.0000000E+00  0.2591513E-02
    1       -6.728022   1.000000
    2        1.153487   1.000000
    3        4.348688   1.000000
    4        4.511042   1.000000
    5        8.434424   0.000000
    6       10.046768   0.000000
    7       10.530849   0.000000
    8       12.332678   0.000000
 
  0.3333333E+00  0.4761905E-01  0.0000000E+00  0.2591513E-02
    1       -6.465101   1.000000
    2        0.430085   1.000000
    3        4.250878   1.000000
    4        4.366959   1.000000
    5        8.277622   0.000000
    6        9.983028   0.000000
    7       10.422493   0.000000
    8       12.829362   0.000000
 
  0.3809524E+00  0.4761905E-01  0.0000000E+00  0.2591513E-02
    1       -6.200872   1.000000
    2       -0.195370   1.000000
    3        4.183219   1.000000
    4        4.238577   1.000000
    5        8.152472   0.000000
    6        9.890602   0.000000
    7       10.277751   0.000000
    8       13.181586   0.000000
 
  0.4285714E+00  0.4761905E-01  0.0000000E+00  0.2591513E-02
    1       -5.967533   1.000000
    2       -0.684799   1.000000
    3        4.132493   1.000000
    4        4.147735   1.000000
    5        8.063297   0.000000
    6        9.816172   0.000000
    7       10.140250   0.000000
    8       13.283591   0.000000
 
  0.4761905E+00  0.4761905E-01  0.0000000E+00  0.2591513E-02
    1       -5.808311   1.000000
    2       -0.991429   1.000000
    3        4.053283   1.000000
    4        4.144916   1.000000
    5        8.012145   0.000000
    6        9.783796   0.000000
    7       10.035702   0.000000
    8       13.281267   0.000000
 
 -0.4761905E+00  0.4761905E-01  0.0000000E+00  0.2591513E-02
    1       -5.764754   1.000000
    2       -1.071891   1.000000
    3        4.004174   1.000000
    4        4.174067   1.000000
    5        7.999892   0.000000
    6        9.803536   0.000000
    7        9.977188   0.000000
    8       13.279224   0.000000
 
 -0.4285714E+00  0.4761905E-01  0.0000000E+00  0.2591513E-02
    1       -5.850411   1.000000
    2       -0.912200   1.000000
    3        3.987403   1.000000
    4        4.233518   1.000000
    5        8.026671   0.000000
    6        9.876560   0.000000
    7        9.969001   0.000000
    8       13.300188   0.000000
 
 -0.3809524E+00  0.4761905E-01  0.0000000E+00  0.2591513E-02
    1       -6.039582   1.000000
    2       -0.538978   1.000000
    3        4.004342   1.000000
    4        4.320647   1.000000
    5        8.092098   0.000000
    6        9.996311   0.000000
    7       10.007506   0.000000
    8       13.315850   0.000000
 
 -0.3333333E+00  0.4761905E-01  0.0000000E+00  0.2591513E-02
    1       -6.287592   1.000000
    2        0.000690   1.000000
    3        4.055419   1.000000
    4        4.431698   1.000000
    5        8.194987   0.000000
    6       10.079004   0.000000
    7       10.146258   0.000000
    8       13.224387   0.000000
 
 -0.2857143E+00  0.4761905E-01  0.0000000E+00  0.2591513E-02
    1       -6.554343   1.000000
    2        0.662355   1.000000
    3        4.139908   1.000000
    4        4.561396   1.000000
    5        8.332757   0.000000
    6       10.154646   0.000000
    7       10.293533   0.000000
    8       12.882707   0.000000
 
 -0.2380952E+00  0.4761905E-01  0.0000000E+00  0.2591513E-02
    1       -6.811701   1.000000
    2        1.410608   1.000000
    3        4.255552   1.000000
    4        4.702284   1.000000
    5        8.499898   0.000000
    6       10.186948   0.000000
    7       10.379506   0.000000
    8       12.332664   0.000000
 
 -0.1904762E+00  0.4761905E-01  0.0000000E+00  0.2591513E-02
    1       -7.041719   1.000000
    2        2.215299   1.000000
    3        4.398091   1.000000
    4        4.843848   1.000000
    5        8.684720   0.000000
    6       10.128971   0.000000
    7       10.326404   0.000000
    8       11.703306   0.000000
 
 -0.1428571E+00  0.4761905E-01  0.0000000E+00  0.2591513E-02
    1       -7.233189   1.000000
    2        3.043227   1.000000
    3        4.560912   1.000000
    4        4.971779   1.000000
    5        8.859577   0.000000
    6        9.985703   0.000000
    7       10.100312   0.000000
    8       11.056290   0.000000
 
 -0.9523810E-01  0.4761905E-01  0.0000000E+00  0.2591513E-02
    1       -7.379188   1.000000
    2        3.842918   1.000000
    3        4.736223   1.000000
    4        5.068390   1.000000
    5        8.942262   0.000000
    6        9.794811   0.000000
    7        9.823300   0.000000
    8       10.462650   0.000000
 
 -0.4761905E-01  0.4761905E-01  0.0000000E+00  0.1295756E-02
    1       -7.475475   1.000000
    2        4.504847   1.000000
    3        4.924923   1.000000
    4        5.115831   1.000000
    5        8.768255   0.000000
    6        9.656041   0.000000
    7        9.714858   0.000000
    8       10.004905   0.000000
 
  0.9523810E-01  0.9523810E-01  0.0000000E+00  0.6478782E-03
    1       -7.404922   1.000000
    2        4.267805   1.000000
    3        4.761975   1.000000
    4        4.761975   1.000000
    5        9.180130   0.000000
    6        9.280303   0.000000
    7       10.224243   0.000000
    8       10.224243   0.000000
 
  0.1428571E+00  0.9523810E-01  0.0000000E+00  0.2591513E-02
    1       -7.309111   1.000000
    2        3.714649   1.000000
    3        4.593867   1.000000
    4        4.669663   1.000000
    5        9.065969   0.000000
    6        9.511186   0.000000
    7       10.501205   0.000000
    8       10.606091   0.000000
 
  0.1904762E+00  0.9523810E-01  0.0000000E+00  0.2591513E-02
    1       -7.163971   1.000000
    2        2.971793   1.000000
    3        4.426583   1.000000
    4        4.575656   1.000000
    5        8.986200   0.000000
    6        9.663157   0.000000
    7       10.760869   0.000000
    8       11.017672   0.000000
 
  0.2380952E+00  0.9523810E-01  0.0000000E+00  0.2591513E-02
    1       -6.973820   1.000000
    2        2.184470   1.000000
    3        4.274730   1.000000
    4        4.434097   1.000000
    5        8.878012   0.000000
    6        9.834804   0.000000
    7       10.928415   0.000000
    8       11.204373   0.000000
 
  0.2857143E+00  0.9523810E-01  0.0000000E+00  0.2591513E-02
    1       -6.745608   1.000000
    2        1.409587   1.000000
    3        4.148320   1.000000
    4        4.262644   1.000000
    5        8.742419   0.000000
    6        9.939585   0.000000
    7       10.955900   0.000000
    8       11.409762   0.000000
 
  0.3333333E+00  0.9523810E-01  0.0000000E+00  0.2591513E-02
    1       -6.490632   1.000000
    2        0.683561   1.000000
    3        4.053751   1.000000
    4        4.082576   1.000000
    5        8.607614   0.000000
    6        9.907184   0.000000
    7       10.861922   0.000000
    8       11.841188   0.000000
 
  0.3809524E+00  0.9523810E-01  0.0000000E+00  0.2591513E-02
    1       -6.226836   1.000000
    2        0.038772   1.000000
    3        3.910126   1.000000
    4        3.994719   1.000000
    5        8.493714   0.000000
    6        9.811332   0.000000
    7       10.704708   0.000000
    8       12.435027   0.000000
 
  0.4285714E+00  0.9523810E-01  0.0000000E+00  0.2591513E-02
    1       -5.982204   1.000000
    2       -0.488060   1.000000
    3        3.756627   1.000000
    4        3.972880   1.000000
    5        8.411937   0.000000
    6        9.723044   0.000000
    7       10.535871   0.000000
    8       13.050111   0.000000
 
  0.4761905E+00  0.9523810E-01  0.0000000E+00  0.2591513E-02
    1       -5.796255   1.000000
    2       -0.852143   1.000000
    3        3.629961   1.000000
    4        3.988276   1.000000
    5        8.367623   0.000000
    6        9.674215   0.000000
    7       10.387789   0.000000
    8       13.484832   0.000000
 
 -0.4761905E+00  0.9523810E-01  0.0000000E+00  0.2591513E-02
    1       -5.712565   1.000000
    2       -1.007015   1.000000
    3        3.535810   1.000000
    4        4.039565   1.000000
    5        8.362307   0.000000
    6        9.677865   0.000000
    7       10.278182   0.000000
    8       13.656717   0.000000
 
 -0.4285714E+00  0.9523810E-01  0.0000000E+00  0.2591513E-02
    1       -5.755922   1.000000
    2       -0.926870   1.000000
    3        3.478413   1.000000
    4        4.124123   1.000000
    5        8.395164   0.000000
    6        9.738324   0.000000
    7       10.215049   0.000000
    8       13.686427   0.000000
 
 -0.3809524E+00  0.9523810E-01  0.0000000E+00  0.2591513E-02
    1       -5.912998   1.000000
    2       -0.625786   1.000000
    3        3.460996   1.000000
    4        4.237965   1.000000
    5        8.464211   0.000000
    6        9.853376   0.000000
    7       10.198549   0.000000
    8       13.593177   0.000000
 
 -0.3333333E+00  0.9523810E-01  0.0000000E+00  0.2591513E-02
    1       -6.143290   1.000000
    2       -0.146992   1.000000
    3        3.486043   1.000000
    4        4.375526   1.000000
    5        8.567027   0.000000
    6       10.011996   0.000000
    7       10.219671   0.000000
    8       13.282812   0.000000
 
 -0.2857143E+00  0.9523810E-01  0.0000000E+00  0.2591513E-02
    1       -6.404418   1.000000
    2        0.461722   1.000000
    3        3.555551   1.000000
    4        4.529223   1.000000
    5        8.700727   0.000000
    6       10.186639   0.000000
    7       10.255351   0.000000
    8       12.758447   0.000000
 
 -0.2380952E+00  0.9523810E-01  0.0000000E+00  0.2591513E-02
    1       -6.664598   1.000000
    2        1.158872   1.000000
    3        3.671546   1.000000
    4        4.688795   1.000000
    5        8.860703   0.000000
    6       10.263010   0.000000
    7       10.313922   0.000000
    8       12.185238   0.000000
 
 -0.1904762E+00  0.9523810E-01  0.0000000E+00  0.2591513E-02
    1       -6.903007   1.000000
    2        1.905913   1.000000
    3        3.837438   1.000000
    4        4.840523   1.000000
    5        9.037036   0.000000
    6       10.194846   0.000000
    7       10.272167   0.000000
    8       11.724043   0.000000
 
 -0.1428571E+00  0.9523810E-01  0.0000000E+00  0.2591513E-02
    1       -7.106495   1.000000
    2        2.655376   1.000000
    3        4.061752   1.000000
    4        4.966983   1.000000
    5        9.199692   0.000000
    6        9.999278   0.000000
    7       10.052367   0.000000
    8       11.389497   0.000000
 
 -0.9523810E-01  0.9523810E-01  0.0000000E+00  0.1295756E-02
    1       -7.266910   1.000000
    2        3.332036   1.000000
    3        4.363377   1.000000
    4        5.048554   1.000000
    5        9.208628   0.000000
    6        9.748388   0.000000
    7        9.903721   0.000000
    8       10.986372   0.000000
 
  0.1428571E+00  0.1428571E+00  0.0000000E+00  0.6478782E-03
    1       -7.230877   1.000000
    2        3.537115   1.000000
    3        4.405898   1.000000
    4        4.405898   1.000000
    5        8.773045   0.000000
    6        9.837625   0.000000
    7       10.829205   0.000000
    8       10.829206   0.000000
 
  0.1904762E+00  0.1428571E+00  0.0000000E+00  0.2591513E-02
    1       -7.103037   1.000000
    2        3.011691   1.000000
    3        4.222960   1.000000
    4        4.262533   1.000000
    5        8.628781   0.000000
    6        9.908202   0.000000
    7       11.093901   0.000000
    8       11.151041   0.000000
 
  0.2380952E+00  0.1428571E+00  0.0000000E+00  0.2591513E-02
    1       -6.929256   1.000000
    2        2.333354   1.000000
    3        4.059625   1.000000
    4        4.114736   1.000000
    5        8.602508   0.000000
    6        9.941915   0.000000
    7       11.029995   0.000000
    8       11.391655   0.000000
 
  0.2857143E+00  0.1428571E+00  0.0000000E+00  0.2591513E-02
    1       -6.715575   1.000000
    2        1.618341   1.000000
    3        3.923238   1.000000
    4        3.925750   1.000000
    5        8.585316   0.000000
    6       10.102831   0.000000
    7       10.873582   0.000000
    8       11.485736   0.000000
 
  0.3333333E+00  0.1428571E+00  0.0000000E+00  0.2591513E-02
    1       -6.471766   1.000000
    2        0.921793   1.000000
    3        3.706419   1.000000
    4        3.827647   1.000000
    5        8.525245   0.000000
    6       10.280629   0.000000
    7       10.919659   0.000000
    8       11.429849   0.000000
 
  0.3809524E+00  0.1428571E+00  0.0000000E+00  0.2591513E-02
    1       -6.213283   1.000000
    2        0.282969   1.000000
    3        3.487805   1.000000
    4        3.769016   1.000000
    5        8.450235   0.000000
    6       10.231502   0.000000
    7       11.279212   0.000000
    8       11.397610   0.000000
 
  0.4285714E+00  0.1428571E+00  0.0000000E+00  0.2591513E-02
    1       -5.964302   1.000000
    2       -0.259882   1.000000
    3        3.285002   1.000000
    4        3.751548   1.000000
    5        8.396285   0.000000
    6       10.118958   0.000000
    7       11.094182   0.000000
    8       12.092845   0.000000
 
  0.4761905E+00  0.1428571E+00  0.0000000E+00  0.2591513E-02
    1       -5.759933   1.000000
    2       -0.663069   1.000000
    3        3.110028   1.000000
    4        3.775339   1.000000
    5        8.383274   0.000000
    6       10.026191   0.000000
    7       10.915230   0.000000
    8       12.866497   0.000000
 
 -0.4761905E+00  0.1428571E+00  0.0000000E+00  0.2591513E-02
    1       -5.642577   1.000000
    2       -0.879363   1.000000
    3        2.971244   1.000000
    4        3.839007   1.000000
    5        8.419033   0.000000
    6        9.971489   0.000000
    7       10.765140   0.000000
    8       13.595461   0.000000
 
 -0.4285714E+00  0.1428571E+00  0.0000000E+00  0.2591513E-02
    1       -5.644350   1.000000
    2       -0.874630   1.000000
    3        2.874908   1.000000
    4        3.939703   1.000000
    5        8.503993   0.000000
    6        9.961943   0.000000
    7       10.655173   0.000000
    8       14.002217   0.000000
 
 -0.3809524E+00  0.1428571E+00  0.0000000E+00  0.2591513E-02
    1       -5.764636   1.000000
    2       -0.650189   1.000000
    3        2.826243   1.000000
    4        4.072922   1.000000
    5        8.633443   0.000000
    6       10.001199   0.000000
    7       10.588082   0.000000
    8       13.854966   0.000000
 
 -0.3333333E+00  0.1428571E+00  0.0000000E+00  0.2591513E-02
    1       -5.970620   1.000000
    2       -0.242737   1.000000
    3        2.830440   1.000000
    4        4.232101   1.000000
    5        8.798714   0.000000
    6       10.088457   0.000000
    7       10.557460   0.000000
    8       13.322654   0.000000
 
 -0.2857143E+00  0.1428571E+00  0.0000000E+00  0.2591513E-02
    1       -6.220024   1.000000
    2        0.296864   1.000000
    3        2.894043   1.000000
    4        4.408064   1.000000
    5        8.988247   0.000000
    6       10.210229   0.000000
    7       10.542754   0.000000
    8       12.648881   0.000000
 
 -0.2380952E+00  0.1428571E+00  0.0000000E+00  0.2591513E-02
    1       -6.478145   1.000000
    2        0.916991   1.000000
    3        3.027632   1.000000
    4        4.588171   1.000000
    5        9.188007   0.000000
    6       10.314347   0.000000
    7       10.502209   0.000000
    8       12.013180   0.000000
 
 -0.1904762E+00  0.1428571E+00  0.0000000E+00  0.2591513E-02
    1       -6.721156   1.000000
    2        1.561554   1.000000
    3        3.250776   1.000000
    4        4.755573   1.000000
    5        9.374815   0.000000
    6       10.261228   0.000000
    7       10.388136   0.000000
    8       11.601614   0.000000
 
 -0.1428571E+00  0.1428571E+00  0.0000000E+00  0.1295756E-02
    1       -6.933824   1.000000
    2        2.161292   1.000000
    3        3.593603   1.000000
    4        4.889288   1.000000
    5        9.455766   0.000000
    6       10.022428   0.000000
    7       10.211379   0.000000
    8       11.490231   0.000000
 
  0.1904762E+00  0.1904762E+00  0.0000000E+00  0.6478782E-03
    1       -6.992720   1.000000
    2        2.773563   1.000000
    3        4.025705   1.000000
    4        4.025705   1.000000
    5        8.307857   0.000000
    6        9.815779   0.000000
    7       11.550189   0.000000
    8       11.550192   0.000000
 
  0.2380952E+00  0.1904762E+00  0.0000000E+00  0.2591513E-02
    1       -6.836144   1.000000
    2        2.291828   1.000000
    3        3.846668   1.000000
    4        3.849873   1.000000
    5        8.165546   0.000000
    6        9.627009   0.000000
    7       11.673117   0.000000
    8       11.885366   0.000000
 
  0.2857143E+00  0.1904762E+00  0.0000000E+00  0.2591513E-02
    1       -6.638638   1.000000
    2        1.699708   1.000000
    3        3.633731   1.000000
    4        3.705625   1.000000
    5        8.153370   0.000000
    6        9.567788   0.000000
    7       11.545988   0.000000
    8       12.075628   0.000000
 
  0.3333333E+00  0.1904762E+00  0.0000000E+00  0.2591513E-02
    1       -6.408756   1.000000
    2        1.081385   1.000000
    3        3.376470   1.000000
    4        3.599490   1.000000
    5        8.151839   0.000000
    6        9.755949   0.000000
    7       11.386990   0.000000
    8       12.087449   0.000000
 
  0.3809524E+00  0.1904762E+00  0.0000000E+00  0.2591513E-02
    1       -6.159965   1.000000
    2        0.487944   1.000000
    3        3.103207   1.000000
    4        3.535375   1.000000
    5        8.115085   0.000000
    6       10.176229   0.000000
    7       11.266001   0.000000
    8       11.965534   0.000000
 
  0.4285714E+00  0.1904762E+00  0.0000000E+00  0.2591513E-02
    1       -5.913210   1.000000
    2       -0.038005   1.000000
    3        2.841234   1.000000
    4        3.515212   1.000000
    5        8.080031   0.000000
    6       10.614290   0.000000
    7       11.338612   0.000000
    8       11.780055   0.000000
 
  0.4761905E+00  0.1904762E+00  0.0000000E+00  0.2591513E-02
    1       -5.699207   1.000000
    2       -0.452142   1.000000
    3        2.609107   1.000000
    4        3.539340   1.000000
    5        8.081423   0.000000
    6       10.717604   0.000000
    7       11.582437   0.000000
    8       11.898922   0.000000
 
 -0.4761905E+00  0.1904762E+00  0.0000000E+00  0.2591513E-02
    1       -5.557096   1.000000
    2       -0.707307   1.000000
    3        2.418898   1.000000
    4        3.606628   1.000000
    5        8.135237   0.000000
    6       10.676661   0.000000
    7       11.402025   0.000000
    8       12.710609   0.000000
 
 -0.4285714E+00  0.1904762E+00  0.0000000E+00  0.2591513E-02
    1       -5.521959   1.000000
    2       -0.764730   1.000000
    3        2.279372   1.000000
    4        3.714422   1.000000
    5        8.246410   0.000000
    6       10.635458   0.000000
    7       11.253423   0.000000
    8       13.548117   0.000000
 
 -0.3809524E+00  0.1904762E+00  0.0000000E+00  0.2591513E-02
    1       -5.603762   1.000000
    2       -0.615306   1.000000
    3        2.198449   1.000000
    4        3.858279   1.000000
    5        8.413628   0.000000
    6       10.621078   0.000000
    7       11.140780   0.000000
    8       13.900263   0.000000
 
 -0.3333333E+00  0.1904762E+00  0.0000000E+00  0.2591513E-02
    1       -5.779648   1.000000
    2       -0.288483   1.000000
    3        2.185767   1.000000
    4        4.031460   1.000000
    5        8.630546   0.000000
    6       10.638714   0.000000
    7       11.057267   0.000000
    8       13.322821   0.000000
 
 -0.2857143E+00  0.1904762E+00  0.0000000E+00  0.2591513E-02
    1       -6.010656   1.000000
    2        0.160831   1.000000
    3        2.256488   1.000000
    4        4.224197   1.000000
    5        8.884512   0.000000
    6       10.679265   0.000000
    7       10.978403   0.000000
    8       12.571464   0.000000
 
 -0.2380952E+00  0.1904762E+00  0.0000000E+00  0.2591513E-02
    1       -6.260648   1.000000
    2        0.665075   1.000000
    3        2.436945   1.000000
    4        4.422619   1.000000
    5        9.151175   0.000000
    6       10.690465   0.000000
    7       10.853909   0.000000
    8       11.905082   0.000000
 
 -0.1904762E+00  0.1904762E+00  0.0000000E+00  0.1295756E-02
    1       -6.503311   1.000000
    2        1.149615   1.000000
    3        2.763986   1.000000
    4        4.607734   1.000000
    5        9.373116   0.000000
    6       10.513340   0.000000
    7       10.641263   0.000000
    8       11.566809   0.000000
 
  0.2380952E+00  0.2380952E+00  0.0000000E+00  0.6478782E-03
    1       -6.697173   1.000000
    2        2.013786   1.000000
    3        3.661558   1.000000
    4        3.661558   1.000000
    5        7.845178   0.000000
    6        9.261482   0.000000
    7       12.341633   0.000000
    8       12.341700   0.000000
 
  0.2857143E+00  0.2380952E+00  0.0000000E+00  0.2591513E-02
    1       -6.517093   1.000000
    2        1.578203   1.000000
    3        3.462365   1.000000
    4        3.505487   1.000000
    5        7.714132   0.000000
    6        9.024877   0.000000
    7       12.470113   0.000000
    8       12.668472   0.000000
 
  0.3333333E+00  0.2380952E+00  0.0000000E+00  0.2591513E-02
    1       -6.303525   1.000000
    2        1.079118   1.000000
    3        3.188057   1.000000
    4        3.388631   1.000000
    5        7.710790   0.000000
    6        9.010971   0.000000
    7       12.364434   0.000000
    8       12.792075   0.000000
 
  0.3809524E+00  0.2380952E+00  0.0000000E+00  0.2591513E-02
    1       -6.068445   1.000000
    2        0.575556   1.000000
    3        2.860895   1.000000
    4        3.315248   1.000000
    5        7.715689   0.000000
    6        9.290700   0.000000
    7       12.219213   0.000000
    8       12.730380   0.000000
 
  0.4285714E+00  0.2380952E+00  0.0000000E+00  0.2591513E-02
    1       -5.830202   1.000000
    2        0.110875   1.000000
    3        2.526266   1.000000
    4        3.287607   1.000000
    5        7.705514   0.000000
    6        9.819696   0.000000
    7       12.085719   0.000000
    8       12.563401   0.000000
 
  0.4761905E+00  0.2380952E+00  0.0000000E+00  0.2591513E-02
    1       -5.615609   1.000000
    2       -0.272553   1.000000
    3        2.218835   1.000000
    4        3.306374   1.000000
    5        7.718215   0.000000
    6       10.485472   0.000000
    7       12.008237   0.000000
    8       12.359279   0.000000
 
 -0.4761905E+00  0.2380952E+00  0.0000000E+00  0.2591513E-02
    1       -5.459493   1.000000
    2       -0.529969   1.000000
    3        1.960099   1.000000
    4        3.370765   1.000000
    5        7.779118   0.000000
    6       11.102766   0.000000
    7       12.120177   0.000000
    8       12.157224   0.000000
 
 -0.4285714E+00  0.2380952E+00  0.0000000E+00  0.2591513E-02
    1       -5.396173   1.000000
    2       -0.622469   1.000000
    3        1.764247   1.000000
    4        3.478490   1.000000
    5        7.897856   0.000000
    6       11.364072   0.000000
    7       11.975819   0.000000
    8       12.685711   0.000000
 
 -0.3809524E+00  0.2380952E+00  0.0000000E+00  0.2591513E-02
    1       -5.442053   1.000000
    2       -0.535967   1.000000
    3        1.644352   1.000000
    4        3.625473   1.000000
    5        8.075853   0.000000
    6       11.401476   0.000000
    7       11.818883   0.000000
    8       13.438697   0.000000
 
 -0.3333333E+00  0.2380952E+00  0.0000000E+00  0.2591513E-02
    1       -5.584307   1.000000
    2       -0.296361   1.000000
    3        1.618730   1.000000
    4        3.805316   1.000000
    5        8.309166   0.000000
    6       11.399805   0.000000
    7       11.673265   0.000000
    8       13.298796   0.000000
 
 -0.2857143E+00  0.2380952E+00  0.0000000E+00  0.2591513E-02
    1       -5.790251   1.000000
    2        0.033413   1.000000
    3        1.718324   1.000000
    4        4.008408   1.000000
    5        8.587636   0.000000
    6       11.375776   0.000000
    7       11.496663   0.000000
    8       12.559814   0.000000
 
 -0.2380952E+00  0.2380952E+00  0.0000000E+00  0.1295756E-02
    1       -6.024925   1.000000
    2        0.372288   1.000000
    3        1.985336   1.000000
    4        4.220763   1.000000
    5        8.888566   0.000000
    6       11.188756   0.000000
    7       11.221774   0.000000
    8       12.005137   0.000000
 