       N       E                     dE             d eps       ncg     rms          rms(c)
DAV:   1     0.153091293387E+02    0.15309E+02   -0.32070E+03  4640   0.763E+02
DAV:   2    -0.875540053667E+01   -0.24065E+02   -0.23602E+02  5976   0.924E+01
DAV:   3    -0.929362190056E+01   -0.53822E+00   -0.53822E+00  5856   0.185E+01
DAV:   4    -0.929563625773E+01   -0.20144E-02   -0.20144E-02  7312   0.123E+00
DAV:   5    -0.929564107256E+01   -0.48148E-05   -0.48148E-05  5952   0.465E-02    0.295E+00
RMM:   6    -0.907654743353E+01    0.21909E+00   -0.21294E-01  4596   0.256E+00    0.164E+00
RMM:   7    -0.902749789829E+01    0.49050E-01   -0.15711E-01  4772   0.232E+00    0.411E-01
RMM:   8    -0.902766774620E+01   -0.16985E-03   -0.54508E-03  5070   0.597E-01    0.540E-02
RMM:   9    -0.902787234057E+01   -0.20459E-03   -0.26018E-04  5407   0.132E-01    0.187E-02
RMM:  10    -0.902787878394E+01   -0.64434E-05   -0.36108E-05  5486   0.433E-02    0.433E-03
RMM:  11    -0.902787995327E+01   -0.11693E-05   -0.39791E-06  5051   0.172E-02    0.102E-03
RMM:  12    -0.902787993420E+01    0.19067E-07   -0.25341E-07  3889   0.388E-03
   1 F= -.90278799E+01 E0= -.90278799E+01  d E =0.000000E+00
