 running  128 mpi-ranks, with    1 threads/rank, on    1 nodes
 distrk:  each k-point on   32 cores,    4 groups
 distr:  one band on   16 cores,    2 groups
 vasp.6.4.3 19Mar24 (build Jun  3 2025 16:21:13) complex                         
 POSCAR found type information on POSCAR Fe
 POSCAR found :  1 types and       1 ions
 Reading from existing POTCAR
 scaLAPACK will be used
 Reading from existing POTCAR
 LDA part: xc-table for (Slater+PW92), standard interpolation
 -----------------------------------------------------------------------------
|                                                                             |
|           W    W    AA    RRRRR   N    N  II  N    N   GGGG   !!!           |
|           W    W   A  A   R    R  NN   N  II  NN   N  G    G  !!!           |
|           W    W  A    A  R    R  N N  N  II  N N  N  G       !!!           |
|           W WW W  AAAAAA  RRRRR   N  N N  II  N  N N  G  GGG   !            |
|           WW  WW  A    A  R   R   N   NN  II  N   NN  G    G                |
|           W    W  A    A  R    R  N    N  II  N    N   GGGG   !!!           |
|                                                                             |
|     The requested file  could not be found or opened for reading            |
|     k-point information. Automatic k-point generation is used as a          |
|     fallback, which may lead to unwanted results.                           |
|                                                                             |
 -----------------------------------------------------------------------------

 INCAR ok, starting setup
 POSCAR ok, starting setup
 FFT: planning ... GRIDC
 FFT: planning ... GRID_SOFT
 FFT: planning ... GRID
 WAVECAR not read
 entering main loop
       N       E                     dE             d eps       ncg     rms          rms(c)
DAV:   1     0.424443288950E+02    0.42444E+02   -0.26578E+03 49960   0.325E+02
DAV:   2    -0.514162651302E+01   -0.47586E+02   -0.41824E+02 44400   0.910E+01
DAV:   3    -0.784051723124E+01   -0.26989E+01   -0.26597E+01 51048   0.197E+01
DAV:   4    -0.784708864511E+01   -0.65714E-02   -0.65638E-02 45608   0.955E-01
DAV:   5    -0.784708947139E+01   -0.82628E-06   -0.82476E-06 50056   0.108E-02    0.154E+01
DAV:   6    -0.823315121419E+01   -0.38606E+00   -0.58081E+00 46896   0.133E+01    0.366E+00
DAV:   7    -0.824235011538E+01   -0.91989E-02   -0.11611E-01 45392   0.161E+00    0.230E+00
DAV:   8    -0.823090823593E+01    0.11442E-01   -0.40767E-03 49936   0.206E-01    0.105E+00
DAV:   9    -0.822602971344E+01    0.48785E-02   -0.40714E-03 49648   0.155E-01    0.118E-01
DAV:  10    -0.822598107104E+01    0.48642E-04   -0.75114E-04 48976   0.161E-01    0.632E-02
DAV:  11    -0.822596704349E+01    0.14028E-04   -0.19390E-05 48384   0.169E-02    0.371E-02
DAV:  12    -0.822596841293E+01   -0.13694E-05   -0.95734E-06 51896   0.130E-02    0.106E-02
DAV:  13    -0.822596907948E+01   -0.66655E-06   -0.14135E-06 53704   0.623E-03    0.428E-03
DAV:  14    -0.822596934868E+01   -0.26920E-06   -0.96634E-08 36912   0.114E-03    0.818E-04
DAV:  15    -0.822596922257E+01    0.12611E-06   -0.31196E-08 23160   0.636E-04    0.920E-04
DAV:  16    -0.822596920998E+01    0.12597E-07   -0.26956E-09 22528   0.237E-04
   1 F= -.82259692E+01 E0= -.82259692E+01  d E =0.000000E+00  mag=     2.1094
 -----------------------------------------------------------------------------
|                                                                             |
|           W    W    AA    RRRRR   N    N  II  N    N   GGGG   !!!           |
|           W    W   A  A   R    R  NN   N  II  NN   N  G    G  !!!           |
|           W    W  A    A  R    R  N N  N  II  N N  N  G       !!!           |
|           W WW W  AAAAAA  RRRRR   N  N N  II  N  N N  G  GGG   !            |
|           WW  WW  A    A  R   R   N   NN  II  N   NN  G    G                |
|           W    W  A    A  R    R  N    N  II  N    N   GGGG   !!!           |
|                                                                             |
|     Tetrahedron method does not include variations of the Fermi             |
|     occupations, so forces and stress will be inaccurate. We suggest        |
|     using a different smearing scheme ISMEAR = 1 or 2 for metals in         |
|     relaxations.                                                            |
|                                                                             |
 -----------------------------------------------------------------------------

 PROFILE, used timers:     425
