   2   2   0   0
  0.1173345E+02  0.3213588E-09  0.3213588E-09  0.3213588E-09  0.0000000E+00
  1.000000000000000E-004
  CAR 
 unknown system                          
     22.28099293    -10.38949308  301      8.02168705      1.00000000
    -10.389  0.0000E+00  0.0000E+00
    -10.281  0.0000E+00  0.0000E+00
    -10.172  0.0000E+00  0.0000E+00
    -10.063  0.0000E+00  0.0000E+00
     -9.954  0.0000E+00  0.0000E+00
     -9.845  0.0000E+00  0.0000E+00
     -9.736  0.0000E+00  0.0000E+00
     -9.627  0.0000E+00  0.0000E+00
     -9.518  0.0000E+00  0.0000E+00
     -9.409  0.0000E+00  0.0000E+00
     -9.300  0.0000E+00  0.0000E+00
     -9.192  0.0000E+00  0.0000E+00
     -9.083  0.0000E+00  0.0000E+00
     -8.974  0.0000E+00  0.0000E+00
     -8.865  0.3398E-01  0.6867E-03
     -8.756  0.7318E-01  0.6823E-02
     -8.647  0.9943E-01  0.1643E-01
     -8.538  0.1220E+00  0.2847E-01
     -8.429  0.1377E+00  0.4256E-01
     -8.320  0.1547E+00  0.5856E-01
     -8.211  0.1686E+00  0.7613E-01
     -8.103  0.1836E+00  0.9533E-01
     -7.994  0.1953E+00  0.1159E+00
     -7.885  0.2087E+00  0.1379E+00
     -7.776  0.2204E+00  0.1613E+00
     -7.667  0.2319E+00  0.1860E+00
     -7.558  0.2442E+00  0.2119E+00
     -7.449  0.2551E+00  0.2391E+00
     -7.340  0.2661E+00  0.2675E+00
     -7.231  0.2777E+00  0.2971E+00
     -7.122  0.2889E+00  0.3279E+00
     -7.014  0.2998E+00  0.3600E+00
     -6.905  0.3114E+00  0.3933E+00
     -6.796  0.3235E+00  0.4278E+00
     -6.687  0.3351E+00  0.4637E+00
     -6.578  0.3474E+00  0.5009E+00
     -6.469  0.3604E+00  0.5394E+00
     -6.360  0.3742E+00  0.5794E+00
     -6.251  0.3886E+00  0.6209E+00
     -6.142  0.4043E+00  0.6641E+00
     -6.033  0.4217E+00  0.7090E+00
     -5.925  0.4410E+00  0.7560E+00
     -5.816  0.4641E+00  0.8052E+00
     -5.707  0.4920E+00  0.8572E+00
     -5.598  0.5294E+00  0.9127E+00
     -5.489  0.5924E+00  0.9733E+00
     -5.380  0.6470E+00  0.1043E+01
     -5.271  0.6368E+00  0.1114E+01
     -5.162  0.6208E+00  0.1183E+01
     -5.053  0.6142E+00  0.1249E+01
     -4.944  0.5944E+00  0.1315E+01
     -4.836  0.5822E+00  0.1379E+01
     -4.727  0.5665E+00  0.1442E+01
     -4.618  0.5627E+00  0.1503E+01
     -4.509  0.5484E+00  0.1564E+01
     -4.400  0.5408E+00  0.1623E+01
     -4.291  0.5382E+00  0.1682E+01
     -4.182  0.5374E+00  0.1740E+01
     -4.073  0.5487E+00  0.1799E+01
     -3.964  0.5893E+00  0.1861E+01
     -3.855  0.7095E+00  0.1932E+01
     -3.746  0.2407E+00  0.1984E+01
     -3.638  0.6389E-02  0.2000E+01
     -3.529  0.0000E+00  0.2000E+01
     -3.420  0.0000E+00  0.2000E+01
     -3.311  0.0000E+00  0.2000E+01
     -3.202  0.0000E+00  0.2000E+01
     -3.093  0.0000E+00  0.2000E+01
     -2.984  0.0000E+00  0.2000E+01
     -2.875  0.0000E+00  0.2000E+01
     -2.766  0.0000E+00  0.2000E+01
     -2.657  0.0000E+00  0.2000E+01
     -2.549  0.0000E+00  0.2000E+01
     -2.440  0.0000E+00  0.2000E+01
     -2.331  0.0000E+00  0.2000E+01
     -2.222  0.0000E+00  0.2000E+01
     -2.113  0.0000E+00  0.2000E+01
     -2.004  0.7919E-02  0.2000E+01
     -1.895  0.1011E+00  0.2008E+01
     -1.786  0.1716E+00  0.2023E+01
     -1.677  0.2072E+00  0.2044E+01
     -1.568  0.2591E+00  0.2070E+01
     -1.460  0.2976E+00  0.2100E+01
     -1.351  0.4262E+00  0.2139E+01
     -1.242  0.5388E+00  0.2193E+01
     -1.133  0.6748E+00  0.2260E+01
     -1.024  0.9131E+00  0.2345E+01
     -0.915  0.1414E+01  0.2469E+01
     -0.806  0.1508E+01  0.2626E+01
     -0.697  0.8719E+00  0.2744E+01
     -0.588  0.7025E+00  0.2827E+01
     -0.479  0.5994E+00  0.2898E+01
     -0.371  0.5362E+00  0.2959E+01
     -0.262  0.4946E+00  0.3016E+01
     -0.153  0.4416E+00  0.3067E+01
     -0.044  0.4161E+00  0.3113E+01
      0.065  0.3939E+00  0.3157E+01
      0.174  0.3660E+00  0.3199E+01
      0.283  0.3396E+00  0.3237E+01
      0.392  0.3269E+00  0.3273E+01
      0.501  0.3118E+00  0.3308E+01
      0.610  0.2951E+00  0.3341E+01
      0.718  0.2741E+00  0.3372E+01
      0.827  0.3043E+00  0.3402E+01
      0.936  0.4477E+00  0.3442E+01
      1.045  0.4959E+00  0.3493E+01
      1.154  0.5799E+00  0.3552E+01
      1.263  0.7151E+00  0.3622E+01
      1.372  0.7541E+00  0.3705E+01
      1.481  0.7206E+00  0.3785E+01
      1.590  0.6881E+00  0.3863E+01
      1.699  0.6728E+00  0.3937E+01
      1.807  0.6605E+00  0.4009E+01
      1.916  0.6665E+00  0.4082E+01
      2.025  0.6775E+00  0.4155E+01
      2.134  0.6899E+00  0.4229E+01
      2.243  0.7114E+00  0.4305E+01
      2.352  0.7140E+00  0.4383E+01
      2.461  0.7273E+00  0.4461E+01
      2.570  0.7433E+00  0.4542E+01
      2.679  0.7621E+00  0.4624E+01
      2.788  0.8022E+00  0.4710E+01
      2.897  0.8190E+00  0.4799E+01
      3.005  0.8603E+00  0.4890E+01
      3.114  0.9227E+00  0.4986E+01
      3.223  0.1069E+01  0.5094E+01
      3.332  0.1045E+01  0.5208E+01
      3.441  0.1011E+01  0.5319E+01
      3.550  0.1001E+01  0.5429E+01
      3.659  0.9823E+00  0.5537E+01
      3.768  0.9729E+00  0.5643E+01
      3.877  0.9599E+00  0.5749E+01
      3.986  0.9500E+00  0.5853E+01
      4.094  0.9344E+00  0.5955E+01
      4.203  0.9181E+00  0.6056E+01
      4.312  0.9089E+00  0.6156E+01
      4.421  0.8974E+00  0.6254E+01
      4.530  0.8811E+00  0.6351E+01
      4.639  0.8683E+00  0.6446E+01
      4.748  0.8622E+00  0.6540E+01
      4.857  0.8564E+00  0.6634E+01
      4.966  0.8414E+00  0.6726E+01
      5.075  0.8267E+00  0.6817E+01
      5.183  0.8132E+00  0.6907E+01
      5.292  0.8014E+00  0.6994E+01
      5.401  0.7962E+00  0.7081E+01
      5.510  0.7865E+00  0.7168E+01
      5.619  0.7675E+00  0.7252E+01
      5.728  0.7684E+00  0.7336E+01
      5.837  0.7193E+00  0.7418E+01
      5.946  0.5785E+00  0.7487E+01
      6.055  0.5166E+00  0.7547E+01
      6.164  0.4680E+00  0.7601E+01
      6.272  0.4230E+00  0.7649E+01
      6.381  0.3879E+00  0.7693E+01
      6.490  0.3503E+00  0.7733E+01
      6.599  0.3241E+00  0.7770E+01
      6.708  0.2939E+00  0.7804E+01
      6.817  0.2669E+00  0.7834E+01
      6.926  0.2430E+00  0.7862E+01
      7.035  0.2194E+00  0.7887E+01
      7.144  0.1974E+00  0.7910E+01
      7.253  0.1752E+00  0.7930E+01
      7.361  0.1530E+00  0.7948E+01
      7.470  0.1303E+00  0.7963E+01
      7.579  0.1137E+00  0.7977E+01
      7.688  0.8635E-01  0.7988E+01
      7.797  0.5701E-01  0.7996E+01
      7.906  0.5552E-02  0.8000E+01
      8.015  0.0000E+00  0.8000E+01
      8.124  0.0000E+00  0.8000E+01
      8.233  0.0000E+00  0.8000E+01
      8.342  0.0000E+00  0.8000E+01
      8.450  0.0000E+00  0.8000E+01
      8.559  0.0000E+00  0.8000E+01
      8.668  0.0000E+00  0.8000E+01
      8.777  0.0000E+00  0.8000E+01
      8.886  0.0000E+00  0.8000E+01
      8.995  0.1510E-01  0.8000E+01
      9.104  0.8982E-01  0.8006E+01
      9.213  0.1410E+00  0.8019E+01
      9.322  0.1875E+00  0.8037E+01
      9.431  0.2401E+00  0.8060E+01
      9.540  0.2738E+00  0.8088E+01
      9.648  0.3047E+00  0.8120E+01
      9.757  0.3369E+00  0.8155E+01
      9.866  0.3707E+00  0.8193E+01
      9.975  0.4058E+00  0.8235E+01
     10.084  0.4335E+00  0.8281E+01
     10.193  0.4591E+00  0.8330E+01
     10.302  0.4870E+00  0.8381E+01
     10.411  0.5145E+00  0.8436E+01
     10.520  0.5427E+00  0.8493E+01
     10.629  0.5735E+00  0.8554E+01
     10.737  0.6066E+00  0.8618E+01
     10.846  0.6407E+00  0.8686E+01
     10.955  0.6742E+00  0.8758E+01
     11.064  0.7082E+00  0.8833E+01
     11.173  0.7466E+00  0.8912E+01
     11.282  0.7897E+00  0.8996E+01
     11.391  0.8485E+00  0.9085E+01
     11.500  0.9159E+00  0.9181E+01
     11.609  0.9947E+00  0.9284E+01
     11.718  0.1245E+01  0.9405E+01
     11.826  0.1734E+01  0.9568E+01
     11.935  0.1661E+01  0.9765E+01
     12.044  0.1328E+01  0.9925E+01
     12.153  0.1098E+01  0.1005E+02
     12.262  0.9708E+00  0.1017E+02
     12.371  0.6869E+00  0.1025E+02
     12.480  0.5008E+00  0.1032E+02
     12.589  0.4990E+00  0.1037E+02
     12.698  0.4948E+00  0.1042E+02
     12.807  0.9378E+00  0.1049E+02
     12.915  0.1299E+01  0.1063E+02
     13.024  0.9920E+00  0.1075E+02
     13.133  0.1076E+01  0.1086E+02
     13.242  0.1126E+01  0.1099E+02
     13.351  0.1141E+01  0.1111E+02
     13.460  0.1225E+01  0.1124E+02
     13.569  0.1314E+01  0.1138E+02
     13.678  0.1318E+01  0.1152E+02
     13.787  0.1281E+01  0.1166E+02
     13.896  0.1178E+01  0.1180E+02
     14.004  0.8719E+00  0.1191E+02
     14.113  0.8330E+00  0.1200E+02
     14.222  0.7998E+00  0.1209E+02
     14.331  0.8378E+00  0.1218E+02
     14.440  0.8893E+00  0.1227E+02
     14.549  0.9020E+00  0.1237E+02
     14.658  0.8526E+00  0.1246E+02
     14.767  0.8442E+00  0.1256E+02
     14.876  0.8732E+00  0.1265E+02
     14.985  0.1008E+01  0.1275E+02
     15.093  0.9424E+00  0.1285E+02
     15.202  0.9249E+00  0.1296E+02
     15.311  0.9340E+00  0.1306E+02
     15.420  0.9245E+00  0.1316E+02
     15.529  0.9946E+00  0.1327E+02
     15.638  0.1032E+01  0.1338E+02
     15.747  0.9760E+00  0.1349E+02
     15.856  0.9408E+00  0.1359E+02
     15.965  0.9080E+00  0.1369E+02
     16.074  0.8818E+00  0.1379E+02
     16.183  0.8969E+00  0.1388E+02
     16.291  0.8953E+00  0.1398E+02
     16.400  0.7289E+00  0.1407E+02
     16.509  0.6543E+00  0.1415E+02
     16.618  0.6372E+00  0.1422E+02
     16.727  0.6388E+00  0.1429E+02
     16.836  0.6576E+00  0.1436E+02
     16.945  0.6841E+00  0.1443E+02
     17.054  0.7117E+00  0.1451E+02
     17.163  0.1025E+01  0.1459E+02
     17.272  0.8180E+00  0.1469E+02
     17.380  0.8077E+00  0.1477E+02
     17.489  0.8256E+00  0.1486E+02
     17.598  0.8798E+00  0.1496E+02
     17.707  0.9735E+00  0.1506E+02
     17.816  0.1025E+01  0.1517E+02
     17.925  0.8341E+00  0.1527E+02
     18.034  0.6294E+00  0.1534E+02
     18.143  0.5299E+00  0.1541E+02
     18.252  0.4517E+00  0.1546E+02
     18.361  0.4162E+00  0.1551E+02
     18.469  0.3820E+00  0.1555E+02
     18.578  0.3550E+00  0.1559E+02
     18.687  0.3521E+00  0.1563E+02
     18.796  0.3252E+00  0.1567E+02
     18.905  0.2992E+00  0.1570E+02
     19.014  0.2793E+00  0.1573E+02
     19.123  0.2600E+00  0.1576E+02
     19.232  0.2509E+00  0.1579E+02
     19.341  0.2320E+00  0.1582E+02
     19.450  0.2206E+00  0.1584E+02
     19.558  0.2038E+00  0.1586E+02
     19.667  0.1813E+00  0.1588E+02
     19.776  0.1633E+00  0.1590E+02
     19.885  0.1492E+00  0.1592E+02
     19.994  0.1364E+00  0.1594E+02
     20.103  0.1286E+00  0.1595E+02
     20.212  0.1164E+00  0.1596E+02
     20.321  0.9418E-01  0.1597E+02
     20.430  0.7465E-01  0.1598E+02
     20.539  0.6075E-01  0.1599E+02
     20.647  0.4962E-01  0.1600E+02
     20.756  0.4054E-02  0.1600E+02
     20.865  0.0000E+00  0.1600E+02
     20.974  0.0000E+00  0.1600E+02
     21.083  0.0000E+00  0.1600E+02
     21.192  0.0000E+00  0.1600E+02
     21.301  0.0000E+00  0.1600E+02
     21.410  0.0000E+00  0.1600E+02
     21.519  0.0000E+00  0.1600E+02
     21.628  0.0000E+00  0.1600E+02
     21.736  0.0000E+00  0.1600E+02
     21.845  0.0000E+00  0.1600E+02
     21.954  0.0000E+00  0.1600E+02
     22.063  0.0000E+00  0.1600E+02
     22.172  0.0000E+00  0.1600E+02
     22.281  0.0000E+00  0.1600E+02
