    2    2    1    1
  0.1173345E+02  0.3213588E-09  0.3213588E-09  0.3213588E-09  0.0000000E+00
  1.000000000000000E-004
  CAR 
 unknown system                          
      8    413      8
 
  0.0000000E+00  0.0000000E+00  0.0000000E+00  0.7233796E-04
    1       -8.904471   1.000000
    2        7.945069   1.000000
    3        7.945069   1.000000
    4        7.945069   1.000000
    5       11.422543   0.000000
    6       11.422543   0.000000
    7       11.422543   0.000000
    8       14.617521   0.000000
 
  0.4166667E-01  0.0000000E+00  0.0000000E+00  0.5787037E-03
    1       -8.871852   1.000000
    2        7.620463   1.000000
    3        7.874100   1.000000
    4        7.874100   1.000000
    5       11.514526   0.000000
    6       11.514526   0.000000
    7       11.547530   0.000000
    8       14.723892   0.000000
 
  0.8333333E-01  0.0000000E+00  0.0000000E+00  0.5787037E-03
    1       -8.774068   1.000000
    2        6.825353   1.000000
    3        7.685488   1.000000
    4        7.685488   1.000000
    5       11.760466   0.000000
    6       11.760467   0.000000
    7       11.761451   0.000000
    8       15.030631   0.000000
 
  0.1250000E+00  0.0000000E+00  0.0000000E+00  0.5787037E-03
    1       -8.611729   1.000000
    2        5.809446   1.000000
    3        7.428875   1.000000
    4        7.428875   1.000000
    5       11.890307   0.000000
    6       12.092961   0.000000
    7       12.092961   0.000000
    8       15.479803   0.000000
 
  0.1666667E+00  0.0000000E+00  0.0000000E+00  0.5787037E-03
    1       -8.385844   1.000000
    2        4.708555   1.000000
    3        7.147702   1.000000
    4        7.147702   1.000000
    5       11.918585   0.000000
    6       12.439181   0.000000
    7       12.439181   0.000000
    8       15.981121   0.000000
 
  0.2083333E+00  0.0000000E+00  0.0000000E+00  0.5787037E-03
    1       -8.098198   1.000000
    2        3.588986   1.000000
    3        6.870447   1.000000
    4        6.870448   1.000000
    5       11.885921   0.000000
    6       12.734604   0.000000
    7       12.734604   0.000000
    8       16.455773   0.000000
 
  0.2500000E+00  0.0000000E+00  0.0000000E+00  0.5787037E-03
    1       -7.751727   1.000000
    2        2.487638   1.000000
    3        6.614117   1.000000
    4        6.614117   1.000000
    5       11.826602   0.000000
    6       12.934205   0.000000
    7       12.934206   0.000000
    8       16.838905   0.000000
 
  0.2916667E+00  0.0000000E+00  0.0000000E+00  0.5787037E-03
    1       -7.351471   1.000000
    2        1.428928   1.000000
    3        6.388654   1.000000
    4        6.388655   1.000000
    5       11.761293   0.000000
    6       13.026176   0.000000
    7       13.026176   0.000000
    8       17.078377   0.000000
 
  0.3333333E+00  0.0000000E+00  0.0000000E+00  0.5787037E-03
    1       -6.906561   1.000000
    2        0.433907   1.000000
    3        6.199719   1.000000
    4        6.199719   1.000000
    5       11.701157   0.000000
    6       13.032094   0.000000
    7       13.032094   0.000000
    8       17.166930   0.000000
 
  0.3750000E+00  0.0000000E+00  0.0000000E+00  0.5787037E-03
    1       -6.434564   1.000000
    2       -0.472171   1.000000
    3        6.050616   1.000000
    4        6.050616   1.000000
    5       11.651818   0.000000
    6       12.989681   0.000000
    7       12.989681   0.000000
    8       17.153802   0.000000
 
  0.4166667E+00  0.0000000E+00  0.0000000E+00  0.5787037E-03
    1       -5.972224   1.000000
    2       -1.247672   1.000000
    3        5.943163   1.000000
    4        5.943163   1.000000
    5       11.615797   0.000000
    6       12.934405   0.000000
    7       12.934405   0.000000
    8       17.101819   0.000000
 
  0.4583333E+00  0.0000000E+00  0.0000000E+00  0.5787037E-03
    1       -5.597453   1.000000
    2       -1.811420   1.000000
    3        5.878405   1.000000
    4        5.878405   1.000000
    5       11.594078   0.000000
    6       12.891675   0.000000
    7       12.891675   0.000000
    8       17.055411   0.000000
 
  0.5000000E+00  0.0000000E+00  0.0000000E+00  0.2893519E-03
    1       -5.443640   1.000000
    2       -2.028437   1.000000
    3        5.856768   1.000000
    4        5.856768   1.000000
    5       11.586790   0.000000
    6       12.875883   0.000000
    7       12.875883   0.000000
    8       17.037600   0.000000
 
  0.4166667E-01  0.4166667E-01  0.0000000E+00  0.4340278E-03
    1       -8.860961   1.000000
    2        7.721318   1.000000
    3        7.721318   1.000000
    4        7.774365   1.000000
    5       11.299836   0.000000
    6       11.693246   0.000000
    7       11.693246   0.000000
    8       14.747481   0.000000
 
  0.8333333E-01  0.4166667E-01  0.0000000E+00  0.1736111E-02
    1       -8.784872   1.000000
    2        7.092226   1.000000
    3        7.476294   1.000000
    4        7.725029   1.000000
    5       11.293696   0.000000
    6       11.973636   0.000000
    7       12.002832   0.000000
    8       14.957183   0.000000
 
  0.1250000E+00  0.4166667E-01  0.0000000E+00  0.1736111E-02
    1       -8.644035   1.000000
    2        6.148731   1.000000
    3        7.188240   1.000000
    4        7.567162   1.000000
    5       11.458760   0.000000
    6       12.198649   0.000000
    7       12.378346   0.000000
    8       15.317904   0.000000
 
  0.1666667E+00  0.4166667E-01  0.0000000E+00  0.1736111E-02
    1       -8.439262   1.000000
    2        5.079023   1.000000
    3        6.893646   1.000000
    4        7.328347   1.000000
    5       11.682941   0.000000
    6       12.345901   0.000000
    7       12.755463   0.000000
    8       15.740466   0.000000
 
  0.2083333E+00  0.4166667E-01  0.0000000E+00  0.1736111E-02
    1       -8.172090   1.000000
    2        3.968815   1.000000
    3        6.615520   1.000000
    4        7.054544   1.000000
    5       11.840517   0.000000
    6       12.491618   0.000000
    7       13.074836   0.000000
    8       16.138822   0.000000
 
  0.2500000E+00  0.4166667E-01  0.0000000E+00  0.1736111E-02
    1       -7.844971   1.000000
    2        2.863831   1.000000
    3        6.367538   1.000000
    4        6.776579   1.000000
    5       11.883944   0.000000
    6       12.654379   0.000000
    7       13.290230   0.000000
    8       16.481284   0.000000
 
  0.2916667E+00  0.4166667E-01  0.0000000E+00  0.1736111E-02
    1       -7.462133   1.000000
    2        1.792467   1.000000
    3        6.157780   1.000000
    4        6.512919   1.000000
    5       11.861907   0.000000
    6       12.773296   0.000000
    7       13.384111   0.000000
    8       16.774815   0.000000
 
  0.3333333E+00  0.4166667E-01  0.0000000E+00  0.1736111E-02
    1       -7.031013   1.000000
    2        0.776710   1.000000
    3        5.990885   1.000000
    4        6.274451   1.000000
    5       11.818668   0.000000
    6       12.822330   0.000000
    7       13.373781   0.000000
    8       17.004429   0.000000
 
  0.3750000E+00  0.4166667E-01  0.0000000E+00  0.1736111E-02
    1       -6.565633   1.000000
    2       -0.160271   1.000000
    3        5.869221   1.000000
    4        6.067864   1.000000
    5       11.774972   0.000000
    6       12.821632   0.000000
    7       13.297156   0.000000
    8       17.137224   0.000000
 
  0.4166667E+00  0.4166667E-01  0.0000000E+00  0.1736111E-02
    1       -6.094534   1.000000
    2       -0.983981   1.000000
    3        5.793905   1.000000
    4        5.897512   1.000000
    5       11.740001   0.000000
    6       12.804362   0.000000
    7       13.193246   0.000000
    8       17.182145   0.000000
 
  0.4583333E+00  0.4166667E-01  0.0000000E+00  0.1736111E-02
    1       -5.678707   1.000000
    2       -1.629670   1.000000
    3        5.764976   1.000000
    4        5.766414   1.000000
    5       11.717773   0.000000
    6       12.797662   0.000000
    7       13.091692   0.000000
    8       17.183296   0.000000
 
  0.5000000E+00  0.4166667E-01  0.0000000E+00  0.1736111E-02
    1       -5.435602   1.000000
    2       -1.977636   1.000000
    3        5.676880   1.000000
    4        5.781825   1.000000
    5       11.709761   0.000000
    6       12.818352   0.000000
    7       13.011011   0.000000
    8       17.178861   0.000000
 
 -0.4583333E+00  0.4166667E-01  0.0000000E+00  0.1736111E-02
    1       -5.488240   1.000000
    2       -1.903932   1.000000
    3        5.630722   1.000000
    4        5.843329   1.000000
    5       11.716187   0.000000
    6       12.873606   0.000000
    7       12.959643   0.000000
    8       17.186654   0.000000
 
 -0.4166667E+00  0.4166667E-01  0.0000000E+00  0.1736111E-02
    1       -5.805347   1.000000
    2       -1.440045   1.000000
    3        5.629349   1.000000
    4        5.947922   1.000000
    5       11.736675   0.000000
    6       12.936751   0.000000
    7       12.961786   0.000000
    8       17.204609   0.000000
 
 -0.3750000E+00  0.4166667E-01  0.0000000E+00  0.1736111E-02
    1       -6.249542   1.000000
    2       -0.724633   1.000000
    3        5.673804   1.000000
    4        6.093621   1.000000
    5       11.770563   0.000000
    6       12.931983   0.000000
    7       13.072021   0.000000
    8       17.211182   0.000000
 
 -0.3333333E+00  0.4166667E-01  0.0000000E+00  0.1736111E-02
    1       -6.723383   1.000000
    2        0.142076   1.000000
    3        5.764567   1.000000
    4        6.277831   1.000000
    5       11.816633   0.000000
    6       12.924398   0.000000
    7       13.182396   0.000000
    8       17.166089   0.000000
 
 -0.2916667E+00  0.4166667E-01  0.0000000E+00  0.1736111E-02
    1       -7.179525   1.000000
    2        1.108352   1.000000
    3        5.901424   1.000000
    4        6.496988   1.000000
    5       11.872275   0.000000
    6       12.882655   0.000000
    7       13.258375   0.000000
    8       17.026174   0.000000
 
 -0.2500000E+00  0.4166667E-01  0.0000000E+00  0.1736111E-02
    1       -7.595674   1.000000
    2        2.144970   1.000000
    3        6.083175   1.000000
    4        6.745885   1.000000
    5       11.931905   0.000000
    6       12.771515   0.000000
    7       13.255954   0.000000
    8       16.780042   0.000000
 
 -0.2083333E+00  0.4166667E-01  0.0000000E+00  0.1736111E-02
    1       -7.960528   1.000000
    2        3.229867   1.000000
    3        6.307043   1.000000
    4        7.016370   1.000000
    5       11.984097   0.000000
    6       12.568770   0.000000
    7       13.137782   0.000000
    8       16.452497   0.000000
 
 -0.1666667E+00  0.4166667E-01  0.0000000E+00  0.1736111E-02
    1       -8.268023   1.000000
    2        4.339491   1.000000
    3        6.568054   1.000000
    4        7.295067   1.000000
    5       12.006979   0.000000
    6       12.284651   0.000000
    7       12.900127   0.000000
    8       16.065475   0.000000
 
 -0.1250000E+00  0.4166667E-01  0.0000000E+00  0.1736111E-02
    1       -8.514589   1.000000
    2        5.440079   1.000000
    3        6.857934   1.000000
    4        7.559689   1.000000
    5       11.963233   0.000000
    6       11.965726   0.000000
    7       12.583938   0.000000
    8       15.636494   0.000000
 
 -0.8333333E-01  0.4166667E-01  0.0000000E+00  0.1736111E-02
    1       -8.698172   1.000000
    2        6.471048   1.000000
    3        7.165059   1.000000
    4        7.774704   1.000000
    5       11.682540   0.000000
    6       11.817238   0.000000
    7       12.243161   0.000000
    8       15.214855   0.000000
 
 -0.4166667E-01  0.4166667E-01  0.0000000E+00  0.8680556E-03
    1       -8.817480   1.000000
    2        7.281171   1.000000
    3        7.503602   1.000000
    4        7.892551   1.000000
    5       11.512754   0.000000
    6       11.619941   0.000000
    7       11.882968   0.000000
    8       14.886888   0.000000
 
  0.8333333E-01  0.8333333E-01  0.0000000E+00  0.4340278E-03
    1       -8.730534   1.000000
    2        7.194665   1.000000
    3        7.194665   1.000000
    4        7.298104   1.000000
    5       10.995037   0.000000
    6       12.359571   0.000000
    7       12.359572   0.000000
    8       15.002869   0.000000
 
  0.1250000E+00  0.8333333E-01  0.0000000E+00  0.1736111E-02
    1       -8.611324   1.000000
    2        6.422465   1.000000
    3        6.885386   1.000000
    4        7.246793   1.000000
    5       10.937806   0.000000
    6       12.698462   0.000000
    7       12.772348   0.000000
    8       15.163619   0.000000
 
  0.1666667E+00  0.8333333E-01  0.0000000E+00  0.1736111E-02
    1       -8.427953   1.000000
    2        5.423884   1.000000
    3        6.579837   1.000000
    4        7.101510   1.000000
    5       11.078246   0.000000
    6       12.889633   0.000000
    7       13.184122   0.000000
    8       15.374628   0.000000
 
  0.2083333E+00  0.8333333E-01  0.0000000E+00  0.1736111E-02
    1       -8.181705   1.000000
    2        4.349134   1.000000
    3        6.297925   1.000000
    4        6.865898   1.000000
    5       11.311551   0.000000
    6       12.971945   0.000000
    7       13.539123   0.000000
    8       15.553076   0.000000
 
  0.2500000E+00  0.8333333E-01  0.0000000E+00  0.1736111E-02
    1       -7.874672   1.000000
    2        3.258283   1.000000
    3        6.051849   1.000000
    4        6.587804   1.000000
    5       11.532776   0.000000
    6       13.008890   0.000000
    7       13.788573   0.000000
    8       15.717000   0.000000
 
  0.2916667E+00  0.8333333E-01  0.0000000E+00  0.1736111E-02
    1       -7.510425   1.000000
    2        2.187098   1.000000
    3        5.848950   1.000000
    4        6.299925   1.000000
    5       11.678330   0.000000
    6       13.025059   0.000000
    7       13.906679   0.000000
    8       15.954036   0.000000
 
  0.3333333E+00  0.8333333E-01  0.0000000E+00  0.1736111E-02
    1       -7.095099   1.000000
    2        1.160770   1.000000
    3        5.693579   1.000000
    4        6.022124   1.000000
    5       11.744886   0.000000
    6       13.015524   0.000000
    7       13.902855   0.000000
    8       16.303712   0.000000
 
  0.3750000E+00  0.8333333E-01  0.0000000E+00  0.1736111E-02
    1       -6.640020   1.000000
    2        0.202426   1.000000
    3        5.588099   1.000000
    4        5.766553   1.000000
    5       11.764419   0.000000
    6       12.982427   0.000000
    7       13.812747   0.000000
    8       16.714079   0.000000
 
  0.4166667E+00  0.8333333E-01  0.0000000E+00  0.1736111E-02
    1       -6.167567   1.000000
    2       -0.658021   1.000000
    3        5.533406   1.000000
    4        5.541195   1.000000
    5       11.769503   0.000000
    6       12.942637   0.000000
    7       13.677874   0.000000
    8       17.082178   0.000000
 
  0.4583333E+00  0.8333333E-01  0.0000000E+00  0.1736111E-02
    1       -5.725083   1.000000
    2       -1.368390   1.000000
    3        5.351700   1.000000
    4        5.529368   1.000000
    5       11.781214   0.000000
    6       12.914602   0.000000
    7       13.532055   0.000000
    8       17.333191   0.000000
 
  0.5000000E+00  0.8333333E-01  0.0000000E+00  0.1736111E-02
    1       -5.409753   1.000000
    2       -1.828554   1.000000
    3        5.202358   1.000000
    4        5.574947   1.000000
    5       11.809672   0.000000
    6       12.912115   0.000000
    7       13.397652   0.000000
    8       17.468640   0.000000
 
 -0.4583333E+00  0.8333333E-01  0.0000000E+00  0.1736111E-02
    1       -5.357887   1.000000
    2       -1.900760   1.000000
    3        5.096649   1.000000
    4        5.668396   1.000000
    5       11.856862   0.000000
    6       12.944540   0.000000
    7       13.286561   0.000000
    8       17.524579   0.000000
 
 -0.4166667E+00  0.8333333E-01  0.0000000E+00  0.1736111E-02
    1       -5.600151   1.000000
    2       -1.554138   1.000000
    3        5.037356   1.000000
    4        5.807217   1.000000
    5       11.919140   0.000000
    6       13.017193   0.000000
    7       13.201251   0.000000
    8       17.517640   0.000000
 
 -0.3750000E+00  0.8333333E-01  0.0000000E+00  0.1736111E-02
    1       -6.014427   1.000000
    2       -0.911855   1.000000
    3        5.026659   1.000000
    4        5.988133   1.000000
    5       11.990428   0.000000
    6       13.128892   0.000000
    7       13.134782   0.000000
    8       17.432466   0.000000
 
 -0.3333333E+00  0.8333333E-01  0.0000000E+00  0.1736111E-02
    1       -6.483984   1.000000
    2       -0.093129   1.000000
    3        5.066173   1.000000
    4        6.206865   1.000000
    5       12.064968   0.000000
    6       13.069966   0.000000
    7       13.267202   0.000000
    8       17.239153   0.000000
 
 -0.2916667E+00  0.8333333E-01  0.0000000E+00  0.1736111E-02
    1       -6.948069   1.000000
    2        0.836960   1.000000
    3        5.156907   1.000000
    4        6.457737   1.000000
    5       12.138085   0.000000
    6       12.979527   0.000000
    7       13.402687   0.000000
    8       16.936238   0.000000
 
 -0.2500000E+00  0.8333333E-01  0.0000000E+00  0.1736111E-02
    1       -7.378114   1.000000
    2        1.842922   1.000000
    3        5.299280   1.000000
    4        6.732795   1.000000
    5       12.203887   0.000000
    6       12.831860   0.000000
    7       13.484936   0.000000
    8       16.580595   0.000000
 
 -0.2083333E+00  0.8333333E-01  0.0000000E+00  0.1736111E-02
    1       -7.760108   1.000000
    2        2.899358   1.000000
    3        5.493331   1.000000
    4        7.020324   1.000000
    5       12.250936   0.000000
    6       12.607628   0.000000
    7       13.451733   0.000000
    8       16.254046   0.000000
 
 -0.1666667E+00  0.8333333E-01  0.0000000E+00  0.1736111E-02
    1       -8.086550   1.000000
    2        3.978892   1.000000
    3        5.740040   1.000000
    4        7.302123   1.000000
    5       12.256598   0.000000
    6       12.320012   0.000000
    7       13.271378   0.000000
    8       15.991039   0.000000
 
 -0.1250000E+00  0.8333333E-01  0.0000000E+00  0.1736111E-02
    1       -8.353216   1.000000
    2        5.035389   1.000000
    3        6.048815   1.000000
    4        7.549768   1.000000
    5       12.020050   0.000000
    6       12.184522   0.000000
    7       12.982918   0.000000
    8       15.747121   0.000000
 
 -0.8333333E-01  0.8333333E-01  0.0000000E+00  0.8680556E-03
    1       -8.557590   1.000000
    2        5.936885   1.000000
    3        6.490541   1.000000
    4        7.722243   1.000000
    5       11.782690   0.000000
    6       12.013986   0.000000
    7       12.644510   0.000000
    8       15.477048   0.000000
 
  0.1250000E+00  0.1250000E+00  0.0000000E+00  0.4340278E-03
    1       -8.513768   1.000000
    2        6.561819   1.000000
    3        6.561820   1.000000
    4        6.594896   1.000000
    5       10.612048   0.000000
    6       13.221541   0.000000
    7       13.221541   0.000000
    8       15.029001   0.000000
 
  0.1666667E+00  0.1250000E+00  0.0000000E+00  0.1736111E-02
    1       -8.351961   1.000000
    2        5.693958   1.000000
    3        6.246581   1.000000
    4        6.571795   1.000000
    5       10.542791   0.000000
    6       13.572343   0.000000
    7       13.673782   0.000000
    8       14.935208   0.000000
 
  0.2083333E+00  0.1250000E+00  0.0000000E+00  0.1736111E-02
    1       -8.126950   1.000000
    2        4.691527   1.000000
    3        5.958316   1.000000
    4        6.418368   1.000000
    5       10.683065   0.000000
    6       13.710289   0.000000
    7       14.075824   0.000000
    8       14.884901   0.000000
 
  0.2500000E+00  0.1250000E+00  0.0000000E+00  0.1736111E-02
    1       -7.840556   1.000000
    2        3.641969   1.000000
    3        5.708812   1.000000
    4        6.168777   1.000000
    5       10.922352   0.000000
    6       13.733313   0.000000
    7       14.376394   0.000000
    8       14.882992   0.000000
 
  0.2916667E+00  0.1250000E+00  0.0000000E+00  0.1736111E-02
    1       -7.495814   1.000000
    2        2.590764   1.000000
    3        5.505368   1.000000
    4        5.873739   1.000000
    5       11.150168   0.000000
    6       13.725827   0.000000
    7       14.540488   0.000000
    8       14.992123   0.000000
 
  0.3333333E+00  0.1250000E+00  0.0000000E+00  0.1736111E-02
    1       -7.097872   1.000000
    2        1.568937   1.000000
    3        5.352529   1.000000
    4        5.567692   1.000000
    5       11.303698   0.000000
    6       13.698947   0.000000
    7       14.566498   0.000000
    8       15.290954   0.000000
 
  0.3750000E+00  0.1250000E+00  0.0000000E+00  0.1736111E-02
    1       -6.655984   1.000000
    2        0.601866   1.000000
    3        5.252798   1.000000
    4        5.271740   1.000000
    5       11.384737   0.000000
    6       13.647744   0.000000
    7       14.484795   0.000000
    8       15.783817   0.000000
 
  0.4166667E+00  0.1250000E+00  0.0000000E+00  0.1736111E-02
    1       -6.187945   1.000000
    2       -0.282467   1.000000
    3        4.999224   1.000000
    4        5.207314   1.000000
    5       11.430064   0.000000
    6       13.585466   0.000000
    7       14.338343   0.000000
    8       16.394194   0.000000
 
  0.4583333E+00  0.1250000E+00  0.0000000E+00  0.1736111E-02
    1       -5.730599   1.000000
    2       -1.040634   1.000000
    3        4.759172   1.000000
    4        5.216030   1.000000
    5       11.475138   0.000000
    6       13.527991   0.000000
    7       14.165022   0.000000
    8       17.011212   0.000000
 
  0.5000000E+00  0.1250000E+00  0.0000000E+00  0.1736111E-02
    1       -5.361537   1.000000
    2       -1.590990   1.000000
    3        4.558204   1.000000
    4        5.278001   1.000000
    5       11.542013   0.000000
    6       13.486145   0.000000
    7       13.991424   0.000000
    8       17.512959   0.000000
 
 -0.4583333E+00  0.1250000E+00  0.0000000E+00  0.1736111E-02
    1       -5.211630   1.000000
    2       -1.800426   1.000000
    3        4.401339   1.000000
    4        5.391310   1.000000
    5       11.640352   0.000000
    6       13.467134   0.000000
    7       13.832712   0.000000
    8       17.807087   0.000000
 
 -0.4166667E+00  0.1250000E+00  0.0000000E+00  0.1736111E-02
    1       -5.364405   1.000000
    2       -1.584776   1.000000
    3        4.292584   1.000000
    4        5.553102   1.000000
    5       11.770528   0.000000
    6       13.476612   0.000000
    7       13.694009   0.000000
    8       17.869764   0.000000
 
 -0.3750000E+00  0.1250000E+00  0.0000000E+00  0.1736111E-02
    1       -5.734725   1.000000
    2       -1.029944   1.000000
    3        4.235180   1.000000
    4        5.759380   1.000000
    5       11.925501   0.000000
    6       13.519070   0.000000
    7       13.570771   0.000000
    8       17.711673   0.000000
 
 -0.3333333E+00  0.1250000E+00  0.0000000E+00  0.1736111E-02
    1       -6.192179   1.000000
    2       -0.268895   1.000000
    3        4.231788   1.000000
    4        6.004733   1.000000
    5       12.091880   0.000000
    6       13.448235   0.000000
    7       13.595476   0.000000
    8       17.360121   0.000000
 
 -0.2916667E+00  0.1250000E+00  0.0000000E+00  0.1736111E-02
    1       -6.659839   1.000000
    2        0.616646   1.000000
    3        4.284864   1.000000
    4        6.281702   1.000000
    5       12.251952   0.000000
    6       13.301797   0.000000
    7       13.695746   0.000000
    8       16.884722   0.000000
 
 -0.2500000E+00  0.1250000E+00  0.0000000E+00  0.1736111E-02
    1       -7.101194   1.000000
    2        1.581510   1.000000
    3        4.397491   1.000000
    4        6.579837   1.000000
    5       12.386508   0.000000
    6       13.103414   0.000000
    7       13.783079   0.000000
    8       16.393001   0.000000
 
 -0.2083333E+00  0.1250000E+00  0.0000000E+00  0.1736111E-02
    1       -7.498575   1.000000
    2        2.591546   1.000000
    3        4.576181   1.000000
    4        6.883822   1.000000
    5       12.475180   0.000000
    6       12.838919   0.000000
    7       13.779394   0.000000
    8       16.010409   0.000000
 
 -0.1666667E+00  0.1250000E+00  0.0000000E+00  0.1736111E-02
    1       -7.842780   1.000000
    2        3.598190   1.000000
    3        4.843191   1.000000
    4        7.170790   1.000000
    5       12.490562   0.000000
    6       12.528559   0.000000
    7       13.610654   0.000000
    8       15.826174   0.000000
 
 -0.1250000E+00  0.1250000E+00  0.0000000E+00  0.8680556E-03
    1       -8.128668   1.000000
    2        4.472154   1.000000
    3        5.293308   1.000000
    4        7.407191   1.000000
    5       12.229981   0.000000
    6       12.395137   0.000000
    7       13.317368   0.000000
    8       15.785864   0.000000
 
  0.1666667E+00  0.1666667E+00  0.0000000E+00  0.4340278E-03
    1       -8.211718   1.000000
    2        5.740207   1.000000
    3        5.922372   1.000000
    4        5.922372   1.000000
    5       10.218585   0.000000
    6       14.174832   0.000000
    7       14.174832   0.000000
    8       14.497830   0.000000
 
  0.2083333E+00  0.1666667E+00  0.0000000E+00  0.1736111E-02
    1       -8.008119   1.000000
    2        4.920674   1.000000
    3        5.625894   1.000000
    4        5.825597   1.000000
    5       10.158048   0.000000
    6       14.090209   0.000000
    7       14.615105   0.000000
    8       14.636073   0.000000
 
  0.2500000E+00  0.1666667E+00  0.0000000E+00  0.1736111E-02
    1       -7.742766   1.000000
    2        3.957320   1.000000
    3        5.369268   1.000000
    4        5.637772   1.000000
    5       10.308915   0.000000
    6       13.827978   0.000000
    7       14.825289   0.000000
    8       15.004511   0.000000
 
  0.2916667E+00  0.1666667E+00  0.0000000E+00  0.1736111E-02
    1       -7.418238   1.000000
    2        2.959922   1.000000
    3        5.160101   1.000000
    4        5.355675   1.000000
    5       10.550372   0.000000
    6       13.742744   0.000000
    7       14.902077   0.000000
    8       15.236220   0.000000
 
  0.3333333E+00  0.1666667E+00  0.0000000E+00  0.1736111E-02
    1       -7.038948   1.000000
    2        1.968164   1.000000
    3        5.003208   1.000000
    4        5.031192   1.000000
    5       10.764646   0.000000
    6       13.869030   0.000000
    7       14.938406   0.000000
    8       15.315976   0.000000
 
  0.3750000E+00  0.1666667E+00  0.0000000E+00  0.1736111E-02
    1       -6.612571   1.000000
    2        1.012377   1.000000
    3        4.699939   1.000000
    4        4.901446   1.000000
    5       10.899621   0.000000
    6       14.124386   0.000000
    7       15.069544   0.000000
    8       15.265244   0.000000
 
  0.4166667E+00  0.1666667E+00  0.0000000E+00  0.1736111E-02
    1       -6.153506   1.000000
    2        0.121680   1.000000
    3        4.383813   1.000000
    4        4.856255   1.000000
    5       10.976782   0.000000
    6       14.284277   0.000000
    7       15.126524   0.000000
    8       15.487727   0.000000
 
  0.4583333E+00  0.1666667E+00  0.0000000E+00  0.1736111E-02
    1       -5.690723   1.000000
    2       -0.665420   1.000000
    3        4.096689   1.000000
    4        4.867853   1.000000
    5       11.040463   0.000000
    6       14.304676   0.000000
    7       14.942018   0.000000
    8       16.167226   0.000000
 
  0.5000000E+00  0.1666667E+00  0.0000000E+00  0.1736111E-02
    1       -5.285265   1.000000
    2       -1.281827   1.000000
    3        3.847980   1.000000
    4        4.935519   1.000000
    5       11.123047   0.000000
    6       14.277170   0.000000
    7       14.742996   0.000000
    8       16.933418   0.000000
 
 -0.4583333E+00  0.1666667E+00  0.0000000E+00  0.1736111E-02
    1       -5.051947   1.000000
    2       -1.609244   1.000000
    3        3.644457   1.000000
    4        5.057481   1.000000
    5       11.241130   0.000000
    6       14.245148   0.000000
    7       14.548200   0.000000
    8       17.619572   0.000000
 
 -0.4166667E+00  0.1666667E+00  0.0000000E+00  0.1736111E-02
    1       -5.107038   1.000000
    2       -1.530020   1.000000
    3        3.491370   1.000000
    4        5.230844   1.000000
    5       11.400375   0.000000
    6       14.225294   0.000000
    7       14.365050   0.000000
    8       18.001626   0.000000
 
 -0.3750000E+00  0.1666667E+00  0.0000000E+00  0.1736111E-02
    1       -5.418166   1.000000
    2       -1.077117   1.000000
    3        3.393084   1.000000
    4        5.451369   1.000000
    5       11.598687   0.000000
    6       14.190315   0.000000
    7       14.225433   0.000000
    8       17.908893   0.000000
 
 -0.3333333E+00  0.1666667E+00  0.0000000E+00  0.1736111E-02
    1       -5.853635   1.000000
    2       -0.385373   1.000000
    3        3.353765   1.000000
    4        5.713109   1.000000
    5       11.827239   0.000000
    6       14.009901   0.000000
    7       14.248387   0.000000
    8       17.458181   0.000000
 
 -0.2916667E+00  0.1666667E+00  0.0000000E+00  0.1736111E-02
    1       -6.319159   1.000000
    2        0.444027   1.000000
    3        3.378812   1.000000
    4        6.007611   1.000000
    5       12.069756   0.000000
    6       13.799788   0.000000
    7       14.288736   0.000000
    8       16.855843   0.000000
 
 -0.2500000E+00  0.1666667E+00  0.0000000E+00  0.1736111E-02
    1       -6.768286   1.000000
    2        1.349221   1.000000
    3        3.478666   1.000000
    4        6.322766   1.000000
    5       12.300698   0.000000
    6       13.534551   0.000000
    7       14.317129   0.000000
    8       16.257630   0.000000
 