       N       E                     dE             d eps       ncg     rms          rms(c)
DAV:   1     0.105445579993E+02    0.10545E+02   -0.41152E+03  6608   0.886E+02
DAV:   2    -0.117706144218E+02   -0.22315E+02   -0.21765E+02  9992   0.111E+02
DAV:   3    -0.119960721718E+02   -0.22546E+00   -0.22546E+00  7504   0.133E+01
DAV:   4    -0.119962660516E+02   -0.19388E-03   -0.19388E-03 10264   0.413E-01
DAV:   5    -0.119962661086E+02   -0.56979E-07   -0.56979E-07  7424   0.439E-03    0.483E+00
RMM:   6    -0.110877811238E+02    0.90848E+00   -0.97507E-01  6687   0.708E+00    0.195E+00
RMM:   7    -0.109821067345E+02    0.10567E+00   -0.19695E-01  7074   0.313E+00    0.756E-01
RMM:   8    -0.109731397893E+02    0.89669E-02   -0.23778E-02  7371   0.118E+00    0.854E-02
RMM:   9    -0.109733810333E+02   -0.24124E-03   -0.24582E-04  7830   0.138E-01    0.445E-02
RMM:  10    -0.109734832860E+02   -0.10225E-03   -0.17530E-04  7337   0.112E-01    0.874E-03
RMM:  11    -0.109734840342E+02   -0.74820E-06   -0.20439E-05  7496   0.305E-02    0.897E-03
RMM:  12    -0.109734801227E+02    0.39115E-05   -0.50235E-06  7449   0.159E-02    0.350E-04
RMM:  13    -0.109734801246E+02   -0.19063E-08   -0.98595E-08  4723   0.242E-03
   1 F= -.10973480E+02 E0= -.10973480E+02  d E =0.000000E+00
