   2   2   0   0
  0.2381527E+02  0.4068805E-09  0.4068805E-09  0.4068805E-09  0.0000000E+00
   1.0000000000000000E-004
  CAR 
 unknown system                          
     20.90494012    -24.07157623  301     -1.06392344      1.00000000
    -24.072  0.0000E+00  0.0000E+00
    -23.922  0.0000E+00  0.0000E+00
    -23.772  0.0000E+00  0.0000E+00
    -23.622  0.0000E+00  0.0000E+00
    -23.472  0.0000E+00  0.0000E+00
    -23.322  0.0000E+00  0.0000E+00
    -23.172  0.0000E+00  0.0000E+00
    -23.022  0.0000E+00  0.0000E+00
    -22.872  0.0000E+00  0.0000E+00
    -22.722  0.0000E+00  0.0000E+00
    -22.572  0.0000E+00  0.0000E+00
    -22.422  0.0000E+00  0.0000E+00
    -22.273  0.0000E+00  0.0000E+00
    -22.123  0.0000E+00  0.0000E+00
    -21.973  0.4002E+02  0.6000E+01
    -21.823  0.0000E+00  0.6000E+01
    -21.673  0.0000E+00  0.6000E+01
    -21.523  0.0000E+00  0.6000E+01
    -21.373  0.0000E+00  0.6000E+01
    -21.223  0.0000E+00  0.6000E+01
    -21.073  0.0000E+00  0.6000E+01
    -20.923  0.0000E+00  0.6000E+01
    -20.773  0.0000E+00  0.6000E+01
    -20.623  0.0000E+00  0.6000E+01
    -20.473  0.0000E+00  0.6000E+01
    -20.324  0.0000E+00  0.6000E+01
    -20.174  0.0000E+00  0.6000E+01
    -20.024  0.0000E+00  0.6000E+01
    -19.874  0.0000E+00  0.6000E+01
    -19.724  0.0000E+00  0.6000E+01
    -19.574  0.0000E+00  0.6000E+01
    -19.424  0.0000E+00  0.6000E+01
    -19.274  0.0000E+00  0.6000E+01
    -19.124  0.0000E+00  0.6000E+01
    -18.974  0.0000E+00  0.6000E+01
    -18.824  0.0000E+00  0.6000E+01
    -18.674  0.0000E+00  0.6000E+01
    -18.524  0.0000E+00  0.6000E+01
    -18.375  0.0000E+00  0.6000E+01
    -18.225  0.0000E+00  0.6000E+01
    -18.075  0.0000E+00  0.6000E+01
    -17.925  0.0000E+00  0.6000E+01
    -17.775  0.0000E+00  0.6000E+01
    -17.625  0.0000E+00  0.6000E+01
    -17.475  0.0000E+00  0.6000E+01
    -17.325  0.0000E+00  0.6000E+01
    -17.175  0.0000E+00  0.6000E+01
    -17.025  0.0000E+00  0.6000E+01
    -16.875  0.0000E+00  0.6000E+01
    -16.725  0.0000E+00  0.6000E+01
    -16.575  0.0000E+00  0.6000E+01
    -16.426  0.0000E+00  0.6000E+01
    -16.276  0.0000E+00  0.6000E+01
    -16.126  0.0000E+00  0.6000E+01
    -15.976  0.0000E+00  0.6000E+01
    -15.826  0.0000E+00  0.6000E+01
    -15.676  0.0000E+00  0.6000E+01
    -15.526  0.0000E+00  0.6000E+01
    -15.376  0.0000E+00  0.6000E+01
    -15.226  0.0000E+00  0.6000E+01
    -15.076  0.0000E+00  0.6000E+01
    -14.926  0.0000E+00  0.6000E+01
    -14.776  0.0000E+00  0.6000E+01
    -14.627  0.0000E+00  0.6000E+01
    -14.477  0.0000E+00  0.6000E+01
    -14.327  0.0000E+00  0.6000E+01
    -14.177  0.0000E+00  0.6000E+01
    -14.027  0.0000E+00  0.6000E+01
    -13.877  0.0000E+00  0.6000E+01
    -13.727  0.0000E+00  0.6000E+01
    -13.577  0.4758E+00  0.6004E+01
    -13.427  0.4021E+01  0.6248E+01
    -13.277  0.2942E+02  0.7611E+01
    -13.127  0.1439E+01  0.8000E+01
    -12.977  0.0000E+00  0.8000E+01
    -12.827  0.0000E+00  0.8000E+01
    -12.678  0.0000E+00  0.8000E+01
    -12.528  0.0000E+00  0.8000E+01
    -12.378  0.0000E+00  0.8000E+01
    -12.228  0.0000E+00  0.8000E+01
    -12.078  0.0000E+00  0.8000E+01
    -11.928  0.0000E+00  0.8000E+01
    -11.778  0.0000E+00  0.8000E+01
    -11.628  0.0000E+00  0.8000E+01
    -11.478  0.0000E+00  0.8000E+01
    -11.328  0.0000E+00  0.8000E+01
    -11.178  0.0000E+00  0.8000E+01
    -11.028  0.0000E+00  0.8000E+01
    -10.878  0.0000E+00  0.8000E+01
    -10.729  0.0000E+00  0.8000E+01
    -10.579  0.0000E+00  0.8000E+01
    -10.429  0.0000E+00  0.8000E+01
    -10.279  0.0000E+00  0.8000E+01
    -10.129  0.0000E+00  0.8000E+01
     -9.979  0.0000E+00  0.8000E+01
     -9.829  0.0000E+00  0.8000E+01
     -9.679  0.0000E+00  0.8000E+01
     -9.529  0.0000E+00  0.8000E+01
     -9.379  0.0000E+00  0.8000E+01
     -9.229  0.0000E+00  0.8000E+01
     -9.079  0.0000E+00  0.8000E+01
     -8.929  0.0000E+00  0.8000E+01
     -8.780  0.0000E+00  0.8000E+01
     -8.630  0.0000E+00  0.8000E+01
     -8.480  0.0000E+00  0.8000E+01
     -8.330  0.0000E+00  0.8000E+01
     -8.180  0.0000E+00  0.8000E+01
     -8.030  0.0000E+00  0.8000E+01
     -7.880  0.0000E+00  0.8000E+01
     -7.730  0.0000E+00  0.8000E+01
     -7.580  0.0000E+00  0.8000E+01
     -7.430  0.0000E+00  0.8000E+01
     -7.280  0.0000E+00  0.8000E+01
     -7.130  0.0000E+00  0.8000E+01
     -6.981  0.0000E+00  0.8000E+01
     -6.831  0.0000E+00  0.8000E+01
     -6.681  0.0000E+00  0.8000E+01
     -6.531  0.0000E+00  0.8000E+01
     -6.381  0.0000E+00  0.8000E+01
     -6.231  0.0000E+00  0.8000E+01
     -6.081  0.0000E+00  0.8000E+01
     -5.931  0.0000E+00  0.8000E+01
     -5.781  0.0000E+00  0.8000E+01
     -5.631  0.0000E+00  0.8000E+01
     -5.481  0.0000E+00  0.8000E+01
     -5.331  0.0000E+00  0.8000E+01
     -5.181  0.0000E+00  0.8000E+01
     -5.032  0.0000E+00  0.8000E+01
     -4.882  0.0000E+00  0.8000E+01
     -4.732  0.0000E+00  0.8000E+01
     -4.582  0.0000E+00  0.8000E+01
     -4.432  0.0000E+00  0.8000E+01
     -4.282  0.0000E+00  0.8000E+01
     -4.132  0.0000E+00  0.8000E+01
     -3.982  0.0000E+00  0.8000E+01
     -3.832  0.0000E+00  0.8000E+01
     -3.682  0.0000E+00  0.8000E+01
     -3.532  0.0000E+00  0.8000E+01
     -3.382  0.0000E+00  0.8000E+01
     -3.232  0.0000E+00  0.8000E+01
     -3.083  0.0000E+00  0.8000E+01
     -2.933  0.0000E+00  0.8000E+01
     -2.783  0.4701E+00  0.8004E+01
     -2.633  0.1696E+01  0.8139E+01
     -2.483  0.4413E+01  0.8501E+01
     -2.333  0.5728E+01  0.9386E+01
     -2.183  0.1066E+01  0.9693E+01
     -2.033  0.2099E+01  0.9897E+01
     -1.883  0.2495E+01  0.1024E+02
     -1.733  0.2889E+01  0.1065E+02
     -1.583  0.7006E+01  0.1129E+02
     -1.433  0.8305E+01  0.1229E+02
     -1.283  0.7962E+01  0.1338E+02
     -1.134  0.3391E+01  0.1392E+02
     -0.984  0.2429E+00  0.1400E+02
     -0.834  0.0000E+00  0.1400E+02
     -0.684  0.0000E+00  0.1400E+02
     -0.534  0.0000E+00  0.1400E+02
     -0.384  0.0000E+00  0.1400E+02
     -0.234  0.0000E+00  0.1400E+02
     -0.084  0.0000E+00  0.1400E+02
      0.066  0.0000E+00  0.1400E+02
      0.216  0.0000E+00  0.1400E+02
      0.366  0.0000E+00  0.1400E+02
      0.516  0.0000E+00  0.1400E+02
      0.666  0.0000E+00  0.1400E+02
      0.815  0.0000E+00  0.1400E+02
      0.965  0.0000E+00  0.1400E+02
      1.115  0.0000E+00  0.1400E+02
      1.265  0.0000E+00  0.1400E+02
      1.415  0.0000E+00  0.1400E+02
      1.565  0.0000E+00  0.1400E+02
      1.715  0.0000E+00  0.1400E+02
      1.865  0.0000E+00  0.1400E+02
      2.015  0.0000E+00  0.1400E+02
      2.165  0.0000E+00  0.1400E+02
      2.315  0.0000E+00  0.1400E+02
      2.465  0.0000E+00  0.1400E+02
      2.614  0.0000E+00  0.1400E+02
      2.764  0.0000E+00  0.1400E+02
      2.914  0.0000E+00  0.1400E+02
      3.064  0.0000E+00  0.1400E+02
      3.214  0.0000E+00  0.1400E+02
      3.364  0.0000E+00  0.1400E+02
      3.514  0.0000E+00  0.1400E+02
      3.664  0.0000E+00  0.1400E+02
      3.814  0.0000E+00  0.1400E+02
      3.964  0.2446E-01  0.1400E+02
      4.114  0.4630E-01  0.1401E+02
      4.264  0.6599E-01  0.1402E+02
      4.414  0.8537E-01  0.1403E+02
      4.563  0.1024E+00  0.1404E+02
      4.713  0.1225E+00  0.1406E+02
      4.863  0.1438E+00  0.1408E+02
      5.013  0.1674E+00  0.1410E+02
      5.163  0.1942E+00  0.1413E+02
      5.313  0.2244E+00  0.1416E+02
      5.463  0.2586E+00  0.1420E+02
      5.613  0.3038E+00  0.1424E+02
      5.763  0.3617E+00  0.1429E+02
      5.913  0.4322E+00  0.1435E+02
      6.063  0.5853E+00  0.1442E+02
      6.213  0.8369E+00  0.1453E+02
      6.363  0.9819E+00  0.1466E+02
      6.512  0.1221E+01  0.1484E+02
      6.662  0.1221E+01  0.1502E+02
      6.812  0.1204E+01  0.1520E+02
      6.962  0.1178E+01  0.1538E+02
      7.112  0.1179E+01  0.1555E+02
      7.262  0.1283E+01  0.1574E+02
      7.412  0.1331E+01  0.1593E+02
      7.562  0.1170E+01  0.1613E+02
      7.712  0.7148E+00  0.1625E+02
      7.862  0.1143E+01  0.1639E+02
      8.012  0.2799E+01  0.1669E+02
      8.162  0.1508E+01  0.1695E+02
      8.312  0.1342E+01  0.1716E+02
      8.461  0.1912E+01  0.1740E+02
      8.611  0.2454E+01  0.1772E+02
      8.761  0.2649E+01  0.1811E+02
      8.911  0.2921E+01  0.1850E+02
      9.061  0.2041E+01  0.1887E+02
      9.211  0.1637E+01  0.1915E+02
      9.361  0.1211E+01  0.1936E+02
      9.511  0.1021E+01  0.1952E+02
      9.661  0.8231E+00  0.1967E+02
      9.811  0.5968E+00  0.1976E+02
      9.961  0.8630E+00  0.1988E+02
     10.111  0.1293E+01  0.2004E+02
     10.260  0.1815E+01  0.2030E+02
     10.410  0.1636E+01  0.2054E+02
     10.560  0.2566E+01  0.2085E+02
     10.710  0.1873E+01  0.2120E+02
     10.860  0.1215E+01  0.2141E+02
     11.010  0.1142E+01  0.2158E+02
     11.160  0.1122E+01  0.2175E+02
     11.310  0.9449E+00  0.2191E+02
     11.460  0.8725E+00  0.2204E+02
     11.610  0.8137E+00  0.2217E+02
     11.760  0.7467E+00  0.2229E+02
     11.910  0.7618E+00  0.2240E+02
     12.060  0.9210E+00  0.2253E+02
     12.209  0.1035E+01  0.2267E+02
     12.359  0.1193E+01  0.2284E+02
     12.509  0.1690E+01  0.2306E+02
     12.659  0.1851E+01  0.2332E+02
     12.809  0.1807E+01  0.2360E+02
     12.959  0.1462E+01  0.2384E+02
     13.109  0.1078E+01  0.2404E+02
     13.259  0.8615E+00  0.2417E+02
     13.409  0.9208E+00  0.2431E+02
     13.559  0.9106E+00  0.2445E+02
     13.709  0.9079E+00  0.2458E+02
     13.859  0.9400E+00  0.2472E+02
     14.009  0.1153E+01  0.2487E+02
     14.158  0.1836E+01  0.2513E+02
     14.308  0.2060E+01  0.2542E+02
     14.458  0.1516E+01  0.2571E+02
     14.608  0.1580E+01  0.2593E+02
     14.758  0.1456E+01  0.2617E+02
     14.908  0.8451E+00  0.2634E+02
     15.058  0.7454E+00  0.2645E+02
     15.208  0.1878E+01  0.2662E+02
     15.358  0.2451E+01  0.2696E+02
     15.508  0.2669E+01  0.2736E+02
     15.658  0.1759E+01  0.2769E+02
     15.808  0.1735E+01  0.2794E+02
     15.958  0.1879E+01  0.2821E+02
     16.107  0.1719E+01  0.2846E+02
     16.257  0.2055E+01  0.2875E+02
     16.407  0.1909E+01  0.2904E+02
     16.557  0.2015E+01  0.2933E+02
     16.707  0.2033E+01  0.2964E+02
     16.857  0.2010E+01  0.2994E+02
     17.007  0.1873E+01  0.3023E+02
     17.157  0.1393E+01  0.3049E+02
     17.307  0.1490E+01  0.3070E+02
     17.457  0.2202E+01  0.3097E+02
     17.607  0.2319E+01  0.3132E+02
     17.757  0.1875E+01  0.3164E+02
     17.907  0.9283E+00  0.3186E+02
     18.056  0.3332E+00  0.3195E+02
     18.206  0.1111E+00  0.3198E+02
     18.356  0.6294E-01  0.3199E+02
     18.506  0.3044E-01  0.3200E+02
     18.656  0.1013E-01  0.3200E+02
     18.806  0.7204E-03  0.3200E+02
     18.956  0.0000E+00  0.3200E+02
     19.106  0.0000E+00  0.3200E+02
     19.256  0.0000E+00  0.3200E+02
     19.406  0.0000E+00  0.3200E+02
     19.556  0.0000E+00  0.3200E+02
     19.706  0.0000E+00  0.3200E+02
     19.855  0.0000E+00  0.3200E+02
     20.005  0.0000E+00  0.3200E+02
     20.155  0.0000E+00  0.3200E+02
     20.305  0.0000E+00  0.3200E+02
     20.455  0.0000E+00  0.3200E+02
     20.605  0.0000E+00  0.3200E+02
     20.755  0.0000E+00  0.3200E+02
     20.905  0.0000E+00  0.3200E+02
