       N       E                     dE             d eps       ncg     rms          rms(c)
DAV:   1     0.120204365381E+03    0.12020E+03   -0.52322E+03  5544   0.436E+02
DAV:   2     0.196895858452E+01   -0.11824E+03   -0.10584E+03  5632   0.177E+02
DAV:   3    -0.687744349807E+01   -0.88464E+01   -0.87298E+01  6792   0.392E+01
DAV:   4    -0.698552246821E+01   -0.10808E+00   -0.10803E+00  6416   0.432E+00
DAV:   5    -0.698630421516E+01   -0.78175E-03   -0.78174E-03  6632   0.386E-01    0.214E+00
DAV:   6    -0.678032484703E+01    0.20598E+00   -0.15364E-01  6920   0.144E+00    0.152E+00
DAV:   7    -0.676917135269E+01    0.11153E-01   -0.49522E-02  7520   0.744E-01    0.114E+00
DAV:   8    -0.677539687594E+01   -0.62255E-02   -0.11402E-02  6184   0.416E-01    0.516E-01
DAV:   9    -0.677501494964E+01    0.38193E-03   -0.44702E-04  6456   0.729E-02    0.224E-01
DAV:  10    -0.677507201422E+01   -0.57065E-04   -0.10238E-04  6360   0.378E-02    0.137E-02
DAV:  11    -0.677507864856E+01   -0.66343E-05   -0.65772E-06  6688   0.839E-03    0.134E-02
DAV:  12    -0.677507877694E+01   -0.12838E-06   -0.44878E-07  6344   0.330E-03    0.772E-04
DAV:  13    -0.677507910608E+01   -0.32914E-06   -0.11795E-07  6384   0.118E-03    0.919E-04
DAV:  14    -0.677507905848E+01    0.47596E-07   -0.29028E-09  5024   0.240E-04
   1 F= -.67750791E+01 E0= -.67750791E+01  d E =0.000000E+00
