   2   2   0   0
  0.3270075E+02  0.4522385E-09  0.4522385E-09  0.4522385E-09  0.0000000E+00
  1.000000000000000E-004
  CAR 
 unknown system                          
     12.59016439     -7.25808929  301      3.73288118      1.00000000
     -7.258  0.0000E+00  0.0000E+00
     -7.192  0.0000E+00  0.0000E+00
     -7.126  0.0000E+00  0.0000E+00
     -7.060  0.0000E+00  0.0000E+00
     -6.993  0.0000E+00  0.0000E+00
     -6.927  0.0000E+00  0.0000E+00
     -6.861  0.0000E+00  0.0000E+00
     -6.795  0.0000E+00  0.0000E+00
     -6.729  0.0000E+00  0.0000E+00
     -6.663  0.0000E+00  0.0000E+00
     -6.596  0.0000E+00  0.0000E+00
     -6.530  0.0000E+00  0.0000E+00
     -6.464  0.0000E+00  0.0000E+00
     -6.398  0.0000E+00  0.0000E+00
     -6.332  0.1202E+00  0.9641E-03
     -6.266  0.2103E+00  0.1159E-01
     -6.200  0.2955E+00  0.2830E-01
     -6.133  0.3555E+00  0.4974E-01
     -6.067  0.4182E+00  0.7553E-01
     -6.001  0.4758E+00  0.1051E+00
     -5.935  0.5355E+00  0.1386E+00
     -5.869  0.5924E+00  0.1759E+00
     -5.803  0.6548E+00  0.2171E+00
     -5.736  0.7180E+00  0.2625E+00
     -5.670  0.7874E+00  0.3122E+00
     -5.604  0.8640E+00  0.3668E+00
     -5.538  0.9522E+00  0.4268E+00
     -5.472  0.1052E+01  0.4931E+00
     -5.406  0.1177E+01  0.5665E+00
     -5.339  0.1341E+01  0.6496E+00
     -5.273  0.1565E+01  0.7454E+00
     -5.207  0.2328E+01  0.8649E+00
     -5.141  0.2133E+01  0.1008E+01
     -5.075  0.2158E+01  0.1150E+01
     -5.009  0.2147E+01  0.1293E+01
     -4.942  0.2204E+01  0.1436E+01
     -4.876  0.2257E+01  0.1584E+01
     -4.810  0.2424E+01  0.1739E+01
     -4.744  0.3130E+01  0.1916E+01
     -4.678  0.0000E+00  0.2000E+01
     -4.612  0.0000E+00  0.2000E+01
     -4.545  0.0000E+00  0.2000E+01
     -4.479  0.0000E+00  0.2000E+01
     -4.413  0.0000E+00  0.2000E+01
     -4.347  0.0000E+00  0.2000E+01
     -4.281  0.0000E+00  0.2000E+01
     -4.215  0.0000E+00  0.2000E+01
     -4.149  0.0000E+00  0.2000E+01
     -4.082  0.0000E+00  0.2000E+01
     -4.016  0.0000E+00  0.2000E+01
     -3.950  0.0000E+00  0.2000E+01
     -3.884  0.0000E+00  0.2000E+01
     -3.818  0.0000E+00  0.2000E+01
     -3.752  0.0000E+00  0.2000E+01
     -3.685  0.0000E+00  0.2000E+01
     -3.619  0.0000E+00  0.2000E+01
     -3.553  0.0000E+00  0.2000E+01
     -3.487  0.0000E+00  0.2000E+01
     -3.421  0.0000E+00  0.2000E+01
     -3.355  0.0000E+00  0.2000E+01
     -3.288  0.0000E+00  0.2000E+01
     -3.222  0.0000E+00  0.2000E+01
     -3.156  0.0000E+00  0.2000E+01
     -3.090  0.0000E+00  0.2000E+01
     -3.024  0.0000E+00  0.2000E+01
     -2.958  0.0000E+00  0.2000E+01
     -2.891  0.0000E+00  0.2000E+01
     -2.825  0.0000E+00  0.2000E+01
     -2.759  0.0000E+00  0.2000E+01
     -2.693  0.0000E+00  0.2000E+01
     -2.627  0.0000E+00  0.2000E+01
     -2.561  0.0000E+00  0.2000E+01
     -2.495  0.0000E+00  0.2000E+01
     -2.428  0.0000E+00  0.2000E+01
     -2.362  0.0000E+00  0.2000E+01
     -2.296  0.0000E+00  0.2000E+01
     -2.230  0.0000E+00  0.2000E+01
     -2.164  0.0000E+00  0.2000E+01
     -2.098  0.0000E+00  0.2000E+01
     -2.031  0.0000E+00  0.2000E+01
     -1.965  0.0000E+00  0.2000E+01
     -1.899  0.0000E+00  0.2000E+01
     -1.833  0.0000E+00  0.2000E+01
     -1.767  0.0000E+00  0.2000E+01
     -1.701  0.0000E+00  0.2000E+01
     -1.634  0.0000E+00  0.2000E+01
     -1.568  0.0000E+00  0.2000E+01
     -1.502  0.0000E+00  0.2000E+01
     -1.436  0.0000E+00  0.2000E+01
     -1.370  0.4043E+00  0.2007E+01
     -1.304  0.8840E+00  0.2047E+01
     -1.237  0.2109E+01  0.2134E+01
     -1.171  0.3402E+01  0.2315E+01
     -1.105  0.3542E+01  0.2610E+01
     -1.039  0.2173E+01  0.2789E+01
     -0.973  0.1645E+01  0.2912E+01
     -0.907  0.1353E+01  0.3011E+01
     -0.840  0.1131E+01  0.3093E+01
     -0.774  0.9938E+00  0.3163E+01
     -0.708  0.8904E+00  0.3225E+01
     -0.642  0.7932E+00  0.3281E+01
     -0.576  0.7051E+00  0.3330E+01
     -0.510  0.6544E+00  0.3375E+01
     -0.444  0.6057E+00  0.3417E+01
     -0.377  0.5571E+00  0.3455E+01
     -0.311  0.5115E+00  0.3491E+01
     -0.245  0.4704E+00  0.3523E+01
     -0.179  0.4439E+00  0.3553E+01
     -0.113  0.4172E+00  0.3582E+01
     -0.047  0.3914E+00  0.3608E+01
      0.020  0.3632E+00  0.3633E+01
      0.086  0.3363E+00  0.3657E+01
      0.152  0.3166E+00  0.3678E+01
      0.218  0.3013E+00  0.3699E+01
      0.284  0.2859E+00  0.3718E+01
      0.350  0.2692E+00  0.3736E+01
      0.417  0.2526E+00  0.3754E+01
      0.483  0.2357E+00  0.3770E+01
      0.549  0.2189E+00  0.3785E+01
      0.615  0.2093E+00  0.3799E+01
      0.681  0.1993E+00  0.3812E+01
      0.747  0.1894E+00  0.3825E+01
      0.814  0.1794E+00  0.3837E+01
      0.880  0.7856E+00  0.3867E+01
      0.946  0.1267E+01  0.3932E+01
      1.012  0.1945E+01  0.4044E+01
      1.078  0.1808E+01  0.4170E+01
      1.144  0.1576E+01  0.4279E+01
      1.210  0.1508E+01  0.4381E+01
      1.277  0.1409E+01  0.4478E+01
      1.343  0.1361E+01  0.4570E+01
      1.409  0.1374E+01  0.4660E+01
      1.475  0.1455E+01  0.4753E+01
      1.541  0.1544E+01  0.4853E+01
      1.607  0.1565E+01  0.4954E+01
      1.674  0.1673E+01  0.5063E+01
      1.740  0.1861E+01  0.5181E+01
      1.806  0.2268E+01  0.5319E+01
      1.872  0.2232E+01  0.5465E+01
      1.938  0.2150E+01  0.5610E+01
      2.004  0.2120E+01  0.5751E+01
      2.071  0.2097E+01  0.5890E+01
      2.137  0.2050E+01  0.6028E+01
      2.203  0.2011E+01  0.6162E+01
      2.269  0.2012E+01  0.6295E+01
      2.335  0.1970E+01  0.6427E+01
      2.401  0.1939E+01  0.6556E+01
      2.468  0.1917E+01  0.6683E+01
      2.534  0.1872E+01  0.6809E+01
      2.600  0.1859E+01  0.6932E+01
      2.666  0.1852E+01  0.7055E+01
      2.732  0.1835E+01  0.7177E+01
      2.798  0.1811E+01  0.7297E+01
      2.865  0.1800E+01  0.7416E+01
      2.931  0.1401E+01  0.7523E+01
      2.997  0.1175E+01  0.7608E+01
      3.063  0.9898E+00  0.7679E+01
      3.129  0.8621E+00  0.7740E+01
      3.195  0.7504E+00  0.7794E+01
      3.261  0.6580E+00  0.7840E+01
      3.328  0.5735E+00  0.7881E+01
      3.394  0.4819E+00  0.7916E+01
      3.460  0.4087E+00  0.7945E+01
      3.526  0.3271E+00  0.7970E+01
      3.592  0.2149E+00  0.7988E+01
      3.658  0.1328E+00  0.7999E+01
      3.725  0.0000E+00  0.8000E+01
      3.791  0.0000E+00  0.8000E+01
      3.857  0.0000E+00  0.8000E+01
      3.923  0.0000E+00  0.8000E+01
      3.989  0.0000E+00  0.8000E+01
      4.055  0.0000E+00  0.8000E+01
      4.122  0.0000E+00  0.8000E+01
      4.188  0.0000E+00  0.8000E+01
      4.254  0.0000E+00  0.8000E+01
      4.320  0.0000E+00  0.8000E+01
      4.386  0.0000E+00  0.8000E+01
      4.452  0.1020E-03  0.8000E+01
      4.519  0.6214E-03  0.8000E+01
      4.585  0.1581E-02  0.8000E+01
      4.651  0.2980E-02  0.8000E+01
      4.717  0.4819E-02  0.8000E+01
      4.783  0.2738E-01  0.8001E+01
      4.849  0.7337E-01  0.8005E+01
      4.916  0.1326E+00  0.8011E+01
      4.982  0.1797E+00  0.8022E+01
      5.048  0.2154E+00  0.8035E+01
      5.114  0.3862E+00  0.8054E+01
      5.180  0.5910E+00  0.8087E+01
      5.246  0.7624E+00  0.8131E+01
      5.312  0.9645E+00  0.8188E+01
      5.379  0.1132E+01  0.8258E+01
      5.445  0.1245E+01  0.8337E+01
      5.511  0.1386E+01  0.8424E+01
      5.577  0.1545E+01  0.8521E+01
      5.643  0.1739E+01  0.8629E+01
      5.709  0.1998E+01  0.8752E+01
      5.776  0.2584E+01  0.8908E+01
      5.842  0.2857E+01  0.9088E+01
      5.908  0.2291E+01  0.9262E+01
      5.974  0.2008E+01  0.9400E+01
      6.040  0.1805E+01  0.9526E+01
      6.106  0.1557E+01  0.9638E+01
      6.173  0.1311E+01  0.9733E+01
      6.239  0.1187E+01  0.9816E+01
      6.305  0.1045E+01  0.9890E+01
      6.371  0.9364E+00  0.9955E+01
      6.437  0.1023E+01  0.1002E+02
      6.503  0.1132E+01  0.1009E+02
      6.570  0.1316E+01  0.1017E+02
      6.636  0.1344E+01  0.1027E+02
      6.702  0.1142E+01  0.1035E+02
      6.768  0.1251E+01  0.1043E+02
      6.834  0.1170E+01  0.1051E+02
      6.900  0.1163E+01  0.1058E+02
      6.966  0.1167E+01  0.1066E+02
      7.033  0.1178E+01  0.1074E+02
      7.099  0.1342E+01  0.1082E+02
      7.165  0.1949E+01  0.1092E+02
      7.231  0.3171E+01  0.1109E+02
      7.297  0.2935E+01  0.1129E+02
      7.363  0.2495E+01  0.1149E+02
      7.430  0.1789E+01  0.1162E+02
      7.496  0.1739E+01  0.1174E+02
      7.562  0.1679E+01  0.1185E+02
      7.628  0.1588E+01  0.1196E+02
      7.694  0.1573E+01  0.1207E+02
      7.760  0.1349E+01  0.1216E+02
      7.827  0.1294E+01  0.1225E+02
      7.893  0.1425E+01  0.1234E+02
      7.959  0.1592E+01  0.1244E+02
      8.025  0.1791E+01  0.1255E+02
      8.091  0.2074E+01  0.1267E+02
      8.157  0.2213E+01  0.1282E+02
      8.224  0.2102E+01  0.1296E+02
      8.290  0.2064E+01  0.1310E+02
      8.356  0.1887E+01  0.1323E+02
      8.422  0.1860E+01  0.1335E+02
      8.488  0.1848E+01  0.1348E+02
      8.554  0.1651E+01  0.1359E+02
      8.621  0.1569E+01  0.1370E+02
      8.687  0.1442E+01  0.1380E+02
      8.753  0.1356E+01  0.1389E+02
      8.819  0.1447E+01  0.1398E+02
      8.885  0.1444E+01  0.1408E+02
      8.951  0.1618E+01  0.1418E+02
      9.017  0.1092E+01  0.1426E+02
      9.084  0.1040E+01  0.1433E+02
      9.150  0.1049E+01  0.1440E+02
      9.216  0.1129E+01  0.1447E+02
      9.282  0.1277E+01  0.1455E+02
      9.348  0.1311E+01  0.1464E+02
      9.414  0.1484E+01  0.1473E+02
      9.481  0.1633E+01  0.1483E+02
      9.547  0.1478E+01  0.1494E+02
      9.613  0.1369E+01  0.1503E+02
      9.679  0.1219E+01  0.1512E+02
      9.745  0.1096E+01  0.1519E+02
      9.811  0.1002E+01  0.1526E+02
      9.878  0.9451E+00  0.1533E+02
      9.944  0.9063E+00  0.1539E+02
     10.010  0.8742E+00  0.1545E+02
     10.076  0.8326E+00  0.1550E+02
     10.142  0.7754E+00  0.1556E+02
     10.208  0.7720E+00  0.1561E+02
     10.275  0.9975E+00  0.1567E+02
     10.341  0.6884E+00  0.1572E+02
     10.407  0.4655E+00  0.1576E+02
     10.473  0.3713E+00  0.1579E+02
     10.539  0.3435E+00  0.1581E+02
     10.605  0.3197E+00  0.1583E+02
     10.671  0.2923E+00  0.1586E+02
     10.738  0.2764E+00  0.1587E+02
     10.804  0.2672E+00  0.1589E+02
     10.870  0.2395E+00  0.1591E+02
     10.936  0.2096E+00  0.1592E+02
     11.002  0.1821E+00  0.1594E+02
     11.068  0.1610E+00  0.1595E+02
     11.135  0.1427E+00  0.1596E+02
     11.201  0.1302E+00  0.1597E+02
     11.267  0.1149E+00  0.1597E+02
     11.333  0.1050E+00  0.1598E+02
     11.399  0.1037E+00  0.1599E+02
     11.465  0.6732E-01  0.1600E+02
     11.532  0.3324E-01  0.1600E+02
     11.598  0.1106E-01  0.1600E+02
     11.664  0.7868E-03  0.1600E+02
     11.730  0.0000E+00  0.1600E+02
     11.796  0.0000E+00  0.1600E+02
     11.862  0.0000E+00  0.1600E+02
     11.929  0.0000E+00  0.1600E+02
     11.995  0.0000E+00  0.1600E+02
     12.061  0.0000E+00  0.1600E+02
     12.127  0.0000E+00  0.1600E+02
     12.193  0.0000E+00  0.1600E+02
     12.259  0.0000E+00  0.1600E+02
     12.326  0.0000E+00  0.1600E+02
     12.392  0.0000E+00  0.1600E+02
     12.458  0.0000E+00  0.1600E+02
     12.524  0.0000E+00  0.1600E+02
     12.590  0.0000E+00  0.1600E+02
