    2    2    1    1
  0.3270075E+02  0.4522385E-09  0.4522385E-09  0.4522385E-09  0.0000000E+00
  1.000000000000000E-004
  CAR 
 unknown system                          
      8    195      8
 
  0.0000000E+00  0.0000000E+00  0.0000000E+00  0.1714678E-03
    1       -6.355896   1.000000
    2        3.696197   1.000000
    3        3.696197   1.000000
    4        3.696197   1.000000
    5        4.407333   0.000000
    6        6.716013   0.000000
    7        6.716013   0.000000
    8        6.716013   0.000000
 
  0.5555556E-01  0.0000000E+00  0.0000000E+00  0.1371742E-02
    1       -6.331317   1.000000
    2        3.194024   1.000000
    3        3.660634   1.000000
    4        3.660634   1.000000
    5        4.798910   0.000000
    6        6.772274   0.000000
    7        6.772274   0.000000
    8        6.772533   0.000000
 
  0.1111111E+00  0.0000000E+00  0.0000000E+00  0.1371742E-02
    1       -6.258454   1.000000
    2        2.429301   1.000000
    3        3.565121   1.000000
    4        3.565121   1.000000
    5        5.165185   0.000000
    6        6.921841   0.000000
    7        6.921841   0.000000
    8        7.039444   0.000000
 
  0.1666667E+00  0.0000000E+00  0.0000000E+00  0.1371742E-02
    1       -6.140301   1.000000
    2        1.654806   1.000000
    3        3.434618   1.000000
    4        3.434619   1.000000
    5        5.240666   0.000000
    6        7.115054   0.000000
    7        7.115054   0.000000
    8        7.592012   0.000000
 
  0.2222222E+00  0.0000000E+00  0.0000000E+00  0.1371742E-02
    1       -5.982536   1.000000
    2        0.915417   1.000000
    3        3.294062   1.000000
    4        3.294062   1.000000
    5        5.154067   0.000000
    6        7.289461   0.000000
    7        7.289461   0.000000
    8        8.312204   0.000000
 
  0.2777778E+00  0.0000000E+00  0.0000000E+00  0.1371742E-02
    1       -5.794960   1.000000
    2        0.237809   1.000000
    3        3.161971   1.000000
    4        3.161971   1.000000
    5        5.023097   0.000000
    6        7.396401   0.000000
    7        7.396402   0.000000
    8        9.089647   0.000000
 
  0.3333333E+00  0.0000000E+00  0.0000000E+00  0.1371742E-02
    1       -5.593870   1.000000
    2       -0.351976   1.000000
    3        3.050388   1.000000
    4        3.050388   1.000000
    5        4.898634   0.000000
    6        7.429026   0.000000
    7        7.429026   0.000000
    8        9.821325   0.000000
 
  0.3888889E+00  0.0000000E+00  0.0000000E+00  0.1371742E-02
    1       -5.405078   1.000000
    2       -0.822075   1.000000
    3        2.966641   1.000000
    4        2.966642   1.000000
    5        4.801508   0.000000
    6        7.416828   0.000000
    7        7.416828   0.000000
    8       10.201614   0.000000
 
  0.4444444E+00  0.0000000E+00  0.0000000E+00  0.1371742E-02
    1       -5.265117   1.000000
    2       -1.132182   1.000000
    3        2.914965   1.000000
    4        2.914965   1.000000
    5        4.740735   0.000000
    6        7.394676   0.000000
    7        7.394676   0.000000
    8       10.226862   0.000000
 
  0.5000000E+00  0.0000000E+00  0.0000000E+00  0.6858711E-03
    1       -5.212519   1.000000
    2       -1.241714   1.000000
    3        2.897522   1.000000
    4        2.897522   1.000000
    5        4.720123   0.000000
    6        7.384880   0.000000
    7        7.384880   0.000000
    8       10.214694   0.000000
 
  0.5555556E-01  0.5555556E-01  0.0000000E+00  0.1028807E-02
    1       -6.323097   1.000000
    2        3.156115   1.000000
    3        3.586620   1.000000
    4        3.586620   1.000000
    5        4.941484   0.000000
    6        6.609779   0.000000
    7        6.874795   0.000000
    8        6.874795   0.000000
 
  0.1111111E+00  0.5555556E-01  0.0000000E+00  0.4115226E-02
    1       -6.266255   1.000000
    2        2.576257   1.000000
    3        3.462480   1.000000
    4        3.515389   1.000000
    5        5.304326   0.000000
    6        6.586011   0.000000
    7        7.063881   0.000000
    8        7.108313   0.000000
 
  0.1666667E+00  0.5555556E-01  0.0000000E+00  0.4115226E-02
    1       -6.163053   1.000000
    2        1.853101   1.000000
    3        3.315893   1.000000
    4        3.413767   1.000000
    5        5.461863   0.000000
    6        6.722815   0.000000
    7        7.289037   0.000000
    8        7.537407   0.000000
 
  0.2222222E+00  0.5555556E-01  0.0000000E+00  0.4115226E-02
    1       -6.018133   1.000000
    2        1.126404   1.000000
    3        3.170421   1.000000
    4        3.272081   1.000000
    5        5.417825   0.000000
    6        6.944321   0.000000
    7        7.488875   0.000000
    8        8.110184   0.000000
 
  0.2777778E+00  0.5555556E-01  0.0000000E+00  0.4115226E-02
    1       -5.839752   1.000000
    2        0.441815   1.000000
    3        3.042325   1.000000
    4        3.116507   1.000000
    5        5.299686   0.000000
    6        7.134977   0.000000
    7        7.610665   0.000000
    8        8.726283   0.000000
 
  0.3333333E+00  0.5555556E-01  0.0000000E+00  0.4115226E-02
    1       -5.641707   1.000000
    2       -0.169885   1.000000
    3        2.941706   1.000000
    4        2.968054   1.000000
    5        5.174570   0.000000
    6        7.242486   0.000000
    7        7.640098   0.000000
    8        9.333635   0.000000
 
  0.3888889E+00  0.5555556E-01  0.0000000E+00  0.4115226E-02
    1       -5.446250   1.000000
    2       -0.676965   1.000000
    3        2.840288   1.000000
    4        2.874380   1.000000
    5        5.069724   0.000000
    6        7.282926   0.000000
    7        7.605158   0.000000
    8        9.888903   0.000000
 
  0.4444444E+00  0.5555556E-01  0.0000000E+00  0.4115226E-02
    1       -5.286450   1.000000
    2       -1.040753   1.000000
    3        2.741606   1.000000
    4        2.843226   1.000000
    5        4.996939   0.000000
    6        7.298608   0.000000
    7        7.545642   0.000000
    8       10.221086   0.000000
 
  0.5000000E+00  0.5555556E-01  0.0000000E+00  0.4115226E-02
    1       -5.201805   1.000000
    2       -1.218619   1.000000
    3        2.677204   1.000000
    4        2.849039   1.000000
    5        4.961529   0.000000
    6        7.321223   0.000000
    7        7.490180   0.000000
    8       10.303242   0.000000
 
 -0.4444444E+00  0.5555556E-01  0.0000000E+00  0.4115226E-02
    1       -5.219557   1.000000
    2       -1.182001   1.000000
    3        2.650266   1.000000
    4        2.890977   1.000000
    5        4.965531   0.000000
    6        7.364330   0.000000
    7        7.451713   0.000000
    8       10.311246   0.000000
 
 -0.3888889E+00  0.5555556E-01  0.0000000E+00  0.4115226E-02
    1       -5.333568   1.000000
    2       -0.937353   1.000000
    3        2.662527   1.000000
    4        2.966683   1.000000
    5        5.008710   0.000000
    6        7.425148   0.000000
    7        7.428461   0.000000
    8       10.229566   0.000000
 
 -0.3333333E+00  0.5555556E-01  0.0000000E+00  0.4115226E-02
    1       -5.509615   1.000000
    2       -0.520879   1.000000
    3        2.714453   1.000000
    4        3.072045   1.000000
    5        5.088297   0.000000
    6        7.403884   0.000000
    7        7.483722   0.000000
    8        9.841370   0.000000
 
 -0.2777778E+00  0.5555556E-01  0.0000000E+00  0.4115226E-02
    1       -5.709058   1.000000
    2        0.024668   1.000000
    3        2.805100   1.000000
    4        3.200601   1.000000
    5        5.197208   0.000000
    6        7.348454   0.000000
    7        7.498739   0.000000
    8        9.207786   0.000000
 
 -0.2222222E+00  0.5555556E-01  0.0000000E+00  0.4115226E-02
    1       -5.902508   1.000000
    2        0.662668   1.000000
    3        2.931754   1.000000
    4        3.342362   1.000000
    5        5.318937   0.000000
    6        7.234796   0.000000
    7        7.411315   0.000000
    8        8.550460   0.000000
 
 -0.1666667E+00  0.5555556E-01  0.0000000E+00  0.4115226E-02
    1       -6.070871   1.000000
    2        1.361123   1.000000
    3        3.089430   1.000000
    4        3.482112   1.000000
    5        5.413313   0.000000
    6        7.068235   0.000000
    7        7.187886   0.000000
    8        7.953317   0.000000
 
 -0.1111111E+00  0.5555556E-01  0.0000000E+00  0.4115226E-02
    1       -6.202545   1.000000
    2        2.082535   1.000000
    3        3.271229   1.000000
    4        3.598094   1.000000
    5        5.385763   0.000000
    6        6.896688   0.000000
    7        6.909899   0.000000
    8        7.453384   0.000000
 
 -0.5555556E-01  0.5555556E-01  0.0000000E+00  0.2057613E-02
    1       -6.290601   1.000000
    2        2.754247   1.000000
    3        3.473463   1.000000
    4        3.664298   1.000000
    5        5.124010   0.000000
    6        6.761278   0.000000
    7        6.782858   0.000000
    8        7.057716   0.000000
 
  0.1111111E+00  0.1111111E+00  0.0000000E+00  0.1028807E-02
    1       -6.225649   1.000000
    2        2.388256   1.000000
    3        3.316215   1.000000
    4        3.316215   1.000000
    5        5.632638   0.000000
    6        6.389910   0.000000
    7        7.291595   0.000000
    8        7.291595   0.000000
 
  0.1666667E+00  0.1111111E+00  0.0000000E+00  0.4115226E-02
    1       -6.138192   1.000000
    2        1.874149   1.000000
    3        3.155256   1.000000
    4        3.181728   1.000000
    5        5.825717   0.000000
    6        6.392085   0.000000
    7        7.555460   0.000000
    8        7.628922   0.000000
 
  0.2222222E+00  0.1111111E+00  0.0000000E+00  0.4115226E-02
    1       -6.007703   1.000000
    2        1.240312   1.000000
    3        3.002313   1.000000
    4        3.030191   1.000000
    5        5.847158   0.000000
    6        6.548842   0.000000
    7        7.795577   0.000000
    8        8.028188   0.000000
 
  0.2777778E+00  0.1111111E+00  0.0000000E+00  0.4115226E-02
    1       -5.841113   1.000000
    2        0.596860   1.000000
    3        2.847866   1.000000
    4        2.872576   1.000000
    5        5.767884   0.000000
    6        6.796182   0.000000
    7        7.953613   0.000000
    8        8.333282   0.000000
 
  0.3333333E+00  0.1111111E+00  0.0000000E+00  0.4115226E-02
    1       -5.650120   1.000000
    2       -0.004028   1.000000
    3        2.659317   1.000000
    4        2.775400   1.000000
    5        5.656649   0.000000
    6        7.017394   0.000000
    7        8.002680   0.000000
    8        8.629486   0.000000
 
  0.3888889E+00  0.1111111E+00  0.0000000E+00  0.4115226E-02
    1       -5.453742   1.000000
    2       -0.523656   1.000000
    3        2.485847   1.000000
    4        2.716060   1.000000
    5        5.551800   0.000000
    6        7.139979   0.000000
    7        7.964234   0.000000
    8        9.064622   0.000000
 
  0.4444444E+00  0.1111111E+00  0.0000000E+00  0.4115226E-02
    1       -5.281088   1.000000
    2       -0.922184   1.000000
    3        2.340996   1.000000
    4        2.696974   1.000000
    5        5.471618   0.000000
    6        7.194098   0.000000
    7        7.881737   0.000000
    8        9.624297   0.000000
 
  0.5000000E+00  0.1111111E+00  0.0000000E+00  0.4115226E-02
    1       -5.169955   1.000000
    2       -1.155821   1.000000
    3        2.233130   1.000000
    4        2.718419   1.000000
    5        5.424737   0.000000
    6        7.235043   0.000000
    7        7.790482   0.000000
    8       10.171203   0.000000
 
 -0.4444444E+00  0.1111111E+00  0.0000000E+00  0.4115226E-02
    1       -5.153423   1.000000
    2       -1.188814   1.000000
    3        2.167741   1.000000
    4        2.778806   1.000000
    5        5.414716   0.000000
    6        7.292955   0.000000
    7        7.709058   0.000000
    8       10.445703   0.000000
 
 -0.3888889E+00  0.1111111E+00  0.0000000E+00  0.4115226E-02
    1       -5.237077   1.000000
    2       -1.015458   1.000000
    3        2.148841   1.000000
    4        2.874673   1.000000
    5        5.441725   0.000000
    6        7.374579   0.000000
    7        7.640254   0.000000
    8       10.269220   0.000000
 
 -0.3333333E+00  0.1111111E+00  0.0000000E+00  0.4115226E-02
    1       -5.394341   1.000000
    2       -0.665089   1.000000
    3        2.179775   1.000000
    4        3.000318   1.000000
    5        5.502688   0.000000
    6        7.466090   0.000000
    7        7.571718   0.000000
    8        9.727680   0.000000
 
 -0.2777778E+00  0.1111111E+00  0.0000000E+00  0.4115226E-02
    1       -5.586748   1.000000
    2       -0.182700   1.000000
    3        2.264037   1.000000
    4        3.147020   1.000000
    5        5.589524   0.000000
    6        7.477967   0.000000
    7        7.522637   0.000000
    8        9.113879   0.000000
 
 -0.2222222E+00  0.1111111E+00  0.0000000E+00  0.4115226E-02
    1       -5.781877   1.000000
    2        0.386480   1.000000
    3        2.406569   1.000000
    4        3.301754   1.000000
    5        5.683082   0.000000
    6        7.335623   0.000000
    7        7.450341   0.000000
    8        8.611738   0.000000
 
 -0.1666667E+00  0.1111111E+00  0.0000000E+00  0.4115226E-02
    1       -5.957792   1.000000
    2        0.995853   1.000000
    3        2.616170   1.000000
    4        3.445592   1.000000
    5        5.735905   0.000000
    6        7.154695   0.000000
    7        7.201196   0.000000
    8        8.262598   0.000000
 
 -0.1111111E+00  0.1111111E+00  0.0000000E+00  0.2057613E-02
    1       -6.100746   1.000000
    2        1.586024   1.000000
    3        2.906675   1.000000
    4        3.553257   1.000000
    5        5.649927   0.000000
    6        6.963973   0.000000
    7        6.987432   0.000000
    8        7.904887   0.000000
 
  0.1666667E+00  0.1666667E+00  0.0000000E+00  0.1028807E-02
    1       -6.066682   1.000000
    2        1.627630   1.000000
    3        2.982743   1.000000
    4        2.982743   1.000000
    5        5.830704   0.000000
    6        6.468829   0.000000
    7        7.865485   0.000000
    8        7.865485   0.000000
 
  0.2222222E+00  0.1666667E+00  0.0000000E+00  0.4115226E-02
    1       -5.951609   1.000000
    2        1.172601   1.000000
    3        2.810344   1.000000
    4        2.821211   1.000000
    5        5.798782   0.000000
    6        6.566568   0.000000
    7        8.158688   0.000000
    8        8.160704   0.000000
 
  0.2777778E+00  0.1666667E+00  0.0000000E+00  0.4115226E-02
    1       -5.798798   1.000000
    2        0.634046   1.000000
    3        2.603191   1.000000
    4        2.685806   1.000000
    5        5.846898   0.000000
    6        6.661933   0.000000
    7        8.244025   0.000000
    8        8.377291   0.000000
 
  0.3333333E+00  0.1666667E+00  0.0000000E+00  0.4115226E-02
    1       -5.618262   1.000000
    2        0.091444   1.000000
    3        2.371401   1.000000
    4        2.585894   1.000000
    5        5.853540   0.000000
    6        6.890829   0.000000
    7        8.233043   0.000000
    8        8.471759   0.000000
 
  0.3888889E+00  0.1666667E+00  0.0000000E+00  0.4115226E-02
    1       -5.426260   1.000000
    2       -0.404016   1.000000
    3        2.145474   1.000000
    4        2.526829   1.000000
    5        5.805775   0.000000
    6        7.169490   0.000000
    7        8.352388   0.000000
    8        8.452384   0.000000
 
  0.4444444E+00  0.1666667E+00  0.0000000E+00  0.4115226E-02
    1       -5.248051   1.000000
    2       -0.807899   1.000000
    3        1.947526   1.000000
    4        2.511111   1.000000
    5        5.753632   0.000000
    6        7.328514   0.000000
    7        8.364091   0.000000
    8        8.749635   0.000000
 
  0.5000000E+00  0.1666667E+00  0.0000000E+00  0.4115226E-02
    1       -5.118109   1.000000
    2       -1.074811   1.000000
    3        1.790872   1.000000
    4        2.539043   1.000000
    5        5.725203   0.000000
    6        7.386741   0.000000
    7        8.249752   0.000000
    8        9.366573   0.000000
 
 -0.4444444E+00  0.1666667E+00  0.0000000E+00  0.4115226E-02
    1       -5.071487   1.000000
    2       -1.164491   1.000000
    3        1.684083   1.000000
    4        2.608916   1.000000
    5        5.730364   0.000000
    6        7.429522   0.000000
    7        8.134067   0.000000
    8       10.046122   0.000000
 
 -0.3888889E+00  0.1666667E+00  0.0000000E+00  0.4115226E-02
    1       -5.123218   1.000000
    2       -1.061127   1.000000
    3        1.634012   1.000000
    4        2.716906   1.000000
    5        5.769585   0.000000
    6        7.493220   0.000000
    7        8.023353   0.000000
    8       10.240160   0.000000
 
 -0.3333333E+00  0.1666667E+00  0.0000000E+00  0.4115226E-02
    1       -5.256498   1.000000
    2       -0.786005   1.000000
    3        1.648027   1.000000
    4        2.856552   1.000000
    5        5.836790   0.000000
    6        7.580625   0.000000
    7        7.906778   0.000000
    8        9.617268   0.000000
 
 -0.2777778E+00  0.1666667E+00  0.0000000E+00  0.4115226E-02
    1       -5.435900   1.000000
    2       -0.385832   1.000000
    3        1.736399   1.000000
    4        3.017773   1.000000
    5        5.917491   0.000000
    6        7.658645   0.000000
    7        7.759712   0.000000
    8        8.962679   0.000000
 
 -0.2222222E+00  0.1666667E+00  0.0000000E+00  0.4115226E-02
    1       -5.627516   1.000000
    2        0.083330   1.000000
    3        1.915183   1.000000
    4        3.185378   1.000000
    5        5.979146   0.000000
    6        7.563686   0.000000
    7        7.609766   0.000000
    8        8.514713   0.000000
 
 -0.1666667E+00  0.1666667E+00  0.0000000E+00  0.2057613E-02
    1       -5.806751   1.000000
    2        0.561692   1.000000
    3        2.205828   1.000000
    4        3.337421   1.000000
    5        5.948537   0.000000
    6        7.341087   0.000000
    7        7.366688   0.000000
    8        8.376361   0.000000
 
  0.2222222E+00  0.2222222E+00  0.0000000E+00  0.1028807E-02
    1       -5.852256   1.000000
    2        0.899146   1.000000
    3        2.651003   1.000000
    4        2.651003   1.000000
    5        5.585158   0.000000
    6        6.617990   0.000000
    7        8.527354   0.000000
    8        8.527354   0.000000
 
  0.2777778E+00  0.2222222E+00  0.0000000E+00  0.4115226E-02
    1       -5.714637   1.000000
    2        0.497738   1.000000
    3        2.463502   1.000000
    4        2.507602   1.000000
    5        5.551573   0.000000
    6        6.571534   0.000000
    7        8.675622   0.000000
    8        8.827849   0.000000
 
  0.3333333E+00  0.2222222E+00  0.0000000E+00  0.4115226E-02
    1       -5.547424   1.000000
    2        0.052904   1.000000
    3        2.213220   1.000000
    4        2.400893   1.000000
    5        5.640710   0.000000
    6        6.619880   0.000000
    7        8.577907   0.000000
    8        8.999411   0.000000
 
  0.3888889E+00  0.2222222E+00  0.0000000E+00  0.4115226E-02
    1       -5.364695   1.000000
    2       -0.377925   1.000000
    3        1.936542   1.000000
    4        2.336643   1.000000
    5        5.697981   0.000000
    6        6.904009   0.000000
    7        8.455637   0.000000
    8        9.027386   0.000000
 
  0.4444444E+00  0.2222222E+00  0.0000000E+00  0.4115226E-02
    1       -5.188316   1.000000
    2       -0.748946   1.000000
    3        1.675858   1.000000
    4        2.317714   1.000000
    5        5.701658   0.000000
    6        7.373153   0.000000
    7        8.401409   0.000000
    8        8.953193   0.000000
 
  0.5000000E+00  0.2222222E+00  0.0000000E+00  0.4115226E-02
    1       -5.048816   1.000000
    2       -1.015623   1.000000
    3        1.458192   1.000000
    4        2.344700   1.000000
    5        5.707209   0.000000
    6        7.780014   0.000000
    7        8.591202   0.000000
    8        8.828835   0.000000
 
 -0.4444444E+00  0.2222222E+00  0.0000000E+00  0.4115226E-02
    1       -4.979943   1.000000
    2       -1.137087   1.000000
    3        1.299723   1.000000
    4        2.416130   1.000000
    5        5.742744   0.000000
    6        7.911569   0.000000
    7        8.686683   0.000000
    8        9.183970   0.000000
 
 -0.3888889E+00  0.2222222E+00  0.0000000E+00  0.4115226E-02
    1       -5.002260   1.000000
    2       -1.092151   1.000000
    3        1.212709   1.000000
    4        2.528303   1.000000
    5        5.813679   0.000000
    6        7.954901   0.000000
    7        8.535522   0.000000
    8        9.876625   0.000000
 
 -0.3333333E+00  0.2222222E+00  0.0000000E+00  0.4115226E-02
    1       -5.108388   1.000000
    2       -0.895633   1.000000
    3        1.210729   1.000000
    4        2.674718   1.000000
    5        5.911997   0.000000
    6        8.009109   0.000000
    7        8.361985   0.000000
    8        9.531281   0.000000
 
 -0.2777778E+00  0.2222222E+00  0.0000000E+00  0.4115226E-02
    1       -5.268890   1.000000
    2       -0.594816   1.000000
    3        1.312751   1.000000
    4        2.844941   1.000000
    5        6.014647   0.000000
    6        8.074506   0.000000
    7        8.138292   0.000000
    8        8.831412   0.000000
 
 -0.2222222E+00  0.2222222E+00  0.0000000E+00  0.2057613E-02
    1       -5.450628   1.000000
    2       -0.251033   1.000000
    3        1.542765   1.000000
    4        3.022971   1.000000
    5        6.069862   0.000000
    6        7.856561   0.000000
    7        7.958291   0.000000
    8        8.444894   0.000000
 
  0.2777778E+00  0.2777778E+00  0.0000000E+00  0.1028807E-02
    1       -5.592958   1.000000
    2        0.217021   1.000000
    3        2.355163   1.000000
    4        2.355163   1.000000
    5        5.340232   0.000000
    6        6.389854   0.000000
    7        9.238166   0.000000
    8        9.238182   0.000000
 
  0.3333333E+00  0.2777778E+00  0.0000000E+00  0.4115226E-02
    1       -5.441430   1.000000
    2       -0.130505   1.000000
    3        2.168704   1.000000
    4        2.239315   1.000000
    5        5.336969   0.000000
    6        6.266840   0.000000
    7        9.325293   0.000000
    8        9.527644   0.000000
 
  0.3888889E+00  0.2777778E+00  0.0000000E+00  0.4115226E-02
    1       -5.272560   1.000000
    2       -0.482341   1.000000
    3        1.893038   1.000000
    4        2.166477   1.000000
    5        5.448270   0.000000
    6        6.339386   0.000000
    7        9.201382   0.000000
    8        9.644143   0.000000
 
  0.4444444E+00  0.2777778E+00  0.0000000E+00  0.4115226E-02
    1       -5.105517   1.000000
    2       -0.793911   1.000000
    3        1.586307   1.000000
    4        2.140021   1.000000
    5        5.514141   0.000000
    6        6.711744   0.000000
    7        9.062455   0.000000
    8        9.611633   0.000000
 
  0.5000000E+00  0.2777778E+00  0.0000000E+00  0.4115226E-02
    1       -4.966944   1.000000
    2       -1.026688   1.000000
    3        1.304039   1.000000
    4        2.160966   1.000000
    5        5.546202   0.000000
    6        7.308930   0.000000
    7        8.951476   0.000000
    8        9.491954   0.000000
 
 -0.4444444E+00  0.2777778E+00  0.0000000E+00  0.4115226E-02
    1       -4.887118   1.000000
    2       -1.146631   1.000000
    3        1.082635   1.000000
    4        2.228244   1.000000
    5        5.598590   0.000000
    6        8.007144   0.000000
    7        8.908219   0.000000
    8        9.328318   0.000000
 
 -0.3888889E+00  0.2777778E+00  0.0000000E+00  0.4115226E-02
    1       -4.887493   1.000000
    2       -1.136050   1.000000
    3        0.947840   1.000000
    4        2.338544   1.000000
    5        5.688088   0.000000
    6        8.539286   0.000000
    7        9.130243   0.000000
    8        9.141349   0.000000
 
 -0.3333333E+00  0.2777778E+00  0.0000000E+00  0.4115226E-02
    1       -4.967232   1.000000
    2       -1.009268   1.000000
    3        0.924272   1.000000
    4        2.485741   1.000000
    5        5.809732   0.000000
    6        8.660699   0.000000
    7        8.875615   0.000000
    8        9.431557   0.000000
 
 -0.2777778E+00  0.2777778E+00  0.0000000E+00  0.2057613E-02
    1       -5.104160   1.000000
    2       -0.811636   1.000000
    3        1.039202   1.000000
    4        2.659782   1.000000
    5        5.939001   0.000000
    6        8.536433   0.000000
    7        8.671296   0.000000
    8        8.789933   0.000000
 
  0.3333333E+00  0.3333333E+00  0.0000000E+00  0.1028807E-02
    1       -5.307334   1.000000
    2       -0.399174   1.000000
    3        2.113207   1.000000
    4        2.113207   1.000000
    5        5.159148   0.000000
    6        6.006651   0.000000
    7        9.973161   0.000000
    8        9.973165   0.000000
 
  0.3888889E+00  0.3333333E+00  0.0000000E+00  0.4115226E-02
    1       -5.156682   1.000000
    2       -0.684512   1.000000
    3        1.939671   1.000000
    4        2.029857   1.000000
    5        5.192430   0.000000
    6        5.895477   0.000000
    7       10.059658   0.000000
    8       10.238824   0.000000
 
  0.4444444E+00  0.3333333E+00  0.0000000E+00  0.4115226E-02
    1       -5.006703   1.000000
    2       -0.937300   1.000000
    3        1.657791   1.000000
    4        1.993243   1.000000
    5        5.310326   0.000000
    6        6.047925   0.000000
    7        9.940086   0.000000
    8       10.294729   0.000000
 
  0.5000000E+00  0.3333333E+00  0.0000000E+00  0.4115226E-02
    1       -4.880670   1.000000
    2       -1.122164   1.000000
    3        1.343728   1.000000
    4        2.004904   1.000000
    5        5.372524   0.000000
    6        6.525827   0.000000
    7        9.802180   0.000000
    8       10.201144   0.000000
 
 -0.4444444E+00  0.3333333E+00  0.0000000E+00  0.4115226E-02
    1       -4.804137   1.000000
    2       -1.214404   1.000000
    3        1.066246   1.000000
    4        2.064241   1.000000
    5        5.432759   0.000000
    6        7.205882   0.000000
    7        9.681385   0.000000
    8       10.016556   0.000000
 
 -0.3888889E+00  0.3333333E+00  0.0000000E+00  0.4115226E-02
    1       -4.795294   1.000000
    2       -1.207764   1.000000
    3        0.876085   1.000000
    4        2.168470   1.000000
    5        5.528861   0.000000
    6        7.995294   0.000000
    7        9.584250   0.000000
    8        9.747980   0.000000
 
 -0.3333333E+00  0.3333333E+00  0.0000000E+00  0.2057613E-02
    1       -4.855050   1.000000
    2       -1.124707   1.000000
    3        0.816524   1.000000
    4        2.312071   1.000000
    5        5.661780   0.000000
    6        8.791840   0.000000
    7        9.364615   0.000000
    8        9.421100   0.000000
 
  0.3888889E+00  0.3888889E+00  0.0000000E+00  0.1028807E-02
    1       -5.028169   1.000000
    2       -0.915777   1.000000
    3        1.935078   1.000000
    4        1.935078   1.000000
    5        5.060331   0.000000
    6        5.638585   0.000000
    7       10.705135   0.000000
    8       10.705143   0.000000
 
  0.4444444E+00  0.3888889E+00  0.0000000E+00  0.4115226E-02
    1       -4.903157   1.000000
    2       -1.119195   1.000000
    3        1.783777   1.000000
    4        1.886834   1.000000
    5        5.130212   0.000000
    6        5.577268   0.000000
    7       10.800977   0.000000
    8       10.926165   0.000000
 
  0.5000000E+00  0.3888889E+00  0.0000000E+00  0.4115226E-02
    1       -4.802033   1.000000
    2       -1.257086   1.000000
    3        1.514631   1.000000
    4        1.887240   1.000000
    5        5.232903   0.000000
    6        5.845615   0.000000
    7       10.684879   0.000000
    8       10.897805   0.000000
 
 -0.4444444E+00  0.3888889E+00  0.0000000E+00  0.4115226E-02
    1       -4.744793   1.000000
    2       -1.309859   1.000000
    3        1.220265   1.000000
    4        1.936229   1.000000
    5        5.297095   0.000000
    6        6.423840   0.000000
    7       10.520511   0.000000
    8       10.684632   0.000000
 
 -0.3888889E+00  0.3888889E+00  0.0000000E+00  0.2057613E-02
    1       -4.743255   1.000000
    2       -1.282072   1.000000
    3        0.984539   1.000000
    4        2.031577   1.000000
    5        5.392361   0.000000
    6        7.166274   0.000000
    7       10.238220   0.000000
    8       10.296844   0.000000
 
  0.4444444E+00  0.4444444E+00  0.0000000E+00  0.1028807E-02
    1       -4.810412   1.000000
    2       -1.276675   1.000000
    3        1.826309   1.000000
    4        1.826310   1.000000
    5        5.052880   0.000000
    6        5.348809   0.000000
    7       11.363265   0.000000
    8       11.363272   0.000000
 
  0.5000000E+00  0.4444444E+00  0.0000000E+00  0.4115226E-02
    1       -4.745768   1.000000
    2       -1.367765   1.000000
    3        1.704964   1.000000
    4        1.814397   1.000000
    5        5.144983   0.000000
    6        5.364501   0.000000
    7       11.411002   0.000000
    8       11.460972   0.000000
 
 -0.4444444E+00  0.4444444E+00  0.0000000E+00  0.2057613E-02
    1       -4.722762   1.000000
    2       -1.375028   1.000000
    3        1.466633   1.000000
    4        1.851587   1.000000
    5        5.209097   0.000000
    6        5.773446   0.000000
    7       11.146182   0.000000
    8       11.211312   0.000000
 
  0.5000000E+00  0.5000000E+00  0.0000000E+00  0.5144033E-03
    1       -4.725170   1.000000
    2       -1.409739   1.000000
    3        1.789758   1.000000
    4        1.789758   1.000000
    5        5.116307   0.000000
    6        5.184051   0.000000
    7       11.687971   0.000000
    8       11.687971   0.000000
 