 running on   48 total cores
 distrk:  each k-point on   12 cores,    4 groups
 distr:  one band on   12 cores,    1 groups
 using from now: INCAR     
 vasp.5.4.4.18Apr17-6-g9f103f2a35 (build Nov 04 2020 14:40:39) complex          
  
 POSCAR found type information on POSCAR  Al Sb
 POSCAR found :  2 types and       2 ions
 scaLAPACK will be used

 ----------------------------------------------------------------------------- 
|                                                                             |
|           W    W    AA    RRRRR   N    N  II  N    N   GGGG   !!!           |
|           W    W   A  A   R    R  NN   N  II  NN   N  G    G  !!!           |
|           W    W  A    A  R    R  N N  N  II  N N  N  G       !!!           |
|           W WW W  AAAAAA  RRRRR   N  N N  II  N  N N  G  GGG   !            |
|           WW  WW  A    A  R   R   N   NN  II  N   NN  G    G                |
|           W    W  A    A  R    R  N    N  II  N    N   GGGG   !!!           |
|                                                                             |
|      You have enabled k-point parallelism (KPAR>1).                         |
|      This developmental code was originally  written by Paul Kent at ORNL,  |
|      and carefully double checked in Vienna.                                |
|      GW as well as linear response parallelism added by Martijn Marsman     |
|      and Georg Kresse.                                                      |
|      Carefully verify results versus KPAR=1.                                |
|      Report problems to Paul Kent and Vienna.                               |
|                                                                             |
 ----------------------------------------------------------------------------- 

 LDA part: xc-table for Pade appr. of Perdew
 POSCAR found type information on POSCAR  Al Sb
 POSCAR found :  2 types and       2 ions
 generate k-points for:   18   18   18
 POSCAR, INCAR and KPOINTS ok, starting setup
 FFT: planning ...
 WAVECAR not read
 entering main loop
       N       E                     dE             d eps       ncg     rms          rms(c)
DAV:   1     0.126126976985E+02    0.12613E+02   -0.27382E+03  3120   0.725E+02
DAV:   2    -0.772306158954E+01   -0.20336E+02   -0.20040E+02  4392   0.806E+01
DAV:   3    -0.820999358972E+01   -0.48693E+00   -0.48628E+00  4120   0.139E+01
DAV:   4    -0.821340060935E+01   -0.34070E-02   -0.34070E-02  4688   0.141E+00
DAV:   5    -0.821341743545E+01   -0.16826E-04   -0.16826E-04  4200   0.808E-02    0.197E+00
RMM:   6    -0.815997516300E+01    0.53442E-01   -0.53202E-02  3121   0.127E+00    0.119E+00
RMM:   7    -0.814631587039E+01    0.13659E-01   -0.52840E-02  3177   0.139E+00    0.249E-01
RMM:   8    -0.814693461947E+01   -0.61875E-03   -0.40480E-03  3192   0.453E-01    0.472E-02
RMM:   9    -0.814736412553E+01   -0.42951E-03   -0.65114E-04  3285   0.177E-01    0.141E-02
RMM:  10    -0.814737966836E+01   -0.15543E-04   -0.55954E-05  3589   0.559E-02    0.404E-03
RMM:  11    -0.814738321056E+01   -0.35422E-05   -0.94111E-06  3523   0.241E-02    0.156E-03
RMM:  12    -0.814738363171E+01   -0.42114E-06   -0.55116E-07  2686   0.698E-03
   1 F= -.81473836E+01 E0= -.81473836E+01  d E =0.000000E+00
