   2   2   0   0
  0.3267431E+02  0.4521166E-09  0.4521166E-09  0.4521166E-09  0.0000000E+00
  1.000000000000000E-004
  CAR 
 unknown system                          
     12.60253929     -7.25565502  301      3.74082008      1.00000000
     -7.256  0.0000E+00  0.0000E+00
     -7.189  0.0000E+00  0.0000E+00
     -7.123  0.0000E+00  0.0000E+00
     -7.057  0.0000E+00  0.0000E+00
     -6.991  0.0000E+00  0.0000E+00
     -6.925  0.0000E+00  0.0000E+00
     -6.858  0.0000E+00  0.0000E+00
     -6.792  0.0000E+00  0.0000E+00
     -6.726  0.0000E+00  0.0000E+00
     -6.660  0.0000E+00  0.0000E+00
     -6.594  0.0000E+00  0.0000E+00
     -6.528  0.0000E+00  0.0000E+00
     -6.461  0.0000E+00  0.0000E+00
     -6.395  0.0000E+00  0.0000E+00
     -6.329  0.1199E+00  0.9623E-03
     -6.263  0.2100E+00  0.1158E-01
     -6.197  0.2952E+00  0.2827E-01
     -6.130  0.3549E+00  0.4969E-01
     -6.064  0.4175E+00  0.7545E-01
     -5.998  0.4751E+00  0.1050E+00
     -5.932  0.5346E+00  0.1385E+00
     -5.866  0.5914E+00  0.1757E+00
     -5.799  0.6536E+00  0.2168E+00
     -5.733  0.7166E+00  0.2622E+00
     -5.667  0.7858E+00  0.3119E+00
     -5.601  0.8621E+00  0.3663E+00
     -5.535  0.9500E+00  0.4263E+00
     -5.468  0.1049E+01  0.4924E+00
     -5.402  0.1174E+01  0.5657E+00
     -5.336  0.1337E+01  0.6486E+00
     -5.270  0.1559E+01  0.7440E+00
     -5.204  0.2323E+01  0.8627E+00
     -5.137  0.2127E+01  0.1006E+01
     -5.071  0.2154E+01  0.1148E+01
     -5.005  0.2143E+01  0.1290E+01
     -4.939  0.2199E+01  0.1434E+01
     -4.873  0.2251E+01  0.1581E+01
     -4.806  0.2417E+01  0.1736E+01
     -4.740  0.2899E+01  0.1912E+01
     -4.674  0.0000E+00  0.2000E+01
     -4.608  0.0000E+00  0.2000E+01
     -4.542  0.0000E+00  0.2000E+01
     -4.476  0.0000E+00  0.2000E+01
     -4.409  0.0000E+00  0.2000E+01
     -4.343  0.0000E+00  0.2000E+01
     -4.277  0.0000E+00  0.2000E+01
     -4.211  0.0000E+00  0.2000E+01
     -4.145  0.0000E+00  0.2000E+01
     -4.078  0.0000E+00  0.2000E+01
     -4.012  0.0000E+00  0.2000E+01
     -3.946  0.0000E+00  0.2000E+01
     -3.880  0.0000E+00  0.2000E+01
     -3.814  0.0000E+00  0.2000E+01
     -3.747  0.0000E+00  0.2000E+01
     -3.681  0.0000E+00  0.2000E+01
     -3.615  0.0000E+00  0.2000E+01
     -3.549  0.0000E+00  0.2000E+01
     -3.483  0.0000E+00  0.2000E+01
     -3.416  0.0000E+00  0.2000E+01
     -3.350  0.0000E+00  0.2000E+01
     -3.284  0.0000E+00  0.2000E+01
     -3.218  0.0000E+00  0.2000E+01
     -3.152  0.0000E+00  0.2000E+01
     -3.085  0.0000E+00  0.2000E+01
     -3.019  0.0000E+00  0.2000E+01
     -2.953  0.0000E+00  0.2000E+01
     -2.887  0.0000E+00  0.2000E+01
     -2.821  0.0000E+00  0.2000E+01
     -2.754  0.0000E+00  0.2000E+01
     -2.688  0.0000E+00  0.2000E+01
     -2.622  0.0000E+00  0.2000E+01
     -2.556  0.0000E+00  0.2000E+01
     -2.490  0.0000E+00  0.2000E+01
     -2.423  0.0000E+00  0.2000E+01
     -2.357  0.0000E+00  0.2000E+01
     -2.291  0.0000E+00  0.2000E+01
     -2.225  0.0000E+00  0.2000E+01
     -2.159  0.0000E+00  0.2000E+01
     -2.093  0.0000E+00  0.2000E+01
     -2.026  0.0000E+00  0.2000E+01
     -1.960  0.0000E+00  0.2000E+01
     -1.894  0.0000E+00  0.2000E+01
     -1.828  0.0000E+00  0.2000E+01
     -1.762  0.0000E+00  0.2000E+01
     -1.695  0.0000E+00  0.2000E+01
     -1.629  0.0000E+00  0.2000E+01
     -1.563  0.0000E+00  0.2000E+01
     -1.497  0.0000E+00  0.2000E+01
     -1.431  0.0000E+00  0.2000E+01
     -1.364  0.3668E+00  0.2007E+01
     -1.298  0.8912E+00  0.2048E+01
     -1.232  0.2136E+01  0.2136E+01
     -1.166  0.3444E+01  0.2318E+01
     -1.100  0.3491E+01  0.2613E+01
     -1.033  0.2159E+01  0.2791E+01
     -0.967  0.1638E+01  0.2914E+01
     -0.901  0.1348E+01  0.3012E+01
     -0.835  0.1127E+01  0.3094E+01
     -0.769  0.9914E+00  0.3164E+01
     -0.702  0.8884E+00  0.3226E+01
     -0.636  0.7913E+00  0.3281E+01
     -0.570  0.7038E+00  0.3331E+01
     -0.504  0.6532E+00  0.3376E+01
     -0.438  0.6047E+00  0.3417E+01
     -0.371  0.5562E+00  0.3456E+01
     -0.305  0.5106E+00  0.3491E+01
     -0.239  0.4697E+00  0.3523E+01
     -0.173  0.4432E+00  0.3553E+01
     -0.107  0.4166E+00  0.3582E+01
     -0.041  0.3909E+00  0.3609E+01
      0.026  0.3627E+00  0.3634E+01
      0.092  0.3358E+00  0.3657E+01
      0.158  0.3162E+00  0.3678E+01
      0.224  0.3010E+00  0.3699E+01
      0.290  0.2856E+00  0.3718E+01
      0.357  0.2689E+00  0.3736E+01
      0.423  0.2524E+00  0.3754E+01
      0.489  0.2354E+00  0.3770E+01
      0.555  0.2187E+00  0.3785E+01
      0.621  0.2091E+00  0.3799E+01
      0.688  0.1991E+00  0.3812E+01
      0.754  0.1892E+00  0.3825E+01
      0.820  0.1793E+00  0.3837E+01
      0.886  0.7957E+00  0.3868E+01
      0.952  0.1293E+01  0.3935E+01
      1.019  0.1940E+01  0.4049E+01
      1.085  0.1793E+01  0.4174E+01
      1.151  0.1572E+01  0.4282E+01
      1.217  0.1502E+01  0.4384E+01
      1.283  0.1406E+01  0.4481E+01
      1.350  0.1359E+01  0.4572E+01
      1.416  0.1374E+01  0.4662E+01
      1.482  0.1481E+01  0.4755E+01
      1.548  0.1543E+01  0.4856E+01
      1.614  0.1570E+01  0.4957E+01
      1.681  0.1674E+01  0.5066E+01
      1.747  0.1871E+01  0.5185E+01
      1.813  0.2283E+01  0.5323E+01
      1.879  0.2224E+01  0.5470E+01
      1.945  0.2141E+01  0.5614E+01
      2.012  0.2118E+01  0.5755E+01
      2.078  0.2095E+01  0.5894E+01
      2.144  0.2046E+01  0.6031E+01
      2.210  0.2008E+01  0.6165E+01
      2.276  0.2010E+01  0.6298E+01
      2.342  0.1967E+01  0.6430E+01
      2.409  0.1936E+01  0.6559E+01
      2.475  0.1914E+01  0.6687E+01
      2.541  0.1869E+01  0.6812E+01
      2.607  0.1857E+01  0.6935E+01
      2.673  0.1851E+01  0.7057E+01
      2.740  0.1832E+01  0.7180E+01
      2.806  0.1808E+01  0.7300E+01
      2.872  0.1797E+01  0.7419E+01
      2.938  0.1394E+01  0.7525E+01
      3.004  0.1169E+01  0.7609E+01
      3.071  0.9858E+00  0.7680E+01
      3.137  0.8588E+00  0.7741E+01
      3.203  0.7476E+00  0.7795E+01
      3.269  0.6559E+00  0.7841E+01
      3.335  0.5712E+00  0.7882E+01
      3.402  0.4798E+00  0.7916E+01
      3.468  0.4068E+00  0.7946E+01
      3.534  0.3250E+00  0.7970E+01
      3.600  0.2118E+00  0.7988E+01
      3.666  0.1327E+00  0.7999E+01
      3.733  0.0000E+00  0.8000E+01
      3.799  0.0000E+00  0.8000E+01
      3.865  0.0000E+00  0.8000E+01
      3.931  0.0000E+00  0.8000E+01
      3.997  0.0000E+00  0.8000E+01
      4.064  0.0000E+00  0.8000E+01
      4.130  0.0000E+00  0.8000E+01
      4.196  0.0000E+00  0.8000E+01
      4.262  0.0000E+00  0.8000E+01
      4.328  0.0000E+00  0.8000E+01
      4.394  0.0000E+00  0.8000E+01
      4.461  0.8411E-04  0.8000E+01
      4.527  0.5792E-03  0.8000E+01
      4.593  0.1518E-02  0.8000E+01
      4.659  0.2900E-02  0.8000E+01
      4.725  0.4727E-02  0.8000E+01
      4.792  0.2703E-01  0.8001E+01
      4.858  0.7283E-01  0.8005E+01
      4.924  0.1320E+00  0.8011E+01
      4.990  0.1793E+00  0.8022E+01
      5.056  0.2149E+00  0.8035E+01
      5.123  0.3931E+00  0.8054E+01
      5.189  0.5935E+00  0.8087E+01
      5.255  0.7647E+00  0.8132E+01
      5.321  0.9673E+00  0.8189E+01
      5.387  0.1134E+01  0.8259E+01
      5.454  0.1247E+01  0.8338E+01
      5.520  0.1388E+01  0.8425E+01
      5.586  0.1547E+01  0.8523E+01
      5.652  0.1741E+01  0.8631E+01
      5.718  0.2005E+01  0.8754E+01
      5.785  0.2587E+01  0.8910E+01
      5.851  0.2855E+01  0.9091E+01
      5.917  0.2280E+01  0.9264E+01
      5.983  0.2004E+01  0.9402E+01
      6.049  0.1802E+01  0.9528E+01
      6.116  0.1554E+01  0.9639E+01
      6.182  0.1309E+01  0.9735E+01
      6.248  0.1185E+01  0.9817E+01
      6.314  0.1043E+01  0.9891E+01
      6.380  0.9349E+00  0.9956E+01
      6.446  0.1021E+01  0.1002E+02
      6.513  0.1133E+01  0.1009E+02
      6.579  0.1314E+01  0.1017E+02
      6.645  0.1343E+01  0.1027E+02
      6.711  0.1144E+01  0.1035E+02
      6.777  0.1244E+01  0.1043E+02
      6.844  0.1169E+01  0.1051E+02
      6.910  0.1164E+01  0.1058E+02
      6.976  0.1168E+01  0.1066E+02
      7.042  0.1180E+01  0.1074E+02
      7.108  0.1349E+01  0.1082E+02
      7.175  0.2001E+01  0.1092E+02
      7.241  0.3182E+01  0.1110E+02
      7.307  0.2990E+01  0.1130E+02
      7.373  0.2470E+01  0.1149E+02
      7.439  0.1790E+01  0.1163E+02
      7.506  0.1738E+01  0.1174E+02
      7.572  0.1675E+01  0.1186E+02
      7.638  0.1585E+01  0.1197E+02
      7.704  0.1566E+01  0.1207E+02
      7.770  0.1346E+01  0.1216E+02
      7.837  0.1292E+01  0.1225E+02
      7.903  0.1429E+01  0.1234E+02
      7.969  0.1599E+01  0.1244E+02
      8.035  0.1801E+01  0.1255E+02
      8.101  0.2080E+01  0.1268E+02
      8.168  0.2237E+01  0.1282E+02
      8.234  0.2099E+01  0.1297E+02
      8.300  0.2064E+01  0.1310E+02
      8.366  0.1880E+01  0.1323E+02
      8.432  0.1861E+01  0.1336E+02
      8.499  0.1843E+01  0.1348E+02
      8.565  0.1645E+01  0.1359E+02
      8.631  0.1569E+01  0.1370E+02
      8.697  0.1438E+01  0.1380E+02
      8.763  0.1354E+01  0.1389E+02
      8.829  0.1447E+01  0.1398E+02
      8.896  0.1443E+01  0.1408E+02
      8.962  0.1610E+01  0.1418E+02
      9.028  0.1089E+01  0.1426E+02
      9.094  0.1039E+01  0.1433E+02
      9.160  0.1049E+01  0.1440E+02
      9.227  0.1132E+01  0.1447E+02
      9.293  0.1277E+01  0.1455E+02
      9.359  0.1311E+01  0.1464E+02
      9.425  0.1485E+01  0.1473E+02
      9.491  0.1630E+01  0.1484E+02
      9.558  0.1473E+01  0.1494E+02
      9.624  0.1365E+01  0.1503E+02
      9.690  0.1216E+01  0.1512E+02
      9.756  0.1093E+01  0.1519E+02
      9.822  0.9998E+00  0.1526E+02
      9.889  0.9439E+00  0.1533E+02
      9.955  0.9051E+00  0.1539E+02
     10.021  0.8733E+00  0.1545E+02
     10.087  0.8313E+00  0.1550E+02
     10.153  0.7738E+00  0.1556E+02
     10.220  0.8003E+00  0.1561E+02
     10.286  0.9866E+00  0.1567E+02
     10.352  0.6801E+00  0.1573E+02
     10.418  0.4569E+00  0.1576E+02
     10.484  0.3706E+00  0.1579E+02
     10.551  0.3429E+00  0.1581E+02
     10.617  0.3191E+00  0.1584E+02
     10.683  0.2916E+00  0.1586E+02
     10.749  0.2761E+00  0.1587E+02
     10.815  0.2667E+00  0.1589E+02
     10.881  0.2390E+00  0.1591E+02
     10.948  0.2091E+00  0.1592E+02
     11.014  0.1817E+00  0.1594E+02
     11.080  0.1607E+00  0.1595E+02
     11.146  0.1424E+00  0.1596E+02
     11.212  0.1300E+00  0.1597E+02
     11.279  0.1147E+00  0.1597E+02
     11.345  0.1049E+00  0.1598E+02
     11.411  0.1036E+00  0.1599E+02
     11.477  0.6709E-01  0.1600E+02
     11.543  0.3313E-01  0.1600E+02
     11.610  0.1103E-01  0.1600E+02
     11.676  0.7841E-03  0.1600E+02
     11.742  0.0000E+00  0.1600E+02
     11.808  0.0000E+00  0.1600E+02
     11.874  0.0000E+00  0.1600E+02
     11.941  0.0000E+00  0.1600E+02
     12.007  0.0000E+00  0.1600E+02
     12.073  0.0000E+00  0.1600E+02
     12.139  0.0000E+00  0.1600E+02
     12.205  0.0000E+00  0.1600E+02
     12.272  0.0000E+00  0.1600E+02
     12.338  0.0000E+00  0.1600E+02
     12.404  0.0000E+00  0.1600E+02
     12.470  0.0000E+00  0.1600E+02
     12.536  0.0000E+00  0.1600E+02
     12.603  0.0000E+00  0.1600E+02
