    2    2    1    1
  0.3267431E+02  0.4521166E-09  0.4521166E-09  0.4521166E-09  0.0000000E+00
  1.000000000000000E-004
  CAR 
 unknown system                          
      8    195      8
 
  0.0000000E+00  0.0000000E+00  0.0000000E+00  0.1714678E-03
    1       -6.353010   1.000000
    2        3.703046   1.000000
    3        3.703046   1.000000
    4        3.703047   1.000000
    5        4.419922   0.000000
    6        6.723416   0.000000
    7        6.723416   0.000000
    8        6.723416   0.000000
 
  0.5555556E-01  0.0000000E+00  0.0000000E+00  0.1371742E-02
    1       -6.328404   1.000000
    2        3.201740   1.000000
    3        3.667444   1.000000
    4        3.667444   1.000000
    5        4.810429   0.000000
    6        6.779731   0.000000
    7        6.779731   0.000000
    8        6.780077   0.000000
 
  0.1111111E+00  0.0000000E+00  0.0000000E+00  0.1371742E-02
    1       -6.255459   1.000000
    2        2.436713   1.000000
    3        3.571830   1.000000
    4        3.571830   1.000000
    5        5.176085   0.000000
    6        6.929431   0.000000
    7        6.929431   0.000000
    8        7.047748   0.000000
 
  0.1666667E+00  0.0000000E+00  0.0000000E+00  0.1371742E-02
    1       -6.137173   1.000000
    2        1.661616   1.000000
    3        3.441197   1.000000
    4        3.441197   1.000000
    5        5.250751   0.000000
    6        7.122776   0.000000
    7        7.122776   0.000000
    8        7.601485   0.000000
 
  0.2222222E+00  0.0000000E+00  0.0000000E+00  0.1371742E-02
    1       -5.979217   1.000000
    2        0.921576   1.000000
    3        3.300513   1.000000
    4        3.300513   1.000000
    5        5.163606   0.000000
    6        7.297230   0.000000
    7        7.297230   0.000000
    8        8.322571   0.000000
 
  0.2777778E+00  0.0000000E+00  0.0000000E+00  0.1371742E-02
    1       -5.791401   1.000000
    2        0.243327   1.000000
    3        3.168309   1.000000
    4        3.168309   1.000000
    5        5.032332   0.000000
    6        7.404079   0.000000
    7        7.404079   0.000000
    8        9.100545   0.000000
 
  0.3333333E+00  0.0000000E+00  0.0000000E+00  0.1371742E-02
    1       -5.590032   1.000000
    2       -0.347059   1.000000
    3        3.056634   1.000000
    4        3.056634   1.000000
    5        4.907700   0.000000
    6        7.436525   0.000000
    7        7.436525   0.000000
    8        9.832004   0.000000
 
  0.3888889E+00  0.0000000E+00  0.0000000E+00  0.1371742E-02
    1       -5.400945   1.000000
    2       -0.817680   1.000000
    3        2.972822   1.000000
    4        2.972823   1.000000
    5        4.810480   0.000000
    6        7.424155   0.000000
    7        7.424155   0.000000
    8       10.210142   0.000000
 
  0.4444444E+00  0.0000000E+00  0.0000000E+00  0.1371742E-02
    1       -5.260742   1.000000
    2       -1.128169   1.000000
    3        2.921107   1.000000
    4        2.921107   1.000000
    5        4.749660   0.000000
    6        7.401887   0.000000
    7        7.401887   0.000000
    8       10.234420   0.000000
 
  0.5000000E+00  0.0000000E+00  0.0000000E+00  0.6858711E-03
    1       -5.208047   1.000000
    2       -1.237845   1.000000
    3        2.903650   1.000000
    4        2.903650   1.000000
    5        4.729032   0.000000
    6        7.392049   0.000000
    7        7.392049   0.000000
    8       10.222082   0.000000
 
  0.5555556E-01  0.5555556E-01  0.0000000E+00  0.1028807E-02
    1       -6.320173   1.000000
    2        3.164105   1.000000
    3        3.593329   1.000000
    4        3.593329   1.000000
    5        4.952904   0.000000
    6        6.617105   0.000000
    7        6.882374   0.000000
    8        6.882374   0.000000
 
  0.1111111E+00  0.5555556E-01  0.0000000E+00  0.4115226E-02
    1       -6.263271   1.000000
    2        2.583948   1.000000
    3        3.469046   1.000000
    4        3.522087   1.000000
    5        5.315476   0.000000
    6        6.593380   0.000000
    7        7.071640   0.000000
    8        7.116303   0.000000
 
  0.1666667E+00  0.5555556E-01  0.0000000E+00  0.4115226E-02
    1       -6.159951   1.000000
    2        1.860189   1.000000
    3        3.322310   1.000000
    4        3.420403   1.000000
    5        5.472286   0.000000
    6        6.730401   0.000000
    7        7.296973   0.000000
    8        7.546321   0.000000
 
  0.2222222E+00  0.5555556E-01  0.0000000E+00  0.4115226E-02
    1       -6.014861   1.000000
    2        1.132830   1.000000
    3        3.176705   1.000000
    4        3.278605   1.000000
    5        5.427582   0.000000
    6        6.952013   0.000000
    7        7.496892   0.000000
    8        8.119914   0.000000
 
  0.2777778E+00  0.5555556E-01  0.0000000E+00  0.4115226E-02
    1       -5.836256   1.000000
    2        0.447586   1.000000
    3        3.048503   1.000000
    4        3.122908   1.000000
    5        5.309063   0.000000
    6        7.142604   0.000000
    7        7.618613   0.000000
    8        8.736283   0.000000
 
  0.3333333E+00  0.5555556E-01  0.0000000E+00  0.4115226E-02
    1       -5.637941   1.000000
    2       -0.164735   1.000000
    3        2.947809   1.000000
    4        2.974337   1.000000
    5        5.183737   0.000000
    6        7.249933   0.000000
    7        7.647854   0.000000
    8        9.343463   0.000000
 
  0.3888889E+00  0.5555556E-01  0.0000000E+00  0.4115226E-02
    1       -5.442190   1.000000
    2       -0.672373   1.000000
    3        2.846468   1.000000
    4        2.880441   1.000000
    5        5.078770   0.000000
    6        7.290181   0.000000
    7        7.612699   0.000000
    8        9.898273   0.000000
 
  0.4444444E+00  0.5555556E-01  0.0000000E+00  0.4115226E-02
    1       -5.282122   1.000000
    2       -1.036600   1.000000
    3        2.747702   1.000000
    4        2.849275   1.000000
    5        5.005920   0.000000
    6        7.305734   0.000000
    7        7.553011   0.000000
    8       10.229462   0.000000
 
  0.5000000E+00  0.5555556E-01  0.0000000E+00  0.4115226E-02
    1       -5.197322   1.000000
    2       -1.214698   1.000000
    3        2.683237   1.000000
    4        2.855107   1.000000
    5        4.970484   0.000000
    6        7.328305   0.000000
    7        7.497449   0.000000
    8       10.311081   0.000000
 
 -0.4444444E+00  0.5555556E-01  0.0000000E+00  0.4115226E-02
    1       -5.215108   1.000000
    2       -1.178032   1.000000
    3        2.656260   1.000000
    4        2.897094   1.000000
    5        4.974494   0.000000
    6        7.371455   0.000000
    7        7.458959   0.000000
    8       10.319148   0.000000
 
 -0.3888889E+00  0.5555556E-01  0.0000000E+00  0.4115226E-02
    1       -5.329321   1.000000
    2       -0.933071   1.000000
    3        2.668507   1.000000
    4        2.972875   1.000000
    5        5.017716   0.000000
    6        7.432400   0.000000
    7        7.435764   0.000000
    8       10.238283   0.000000
 
 -0.3333333E+00  0.5555556E-01  0.0000000E+00  0.4115226E-02
    1       -5.505654   1.000000
    2       -0.516110   1.000000
    3        2.720447   1.000000
    4        3.078334   1.000000
    5        5.097389   0.000000
    6        7.411308   0.000000
    7        7.491182   0.000000
    8        9.851459   0.000000
 
 -0.2777778E+00  0.5555556E-01  0.0000000E+00  0.4115226E-02
    1       -5.705387   1.000000
    2        0.030021   1.000000
    3        2.811138   1.000000
    4        3.207008   1.000000
    5        5.206452   0.000000
    6        7.356023   0.000000
    7        7.506457   0.000000
    8        9.218187   0.000000
 
 -0.2222222E+00  0.5555556E-01  0.0000000E+00  0.4115226E-02
    1       -5.899092   1.000000
    2        0.668654   1.000000
    3        2.937866   1.000000
    4        3.348900   1.000000
    5        5.328447   0.000000
    6        7.242449   0.000000
    7        7.419267   0.000000
    8        8.560620   0.000000
 
 -0.1666667E+00  0.5555556E-01  0.0000000E+00  0.4115226E-02
    1       -6.067662   1.000000
    2        1.367765   1.000000
    3        3.095649   1.000000
    4        3.488781   1.000000
    5        5.423297   0.000000
    6        7.075857   0.000000
    7        7.195923   0.000000
    8        7.962842   0.000000
 
 -0.1111111E+00  0.5555556E-01  0.0000000E+00  0.4115226E-02
    1       -6.199487   1.000000
    2        2.089805   1.000000
    3        3.277590   1.000000
    4        3.604874   1.000000
    5        5.396473   0.000000
    6        6.904209   0.000000
    7        6.917718   0.000000
    8        7.462027   0.000000
 
 -0.5555556E-01  0.5555556E-01  0.0000000E+00  0.2057613E-02
    1       -6.287643   1.000000
    2        2.761966   1.000000
    3        3.480029   1.000000
    4        3.671133   1.000000
    5        5.135257   0.000000
    6        6.768820   0.000000
    7        6.790300   0.000000
    8        7.065630   0.000000
 
  0.1111111E+00  0.1111111E+00  0.0000000E+00  0.1028807E-02
    1       -6.222620   1.000000
    2        2.396116   1.000000
    3        3.322610   1.000000
    4        3.322610   1.000000
    5        5.643708   0.000000
    6        6.397379   0.000000
    7        7.299582   0.000000
    8        7.299582   0.000000
 
  0.1666667E+00  0.1111111E+00  0.0000000E+00  0.4115226E-02
    1       -6.135063   1.000000
    2        1.881563   1.000000
    3        3.161485   1.000000
    4        3.188062   1.000000
    5        5.835878   0.000000
    6        6.400154   0.000000
    7        7.563668   0.000000
    8        7.637399   0.000000
 
  0.2222222E+00  0.1111111E+00  0.0000000E+00  0.4115226E-02
    1       -6.004421   1.000000
    2        1.247079   1.000000
    3        3.008401   1.000000
    4        3.036466   1.000000
    5        5.856695   0.000000
    6        6.557058   0.000000
    7        7.803922   0.000000
    8        8.036970   0.000000
 
  0.2777778E+00  0.1111111E+00  0.0000000E+00  0.4115226E-02
    1       -5.837624   1.000000
    2        0.602961   1.000000
    3        2.854034   1.000000
    4        2.878557   1.000000
    5        5.777160   0.000000
    6        6.804287   0.000000
    7        7.961935   0.000000
    8        8.341704   0.000000
 
  0.3333333E+00  0.1111111E+00  0.0000000E+00  0.4115226E-02
    1       -5.646375   1.000000
    2        0.001432   1.000000
    3        2.665359   1.000000
    4        2.781309   1.000000
    5        5.665771   0.000000
    6        7.025255   0.000000
    7        8.010824   0.000000
    8        8.637726   0.000000
 
  0.3888889E+00  0.1111111E+00  0.0000000E+00  0.4115226E-02
    1       -5.449708   1.000000
    2       -0.518783   1.000000
    3        2.491763   1.000000
    4        2.721935   1.000000
    5        5.560826   0.000000
    6        7.147504   0.000000
    7        7.972139   0.000000
    8        9.073111   0.000000
 
  0.4444444E+00  0.1111111E+00  0.0000000E+00  0.4115226E-02
    1       -5.276769   1.000000
    2       -0.917799   1.000000
    3        2.346796   1.000000
    4        2.702852   1.000000
    5        5.480595   0.000000
    6        7.201362   0.000000
    7        7.889429   0.000000
    8        9.633155   0.000000
 
  0.5000000E+00  0.1111111E+00  0.0000000E+00  0.4115226E-02
    1       -5.165435   1.000000
    2       -1.151747   1.000000
    3        2.238831   1.000000
    4        2.724335   1.000000
    5        5.433707   0.000000
    6        7.242170   0.000000
    7        7.798026   0.000000
    8       10.180269   0.000000
 
 -0.4444444E+00  0.1111111E+00  0.0000000E+00  0.4115226E-02
    1       -5.148872   1.000000
    2       -1.184788   1.000000
    3        2.173363   1.000000
    4        2.784794   1.000000
    5        5.423716   0.000000
    6        7.300055   0.000000
    7        7.716528   0.000000
    8       10.454772   0.000000
 
 -0.3888889E+00  0.1111111E+00  0.0000000E+00  0.4115226E-02
    1       -5.232680   1.000000
    2       -1.011197   1.000000
    3        2.154407   1.000000
    4        2.880762   1.000000
    5        5.450794   0.000000
    6        7.381753   0.000000
    7        7.647729   0.000000
    8       10.278888   0.000000
 
 -0.3333333E+00  0.1111111E+00  0.0000000E+00  0.4115226E-02
    1       -5.390210   1.000000
    2       -0.660386   1.000000
    3        2.185312   1.000000
    4        3.006535   1.000000
    5        5.511869   0.000000
    6        7.473445   0.000000
    7        7.579266   0.000000
    8        9.737633   0.000000
 
 -0.2777778E+00  0.1111111E+00  0.0000000E+00  0.4115226E-02
    1       -5.582911   1.000000
    2       -0.177438   1.000000
    3        2.269576   1.000000
    4        3.153383   1.000000
    5        5.598879   0.000000
    6        7.485619   0.000000
    7        7.530291   0.000000
    8        9.123633   0.000000
 
 -0.2222222E+00  0.1111111E+00  0.0000000E+00  0.4115226E-02
    1       -5.778309   1.000000
    2        0.392357   1.000000
    3        2.412150   1.000000
    4        3.308270   1.000000
    5        5.692713   0.000000
    6        7.343327   0.000000
    7        7.458351   0.000000
    8        8.621178   0.000000
 
 -0.1666667E+00  0.1111111E+00  0.0000000E+00  0.4115226E-02
    1       -5.954447   1.000000
    2        1.002344   1.000000
    3        2.621860   1.000000
    4        3.452249   1.000000
    5        5.745971   0.000000
    6        7.162351   0.000000
    7        7.209273   0.000000
    8        8.271877   0.000000
 
 -0.1111111E+00  0.1111111E+00  0.0000000E+00  0.2057613E-02
    1       -6.097572   1.000000
    2        1.593022   1.000000
    3        2.912611   1.000000
    4        3.560013   1.000000
    5        5.660455   0.000000
    6        6.971816   0.000000
    7        6.994994   0.000000
    8        7.913996   0.000000
 
  0.1666667E+00  0.1666667E+00  0.0000000E+00  0.1028807E-02
    1       -6.063472   1.000000
    2        1.635041   1.000000
    3        2.988794   1.000000
    4        2.988795   1.000000
    5        5.838653   0.000000
    6        6.478971   0.000000
    7        7.873970   0.000000
    8        7.873970   0.000000
 
  0.2222222E+00  0.1666667E+00  0.0000000E+00  0.4115226E-02
    1       -5.948263   1.000000
    2        1.179591   1.000000
    3        2.816278   1.000000
    4        2.827112   1.000000
    5        5.806249   0.000000
    6        6.576623   0.000000
    7        8.167162   0.000000
    8        8.169399   0.000000
 
  0.2777778E+00  0.1666667E+00  0.0000000E+00  0.4115226E-02
    1       -5.795261   1.000000
    2        0.640454   1.000000
    3        2.609002   1.000000
    4        2.691591   1.000000
    5        5.854524   0.000000
    6        6.671495   0.000000
    7        8.251824   0.000000
    8        8.386042   0.000000
 
  0.3333333E+00  0.1666667E+00  0.0000000E+00  0.4115226E-02
    1       -5.614484   1.000000
    2        0.097238   1.000000
    3        2.377062   1.000000
    4        2.591603   1.000000
    5        5.861472   0.000000
    6        6.900050   0.000000
    7        8.240393   0.000000
    8        8.480375   0.000000
 
  0.3888889E+00  0.1666667E+00  0.0000000E+00  0.4115226E-02
    1       -5.422200   1.000000
    2       -0.398810   1.000000
    3        2.150981   1.000000
    4        2.532502   1.000000
    5        5.813872   0.000000
    6        7.178484   0.000000
    7        8.359747   0.000000
    8        8.460758   0.000000
 
  0.4444444E+00  0.1666667E+00  0.0000000E+00  0.4115226E-02
    1       -5.243703   1.000000
    2       -0.803213   1.000000
    3        1.952888   1.000000
    4        2.516787   1.000000
    5        5.761822   0.000000
    6        7.337025   0.000000
    7        8.372222   0.000000
    8        8.757583   0.000000
 
  0.5000000E+00  0.1666667E+00  0.0000000E+00  0.4115226E-02
    1       -5.113527   1.000000
    2       -1.070496   1.000000
    3        1.796104   1.000000
    4        2.544762   1.000000
    5        5.733500   0.000000
    6        7.394823   0.000000
    7        8.257700   0.000000
    8        9.375246   0.000000
 
 -0.4444444E+00  0.1666667E+00  0.0000000E+00  0.4115226E-02
    1       -5.066814   1.000000
    2       -1.160310   1.000000
    3        1.689204   1.000000
    4        2.614716   1.000000
    5        5.738808   0.000000
    6        7.437350   0.000000
    7        8.141907   0.000000
    8       10.055598   0.000000
 
 -0.3888889E+00  0.1666667E+00  0.0000000E+00  0.4115226E-02
    1       -5.118641   1.000000
    2       -1.056799   1.000000
    3        1.639046   1.000000
    4        2.722821   1.000000
    5        5.778222   0.000000
    6        7.500925   0.000000
    7        8.031164   0.000000
    8       10.250611   0.000000
 
 -0.3333333E+00  0.1666667E+00  0.0000000E+00  0.4115226E-02
    1       -5.252158   1.000000
    2       -0.781297   1.000000
    3        1.653004   1.000000
    4        2.862611   1.000000
    5        5.845665   0.000000
    6        7.588330   0.000000
    7        7.914627   0.000000
    8        9.627297   0.000000
 
 -0.2777778E+00  0.1666667E+00  0.0000000E+00  0.4115226E-02
    1       -5.431848   1.000000
    2       -0.380613   1.000000
    3        1.741362   1.000000
    4        3.023999   1.000000
    5        5.926662   0.000000
    6        7.666512   0.000000
    7        7.767619   0.000000
    8        8.972179   0.000000
 
 -0.2222222E+00  0.1666667E+00  0.0000000E+00  0.4115226E-02
    1       -5.623743   1.000000
    2        0.089088   1.000000
    3        1.920213   1.000000
    4        3.191777   1.000000
    5        5.988683   0.000000
    6        7.571580   0.000000
    7        7.617971   0.000000
    8        8.523618   0.000000
 
 -0.1666667E+00  0.1666667E+00  0.0000000E+00  0.2057613E-02
    1       -5.803217   1.000000
    2        0.567904   1.000000
    3        2.211081   1.000000
    4        3.343975   1.000000
    5        5.958469   0.000000
    6        7.348868   0.000000
    7        7.374895   0.000000
    8        8.385201   0.000000
 
  0.2222222E+00  0.2222222E+00  0.0000000E+00  0.1028807E-02
    1       -5.848790   1.000000
    2        0.906011   1.000000
    3        2.656742   1.000000
    4        2.656742   1.000000
    5        5.592073   0.000000
    6        6.627550   0.000000
    7        8.536359   0.000000
    8        8.536359   0.000000
 
  0.2777778E+00  0.2222222E+00  0.0000000E+00  0.4115226E-02
    1       -5.710995   1.000000
    2        0.504218   1.000000
    3        2.469086   1.000000
    4        2.513216   1.000000
    5        5.558399   0.000000
    6        6.580430   0.000000
    7        8.684430   0.000000
    8        8.837031   0.000000
 
  0.3333333E+00  0.2222222E+00  0.0000000E+00  0.4115226E-02
    1       -5.543559   1.000000
    2        0.058891   1.000000
    3        2.218595   1.000000
    4        2.406421   1.000000
    5        5.647651   0.000000
    6        6.628459   0.000000
    7        8.586459   0.000000
    8        9.008549   0.000000
 
  0.3888889E+00  0.2222222E+00  0.0000000E+00  0.4115226E-02
    1       -5.360560   1.000000
    2       -0.372457   1.000000
    3        1.941691   1.000000
    4        2.342127   1.000000
    5        5.705078   0.000000
    6        6.912654   0.000000
    7        8.463939   0.000000
    8        9.036304   0.000000
 
  0.4444444E+00  0.2222222E+00  0.0000000E+00  0.4115226E-02
    1       -5.183894   1.000000
    2       -0.743968   1.000000
    3        1.680797   1.000000
    4        2.323195   1.000000
    5        5.708866   0.000000
    6        7.382295   0.000000
    7        8.409316   0.000000
    8        8.961851   0.000000
 
  0.5000000E+00  0.2222222E+00  0.0000000E+00  0.4115226E-02
    1       -5.044141   1.000000
    2       -1.011032   1.000000
    3        1.462948   1.000000
    4        2.350220   1.000000
    5        5.714534   0.000000
    6        7.789634   0.000000
    7        8.598908   0.000000
    8        8.837285   0.000000
 
 -0.4444444E+00  0.2222222E+00  0.0000000E+00  0.4115226E-02
    1       -4.975131   1.000000
    2       -1.132688   1.000000
    3        1.304329   1.000000
    4        2.421728   1.000000
    5        5.750238   0.000000
    6        7.920777   0.000000
    7        8.695002   0.000000
    8        9.192518   0.000000
 
 -0.3888889E+00  0.2222222E+00  0.0000000E+00  0.4115226E-02
    1       -4.997488   1.000000
    2       -1.087688   1.000000
    3        1.217199   1.000000
    4        2.534019   1.000000
    5        5.821416   0.000000
    6        7.963765   0.000000
    7        8.543793   0.000000
    8        9.886648   0.000000
 
 -0.3333333E+00  0.2222222E+00  0.0000000E+00  0.4115226E-02
    1       -5.103811   1.000000
    2       -0.890878   1.000000
    3        1.215154   1.000000
    4        2.680583   1.000000
    5        5.920065   0.000000
    6        8.017776   0.000000
    7        8.370267   0.000000
    8        9.541478   0.000000
 
 -0.2777778E+00  0.2222222E+00  0.0000000E+00  0.4115226E-02
    1       -5.264585   1.000000
    2       -0.589657   1.000000
    3        1.317199   1.000000
    4        2.850982   1.000000
    5        6.023150   0.000000
    6        8.083097   0.000000
    7        8.146560   0.000000
    8        8.840908   0.000000
 
 -0.2222222E+00  0.2222222E+00  0.0000000E+00  0.2057613E-02
    1       -5.446604   1.000000
    2       -0.245508   1.000000
    3        1.547396   1.000000
    4        3.029198   1.000000
    5        6.078905   0.000000
    6        7.864685   0.000000
    7        7.966922   0.000000
    8        8.453719   0.000000
 
  0.2777778E+00  0.2777778E+00  0.0000000E+00  0.1028807E-02
    1       -5.589160   1.000000
    2        0.223289   1.000000
    3        2.360640   1.000000
    4        2.360640   1.000000
    5        5.346788   0.000000
    6        6.397887   0.000000
    7        9.247697   0.000000
    8        9.247704   0.000000
 
  0.3333333E+00  0.2777778E+00  0.0000000E+00  0.4115226E-02
    1       -5.437422   1.000000
    2       -0.124596   1.000000
    3        2.174005   1.000000
    4        2.244695   1.000000
    5        5.343492   0.000000
    6        6.274447   0.000000
    7        9.334948   0.000000
    8        9.537309   0.000000
 
  0.3888889E+00  0.2777778E+00  0.0000000E+00  0.4115226E-02
    1       -5.268297   1.000000
    2       -0.476838   1.000000
    3        1.898062   1.000000
    4        2.171802   1.000000
    5        5.454871   0.000000
    6        6.346940   0.000000
    7        9.211003   0.000000
    8        9.653672   0.000000
 
  0.4444444E+00  0.2777778E+00  0.0000000E+00  0.4115226E-02
    1       -5.100978   1.000000
    2       -0.788810   1.000000
    3        1.591026   1.000000
    4        2.145333   1.000000
    5        5.520808   0.000000
    6        6.719563   0.000000
    7        9.071944   0.000000
    8        9.620901   0.000000
 
  0.5000000E+00  0.2777778E+00  0.0000000E+00  0.4115226E-02
    1       -4.962149   1.000000
    2       -1.021921   1.000000
    3        1.308481   1.000000
    4        2.166308   1.000000
    5        5.552945   0.000000
    6        7.317258   0.000000
    7        8.960750   0.000000
    8        9.500993   0.000000
 
 -0.4444444E+00  0.2777778E+00  0.0000000E+00  0.4115226E-02
    1       -4.882159   1.000000
    2       -1.142056   1.000000
    3        1.086852   1.000000
    4        2.233657   1.000000
    5        5.605464   0.000000
    6        8.016295   0.000000
    7        8.917077   0.000000
    8        9.337213   0.000000
 
 -0.3888889E+00  0.2777778E+00  0.0000000E+00  0.4115226E-02
    1       -4.882527   1.000000
    2       -1.131463   1.000000
    3        0.951900   1.000000
    4        2.344068   1.000000
    5        5.695172   0.000000
    6        8.549388   0.000000
    7        9.139081   0.000000
    8        9.149892   0.000000
 
 -0.3333333E+00  0.2777778E+00  0.0000000E+00  0.4115226E-02
    1       -4.962415   1.000000
    2       -1.004496   1.000000
    3        0.928275   1.000000
    4        2.491413   1.000000
    5        5.817128   0.000000
    6        8.670409   0.000000
    7        8.884406   0.000000
    8        9.442034   0.000000
 
 -0.2777778E+00  0.2777778E+00  0.0000000E+00  0.2057613E-02
    1       -5.099586   1.000000
    2       -0.806632   1.000000
    3        1.043315   1.000000
    4        2.665630   1.000000
    5        5.946853   0.000000
    6        8.545043   0.000000
    7        8.680423   0.000000
    8        8.799831   0.000000
 
  0.3333333E+00  0.3333333E+00  0.0000000E+00  0.1028807E-02
    1       -5.303133   1.000000
    2       -0.393534   1.000000
    3        2.118478   1.000000
    4        2.118478   1.000000
    5        5.165471   0.000000
    6        6.013733   0.000000
    7        9.983235   0.000000
    8        9.983258   0.000000
 
  0.3888889E+00  0.3333333E+00  0.0000000E+00  0.4115226E-02
    1       -5.152245   1.000000
    2       -0.679205   1.000000
    3        1.944761   1.000000
    4        2.035060   1.000000
    5        5.198745   0.000000
    6        5.902377   0.000000
    7       10.070006   0.000000
    8       10.248993   0.000000
 
  0.4444444E+00  0.3333333E+00  0.0000000E+00  0.4115226E-02
    1       -5.002007   1.000000
    2       -0.932314   1.000000
    3        1.662563   1.000000
    4        1.998421   1.000000
    5        5.316689   0.000000
    6        6.054976   0.000000
    7        9.950460   0.000000
    8       10.304703   0.000000
 
  0.5000000E+00  0.3333333E+00  0.0000000E+00  0.4115226E-02
    1       -4.875732   1.000000
    2       -1.117437   1.000000
    3        1.348147   1.000000
    4        2.010100   1.000000
    5        5.378935   0.000000
    6        6.533276   0.000000
    7        9.812468   0.000000
    8       10.210880   0.000000
 
 -0.4444444E+00  0.3333333E+00  0.0000000E+00  0.4115226E-02
    1       -4.799037   1.000000
    2       -1.209815   1.000000
    3        1.070351   1.000000
    4        2.069498   1.000000
    5        5.439271   0.000000
    6        7.213868   0.000000
    7        9.691554   0.000000
    8       10.026138   0.000000
 
 -0.3888889E+00  0.3333333E+00  0.0000000E+00  0.4115226E-02
    1       -4.790166   1.000000
    2       -1.203167   1.000000
    3        0.879969   1.000000
    4        2.173829   1.000000
    5        5.535550   0.000000
    6        8.003969   0.000000
    7        9.594305   0.000000
    8        9.757461   0.000000
 
 -0.3333333E+00  0.3333333E+00  0.0000000E+00  0.2057613E-02
    1       -4.850030   1.000000
    2       -1.120009   1.000000
    3        0.820347   1.000000
    4        2.317570   1.000000
    5        5.668746   0.000000
    6        8.801670   0.000000
    7        9.373862   0.000000
    8        9.431175   0.000000
 
  0.3888889E+00  0.3888889E+00  0.0000000E+00  0.1028807E-02
    1       -5.023518   1.000000
    2       -0.910757   1.000000
    3        1.940201   1.000000
    4        1.940201   1.000000
    5        5.066487   0.000000
    6        5.645166   0.000000
    7       10.715804   0.000000
    8       10.715811   0.000000
 
  0.4444444E+00  0.3888889E+00  0.0000000E+00  0.4115226E-02
    1       -4.898278   1.000000
    2       -1.114452   1.000000
    3        1.788729   1.000000
    4        1.891918   1.000000
    5        5.136370   0.000000
    6        5.583826   0.000000
    7       10.811949   0.000000
    8       10.936923   0.000000
 
  0.5000000E+00  0.3888889E+00  0.0000000E+00  0.4115226E-02
    1       -4.796952   1.000000
    2       -1.252543   1.000000
    3        1.519255   1.000000
    4        1.892330   1.000000
    5        5.239102   0.000000
    6        5.852462   0.000000
    7       10.695911   0.000000
    8       10.908380   0.000000
 
 -0.4444444E+00  0.3888889E+00  0.0000000E+00  0.4115226E-02
    1       -4.739586   1.000000
    2       -1.305392   1.000000
    3        1.224534   1.000000
    4        1.941368   1.000000
    5        5.303382   0.000000
    6        6.431155   0.000000
    7       10.531525   0.000000
    8       10.695016   0.000000
 
 -0.3888889E+00  0.3888889E+00  0.0000000E+00  0.2057613E-02
    1       -4.738035   1.000000
    2       -1.277559   1.000000
    3        0.988526   1.000000
    4        2.036805   1.000000
    5        5.398802   0.000000
    6        7.174173   0.000000
    7       10.249164   0.000000
    8       10.306920   0.000000
 
  0.4444444E+00  0.4444444E+00  0.0000000E+00  0.1028807E-02
    1       -4.805355   1.000000
    2       -1.272170   1.000000
    3        1.831343   1.000000
    4        1.831343   1.000000
    5        5.058906   0.000000
    6        5.355175   0.000000
    7       11.374649   0.000000
    8       11.374655   0.000000
 
  0.5000000E+00  0.4444444E+00  0.0000000E+00  0.4115226E-02
    1       -4.740575   1.000000
    2       -1.363402   1.000000
    3        1.709846   1.000000
    4        1.819422   1.000000
    5        5.150989   0.000000
    6        5.370989   0.000000
    7       11.422654   0.000000
    8       11.472451   0.000000
 
 -0.4444444E+00  0.4444444E+00  0.0000000E+00  0.2057613E-02
    1       -4.717516   1.000000
    2       -1.370672   1.000000
    3        1.471208   1.000000
    4        1.856647   1.000000
    5        5.215232   0.000000
    6        5.780244   0.000000
    7       11.157787   0.000000
    8       11.222430   0.000000
 
  0.5000000E+00  0.5000000E+00  0.0000000E+00  0.5144033E-03
    1       -4.719934   1.000000
    2       -1.405448   1.000000
    3        1.794761   1.000000
    4        1.794761   1.000000
    5        5.121966   0.000000
    6        5.190676   0.000000
    7       11.699894   0.000000
    8       11.699894   0.000000
 