       N       E                     dE             d eps       ncg     rms          rms(c)
DAV:   1     0.124056456014E+02    0.12406E+02   -0.27209E+03  3120   0.721E+02
DAV:   2    -0.775418919514E+01   -0.20160E+02   -0.19840E+02  4304   0.811E+01
DAV:   3    -0.821184364117E+01   -0.45765E+00   -0.45765E+00  4312   0.138E+01
DAV:   4    -0.821453922318E+01   -0.26956E-02   -0.26956E-02  4560   0.126E+00
DAV:   5    -0.821455321878E+01   -0.13996E-04   -0.13996E-04  4368   0.741E-02    0.197E+00
RMM:   6    -0.816106068050E+01    0.53493E-01   -0.53183E-02  3124   0.127E+00    0.119E+00
RMM:   7    -0.814736092531E+01    0.13700E-01   -0.52942E-02  3186   0.139E+00    0.249E-01
RMM:   8    -0.814797996543E+01   -0.61904E-03   -0.40445E-03  3205   0.453E-01    0.472E-02
RMM:   9    -0.814840902959E+01   -0.42906E-03   -0.65077E-04  3280   0.177E-01    0.141E-02
RMM:  10    -0.814842446388E+01   -0.15434E-04   -0.55902E-05  3594   0.559E-02    0.404E-03
RMM:  11    -0.814842800221E+01   -0.35383E-05   -0.94270E-06  3523   0.241E-02    0.157E-03
RMM:  12    -0.814842842260E+01   -0.42040E-06   -0.55084E-07  2667   0.698E-03
   1 F= -.81484284E+01 E0= -.81484284E+01  d E =0.000000E+00
