   3   3   0   0
  0.2216349E+02  0.4547347E-09  0.4547347E-09  0.4547347E-09  0.1000000E-15
  1.000000000000000E-004
  CAR
 unknown system
     13.42204912    -25.04847562  301      8.98480358      1.00000000
    -25.048  0.0000E+00  0.0000E+00
    -24.920  0.0000E+00  0.0000E+00
    -24.792  0.0000E+00  0.0000E+00
    -24.664  0.0000E+00  0.0000E+00
    -24.536  0.0000E+00  0.0000E+00
    -24.407  0.0000E+00  0.0000E+00
    -24.279  0.0000E+00  0.0000E+00
    -24.151  0.0000E+00  0.0000E+00
    -24.023  0.0000E+00  0.0000E+00
    -23.894  0.0000E+00  0.0000E+00
    -23.766  0.0000E+00  0.0000E+00
    -23.638  0.0000E+00  0.0000E+00
    -23.510  0.0000E+00  0.0000E+00
    -23.381  0.0000E+00  0.0000E+00
    -23.253  0.7798E+00  0.1000E+00
    -23.125  0.0000E+00  0.1000E+00
    -22.997  0.0000E+00  0.1000E+00
    -22.868  0.0000E+00  0.1000E+00
    -22.740  0.0000E+00  0.1000E+00
    -22.612  0.0000E+00  0.1000E+00
    -22.484  0.0000E+00  0.1000E+00
    -22.356  0.0000E+00  0.1000E+00
    -22.227  0.0000E+00  0.1000E+00
    -22.099  0.0000E+00  0.1000E+00
    -21.971  0.0000E+00  0.1000E+00
    -21.843  0.0000E+00  0.1000E+00
    -21.714  0.0000E+00  0.1000E+00
    -21.586  0.0000E+00  0.1000E+00
    -21.458  0.0000E+00  0.1000E+00
    -21.330  0.0000E+00  0.1000E+00
    -21.201  0.0000E+00  0.1000E+00
    -21.073  0.0000E+00  0.1000E+00
    -20.945  0.0000E+00  0.1000E+00
    -20.817  0.0000E+00  0.1000E+00
    -20.688  0.0000E+00  0.1000E+00
    -20.560  0.0000E+00  0.1000E+00
    -20.432  0.0000E+00  0.1000E+00
    -20.304  0.0000E+00  0.1000E+00
    -20.176  0.0000E+00  0.1000E+00
    -20.047  0.0000E+00  0.1000E+00
    -19.919  0.0000E+00  0.1000E+00
    -19.791  0.0000E+00  0.1000E+00
    -19.663  0.0000E+00  0.1000E+00
    -19.534  0.0000E+00  0.1000E+00
    -19.406  0.0000E+00  0.1000E+00
    -19.278  0.0000E+00  0.1000E+00
    -19.150  0.0000E+00  0.1000E+00
    -19.021  0.0000E+00  0.1000E+00
    -18.893  0.0000E+00  0.1000E+00
    -18.765  0.0000E+00  0.1000E+00
    -18.637  0.0000E+00  0.1000E+00
    -18.508  0.0000E+00  0.1000E+00
    -18.380  0.0000E+00  0.1000E+00
    -18.252  0.0000E+00  0.1000E+00
    -18.124  0.0000E+00  0.1000E+00
    -17.996  0.0000E+00  0.1000E+00
    -17.867  0.0000E+00  0.1000E+00
    -17.739  0.0000E+00  0.1000E+00
    -17.611  0.0000E+00  0.1000E+00
    -17.483  0.0000E+00  0.1000E+00
    -17.354  0.0000E+00  0.1000E+00
    -17.226  0.0000E+00  0.1000E+00
    -17.098  0.0000E+00  0.1000E+00
    -16.970  0.0000E+00  0.1000E+00
    -16.841  0.0000E+00  0.1000E+00
    -16.713  0.0000E+00  0.1000E+00
    -16.585  0.0000E+00  0.1000E+00
    -16.457  0.0000E+00  0.1000E+00
    -16.328  0.0000E+00  0.1000E+00
    -16.200  0.0000E+00  0.1000E+00
    -16.072  0.0000E+00  0.1000E+00
    -15.944  0.0000E+00  0.1000E+00
    -15.816  0.0000E+00  0.1000E+00
    -15.687  0.0000E+00  0.1000E+00
    -15.559  0.0000E+00  0.1000E+00
    -15.431  0.0000E+00  0.1000E+00
    -15.303  0.0000E+00  0.1000E+00
    -15.174  0.0000E+00  0.1000E+00
    -15.046  0.0000E+00  0.1000E+00
    -14.918  0.0000E+00  0.1000E+00
    -14.790  0.0000E+00  0.1000E+00
    -14.661  0.0000E+00  0.1000E+00
    -14.533  0.0000E+00  0.1000E+00
    -14.405  0.0000E+00  0.1000E+00
    -14.277  0.0000E+00  0.1000E+00
    -14.148  0.0000E+00  0.1000E+00
    -14.020  0.0000E+00  0.1000E+00
    -13.892  0.0000E+00  0.1000E+00
    -13.764  0.0000E+00  0.1000E+00
    -13.636  0.0000E+00  0.1000E+00
    -13.507  0.0000E+00  0.1000E+00
    -13.379  0.0000E+00  0.1000E+00
    -13.251  0.0000E+00  0.1000E+00
    -13.123  0.0000E+00  0.1000E+00
    -12.994  0.0000E+00  0.1000E+00
    -12.866  0.0000E+00  0.1000E+00
    -12.738  0.0000E+00  0.1000E+00
    -12.610  0.0000E+00  0.1000E+00
    -12.481  0.0000E+00  0.1000E+00
    -12.353  0.0000E+00  0.1000E+00
    -12.225  0.0000E+00  0.1000E+00
    -12.097  0.0000E+00  0.1000E+00
    -11.968  0.0000E+00  0.1000E+00
    -11.840  0.0000E+00  0.1000E+00
    -11.712  0.0000E+00  0.1000E+00
    -11.584  0.0000E+00  0.1000E+00
    -11.456  0.0000E+00  0.1000E+00
    -11.327  0.0000E+00  0.1000E+00
    -11.199  0.0000E+00  0.1000E+00
    -11.071  0.0000E+00  0.1000E+00
    -10.943  0.0000E+00  0.1000E+00
    -10.814  0.0000E+00  0.1000E+00
    -10.686  0.0000E+00  0.1000E+00
    -10.558  0.0000E+00  0.1000E+00
    -10.430  0.0000E+00  0.1000E+00
    -10.301  0.0000E+00  0.1000E+00
    -10.173  0.0000E+00  0.1000E+00
    -10.045  0.0000E+00  0.1000E+00
     -9.917  0.0000E+00  0.1000E+00
     -9.789  0.0000E+00  0.1000E+00
     -9.660  0.0000E+00  0.1000E+00
     -9.532  0.0000E+00  0.1000E+00
     -9.404  0.0000E+00  0.1000E+00
     -9.276  0.0000E+00  0.1000E+00
     -9.147  0.0000E+00  0.1000E+00
     -9.019  0.0000E+00  0.1000E+00
     -8.891  0.0000E+00  0.1000E+00
     -8.763  0.0000E+00  0.1000E+00
     -8.634  0.0000E+00  0.1000E+00
     -8.506  0.0000E+00  0.1000E+00
     -8.378  0.0000E+00  0.1000E+00
     -8.250  0.0000E+00  0.1000E+00
     -8.121  0.0000E+00  0.1000E+00
     -7.993  0.0000E+00  0.1000E+00
     -7.865  0.0000E+00  0.1000E+00
     -7.737  0.0000E+00  0.1000E+00
     -7.609  0.0000E+00  0.1000E+00
     -7.480  0.0000E+00  0.1000E+00
     -7.352  0.0000E+00  0.1000E+00
     -7.224  0.0000E+00  0.1000E+00
     -7.096  0.0000E+00  0.1000E+00
     -6.967  0.0000E+00  0.1000E+00
     -6.839  0.0000E+00  0.1000E+00
     -6.711  0.0000E+00  0.1000E+00
     -6.583  0.0000E+00  0.1000E+00
     -6.454  0.0000E+00  0.1000E+00
     -6.326  0.0000E+00  0.1000E+00
     -6.198  0.0000E+00  0.1000E+00
     -6.070  0.0000E+00  0.1000E+00
     -5.941  0.0000E+00  0.1000E+00
     -5.813  0.0000E+00  0.1000E+00
     -5.685  0.0000E+00  0.1000E+00
     -5.557  0.0000E+00  0.1000E+00
     -5.429  0.0000E+00  0.1000E+00
     -5.300  0.0000E+00  0.1000E+00
     -5.172  0.0000E+00  0.1000E+00
     -5.044  0.0000E+00  0.1000E+00
     -4.916  0.0000E+00  0.1000E+00
     -4.787  0.0000E+00  0.1000E+00
     -4.659  0.0000E+00  0.1000E+00
     -4.531  0.0000E+00  0.1000E+00
     -4.403  0.0000E+00  0.1000E+00
     -4.274  0.0000E+00  0.1000E+00
     -4.146  0.0000E+00  0.1000E+00
     -4.018  0.0000E+00  0.1000E+00
     -3.890  0.1163E-10  0.1000E+00
     -3.761  0.1494E-02  0.1002E+00
     -3.633  0.1532E-02  0.1004E+00
     -3.505  0.7037E-03  0.1010E+00
     -3.377  0.3061E-02  0.1017E+00
     -3.249  0.3786E-02  0.1026E+00
     -3.120  0.9229E-02  0.1039E+00
     -2.992  0.5679E-02  0.1050E+00
     -2.864  0.8689E-02  0.1063E+00
     -2.736  0.3692E-02  0.1082E+00
     -2.607  0.1286E-01  0.1109E+00
     -2.479  0.1992E-01  0.1143E+00
     -2.351  0.3763E-01  0.1203E+00
     -2.223  0.6927E-01  0.1322E+00
     -2.094  0.0000E+00  0.1333E+00
     -1.966  0.0000E+00  0.1333E+00
     -1.838  0.0000E+00  0.1333E+00
     -1.710  0.0000E+00  0.1333E+00
     -1.581  0.0000E+00  0.1333E+00
     -1.453  0.0000E+00  0.1333E+00
     -1.325  0.0000E+00  0.1333E+00
     -1.197  0.0000E+00  0.1333E+00
     -1.069  0.0000E+00  0.1333E+00
     -0.940  0.0000E+00  0.1333E+00
     -0.812  0.0000E+00  0.1333E+00
     -0.684  0.0000E+00  0.1333E+00
     -0.556  0.0000E+00  0.1333E+00
     -0.427  0.0000E+00  0.1333E+00
     -0.299  0.0000E+00  0.1333E+00
     -0.171  0.0000E+00  0.1333E+00
     -0.043  0.0000E+00  0.1333E+00
      0.086  0.0000E+00  0.1333E+00
      0.214  0.0000E+00  0.1333E+00
      0.342  0.0000E+00  0.1333E+00
      0.470  0.0000E+00  0.1333E+00
      0.599  0.0000E+00  0.1333E+00
      0.727  0.0000E+00  0.1333E+00
      0.855  0.0000E+00  0.1333E+00
      0.983  0.0000E+00  0.1333E+00
      1.111  0.0000E+00  0.1333E+00
      1.240  0.4277E-07  0.1333E+00
      1.368  0.3114E-02  0.1342E+00
      1.496  0.1180E-01  0.1368E+00
      1.624  0.4722E-01  0.1471E+00
      1.753  0.3779E-01  0.1550E+00
      1.881  0.1843E-01  0.1598E+00
      2.009  0.1507E-01  0.1633E+00
      2.137  0.4259E-02  0.1645E+00
      2.266  0.6543E-02  0.1653E+00
      2.394  0.2775E-02  0.1658E+00
      2.522  0.1137E-01  0.1672E+00
      2.650  0.4271E-01  0.1745E+00
      2.779  0.5115E-01  0.1911E+00
      2.907  0.5356E-01  0.2024E+00
      3.035  0.5921E-01  0.2138E+00
      3.163  0.4229E-01  0.2229E+00
      3.291  0.3372E-01  0.2287E+00
      3.420  0.1473E-01  0.2329E+00
      3.548  0.1571E-01  0.2355E+00
      3.676  0.3098E-01  0.2401E+00
      3.804  0.4701E-01  0.2496E+00
      3.933  0.9590E-01  0.2692E+00
      4.061  0.9217E-01  0.2863E+00
      4.189  0.5171E-01  0.3006E+00
      4.317  0.4131E-01  0.3123E+00
      4.446  0.2786E-01  0.3205E+00
      4.574  0.2197E-01  0.3251E+00
      4.702  0.8982E-02  0.3274E+00
      4.830  0.1119E-01  0.3297E+00
      4.959  0.1129E-01  0.3323E+00
      5.087  0.9575E-02  0.3343E+00
      5.215  0.2553E-01  0.3383E+00
      5.343  0.7471E-02  0.3416E+00
      5.471  0.1039E-01  0.3438E+00
      5.600  0.2608E-01  0.3475E+00
      5.728  0.1633E-01  0.3508E+00
      5.856  0.2547E-01  0.3553E+00
      5.984  0.2509E-01  0.3592E+00
      6.113  0.5574E-01  0.3675E+00
      6.241  0.3299E-01  0.3758E+00
      6.369  0.3477E-01  0.3813E+00
      6.497  0.2362E-01  0.3871E+00
      6.626  0.1756E-01  0.3925E+00
      6.754  0.9672E-02  0.3951E+00
      6.882  0.4756E-02  0.3969E+00
      7.010  0.7096E-02  0.3987E+00
      7.139  0.6152E-02  0.3995E+00
      7.267  0.3312E-02  0.4000E+00
      7.395  0.0000E+00  0.4000E+00
      7.523  0.0000E+00  0.4000E+00
      7.651  0.0000E+00  0.4000E+00
      7.780  0.0000E+00  0.4000E+00
      7.908  0.0000E+00  0.4000E+00
      8.036  0.1183E-03  0.4000E+00
      8.164  0.0000E+00  0.4000E+00
      8.293  0.9898E-03  0.4001E+00
      8.421  0.6297E-02  0.4011E+00
      8.549  0.1622E-01  0.4036E+00
      8.677  0.1030E-01  0.4061E+00
      8.806  0.1791E-01  0.4096E+00
      8.934  0.1425E-01  0.4133E+00
      9.062  0.2620E-01  0.4196E+00
      9.190  0.5169E-01  0.4285E+00
      9.319  0.2453E-01  0.4343E+00
      9.447  0.2960E-01  0.4400E+00
      9.575  0.4043E-01  0.4473E+00
      9.703  0.3683E-01  0.4557E+00
      9.831  0.5302E-01  0.4702E+00
      9.960  0.2804E-01  0.4762E+00
     10.088  0.5154E-01  0.4871E+00
     10.216  0.2922E-01  0.4961E+00
     10.344  0.6215E-02  0.4984E+00
     10.473  0.3660E-01  0.5043E+00
     10.601  0.2952E-01  0.5095E+00
     10.729  0.3730E-01  0.5168E+00
     10.857  0.3346E-01  0.5228E+00
     10.986  0.2555E-01  0.5284E+00
     11.114  0.4465E-02  0.5309E+00
     11.242  0.1301E-01  0.5328E+00
     11.370  0.2840E-02  0.5332E+00
     11.499  0.0000E+00  0.5332E+00
     11.627  0.2018E-13  0.5332E+00
     11.755  0.0000E+00  0.5333E+00
     11.883  0.0000E+00  0.5333E+00
     12.011  0.0000E+00  0.5333E+00
     12.140  0.0000E+00  0.5333E+00
     12.268  0.0000E+00  0.5333E+00
     12.396  0.0000E+00  0.5333E+00
     12.524  0.0000E+00  0.5333E+00
     12.653  0.0000E+00  0.5333E+00
     12.781  0.0000E+00  0.5333E+00
     12.909  0.0000E+00  0.5333E+00
     13.037  0.0000E+00  0.5333E+00
     13.166  0.0000E+00  0.5333E+00
     13.294  0.0000E+00  0.5333E+00
     13.422  0.0000E+00  0.5333E+00
