    3    3   60    1
  0.2216349E+02  0.4547347E-09  0.4547347E-09  0.4547347E-09  0.1000000E-15
  1.000000000000000E-004
  CAR
 unknown system
     25     84     16

  0.0000000E+00  0.0000000E+00  0.0000000E+00  0.4551661E-03
    1      -23.281111   1.000000
    2      -23.281111   1.000000
    3      -23.281110   1.000000
    4       -3.852900   1.000000
    5        2.893133   1.000000
    6        2.893133   1.000000
    7        2.893133   1.000000
    8        3.707753   1.000000
    9        3.707753   1.000000
   10        7.308154   1.000000
   11        7.308154   1.000000
   12        7.308154   1.000000
   13        7.989943   1.000000
   14        9.855057   0.000000
   15        9.855057   0.000000
   16        9.855057   0.000000

  0.7692308E-01  0.2348380E-17 -0.1596565E-17  0.3641329E-02
    1      -23.282172   1.000000
    2      -23.281056   1.000000
    3      -23.281056   1.000000
    4       -3.787983   1.000000
    5        2.814290   1.000000
    6        2.865156   1.000000
    7        2.865156   1.000000
    8        3.748363   1.000000
    9        3.748363   1.000000
   10        6.755703   1.000000
   11        7.242279   1.000000
   12        7.242279   1.000000
   13        8.231410   1.000000
   14        9.690937   0.000000
   15        9.690937   0.000000
   16       10.236881   0.000000

  0.1538462E+00 -0.4033340E-17  0.5536970E-17  0.3641329E-02
    1      -23.285105   1.000000
    2      -23.280930   1.000000
    3      -23.280930   1.000000
    4       -3.599856   1.000000
    5        2.595174   1.000000
    6        2.805738   1.000000
    7        2.805738   1.000000
    8        3.838484   1.000000
    9        3.838484   1.000000
   10        5.895084   1.000000
   11        7.077325   1.000000
   12        7.077325   1.000000
   13        8.460159   1.000000
   14        9.591169   0.000000
   15        9.591169   0.000000
   16       11.024502   0.000000

  0.2307692E+00  0.2397920E-17 -0.1424753E-18  0.3641329E-02
    1      -23.289184   1.000000
    2      -23.280743   1.000000
    3      -23.280743   1.000000
    4       -3.309834   1.000000
    5        2.272558   1.000000
    6        2.752529   1.000000
    7        2.752529   1.000000
    8        3.922259   1.000000
    9        3.922259   1.000000
   10        5.106859   1.000000
   11        6.885115   1.000000
   12        6.885115   1.000000
   13        8.639248   1.000000
   14        9.622345   0.000000
   15        9.622345   0.000000
   16       11.673389   0.000000

  0.3076923E+00 -0.8066680E-17  0.1107394E-16  0.3641329E-02
    1      -23.293483   1.000000
    2      -23.280555   1.000000
    3      -23.280555   1.000000
    4       -2.958794   1.000000
    5        1.888947   1.000000
    6        2.723826   1.000000
    7        2.723826   1.000000
    8        3.963628   1.000000
    9        3.963628   1.000000
   10        4.500142   1.000000
   11        6.728274   1.000000
   12        6.728274   1.000000
   13        8.801551   1.000000
   14        9.752137   0.000000
   15        9.752137   0.000000
   16       11.223687   0.000000

  0.3846154E+00  0.9520448E-17 -0.5761373E-17  0.3641329E-02
    1      -23.297021   1.000000
    2      -23.280400   1.000000
    3      -23.280400   1.000000
    4       -2.617148   1.000000
    5        1.514157   1.000000
    6        2.718459   1.000000
    7        2.718459   1.000000
    8        3.961657   1.000000
    9        3.961657   1.000000
   10        4.110067   1.000000
   11        6.632726   1.000000
   12        6.632726   1.000000
   13        8.964469   0.997985
   14        9.930471   0.000000
   15        9.930471   0.000000
   16       10.481471   0.000000

  0.4615385E+00  0.4499688E-17  0.1120141E-19  0.3641329E-02
    1      -23.298990   1.000000
    2      -23.280298   1.000000
    3      -23.280298   1.000000
    4       -2.393014   1.000000
    5        1.267403   1.000000
    6        2.722753   1.000000
    7        2.722753   1.000000
    8        3.925297   1.000000
    9        3.945564   1.000000
   10        3.945564   1.000000
   11        6.591886   1.000000
   12        6.591886   1.000000
   13        9.117721   0.000000
   14        9.998192   0.000000
   15       10.070751   0.000000
   16       10.070751   0.000000

  0.7692308E-01  0.7692308E-01  0.3356321E-17  0.2730997E-02
    1      -23.282145   1.000000
    2      -23.281232   1.000000
    3      -23.281232   1.000000
    4       -3.766702   1.000000
    5        2.673598   1.000000
    6        2.923865   1.000000
    7        2.923865   1.000000
    8        3.740928   1.000000
    9        3.765470   1.000000
   10        6.794870   1.000000
   11        7.112166   1.000000
   12        7.112166   1.000000
   13        8.303743   1.000000
   14        9.556467   0.000000
   15       10.137612   0.000000
   16       10.138142   0.000000

  0.1538462E+00  0.7692308E-01  0.1698271E-17  0.1092399E-01
    1      -23.284318   1.000000
    2      -23.281306   1.000000
    3      -23.281114   1.000000
    4       -3.620809   1.000000
    5        2.461416   1.000000
    6        2.900108   1.000000
    7        2.926879   1.000000
    8        3.805731   1.000000
    9        3.823425   1.000000
   10        6.145132   1.000000
   11        6.920871   1.000000
   12        6.988337   1.000000
   13        8.541220   1.000000
   14        9.412024   0.000000
   15        9.850737   0.000000
   16       10.623712   0.000000

  0.2307692E+00  0.7692308E-01  0.4318679E-17  0.1092399E-01
    1      -23.287950   1.000000
    2      -23.281251   1.000000
    3      -23.280936   1.000000
    4       -3.366709   1.000000
    5        2.214122   1.000000
    6        2.807941   1.000000
    7        2.896821   1.000000
    8        3.893586   1.000000
    9        3.900117   1.000000
   10        5.366922   1.000000
   11        6.737512   1.000000
   12        6.815716   1.000000
   13        8.808401   1.000000
   14        9.407788   0.000000
   15        9.736664   0.000000
   16       11.191335   0.000000

  0.3076923E+00  0.7692308E-01  0.1657306E-17  0.1092399E-01
    1      -23.292074   1.000000
    2      -23.281078   1.000000
    3      -23.280828   1.000000
    4       -3.038473   1.000000
    5        1.922825   1.000000
    6        2.720038   1.000000
    7        2.861376   1.000000
    8        3.950267   1.000000
    9        3.957204   1.000000
   10        4.704781   1.000000
   11        6.606997   1.000000
   12        6.642318   1.000000
   13        8.916380   1.000000
   14        9.658651   0.000000
   15        9.750887   0.000000
   16       11.302611   0.000000

  0.3846154E+00  0.7692308E-01  0.7133729E-17  0.1092399E-01
    1      -23.295760   1.000000
    2      -23.280843   1.000000
    3      -23.280840   1.000000
    4       -2.695303   1.000000
    5        1.608041   1.000000
    6        2.677462   1.000000
    7        2.827433   1.000000
    8        3.963007   1.000000
    9        3.969357   1.000000
   10        4.243952   1.000000
   11        6.513729   1.000000
   12        6.540296   1.000000
   13        8.983856   0.553277
   14        9.872829   0.000000
   15        9.966903   0.000000
   16       10.660892   0.000000

  0.4615385E+00  0.7692308E-01  0.1835014E-16  0.1092399E-01
    1      -23.298183   1.000000
    2      -23.280957   1.000000
    3      -23.280594   1.000000
    4       -2.430211   1.000000
    5        1.353640   1.000000
    6        2.683411   1.000000
    7        2.786955   1.000000
    8        3.916883   1.000000
    9        3.959848   1.000000
   10        4.026849   1.000000
   11        6.438088   1.000000
   12        6.522091   1.000000
   13        9.101420   0.000000
   14        9.955245   0.000000
   15       10.032401   0.000000
   16       10.341095   0.000000

 -0.4615385E+00  0.7692308E-01  0.1832774E-16  0.1092399E-01
    1      -23.298803   1.000000
    2      -23.281138   1.000000
    3      -23.280376   1.000000
    4       -2.352220   1.000000
    5        1.278272   1.000000
    6        2.723581   1.000000
    7        2.734075   1.000000
    8        3.870271   1.000000
    9        3.971670   1.000000
   10        3.993654   1.000000
   11        6.398170   1.000000
   12        6.538838   1.000000
   13        9.191565   0.000000
   14        9.767019   0.000000
   15       10.099449   0.000000
   16       10.395202   0.000000

 -0.3846154E+00  0.7692308E-01 -0.9099099E-17  0.1092399E-01
    1      -23.297513   1.000000
    2      -23.281350   1.000000
    3      -23.280250   1.000000
    4       -2.502260   1.000000
    5        1.429171   1.000000
    6        2.679060   1.000000
    7        2.781759   1.000000
    8        3.908583   1.000000
    9        3.997643   1.000000
   10        4.075647   1.000000
   11        6.376512   1.000000
   12        6.596905   1.000000
   13        9.098957   0.000000
   14        9.984048   0.000000
   15        9.998004   0.000000
   16       10.392235   0.000000

 -0.3076923E+00  0.7692308E-01  0.7265003E-17  0.1092399E-01
    1      -23.294583   1.000000
    2      -23.281533   1.000000
    3      -23.280240   1.000000
    4       -2.805623   1.000000
    5        1.728499   1.000000
    6        2.643237   1.000000
    7        2.846991   1.000000
    8        3.928022   1.000000
    9        4.009431   1.000000
   10        4.379528   1.000000
   11        6.378555   1.000000
   12        6.714285   1.000000
   13        9.015094   0.000009
   14        9.795129   0.000000
   15        9.909708   0.000000
   16       10.889511   0.000000

 -0.2307692E+00  0.7692308E-01 -0.9274158E-17  0.1092399E-01
    1      -23.290680   1.000000
    2      -23.281640   1.000000
    3      -23.280358   1.000000
    4       -3.152479   1.000000
    5        2.066853   1.000000
    6        2.644895   1.000000
    7        2.911355   1.000000
    8        3.905858   1.000000
    9        3.980912   1.000000
   10        4.908244   1.000000
   11        6.434924   1.000000
   12        6.894233   1.000000
   13        8.953926   0.999994
   14        9.586495   0.000000
   15        9.737274   0.000000
   16       11.191053   0.000000

 -0.1538462E+00  0.7692308E-01 -0.3797735E-17  0.1092399E-01
    1      -23.286686   1.000000
    2      -23.281609   1.000000
    3      -23.280562   1.000000
    4       -3.461312   1.000000
    5        2.379677   1.000000
    6        2.690944   1.000000
    7        2.958161   1.000000
    8        3.842897   1.000000
    9        3.909929   1.000000
   10        5.609747   1.000000
   11        6.582953   1.000000
   12        7.098066   1.000000
   13        8.787833   1.000000
   14        9.448349   0.000000
   15        9.720631   0.000000
   16       10.708273   0.000000

 -0.7692308E-01  0.7692308E-01  0.4696760E-17  0.5461994E-02
    1      -23.283610   1.000000
    2      -23.281409   1.000000
    3      -23.280823   1.000000
    4       -3.682362   1.000000
    5        2.639645   1.000000
    6        2.773327   1.000000
    7        2.949686   1.000000
    8        3.776106   1.000000
    9        3.819291   1.000000
   10        6.322440   1.000000
   11        6.875564   1.000000
   12        7.240430   1.000000
   13        8.482073   1.000000
   14        9.462005   0.000000
   15        9.845064   0.000000
   16       10.271285   0.000000

  0.1538462E+00  0.1538462E+00  0.6712642E-17  0.2730997E-02
    1      -23.285066   1.000000
    2      -23.281595   1.000000
    3      -23.281595   1.000000
    4       -3.521800   1.000000
    5        2.214465   1.000000
    6        3.010892   1.000000
    7        3.010892   1.000000
    8        3.804345   1.000000
    9        3.836005   1.000000
   10        6.094482   1.000000
   11        6.710905   1.000000
   12        6.710905   1.000000
   13        8.504441   1.000000
   14        9.429991   0.000000
   15        9.905314   0.000000
   16       10.741171   0.000000

  0.2307692E+00  0.1538462E+00  0.5627668E-17  0.1092399E-01
    1      -23.287728   1.000000
    2      -23.281725   1.000000
    3      -23.281661   1.000000
    4       -3.315167   1.000000
    5        1.981641   1.000000
    6        3.002877   1.000000
    7        3.039051   1.000000
    8        3.824614   1.000000
    9        3.912520   1.000000
   10        5.574706   1.000000
   11        6.522363   1.000000
   12        6.522839   1.000000
   13        8.710154   1.000000
   14        9.411356   0.000000
   15        9.765635   0.000000
   16       11.083758   0.000000

  0.3076923E+00  0.1538462E+00  0.8544229E-17  0.1092399E-01
    1      -23.291213   1.000000
    2      -23.281786   1.000000
    3      -23.281691   1.000000
    4       -3.029838   1.000000
    5        1.777805   1.000000
    6        2.900272   1.000000
    7        3.026749   1.000000
    8        3.883857   1.000000
    9        3.979592   1.000000
   10        4.945540   1.000000
   11        6.331247   1.000000
   12        6.401315   1.000000
   13        8.934559   1.000000
   14        9.617920   0.000000
   15        9.697016   0.000000
   16       11.210271   0.000000

  0.3846154E+00  0.1538462E+00  0.8308624E-17  0.1092399E-01
    1      -23.294495   1.000000
    2      -23.282132   1.000000
    3      -23.281484   1.000000
    4       -2.715912   1.000000
    5        1.603248   1.000000
    6        2.774977   1.000000
    7        2.986460   1.000000
    8        3.933930   1.000000
    9        4.006812   1.000000
   10        4.423620   1.000000
   11        6.169327   1.000000
   12        6.354143   1.000000
   13        8.954805   0.999989
   14        9.765768   0.000000
   15       10.108026   0.000000
   16       10.747483   0.000000

  0.4615385E+00  0.1538462E+00  0.8637359E-17  0.1092399E-01
    1      -23.296822   1.000000
    2      -23.282657   1.000000
    3      -23.281150   1.000000
    4       -2.448802   1.000000
    5        1.465100   1.000000
    6        2.688645   1.000000
    7        2.916335   1.000000
    8        3.905884   1.000000
    9        4.014998   1.000000
   10        4.138237   1.000000
   11        6.055767   1.000000
   12        6.354825   1.000000
   13        9.001744   0.008294
   14        9.948275   0.000000
   15       10.115063   0.000000
   16       10.593456   0.000000

 -0.4615385E+00  0.1538462E+00 -0.1914062E-16  0.1092399E-01
    1      -23.297699   1.000000
    2      -23.283205   1.000000
    3      -23.280767   1.000000
    4       -2.318797   1.000000
    5        1.400581   1.000000
    6        2.680953   1.000000
    7        2.819002   1.000000
    8        3.815752   1.000000
    9        4.034259   1.000000
   10        4.099737   1.000000
   11        5.978122   1.000000
   12        6.383660   1.000000
   13        9.141424   0.000000
   14        9.729754   0.000000
   15       10.112614   0.000000
   16       10.854784   0.000000

 -0.3846154E+00  0.1538462E+00  0.1983137E-16  0.1092399E-01
    1      -23.296998   1.000000
    2      -23.283610   1.000000
    3      -23.280435   1.000000
    4       -2.382499   1.000000
    5        1.452505   1.000000
    6        2.715048   1.000000
    7        2.758365   1.000000
    8        3.823600   1.000000
    9        4.062919   1.000000
   10        4.158346   1.000000
   11        5.908700   1.000000
   12        6.449911   1.000000
   13        9.217711   0.000000
   14        9.786221   0.000000
   15       10.093330   0.000000
   16       10.837264   0.000000

 -0.3076923E+00  0.1538462E+00  0.2996058E-17  0.1092399E-01
    1      -23.294920   1.000000
    2      -23.283716   1.000000
    3      -23.280214   1.000000
    4       -2.611565   1.000000
    5        1.613204   1.000000
    6        2.633239   1.000000
    7        2.887666   1.000000
    8        3.876639   1.000000
    9        4.075146   1.000000
   10        4.366060   1.000000
   11        5.843162   1.000000
   12        6.575484   1.000000
   13        9.225666   0.000000
   14        9.914242   0.000000
   15       10.167879   0.000000
   16       10.697223   0.000000

 -0.2307692E+00  0.1538462E+00 -0.1354310E-16  0.1092399E-01
    1      -23.292019   1.000000
    2      -23.283412   1.000000
    3      -23.280152   1.000000
    4       -2.919732   1.000000
    5        1.841797   1.000000
    6        2.596376   1.000000
    7        3.004517   1.000000
    8        3.888275   1.000000
    9        4.050347   1.000000
   10        4.776908   1.000000
   11        5.838273   1.000000
   12        6.762186   1.000000
   13        9.326000   0.000000
   14        9.687119   0.000000
   15        9.997132   0.000000
   16       10.847832   0.000000

 -0.1538462E+00  0.1538462E+00 -0.8066680E-17  0.5461994E-02
    1      -23.289056   1.000000
    2      -23.282645   1.000000
    3      -23.280283   1.000000
    4       -3.222700   1.000000
    5        2.106258   1.000000
    6        2.615942   1.000000
    7        3.042136   1.000000
    8        3.862955   1.000000
    9        3.989285   1.000000
   10        5.261410   1.000000
   11        6.042069   1.000000
   12        6.966391   1.000000
   13        9.287288   0.000000
   14        9.501357   0.000000
   15        9.705589   0.000000
   16       10.672343   0.000000

  0.2307692E+00  0.2307692E+00  0.1006896E-16  0.2730997E-02
    1      -23.289251   1.000000
    2      -23.282102   1.000000
    3      -23.282101   1.000000
    4       -3.163274   1.000000
    5        1.762532   1.000000
    6        3.138053   1.000000
    7        3.138053   1.000000
    8        3.738499   1.000000
    9        3.978889   1.000000
   10        5.468723   1.000000
   11        6.318495   1.000000
   12        6.318495   1.000000
   13        8.501682   1.000000
   14        9.529976   0.000000
   15        9.654259   0.000000
   16       11.206608   0.000000

  0.3076923E+00  0.2307692E+00  0.6066490E-17  0.1092399E-01
    1      -23.291836   1.000000
    2      -23.282424   1.000000
    3      -23.282251   1.000000
    4       -2.935640   1.000000
    5        1.605447   1.000000
    6        3.119393   1.000000
    7        3.177890   1.000000
    8        3.742637   1.000000
    9        4.053235   1.000000
   10        5.056528   1.000000
   11        6.110260   1.000000
   12        6.183832   1.000000
   13        8.618111   1.000000
   14        9.545190   0.000000
   15        9.676542   0.000000
   16       11.212569   0.000000

  0.3846154E+00  0.2307692E+00  0.1004786E-16  0.1092399E-01
    1      -23.294359   1.000000
    2      -23.283114   1.000000
    3      -23.282174   1.000000
    4       -2.674713   1.000000
    5        1.529042   1.000000
    6        2.974119   1.000000
    7        3.161095   1.000000
    8        3.833656   1.000000
    9        4.093097   1.000000
   10        4.570527   1.000000
   11        5.870904   1.000000
   12        6.135620   1.000000
   13        8.746294   1.000000
   14        9.564570   0.000000
   15       10.102520   0.000000
   16       10.842026   0.000000

  0.4615385E+00  0.2307692E+00  0.4664566E-17  0.1092399E-01
    1      -23.296026   1.000000
    2      -23.284227   1.000000
    3      -23.281873   1.000000
    4       -2.439568   1.000000
    5        1.532693   1.000000
    6        2.801600   1.000000
    7        3.086942   1.000000
    8        3.872234   1.000000
    9        4.107167   1.000000
   10        4.229488   1.000000
   11        5.667429   1.000000
   12        6.144185   1.000000
   13        8.801565   1.000000
   14        9.759765   0.000000
   15       10.299650   0.000000
   16       10.673209   0.000000

 -0.4615385E+00  0.2307692E+00 -0.2855725E-16  0.1092399E-01
    1      -23.296485   1.000000
    2      -23.285487   1.000000
    3      -23.281412   1.000000
    4       -2.295117   1.000000
    5        1.581240   1.000000
    6        2.671293   1.000000
    7        2.963483   1.000000
    8        3.746023   1.000000
    9        4.124760   1.000000
   10        4.217051   1.000000
   11        5.519117   1.000000
   12        6.179421   1.000000
   13        8.914709   1.000000
   14        9.871913   0.000000
   15       10.058757   0.000000
   16       10.952416   0.000000

 -0.3846154E+00  0.2307692E+00  0.1041474E-16  0.1092399E-01
    1      -23.295805   1.000000
    2      -23.286447   1.000000
    3      -23.280904   1.000000
    4       -2.288389   1.000000
    5        1.609412   1.000000
    6        2.665522   1.000000
    7        2.820435   1.000000
    8        3.709103   1.000000
    9        4.144858   1.000000
   10        4.313740   1.000000
   11        5.413861   1.000000
   12        6.248898   1.000000
   13        9.112815   0.000000
   14        9.689801   0.000000
   15       10.196582   0.000000
   16       10.892771   0.000000

 -0.3076923E+00  0.2307692E+00  0.2133500E-16  0.1092399E-01
    1      -23.294501   1.000000
    2      -23.286533   1.000000
    3      -23.280472   1.000000
    4       -2.423112   1.000000
    5        1.619312   1.000000
    6        2.694631   1.000000
    7        2.793205   1.000000
    8        3.786127   1.000000
    9        4.144714   1.000000
   10        4.459959   1.000000
   11        5.352233   1.000000
   12        6.376549   1.000000
   13        9.241700   0.000000
   14        9.955721   0.000000
   15       10.080121   0.000000
   16       10.793295   0.000000

 -0.2307692E+00  0.2307692E+00 -0.6091840E-17  0.5461994E-02
    1      -23.293218   1.000000
    2      -23.285361   1.000000
    3      -23.280201   1.000000
    4       -2.655853   1.000000
    5        1.685522   1.000000
    6        2.614510   1.000000
    7        2.945222   1.000000
    8        3.862758   1.000000
    9        4.110950   1.000000
   10        4.644902   1.000000
   11        5.439363   1.000000
   12        6.562437   1.000000
   13        9.324629   0.000000
   14        9.876910   0.000000
   15       10.459772   0.000000
   16       10.668766   0.000000

  0.3076923E+00  0.3076923E+00  0.1342528E-16  0.2730997E-02
    1      -23.293783   1.000000
    2      -23.282640   1.000000
    3      -23.282640   1.000000
    4       -2.775455   1.000000
    5        1.493862   1.000000
    6        3.277890   1.000000
    7        3.277890   1.000000
    8        3.596046   1.000000
    9        4.144329   1.000000
   10        4.864605   1.000000
   11        6.020139   1.000000
   12        6.020139   1.000000
   13        8.430254   1.000000
   14        9.374295   0.000000
   15        9.733361   0.000000
   16       11.157533   0.000000

  0.3846154E+00  0.3076923E+00  0.1829574E-16  0.1092399E-01
    1      -23.295790   1.000000
    2      -23.283173   1.000000
    3      -23.282763   1.000000
    4       -2.583939   1.000000
    5        1.479892   1.000000
    6        3.193883   1.000000
    7        3.309062   1.000000
    8        3.658357   1.000000
    9        4.204280   1.000000
   10        4.501259   1.000000
   11        5.817174   1.000000
   12        5.947305   1.000000
   13        8.485263   1.000000
   14        9.311754   0.000000
   15        9.959807   0.000000
   16       10.888321   0.000000

  0.4615385E+00  0.3076923E+00  0.1155149E-16  0.1092399E-01
    1      -23.296882   1.000000
    2      -23.284401   1.000000
    3      -23.282580   1.000000
    4       -2.404905   1.000000
    5        1.570483   1.000000
    6        2.991213   1.000000
    7        3.262026   1.000000
    8        3.781785   1.000000
    9        4.172966   1.000000
   10        4.222705   1.000000
   11        5.520254   1.000000
   12        5.947951   1.000000
   13        8.571355   1.000000
   14        9.453780   0.000000
   15       10.361260   0.000000
   16       10.608315   0.000000

 -0.4615385E+00  0.3076923E+00  0.3732178E-18  0.1092399E-01
    1      -23.296663   1.000000
    2      -23.286231   1.000000
    3      -23.282148   1.000000
    4       -2.279923   1.000000
    5        1.727093   1.000000
    6        2.777492   1.000000
    7        3.140716   1.000000
    8        3.647875   1.000000
    9        4.223018   1.000000
   10        4.227932   1.000000
   11        5.244171   1.000000
   12        5.984229   1.000000
   13        8.671000   1.000000
   14        9.821580   0.000000
   15       10.034528   0.000000
   16       10.726001   0.000000

 -0.3846154E+00  0.3076923E+00 -0.2705362E-16  0.1092399E-01
    1      -23.295327   1.000000
    2      -23.288095   1.000000
    3      -23.281563   1.000000
    4       -2.237220   1.000000
    5        1.825587   1.000000
    6        2.612243   1.000000
    7        2.977549   1.000000
    8        3.570737   1.000000
    9        4.225547   1.000000
   10        4.430704   1.000000
   11        5.044270   1.000000
   12        6.057125   1.000000
   13        8.855102   1.000000
   14        9.765965   0.000000
   15       10.254404   0.000000
   16       10.713692   0.000000

 -0.3076923E+00  0.3076923E+00 -0.1613336E-16  0.5461994E-02
    1      -23.294169   1.000000
    2      -23.288593   1.000000
    3      -23.280958   1.000000
    4       -2.287816   1.000000
    5        1.738023   1.000000
    6        2.648820   1.000000
    7        2.816920   1.000000
    8        3.655609   1.000000
    9        4.199305   1.000000
   10        4.548177   1.000000
   11        5.035774   1.000000
   12        6.189027   1.000000
   13        9.100381   0.000000
   14        9.711961   0.000000
   15       10.243836   0.000000
   16       10.659166   0.000000

  0.3846154E+00  0.3846154E+00  0.1678161E-16  0.2730997E-02
    1      -23.297620   1.000000
    2      -23.283093   1.000000
    3      -23.283092   1.000000
    4       -2.468416   1.000000
    5        1.510485   1.000000
    6        3.395867   1.000000
    7        3.395867   1.000000
    8        3.454141   1.000000
    9        4.222161   1.000000
   10        4.294842   1.000000
   11        5.837501   1.000000
   12        5.837501   1.000000
   13        8.357384   1.000000
   14        9.129059   0.000000
   15        9.855820   0.000000
   16       10.824932   0.000000

  0.4615385E+00  0.3846154E+00  0.2022962E-16  0.1092399E-01
    1      -23.298643   1.000000
    2      -23.283697   1.000000
    3      -23.283110   1.000000
    4       -2.357455   1.000000
    5        1.629055   1.000000
    6        3.205555   1.000000
    7        3.399244   1.000000
    8        3.625505   1.000000
    9        3.919485   1.000000
   10        4.329333   1.000000
   11        5.657988   1.000000
   12        5.812811   1.000000
   13        8.387870   1.000000
   14        9.141539   0.000000
   15       10.036126   0.000000
   16       10.605468   0.000000

 -0.4615385E+00  0.3846154E+00 -0.1993109E-16  0.1092399E-01
    1      -23.298298   1.000000
    2      -23.285170   1.000000
    3      -23.282805   1.000000
    4       -2.274809   1.000000
    5        1.792805   1.000000
    6        2.992939   1.000000
    7        3.311548   1.000000
    8        3.534605   1.000000
    9        3.999894   1.000000
   10        4.321044   1.000000
   11        5.342725   1.000000
   12        5.842140   1.000000
   13        8.475948   1.000000
   14        9.411667   0.000000
   15       10.164346   0.000000
   16       10.567663   0.000000

 -0.3846154E+00  0.3846154E+00  0.1904090E-16  0.5461994E-02
    1      -23.296782   1.000000
    2      -23.287094   1.000000
    3      -23.282260   1.000000
    4       -2.233176   1.000000
    5        1.903150   1.000000
    6        2.745786   1.000000
    7        3.155732   1.000000
    8        3.470644   1.000000
    9        4.277898   1.000000
   10        4.286705   1.000000
   11        5.063593   1.000000
   12        5.918450   1.000000
   13        8.625265   1.000000
   14        9.899863   0.000000
   15        9.942513   0.000000
   16       10.491092   0.000000

  0.4615385E+00  0.4615385E+00  0.2013793E-16  0.2730997E-02
    1      -23.299815   1.000000
    2      -23.283348   1.000000
    3      -23.283348   1.000000
    4       -2.313483   1.000000
    5        1.715966   1.000000
    6        3.406904   1.000000
    7        3.462226   1.000000
    8        3.462226   1.000000
    9        3.652251   1.000000
   10        4.386436   1.000000
   11        5.757751   1.000000
   12        5.757751   1.000000
   13        8.312294   1.000000
   14        8.984105   0.539360
   15        9.818482   0.000000
   16       10.580519   0.000000

 -0.4615385E+00  0.4615385E+00  0.8999375E-17  0.5461994E-02
    1      -23.299688   1.000000
    2      -23.283898   1.000000
    3      -23.283244   1.000000
    4       -2.284797   1.000000
    5        1.785749   1.000000
    6        3.233448   1.000000
    7        3.430552   1.000000
    8        3.489090   1.000000
    9        3.713635   1.000000
   10        4.379901   1.000000
   11        5.610439   1.000000
   12        5.769289   1.000000
   13        8.352810   1.000000
   14        9.080388   0.000000
   15        9.991618   0.000000
   16       10.500419   0.000000

  0.2307692E+00  0.1538462E+00  0.7692308E-01  0.1092399E-01
    1      -23.286462   1.000000
    2      -23.281877   1.000000
    3      -23.280892   1.000000
    4       -3.443263   1.000000
    5        2.221370   1.000000
    6        2.830578   1.000000
    7        3.020904   1.000000
    8        3.833930   1.000000
    9        3.892457   1.000000
   10        5.737978   1.000000
   11        6.455411   1.000000
   12        6.946548   1.000000
   13        8.831988   1.000000
   14        9.347136   0.000000
   15        9.807415   0.000000
   16       10.681145   0.000000

  0.3076923E+00  0.1538462E+00  0.7692308E-01  0.2184797E-01
    1      -23.289717   1.000000
    2      -23.282312   1.000000
    3      -23.280671   1.000000
    4       -3.172398   1.000000
    5        1.978834   1.000000
    6        2.745928   1.000000
    7        3.026219   1.000000
    8        3.880722   1.000000