 vasp.6.0.8 29Jun18 (build Jun 13 2019 12:54:44) complex

 executed on      IFC18_CrayMPICH date 2021.11.11  15:46:19
 running   64 mpi-ranks, with    1 threads/rank
 distrk:  each k-point on   16 cores,    4 groups
 distr:  one band on NCORES_PER_BAND=   4 cores,    4 groups


--------------------------------------------------------------------------------------------------------


 INCAR:
 POTCAR:    PAW_PBE Hf_pv 06Sep2000
 POTCAR:    PAW_PBE Pt 04Feb2005
 POTCAR:    PAW_PBE Sb 06Sep2000
 POTCAR:    PAW_PBE Hf_pv 06Sep2000
   VRHFIN =Hf: 5p6s5d
   LEXCH  = PE
   EATOM  =   860.9206 eV,   63.2759 Ry

   TITEL  = PAW_PBE Hf_pv 06Sep2000
   LULTRA =        F    use ultrasoft PP ?
   IUNSCR =        1    unscreen: 0-lin 1-nonlin 2-no
   RPACOR =    2.500    partial core radius
   POMASS =  178.490; ZVAL   =   10.000    mass and valenz
   RCORE  =    2.600    outmost cutoff radius
   RWIGS  =    3.050; RWIGS  =    1.614    wigner-seitz radius (au A)
   ENMAX  =  220.334; ENMIN  =  165.250 eV
   RCLOC  =    2.212    cutoff for local pot
   LCOR   =        T    correct aug charges
   LPAW   =        T    paw PP
   EAUG   =  380.878
   DEXC   =    0.000
   RMAX   =    2.665    core radius for proj-oper
   RAUG   =    1.300    factor for augmentation sphere
   RDEP   =    2.681    radius for radial grids
   RDEPT  =    2.139    core radius for aug-charge

   Atomic configuration
   15 entries
     n  l   j            E        occ.
     1  0  0.50    -65259.4397   2.0000
     2  0  0.50    -11157.9884   2.0000
     2  1  1.50     -9795.2114   6.0000
     3  0  0.50     -2541.4060   2.0000
     3  1  1.50     -2134.4772   6.0000
     3  2  2.50     -1653.5420  10.0000
     4  0  0.50      -510.9577   2.0000
     4  1  1.50      -377.5024   6.0000
     4  2  2.50      -205.2086  10.0000
     4  3  3.50       -15.4906  14.0000
     5  0  0.50       -65.6020   2.0000
     5  1  1.50       -34.2798   6.0000
     5  2  2.50        -1.9877   3.0000
     6  0  0.50        -4.7357   1.0000
     5  3  2.50        -1.3606   0.0000
   Description
     l       E           TYP  RCUT    TYP  RCUT
     1    -34.2797769     23  2.500
     1    -35.6403595     23  2.500
     2     -1.9876655     23  2.500
     2      0.0744675     23  2.500
     0     -4.7356889     23  2.600
     0      3.2364748     23  2.600
  local pseudopotential read in
  partial core-charges read in
  partial kinetic energy density read in
  atomic valenz-charges read in
  non local Contribution for L=           1  read in
    real space projection operators read in
  non local Contribution for L=           1  read in
    real space projection operators read in
  non local Contribution for L=           2  read in
    real space projection operators read in
  non local Contribution for L=           2  read in
    real space projection operators read in
  non local Contribution for L=           0  read in
    real space projection operators read in
  non local Contribution for L=           0  read in
    real space projection operators read in
    PAW grid and wavefunctions read in

   number of l-projection  operators is LMAX  =           6
   number of lm-projection operators is LMMAX =          18

 POTCAR:    PAW_PBE Pt 04Feb2005
   VRHFIN =Pt: s1d9
   LEXCH  = PE
   EATOM  =   729.1176 eV,   53.5886 Ry

   TITEL  = PAW_PBE Pt 04Feb2005
   LULTRA =        F    use ultrasoft PP ?
   IUNSCR =        1    unscreen: 0-lin 1-nonlin 2-no
   RPACOR =    2.330    partial core radius
   POMASS =  195.080; ZVAL   =   10.000    mass and valenz
   RCORE  =    2.600    outmost cutoff radius
   RWIGS  =    2.750; RWIGS  =    1.455    wigner-seitz radius (au A)
   ENMAX  =  230.283; ENMIN  =  172.712 eV
   ICORE  =        3    local potential
   LCOR   =        T    correct aug charges
   LPAW   =        T    paw PP
   EAUG   =  358.966
   DEXC   =    0.000
   RMAX   =    2.658    core radius for proj-oper
   RAUG   =    1.300    factor for augmentation sphere
   RDEP   =    2.761    radius for radial grids
   RDEPT  =    2.203    core radius for aug-charge

   Atomic configuration
   16 entries
     n  l   j            E        occ.
     1  0  0.50    -78401.1885   2.0000
     2  0  0.50    -13770.7750   2.0000
     2  1  1.50    -11931.0468   6.0000
     3  0  0.50     -3234.7234   2.0000
     3  1  1.50     -2699.2216   6.0000
     3  2  2.50     -2119.5714  10.0000
     4  0  0.50      -695.1528   2.0000
     4  1  1.50      -519.6034   6.0000
     4  2  2.50      -306.6786  10.0000
     4  3  3.50       -70.1041  14.0000
     5  0  0.50      -101.7747   2.0000
     5  1  1.50       -55.9873   6.0000
     5  2  2.50        -6.1423   9.0000
     6  0  0.50        -5.6573   1.0000
     6  1  1.50        -6.8029   0.0000
     5  3  2.50        -1.3606   0.0000
   Description
     l       E           TYP  RCUT    TYP  RCUT
     2     -6.1423404     23  2.500
     2     -7.5029230     23  2.500
     0     -5.6573207     23  2.500
     0      0.7416693     23  2.500
     1     -2.7211652     23  2.600
     1     20.4087390     23  2.600
     3     -1.3605826     23  2.500
  local pseudopotential read in
  partial core-charges read in
  partial kinetic energy density read in
  atomic valenz-charges read in
  non local Contribution for L=           2  read in
    real space projection operators read in
  non local Contribution for L=           2  read in
    real space projection operators read in
  non local Contribution for L=           0  read in
    real space projection operators read in
  non local Contribution for L=           0  read in
    real space projection operators read in
  non local Contribution for L=           1  read in
    real space projection operators read in
  non local Contribution for L=           1  read in
    real space projection operators read in
    PAW grid and wavefunctions read in

   number of l-projection  operators is LMAX  =           6
   number of lm-projection operators is LMMAX =          18

 POTCAR:    PAW_PBE Sb 06Sep2000
   VRHFIN =Sb: s2p3
   LEXCH  = PE
   EATOM  =   149.9515 eV,   11.0211 Ry

   TITEL  = PAW_PBE Sb 06Sep2000
   LULTRA =        F    use ultrasoft PP ?
   IUNSCR =        1    unscreen: 0-lin 1-nonlin 2-no
   RPACOR =    2.200    partial core radius
   POMASS =  121.750; ZVAL   =    5.000    mass and valenz
   RCORE  =    2.300    outmost cutoff radius
   RWIGS  =    2.980; RWIGS  =    1.577    wigner-seitz radius (au A)
   ENMAX  =  172.069; ENMIN  =  129.052 eV
   ICORE  =        3    local potential
   LCOR   =        T    correct aug charges
   LPAW   =        T    paw PP
   EAUG   =  380.513
   DEXC   =    0.000
   RMAX   =    2.346    core radius for proj-oper
   RAUG   =    1.300    factor for augmentation sphere
   RDEP   =    2.360    radius for radial grids
   RDEPT  =    2.192    core radius for aug-charge

   Atomic configuration
   13 entries
     n  l   j            E        occ.
     1  0  0.50    -30298.2797   2.0000
     2  0  0.50     -4610.2252   2.0000
     2  1  1.50     -4138.3407   6.0000
     3  0  0.50      -903.8815   2.0000
     3  1  1.50      -750.1337   6.0000
     3  2  2.50      -515.7092  10.0000
     4  0  0.50      -148.8034   2.0000
     4  1  1.50      -101.7581   6.0000
     4  2  2.50       -33.5048  10.0000
     5  0  0.50       -12.8298   2.0000
     5  1  0.50        -4.8276   3.0000
     5  2  1.50        -4.0817   0.0000
     4  3  2.50        -4.0817   0.0000
   Description
     l       E           TYP  RCUT    TYP  RCUT
     0    -12.8297861     23  2.300
     0     13.6058260     23  2.300
     1     -4.8275512     23  2.300
     1     -0.7245443     23  2.300
     2     -4.0817478     23  2.300
     3     -1.3605826     23  2.300
  local pseudopotential read in
  partial core-charges read in
  partial kinetic energy density read in
  atomic valenz-charges read in
  non local Contribution for L=           0  read in
    real space projection operators read in
  non local Contribution for L=           0  read in
    real space projection operators read in
  non local Contribution for L=           1  read in
    real space projection operators read in
  non local Contribution for L=           1  read in
    real space projection operators read in
  non local Contribution for L=           2  read in
    real space projection operators read in
    PAW grid and wavefunctions read in

   number of l-projection  operators is LMAX  =           5
   number of lm-projection operators is LMMAX =          13


 -----------------------------------------------------------------------------
|                                                                             |
|  ADVICE TO THIS USER RUNNING 'VASP/VAMP'   (HEAR YOUR MASTER'S VOICE ...):  |
|                                                                             |
|      You enforced a specific xc-type in the INCAR file,                     |
|      a different type was found on the POTCAR file                          |
|          I HOPE YOU KNOW, WHAT YOU ARE  DOING                               |
|                                                                             |
 -----------------------------------------------------------------------------

  PAW_PBE Hf_pv 06Sep2000               :
 energy of atom  1       EATOM= -860.9206
 kinetic energy error for atom=    0.0012 (will be added to EATOM!!)
  PAW_PBE Pt 04Feb2005                  :
 energy of atom  2       EATOM= -729.1176
 kinetic energy error for atom=    0.0032 (will be added to EATOM!!)
  PAW_PBE Sb 06Sep2000                  :
 energy of atom  3       EATOM= -149.9515
 kinetic energy error for atom=    0.0005 (will be added to EATOM!!)


 POSCAR: Hf1 Sb1 Pt1
  positions in direct lattice
  No initial velocities read in
 exchange correlation table for  LEXCH =       14
   RHO(1)=    0.500       N(1)  =     2000
   RHO(2)=  100.500       N(2)  =     4000



--------------------------------------------------------------------------------------------------------


 ion  position               nearest neighbor table
   1  0.250  0.250  0.250-   2 2.78   2 2.78   2 2.78   2 2.78   3 3.22   3 3.22   3 3.22   3 3.22
                             3 3.22   3 3.22
   2  0.000  0.000  0.000-   3 2.78   3 2.78   3 2.78   1 2.78   3 2.78   1 2.78   1 2.78   1 2.78

   3  0.750  0.750  0.750-   2 2.78   2 2.78   2 2.78   2 2.78   1 3.22   1 3.22   1 3.22   1 3.22
                             1 3.22   1 3.22

  LATTYP: Found a face centered cubic cell.
 ALAT       =     6.4309200000

  Lattice vectors:

 A1 = (   0.0000000000,   3.2154600000,   3.2154600000)
 A2 = (   3.2154600000,   0.0000000000,   3.2154600000)
 A3 = (   3.2154600000,   3.2154600000,   0.0000000000)


Analysis of symmetry for initial positions (statically):
=====================================================================
 Subroutine PRICEL returns:
 Original cell was already a primitive cell.


 Routine SETGRP: Setting up the symmetry group for a
 face centered cubic supercell.


 Subroutine GETGRP returns: Found 24 space group operations
 (whereof 24 operations were pure point group operations)
 out of a pool of 48 trial point group operations.


The static configuration has the point symmetry T_d .


Analysis of symmetry for dynamics (positions and initial velocities):
=====================================================================
 Subroutine PRICEL returns:
 Original cell was already a primitive cell.


 Routine SETGRP: Setting up the symmetry group for a
 face centered cubic supercell.


 Subroutine GETGRP returns: Found 24 space group operations
 (whereof 24 operations were pure point group operations)
 out of a pool of 48 trial point group operations.


The dynamic configuration has the point symmetry T_d .


 Subroutine INISYM returns: Found 24 space group operations
 (whereof 24 operations are pure point group operations),
 and found     1 'primitive' translations


----------------------------------------------------------------------------------------

                                     Primitive cell

  volume of cell :      66.4905

  direct lattice vectors                    reciprocal lattice vectors
     0.000000000  3.215460000  3.215460000    -0.155498747  0.155498747  0.155498747
     3.215460000  0.000000000  3.215460000     0.155498747 -0.155498747  0.155498747
     3.215460000  3.215460000  0.000000000     0.155498747  0.155498747 -0.155498747

  length of vectors
     4.547347141  4.547347141  4.547347141     0.269331730  0.269331730  0.269331730

  position of ions in fractional coordinates (direct lattice)
     0.250000000  0.250000000  0.250000000
     0.000000000  0.000000000  0.000000000
     0.750000000  0.750000000  0.750000000

  ion indices of the primitive-cell ions
   primitive index   ion index
                 1           1
                 2           2
                 3           3

----------------------------------------------------------------------------------------



 KPOINTS: KPOINTS

Automatic generation of k-mesh.
Space group operators:
 irot       det(A)        alpha          n_x          n_y          n_z        tau_x        tau_y        tau_z
    1     1.000000     0.000001     1.000000     0.000000     0.000000     0.000000     0.000000     0.000000
    2     1.000000   120.000000    -0.577350    -0.577350    -0.577350     0.000000     0.000000     0.000000
    3     1.000000   120.000000     0.577350     0.577350     0.577350     0.000000     0.000000     0.000000
    4    -1.000000    90.000000     0.000000     0.000000    -1.000000     0.000000     0.000000     0.000000
    5    -1.000000   180.000000     0.000000     0.707107     0.707107     0.000000     0.000000     0.000000
    6    -1.000000    90.000000     0.000000     1.000000     0.000000     0.000000     0.000000     0.000000
    7     1.000000   180.000000    -0.000000     0.000000     1.000000     0.000000     0.000000     0.000000
    8     1.000000   120.000000    -0.577350     0.577350     0.577350     0.000000     0.000000     0.000000
    9     1.000000   120.000000    -0.577350     0.577350    -0.577350     0.000000     0.000000     0.000000
   10    -1.000000    90.000000     0.000000     0.000000     1.000000     0.000000     0.000000     0.000000
   11    -1.000000    90.000000    -1.000000    -0.000000    -0.000000     0.000000     0.000000     0.000000
   12    -1.000000   180.000000     0.707107     0.000000     0.707107     0.000000     0.000000     0.000000
   13     1.000000   120.000000     0.577350    -0.577350     0.577350     0.000000     0.000000     0.000000
   14     1.000000   120.000000    -0.577350    -0.577350     0.577350     0.000000     0.000000     0.000000
   15     1.000000   180.000000     1.000000     0.000000     0.000000     0.000000     0.000000     0.000000
   16    -1.000000    90.000000     0.000000    -1.000000     0.000000     0.000000     0.000000     0.000000
   17    -1.000000   180.000000     0.707107     0.707107     0.000000     0.000000     0.000000     0.000000
   18    -1.000000    90.000000     1.000000     0.000000    -0.000000     0.000000     0.000000     0.000000
   19     1.000000   120.000000     0.577350    -0.577350    -0.577350     0.000000     0.000000     0.000000
   20     1.000000   180.000000     0.000000     1.000000     0.000000     0.000000     0.000000     0.000000
   21     1.000000   120.000000     0.577350     0.577350    -0.577350     0.000000     0.000000     0.000000
   22    -1.000000   180.000000     0.000000    -0.707107     0.707107     0.000000     0.000000     0.000000
   23    -1.000000   180.000000     0.707107    -0.707107    -0.000000     0.000000     0.000000     0.000000
   24    -1.000000   180.000000    -0.707107     0.000000     0.707107     0.000000     0.000000     0.000000

 Subroutine IBZKPT returns following result:
 ===========================================

 Found     84 irreducible k-points:

 Following reciprocal coordinates:
            Coordinates               Weight
  0.000000  0.000000  0.000000      1.000000
  0.076923  0.000000 -0.000000      8.000000
  0.153846 -0.000000  0.000000      8.000000
  0.230769  0.000000 -0.000000      8.000000
  0.307692 -0.000000  0.000000      8.000000
  0.384615  0.000000 -0.000000      8.000000
  0.461538  0.000000  0.000000      8.000000
  0.076923  0.076923  0.000000      6.000000
  0.153846  0.076923  0.000000     24.000000
  0.230769  0.076923  0.000000     24.000000
  0.307692  0.076923  0.000000     24.000000
  0.384615  0.076923  0.000000     24.000000
  0.461538  0.076923  0.000000     24.000000
 -0.461538  0.076923  0.000000     24.000000
 -0.384615  0.076923 -0.000000     24.000000
 -0.307692  0.076923  0.000000     24.000000
 -0.230769  0.076923 -0.000000     24.000000
 -0.153846  0.076923 -0.000000     24.000000
 -0.076923  0.076923  0.000000     12.000000
  0.153846  0.153846  0.000000      6.000000
  0.230769  0.153846  0.000000     24.000000
  0.307692  0.153846  0.000000     24.000000
  0.384615  0.153846  0.000000     24.000000
  0.461538  0.153846  0.000000     24.000000
 -0.461538  0.153846 -0.000000     24.000000
 -0.384615  0.153846  0.000000     24.000000
 -0.307692  0.153846  0.000000     24.000000
 -0.230769  0.153846 -0.000000     24.000000
 -0.153846  0.153846 -0.000000     12.000000
  0.230769  0.230769  0.000000      6.000000
  0.307692  0.230769  0.000000     24.000000
  0.384615  0.230769  0.000000     24.000000
  0.461538  0.230769  0.000000     24.000000
 -0.461538  0.230769 -0.000000     24.000000
 -0.384615  0.230769  0.000000     24.000000
 -0.307692  0.230769  0.000000     24.000000
 -0.230769  0.230769 -0.000000     12.000000
  0.307692  0.307692  0.000000      6.000000
  0.384615  0.307692  0.000000     24.000000
  0.461538  0.307692  0.000000     24.000000
 -0.461538  0.307692  0.000000     24.000000
 -0.384615  0.307692 -0.000000     24.000000
 -0.307692  0.307692 -0.000000     12.000000
  0.384615  0.384615  0.000000      6.000000
  0.461538  0.384615  0.000000     24.000000
 -0.461538  0.384615 -0.000000     24.000000
 -0.384615  0.384615  0.000000     12.000000
  0.461538  0.461538  0.000000      6.000000
 -0.461538  0.461538  0.000000     12.000000
  0.230769  0.153846  0.076923     24.000000
  0.307692  0.153846  0.076923     48.000000
  0.384615  0.153846  0.076923     48.000000
  0.461538  0.153846  0.076923     48.000000
 -0.461538  0.153846  0.076923     48.000000
  0.307692  0.230769  0.076923     24.000000
  0.384615  0.230769  0.076923     48.000000
  0.461538  0.230769  0.076923     48.000000
 -0.461538  0.230769  0.076923     48.000000
 -0.384615  0.230769  0.076923     48.000000
 -0.307692  0.230769  0.076923     48.000000
 -0.230769  0.230769  0.076923     48.000000
 -0.153846  0.230769  0.076923     24.000000
  0.384615  0.307692  0.076923     24.000000
  0.461538  0.307692  0.076923     48.000000
 -0.461538  0.307692  0.076923     48.000000
 -0.384615  0.307692  0.076923     48.000000
 -0.307692  0.307692  0.076923     48.000000
 -0.230769  0.307692  0.076923     24.000000
  0.461538  0.384615  0.076923     24.000000
 -0.461538  0.384615  0.076923     48.000000
 -0.384615  0.384615  0.076923     48.000000
 -0.307692  0.384615  0.076923     24.000000
 -0.461538  0.461538  0.076923     24.000000
 -0.384615  0.461538  0.076923     24.000000
  0.461538  0.307692  0.153846     24.000000
 -0.461538  0.307692  0.153846     48.000000
 -0.384615  0.307692  0.153846     48.000000
 -0.461538  0.384615  0.153846     24.000000
 -0.384615  0.384615  0.153846     48.000000
 -0.307692  0.384615  0.153846     48.000000
 -0.230769  0.384615  0.153846     24.000000
 -0.384615  0.461538  0.153846     24.000000
 -0.307692  0.461538  0.153846     24.000000
 -0.307692  0.461538  0.230769     24.000000

 Following cartesian coordinates:
            Coordinates               Weight
  0.000000  0.000000  0.000000      1.000000
 -0.011961  0.011961  0.011961      8.000000
 -0.023923  0.023923  0.023923      8.000000
 -0.035884  0.035884  0.035884      8.000000
 -0.047846  0.047846  0.047846      8.000000
 -0.059807  0.059807  0.059807      8.000000
 -0.071769  0.071769  0.071769      8.000000
  0.000000  0.000000  0.023923      6.000000
 -0.011961  0.011961  0.035884     24.000000
 -0.023923  0.023923  0.047846     24.000000
 -0.035884  0.035884  0.059807     24.000000
 -0.047846  0.047846  0.071769     24.000000
 -0.059807  0.059807  0.083730     24.000000
  0.083730 -0.083730 -0.059807     24.000000
  0.071769 -0.071769 -0.047846     24.000000
  0.059807 -0.059807 -0.035884     24.000000
  0.047846 -0.047846 -0.023923     24.000000
  0.035884 -0.035884 -0.011961     24.000000
  0.023923 -0.023923 -0.000000     12.000000
  0.000000 -0.000000  0.047846      6.000000
 -0.011961  0.011961  0.059807     24.000000
 -0.023923  0.023923  0.071769     24.000000
 -0.035884  0.035884  0.083730     24.000000
 -0.047846  0.047846  0.095692     24.000000
  0.095692 -0.095692 -0.047846     24.000000
  0.083730 -0.083730 -0.035884     24.000000
  0.071769 -0.071769 -0.023923     24.000000
  0.059807 -0.059807 -0.011961     24.000000
  0.047846 -0.047846  0.000000     12.000000
 -0.000000  0.000000  0.071769      6.000000
 -0.011961  0.011961  0.083730     24.000000
 -0.023923  0.023923  0.095692     24.000000
 -0.035884  0.035884  0.107653     24.000000
  0.107653 -0.107653 -0.035884     24.000000
  0.095692 -0.095692 -0.023923     24.000000
  0.083730 -0.083730 -0.011961     24.000000
  0.071769 -0.071769  0.000000     12.000000
  0.000000 -0.000000  0.095692      6.000000
 -0.011961  0.011961  0.107653     24.000000
 -0.023923  0.023923  0.119614     24.000000
  0.119614 -0.119614 -0.023923     24.000000
  0.107653 -0.107653 -0.011961     24.000000
  0.095692 -0.095692  0.000000     12.000000
 -0.000000  0.000000  0.119614      6.000000
 -0.011961  0.011961  0.131576     24.000000
  0.131576 -0.131576 -0.011961     24.000000
  0.119614 -0.119614 -0.000000     12.000000
 -0.000000  0.000000  0.143537      6.000000
  0.143537 -0.143537 -0.000000     12.000000
 -0.000000  0.023923  0.047846     24.000000
 -0.011961  0.035884  0.059807     48.000000
 -0.023923  0.047846  0.071769     48.000000
 -0.035884  0.059807  0.083730     48.000000
  0.107653 -0.083730 -0.059807     48.000000
  0.000000  0.023923  0.071769     24.000000
 -0.011961  0.035884  0.083730     48.000000
 -0.023923  0.047846  0.095692     48.000000
  0.119614 -0.095692 -0.047846     48.000000
  0.107653 -0.083730 -0.035884     48.000000
  0.095692 -0.071769 -0.023923     48.000000
  0.083730 -0.059807 -0.011961     48.000000
  0.071769 -0.047846  0.000000     24.000000
  0.000000  0.023923  0.095692     24.000000
 -0.011961  0.035884  0.107653     48.000000
  0.131576 -0.107653 -0.035884     48.000000
  0.119614 -0.095692 -0.023923     48.000000
  0.107653 -0.083730 -0.011961     48.000000
  0.095692 -0.071769 -0.000000     24.000000
  0.000000  0.023923  0.119614     24.000000
  0.143537 -0.119614 -0.023923     48.000000
  0.131576 -0.107653 -0.011961     48.000000
  0.119614 -0.095692  0.000000     24.000000
  0.155499 -0.131576 -0.011961     24.000000
  0.143537 -0.119614 -0.000000     24.000000
 -0.000000  0.047846  0.095692     24.000000
  0.143537 -0.095692 -0.047846     48.000000
  0.131576 -0.083730 -0.035884     48.000000
  0.155499 -0.107653 -0.035884     24.000000
  0.143537 -0.095692 -0.023923     48.000000
  0.131576 -0.083730 -0.011961     48.000000
  0.119614 -0.071769 -0.000000     24.000000
  0.155499 -0.107653 -0.011961     24.000000
  0.143537 -0.095692 -0.000000     24.000000
  0.155499 -0.083730 -0.011961     24.000000



--------------------------------------------------------------------------------------------------------




 Dimension of arrays:
   k-points           NKPTS =     84   k-points in BZ     NKDIM =     84   number of bands    NBANDS=     16
   number of dos      NEDOS =    301   number of ions     NIONS =      3
   non local maximal  LDIM  =      6   non local SUM 2l+1 LMDIM =     18
   total plane-waves  NPLWV =  46656
   max r-space proj   IRMAX =      1   max aug-charges    IRDMAX=  42694
   dimension x,y,z NGX =    36 NGY =   36 NGZ =   36
   dimension x,y,z NGXF=    72 NGYF=   72 NGZF=   72
   support grid    NGXF=    72 NGYF=   72 NGZF=   72
   ions per type =               1   1   1
   NGX,Y,Z   is equivalent  to a cutoff of  13.16, 13.16, 13.16 a.u.
   NGXF,Y,Z  is equivalent  to a cutoff of  26.32, 26.32, 26.32 a.u.

 SYSTEM =  unknown system
 POSCAR =  Hf1 Sb1 Pt1

 Startparameter for this run:
   NWRITE =      2    write-flag & timer
   PREC   = acc       normal or accurate (medium, high low for compatibility)
   ISTART =      0    job   : 0-new  1-cont  2-samecut
   ICHARG =      2    charge: 1-file 2-atom 10-const
   ISPIN  =      1    spin polarized calculation?
   LNONCOLLINEAR =      F non collinear calculations
   LSORBIT =      F    spin-orbit coupling
   INIWAV =      1    electr: 0-lowe 1-rand  2-diag
   LASPH  =      F    aspherical Exc in radial PAW
   METAGGA=      F    non-selfconsistent MetaGGA calc.

 Electronic Relaxation 1
   ENCUT  =  520.0 eV  38.22 Ry    6.18 a.u.   8.46  8.46  8.46*2*pi/ulx,y,z
   ENINI  =  520.0     initial cutoff
   ENAUG  =  380.9 eV  augmentation charge cutoff
   NELM   =     60;   NELMIN=  5; NELMDL= -5     # of ELM steps
   EDIFF  = 0.1E-04   stopping-criterion for ELM
   LREAL  =      F    real-space projection
   NLSPLINE    = F    spline interpolate recip. space projectors
   LCOMPAT=      F    compatible to vasp.4.4
   GGA_COMPAT  = T    GGA compatible to vasp.4.4-vasp.4.6
   LMAXPAW     = -100 max onsite density
   LMAXMIX     =    2 max onsite mixed and CHGCAR
   VOSKOWN=      0    Vosko Wilk Nusair interpolation
   ROPT   =    0.00000   0.00000   0.00000
 Ionic relaxation
   EDIFFG = 0.1E-03   stopping-criterion for IOM
   NSW    =     60    number of steps for IOM
   NBLOCK =      1;   KBLOCK =     60    inner block; outer block
   IBRION =      2    ionic relax: 0-MD 1-quasi-New 2-CG
   NFREE  =      1    steps in history (QN), initial steepest desc. (CG)
   ISIF   =      7    stress and relaxation
   IWAVPR =     11    prediction:  0-non 1-charg 2-wave 3-comb
   ISYM   =      2    0-nonsym 1-usesym 2-fastsym
   LCORR  =      T    Harris-Foulkes like correction to forces

   POTIM  = 0.1000    time-step for ionic-motion
   TEIN   =    0.0    initial temperature
   TEBEG  =    0.0;   TEEND  =   0.0 temperature during run
   SMASS  =  -3.00    Nose mass-parameter (am)
   estimated Nose-frequenzy (Omega)   =  0.10E-29 period in steps = 0.63E+47 mass=  -0.473E-27a.u.
   SCALEE = 1.0000    scale energy and forces
   NPACO  =    256;   APACO  = 16.0  distance and # of slots for P.C.
   PSTRESS=    0.0 pullay stress

  Mass of Ions in am
   POMASS = 178.49195.08121.75
  Ionic Valenz
   ZVAL   =  10.00 10.00  5.00
  Atomic Wigner-Seitz radii
   RWIGS  =  -1.00 -1.00 -1.00
  virtual crystal weights
   VCA    =   1.00  1.00  1.00
   NELECT =      25.0000    total number of electrons
   NUPDOWN=      -1.0000    fix difference up-down

 DOS related values:
   EMIN   =  10.00;   EMAX   =-10.00  energy-range for DOS
   EFERMI =   0.00
   ISMEAR =     0;   SIGMA  =   0.01  broadening in eV -4-tet -1-fermi 0-gaus

 Electronic relaxation 2 (details)
   IALGO  =     38    algorithm
   LDIAG  =      T    sub-space diagonalisation (order eigenvalues)
   LSUBROT=      F    optimize rotation matrix (better conditioning)
   TURBO    =      0    0=normal 1=particle mesh
   IRESTART =      0    0=no restart 2=restart with 2 vectors
   NREBOOT  =      0    no. of reboots
   NMIN     =      0    reboot dimension
   EREF     =   0.00    reference energy to select bands
   IMIX   =      4    mixing-type and parameters
     AMIX     =   0.40;   BMIX     =  1.00
     AMIX_MAG =   1.60;   BMIX_MAG =  1.00
     AMIN     =   0.10
     WC   =   100.;   INIMIX=   1;  MIXPRE=   1;  MAXMIX= -45

 Intra band minimization:
   WEIMIN = 0.0010     energy-eigenvalue tresh-hold
   EBREAK =  0.16E-06  absolut break condition
   DEPER  =   0.30     relativ break condition

   TIME   =   0.40     timestep for ELM

  volume/ion in A,a.u.               =      22.16       149.57
  Fermi-wavevector in a.u.,A,eV,Ry     =   1.181594  2.232889 18.995980  1.396165
  Thomas-Fermi vector in A             =   2.317865

 Write flags
   LWAVE        =      F    write WAVECAR
   LDOWNSAMPLE  =      F    k-point downsampling of WAVECAR
   LCHARG       =      F    write CHGCAR
   LVTOT        =      F    write LOCPOT, total local potential
   LVHAR        =      F    write LOCPOT, Hartree potential only
   LELF         =      F    write electronic localiz. function (ELF)
   LORBIT       =      0    0 simple, 1 ext, 2 COOP (PROOUT), +10 PAW based schemes


 Dipole corrections
   LMONO  =      F    monopole corrections only (constant potential shift)
   LDIPOL =      F    correct potential (dipole corrections)
   IDIPOL =      0    1-x, 2-y, 3-z, 4-all directions
   EPSILON=  1.0000000 bulk dielectric constant

 Exchange correlation treatment:
   GGA     =    PS    GGA type
   LEXCH   =    14    internal setting for exchange type
   VOSKOWN=      0    Vosko Wilk Nusair interpolation
   LHFCALC =     F    Hartree Fock is set to
   LHFONE  =     F    Hartree Fock one center treatment
   AEXX    =    0.0000 exact exchange contribution

 Linear response parameters
   LEPSILON=     F    determine dielectric tensor
   LRPA    =     F    only Hartree local field effects (RPA)
   LNABLA  =     F    use nabla operator in PAW spheres
   LVEL    =     F    velocity operator in full k-point grid
   LINTERFAST=   F  fast interpolation
   KINTER  =     0    interpolate to denser k-point grid
   CSHIFT  =0.1000    complex shift for real part using Kramers Kronig
   OMEGAMAX=  -1.0    maximum frequency
   DEG_THRESHOLD= 0.2000000E-02 threshold for treating states as degnerate
   RTIME   =   -0.100 relaxation time in fs
  (WPLASMAI=    0.000 imaginary part of plasma frequency in eV, 0.658/RTIME)
   DFIELD  = 0.0000000 0.0000000 0.0000000 field for delta impulse in time

 Orbital magnetization related:
   ORBITALMAG=     F  switch on orbital magnetization
   LCHIMAG   =     F  perturbation theory with respect to B field
   DQ        =  0.001000  dq finite difference perturbation B field
   LLRAUG    =     F  two centre corrections for induced B field



--------------------------------------------------------------------------------------------------------


 conjugate gradient relaxation of ions
 charge density and potential will be updated during run
 non-spin polarized calculation
 Variant of blocked Davidson
 Davidson routine will perform the subspace rotation
 perform sub-space diagonalisation
    after iterative eigenvector-optimisation
 modified Broyden-mixing scheme, WC =      100.0
 initial mixing is a Kerker type mixing with AMIX =  0.4000 and BMIX =      1.0000
 Hartree-type preconditioning will be used
 using additional bands            3
 reciprocal scheme for non local part
 use partial core corrections
 calculate Harris-corrections to forces
   (improved forces if not selfconsistent)
 use gradient corrections
 use of overlap-Matrix (Vanderbilt PP)
 Gauss-broadening in eV      SIGMA  =   0.01


--------------------------------------------------------------------------------------------------------


  energy-cutoff  :      520.00
  volume of cell :       66.49
      direct lattice vectors                 reciprocal lattice vectors
     0.000000000  3.215460000  3.215460000    -0.155498747  0.155498747  0.155498747
     3.215460000  0.000000000  3.215460000     0.155498747 -0.155498747  0.155498747
     3.215460000  3.215460000  0.000000000     0.155498747  0.155498747 -0.155498747

  length of vectors
     4.547347141  4.547347141  4.547347141     0.269331730  0.269331730  0.269331730



 k-points in units of 2pi/SCALE and weight: KPOINTS
   0.00000000  0.00000000  0.00000000       0.000
  -0.01196144  0.01196144  0.01196144       0.004
  -0.02392288  0.02392288  0.02392288       0.004
  -0.03588433  0.03588433  0.03588433       0.004
  -0.04784577  0.04784577  0.04784577       0.004
  -0.05980721  0.05980721  0.05980721       0.004
  -0.07176865  0.07176865  0.07176865       0.004
   0.00000000  0.00000000  0.02392288       0.003
  -0.01196144  0.01196144  0.03588433       0.011
  -0.02392288  0.02392288  0.04784577       0.011
  -0.03588433  0.03588433  0.05980721       0.011
  -0.04784577  0.04784577  0.07176865       0.011
  -0.05980721  0.05980721  0.08373009       0.011
   0.08373009 -0.08373009 -0.05980721       0.011
   0.07176865 -0.07176865 -0.04784577       0.011
   0.05980721 -0.05980721 -0.03588433       0.011
   0.04784577 -0.04784577 -0.02392288       0.011
   0.03588433 -0.03588433 -0.01196144       0.011
   0.02392288 -0.02392288 -0.00000000       0.005
   0.00000000 -0.00000000  0.04784577       0.003
  -0.01196144  0.01196144  0.05980721       0.011
  -0.02392288  0.02392288  0.07176865       0.011
  -0.03588433  0.03588433  0.08373009       0.011
  -0.04784577  0.04784577  0.09569154       0.011
   0.09569154 -0.09569154 -0.04784577       0.011
   0.08373009 -0.08373009 -0.03588433       0.011
   0.07176865 -0.07176865 -0.02392288       0.011
   0.05980721 -0.05980721 -0.01196144       0.011
   0.04784577 -0.04784577  0.00000000       0.005
  -0.00000000  0.00000000  0.07176865       0.003
  -0.01196144  0.01196144  0.08373009       0.011
  -0.02392288  0.02392288  0.09569154       0.011
  -0.03588433  0.03588433  0.10765298       0.011
   0.10765298 -0.10765298 -0.03588433       0.011
   0.09569154 -0.09569154 -0.02392288       0.011
   0.08373009 -0.08373009 -0.01196144       0.011
   0.07176865 -0.07176865  0.00000000       0.005
   0.00000000 -0.00000000  0.09569154       0.003
  -0.01196144  0.01196144  0.10765298       0.011
  -0.02392288  0.02392288  0.11961442       0.011
   0.11961442 -0.11961442 -0.02392288       0.011
   0.10765298 -0.10765298 -0.01196144       0.011
   0.09569154 -0.09569154  0.00000000       0.005
  -0.00000000  0.00000000  0.11961442       0.003
  -0.01196144  0.01196144  0.13157586       0.011
   0.13157586 -0.13157586 -0.01196144       0.011
   0.11961442 -0.11961442 -0.00000000       0.005
  -0.00000000  0.00000000  0.14353730       0.003
   0.14353730 -0.14353730 -0.00000000       0.005
  -0.00000000  0.02392288  0.04784577       0.011
  -0.01196144  0.03588433  0.05980721       0.022
  -0.02392288  0.04784577  0.07176865       0.022
  -0.03588433  0.05980721  0.08373009       0.022
   0.10765298 -0.08373009 -0.05980721       0.022
   0.00000000  0.02392288  0.07176865       0.011
  -0.01196144  0.03588433  0.08373009       0.022
  -0.02392288  0.04784577  0.09569154       0.022
   0.11961442 -0.09569154 -0.04784577       0.022
   0.10765298 -0.08373009 -0.03588433       0.022
   0.09569154 -0.07176865 -0.02392288       0.022
   0.08373009 -0.05980721 -0.01196144       0.022
   0.07176865 -0.04784577  0.00000000       0.011
   0.00000000  0.02392288  0.09569154       0.011
  -0.01196144  0.03588433  0.10765298       0.022
   0.13157586 -0.10765298 -0.03588433       0.022
   0.11961442 -0.09569154 -0.02392288       0.022
   0.10765298 -0.08373009 -0.01196144       0.022
   0.09569154 -0.07176865 -0.00000000       0.011
   0.00000000  0.02392288  0.11961442       0.011
   0.14353730 -0.11961442 -0.02392288       0.022
   0.13157586 -0.10765298 -0.01196144       0.022
   0.11961442 -0.09569154  0.00000000       0.011
   0.15549875 -0.13157586 -0.01196144       0.011
   0.14353730 -0.11961442 -0.00000000       0.011
  -0.00000000  0.04784577  0.09569154       0.011
   0.14353730 -0.09569154 -0.04784577       0.022
   0.13157586 -0.08373009 -0.03588433       0.022
   0.15549875 -0.10765298 -0.03588433       0.011
   0.14353730 -0.09569154 -0.02392288       0.022
   0.13157586 -0.08373009 -0.01196144       0.022
   0.11961442 -0.07176865 -0.00000000       0.011
   0.15549875 -0.10765298 -0.01196144       0.011
   0.14353730 -0.09569154 -0.00000000       0.011
   0.15549875 -0.08373009 -0.01196144       0.011

 k-points in reciprocal lattice and weights: KPOINTS
   0.00000000  0.00000000  0.00000000       0.000
   0.07692308  0.00000000 -0.00000000       0.004
   0.15384615 -0.00000000  0.00000000       0.004
   0.23076923  0.00000000 -0.00000000       0.004
   0.30769231 -0.00000000  0.00000000       0.004
   0.38461538  0.00000000 -0.00000000       0.004
   0.46153846  0.00000000  0.00000000       0.004
   0.07692308  0.07692308  0.00000000       0.003
   0.15384615  0.07692308  0.00000000       0.011
   0.23076923  0.07692308  0.00000000       0.011
   0.30769231  0.07692308  0.00000000       0.011
   0.38461538  0.07692308  0.00000000       0.011
   0.46153846  0.07692308  0.00000000       0.011
  -0.46153846  0.07692308  0.00000000       0.011
  -0.38461538  0.07692308 -0.00000000       0.011
  -0.30769231  0.07692308  0.00000000       0.011
  -0.23076923  0.07692308 -0.00000000       0.011
  -0.15384615  0.07692308 -0.00000000       0.011
  -0.07692308  0.07692308  0.00000000       0.005
   0.15384615  0.15384615  0.00000000       0.003
   0.23076923  0.15384615  0.00000000       0.011
   0.30769231  0.15384615  0.00000000       0.011
   0.38461538  0.15384615  0.00000000       0.011
   0.46153846  0.15384615  0.00000000       0.011
  -0.46153846  0.15384615 -0.00000000       0.011
  -0.38461538  0.15384615  0.00000000       0.011
  -0.30769231  0.15384615  0.00000000       0.011
  -0.23076923  0.15384615 -0.00000000       0.011
  -0.15384615  0.15384615 -0.00000000       0.005
   0.23076923  0.23076923  0.00000000       0.003
   0.30769231  0.23076923  0.00000000       0.011
   0.38461538  0.23076923  0.00000000       0.011
   0.46153846  0.23076923  0.00000000       0.011
  -0.46153846  0.23076923 -0.00000000       0.011
  -0.38461538  0.23076923  0.00000000       0.011
  -0.30769231  0.23076923  0.00000000       0.011
  -0.23076923  0.23076923 -0.00000000       0.005
   0.30769231  0.30769231  0.00000000       0.003
   0.38461538  0.30769231  0.00000000       0.011
   0.46153846  0.30769231  0.00000000       0.011
  -0.46153846  0.30769231  0.00000000       0.011
  -0.38461538  0.30769231 -0.00000000       0.011
  -0.30769231  0.30769231 -0.00000000       0.005
   0.38461538  0.38461538  0.00000000       0.003
   0.46153846  0.38461538  0.00000000       0.011
  -0.46153846  0.38461538 -0.00000000       0.011
  -0.38461538  0.38461538  0.00000000       0.005
   0.46153846  0.46153846  0.00000000       0.003
  -0.46153846  0.46153846  0.00000000       0.005
   0.23076923  0.15384615  0.07692308       0.011
   0.30769231  0.15384615  0.07692308       0.022
   0.38461538  0.15384615  0.07692308       0.022
   0.46153846  0.15384615  0.07692308       0.022
  -0.46153846  0.15384615  0.07692308       0.022
   0.30769231  0.23076923  0.07692308       0.011
   0.38461538  0.23076923  0.07692308       0.022
   0.46153846  0.23076923  0.07692308       0.022
  -0.46153846  0.23076923  0.07692308       0.022
  -0.38461538  0.23076923  0.07692308       0.022
  -0.30769231  0.23076923  0.07692308       0.022
  -0.23076923  0.23076923  0.07692308       0.022
  -0.15384615  0.23076923  0.07692308       0.011
   0.38461538  0.30769231  0.07692308       0.011
   0.46153846  0.30769231  0.07692308       0.022
  -0.46153846  0.30769231  0.07692308       0.022
  -0.38461538  0.30769231  0.07692308       0.022
  -0.30769231  0.30769231  0.07692308       0.022
  -0.23076923  0.30769231  0.07692308       0.011
   0.46153846  0.38461538  0.07692308       0.011
  -0.46153846  0.38461538  0.07692308       0.022
  -0.38461538  0.38461538  0.07692308       0.022
  -0.30769231  0.38461538  0.07692308       0.011
  -0.46153846  0.46153846  0.07692308       0.011
  -0.38461538  0.46153846  0.07692308       0.011
   0.46153846  0.30769231  0.15384615       0.011
  -0.46153846  0.30769231  0.15384615       0.022
  -0.38461538  0.30769231  0.15384615       0.022
  -0.46153846  0.38461538  0.15384615       0.011
  -0.38461538  0.38461538  0.15384615       0.022
  -0.30769231  0.38461538  0.15384615       0.022
  -0.23076923  0.38461538  0.15384615       0.011
  -0.38461538  0.46153846  0.15384615       0.011
  -0.30769231  0.46153846  0.15384615       0.011
  -0.30769231  0.46153846  0.23076923       0.011

 position of ions in fractional coordinates (direct lattice)
   0.25000000  0.25000000  0.25000000
   0.00000000  0.00000000  0.00000000
   0.75000000  0.75000000  0.75000000

 position of ions in cartesian coordinates  (Angst):
   1.60773000  1.60773000  1.60773000
   0.00000000  0.00000000  0.00000000
   4.82319000  4.82319000  4.82319000



--------------------------------------------------------------------------------------------------------


 k-point  1 :   0.0000 0.0000 0.0000  plane waves:    1807
 k-point  2 :   0.0769 0.0000-0.0000  plane waves:    1816
 k-point  3 :   0.1538-0.0000 0.0000  plane waves:    1808
 k-point  4 :   0.2308 0.0000-0.0000  plane waves:    1805
 k-point  5 :   0.3077-0.0000 0.0000  plane waves:    1805
 k-point  6 :   0.3846 0.0000-0.0000  plane waves:    1790
 k-point  7 :   0.4615 0.0000 0.0000  plane waves:    1787
 k-point  8 :   0.0769 0.0769 0.0000  plane waves:    1812
 k-point  9 :   0.1538 0.0769 0.0000  plane waves:    1810
 k-point 10 :   0.2308 0.0769 0.0000  plane waves:    1806
 k-point 11 :   0.3077 0.0769 0.0000  plane waves:    1802
 k-point 12 :   0.3846 0.0769 0.0000  plane waves:    1802
 k-point 13 :   0.4615 0.0769 0.0000  plane waves:    1793
 k-point 14 :  -0.4615 0.0769 0.0000  plane waves:    1792
 k-point 15 :  -0.3846 0.0769-0.0000  plane waves:    1788
 k-point 16 :  -0.3077 0.0769 0.0000  plane waves:    1804
 k-point 17 :  -0.2308 0.0769-0.0000  plane waves:    1796
 k-point 18 :  -0.1538 0.0769-0.0000  plane waves:    1803
 k-point 19 :  -0.0769 0.0769 0.0000  plane waves:    1809
 k-point 20 :   0.1538 0.1538 0.0000  plane waves:    1800
 k-point 21 :   0.2308 0.1538 0.0000  plane waves:    1804
 k-point 22 :   0.3077 0.1538 0.0000  plane waves:    1800
 k-point 23 :   0.3846 0.1538 0.0000  plane waves:    1788
 k-point 24 :   0.4615 0.1538 0.0000  plane waves:    1791
 k-point 25 :  -0.4615 0.1538-0.0000  plane waves:    1793
 k-point 26 :  -0.3846 0.1538 0.0000  plane waves:    1789
 k-point 27 :  -0.3077 0.1538 0.0000  plane waves:    1797
 k-point 28 :  -0.2308 0.1538-0.0000  plane waves:    1799
 k-point 29 :  -0.1538 0.1538-0.0000  plane waves:    1801
 k-point 30 :   0.2308 0.2308 0.0000  plane waves:    1804
 k-point 31 :   0.3077 0.2308 0.0000  plane waves:    1787
 k-point 32 :   0.3846 0.2308 0.0000  plane waves:    1783
 k-point 33 :   0.4615 0.2308 0.0000  plane waves:    1784
 k-point 34 :  -0.4615 0.2308-0.0000  plane waves:    1786
 k-point 35 :  -0.3846 0.2308 0.0000  plane waves:    1791
 k-point 36 :  -0.3077 0.2308 0.0000  plane waves:    1794
 k-point 37 :  -0.2308 0.2308-0.0000  plane waves:    1792
 k-point 38 :   0.3077 0.3077 0.0000  plane waves:    1780
 k-point 39 :   0.3846 0.3077 0.0000  plane waves:    1779
 k-point 40 :   0.4615 0.3077 0.0000  plane waves:    1776
 k-point 41 :  -0.4615 0.3077 0.0000  plane waves:    1784
 k-point 42 :  -0.3846 0.3077-0.0000  plane waves:    1783
 k-point 43 :  -0.3077 0.3077-0.0000  plane waves:    1792
 k-point 44 :   0.3846 0.3846 0.0000  plane waves:    1764
 k-point 45 :   0.4615 0.3846 0.0000  plane waves:    1772
 k-point 46 :  -0.4615 0.3846-0.0000  plane waves:    1778
 k-point 47 :  -0.3846 0.3846 0.0000  plane waves:    1784
 k-point 48 :   0.4615 0.4615 0.0000  plane waves:    1772
 k-point 49 :  -0.4615 0.4615 0.0000  plane waves:    1768
 k-point 50 :   0.2308 0.1538 0.0769  plane waves:    1796
 k-point 51 :   0.3077 0.1538 0.0769  plane waves:    1800
 k-point 52 :   0.3846 0.1538 0.0769  plane waves:    1794
 k-point 53 :   0.4615 0.1538 0.0769  plane waves:    1794
 k-point 54 :  -0.4615 0.1538 0.0769  plane waves:    1785
 k-point 55 :   0.3077 0.2308 0.0769  plane waves:    1799
 k-point 56 :   0.3846 0.2308 0.0769  plane waves:    1794
 k-point 57 :   0.4615 0.2308 0.0769  plane waves:    1789
 k-point 58 :  -0.4615 0.2308 0.0769  plane waves:    1793
 k-point 59 :  -0.3846 0.2308 0.0769  plane waves:    1789
 k-point 60 :  -0.3077 0.2308 0.0769  plane waves:    1784
 k-point 61 :  -0.2308 0.2308 0.0769  plane waves:    1789
 k-point 62 :  -0.1538 0.2308 0.0769  plane waves:    1793
 k-point 63 :   0.3846 0.3077 0.0769  plane waves:    1789
 k-point 64 :   0.4615 0.3077 0.0769  plane waves:    1784
 k-point 65 :  -0.4615 0.3077 0.0769  plane waves:    1788
 k-point 66 :  -0.3846 0.3077 0.0769  plane waves:    1788
 k-point 67 :  -0.3077 0.3077 0.0769  plane waves:    1794
 k-point 68 :  -0.2308 0.3077 0.0769  plane waves:    1792
 k-point 69 :   0.4615 0.3846 0.0769  plane waves:    1777
 k-point 70 :  -0.4615 0.3846 0.0769  plane waves:    1787
 k-point 71 :  -0.3846 0.3846 0.0769  plane waves:    1787
 k-point 72 :  -0.3077 0.3846 0.0769  plane waves:    1787
 k-point 73 :  -0.4615 0.4615 0.0769  plane waves:    1773
 k-point 74 :  -0.3846 0.4615 0.0769  plane waves:    1777
 k-point 75 :   0.4615 0.3077 0.1538  plane waves:    1790
 k-point 76 :  -0.4615 0.3077 0.1538  plane waves:    1788
 k-point 77 :  -0.3846 0.3077 0.1538  plane waves:    1785
 k-point 78 :  -0.4615 0.3846 0.1538  plane waves:    1791
 k-point 79 :  -0.3846 0.3846 0.1538  plane waves:    1784
 k-point 80 :  -0.3077 0.3846 0.1538  plane waves:    1788
 k-point 81 :  -0.2308 0.3846 0.1538  plane waves:    1789
 k-point 82 :  -0.3846 0.4615 0.1538  plane waves:    1781
 k-point 83 :  -0.3077 0.4615 0.1538  plane waves:    1781
 k-point 84 :  -0.3077 0.4615 0.2308  plane waves:    1786

 maximum and minimum number of plane-waves per node :       459      436

 maximum number of plane-waves:      1816
 maximum index in each direction:
   IXMAX=    8   IYMAX=    8   IZMAX=    8
   IXMIN=   -8   IYMIN=   -8   IZMIN=   -8


 parallel 3D FFT for wavefunctions:
    minimum data exchange during FFTs selected (reduces bandwidth)
 parallel 3D FFT for charge:
    minimum data exchange during FFTs selected (reduces bandwidth)


 total amount of memory used by VASP MPI-rank0    52690. kBytes
=======================================================================

   base      :      30000. kBytes
   nonl-proj :      16714. kBytes
   fftplans  :       1216. kBytes
   grid      :       2165. kBytes
   one-center:         15. kBytes
   wavefun   :       2580. kBytes

     INWAV:  cpu time    0.0002: real time    0.0004
 Broyden mixing: mesh for mixing (old mesh)
   NGX = 17   NGY = 17   NGZ = 17
  (NGX  = 72   NGY  = 72   NGZ  = 72)
  gives a total of   4913 points

 initial charge density was supplied:
 charge density of overlapping atoms calculated
 number of electron      25.0000000 magnetization
 keeping initial charge density in first step


--------------------------------------------------------------------------------------------------------


 Maximum index for augmentation-charges         3202 (set IRDMAX)


--------------------------------------------------------------------------------------------------------


 First call to EWALD:  gamma=   0.438
 Maximum number of real-space cells 3x 3x 3
 Maximum number of reciprocal cells 3x 3x 3

    FEWALD:  cpu time    0.0053: real time    0.0056


--------------------------------------- Iteration      1(   1)  ---------------------------------------


    POTLOK:  cpu time    0.0401: real time    0.1134
    SETDIJ:  cpu time    0.0131: real time    0.0136
     EDDAV:  cpu time    0.7996: real time    0.8226
       DOS:  cpu time    0.0039: real time    0.0041
    --------------------------------------------
      LOOP:  cpu time    0.8569: real time    0.9542

 eigenvalue-minimisations  :  2728
 total energy-change (2. order) : 0.1163064E+03  (-0.1209208E+04)
 number of electron      25.0000000 magnetization
 augmentation part       25.0000000 magnetization

 Free energy of the ion-electron system (eV)
  ---------------------------------------------------
  alpha Z        PSCENC =       102.46212233
  Ewald energy   TEWEN  =     -1546.29806141
  -Hartree energ DENC   =      -330.31081324
  -exchange      EXHF   =         0.00000000
  -V(xc)+E(xc)   XCENC  =       -19.27897121
  PAW double counting   =      1514.36848356    -1421.27055995
  entropy T*S    EENTRO =        -0.00003345
  eigenvalues    EBANDS =        75.53305316
  atomic energy  EATOM  =      1741.10122161
  Solvation  Ediel_sol  =         0.00000000
  ---------------------------------------------------
  free energy    TOTEN  =       116.30644140 eV

  energy without entropy =      116.30647485  energy(sigma->0) =      116.30645813


--------------------------------------------------------------------------------------------------------




--------------------------------------- Iteration      1(   2)  ---------------------------------------


     EDDAV:  cpu time    0.9293: real time    0.9328
       DOS:  cpu time    0.0025: real time    0.0027
    --------------------------------------------
      LOOP:  cpu time    0.9318: real time    0.9383

 eigenvalue-minimisations  :  3328
 total energy-change (2. order) :-0.1371000E+03  (-0.1357357E+03)
 number of electron      25.0000000 magnetization
 augmentation part       25.0000000 magnetization

 Free energy of the ion-electron system (eV)
  ---------------------------------------------------
  alpha Z        PSCENC =       102.46212233
  Ewald energy   TEWEN  =     -1546.29806141
  -Hartree energ DENC   =      -330.31081324
  -exchange      EXHF   =         0.00000000
  -V(xc)+E(xc)   XCENC  =       -19.27897121
  PAW double counting   =      1514.36848356    -1421.27055995
  entropy T*S    EENTRO =        -0.00014321
  eigenvalues    EBANDS =       -61.56680497
  atomic energy  EATOM  =      1741.10122161
  Solvation  Ediel_sol  =         0.00000000
  ---------------------------------------------------
  free energy    TOTEN  =       -20.79352649 eV

  energy without entropy =      -20.79338328  energy(sigma->0) =      -20.79345488


--------------------------------------------------------------------------------------------------------




--------------------------------------- Iteration      1(   3)  ---------------------------------------


     EDDAV:  cpu time    0.9889: real time    1.0095
       DOS:  cpu time    0.0025: real time    0.0028
    --------------------------------------------
      LOOP:  cpu time    0.9915: real time    1.0122

 eigenvalue-minimisations  :  3640
 total energy-change (2. order) :-0.4167116E+01  (-0.4093451E+01)
 number of electron      25.0000000 magnetization
 augmentation part       25.0000000 magnetization

 Free energy of the ion-electron system (eV)
  ---------------------------------------------------
  alpha Z        PSCENC =       102.46212233
  Ewald energy   TEWEN  =     -1546.29806141
  -Hartree energ DENC   =      -330.31081324
  -exchange      EXHF   =         0.00000000
  -V(xc)+E(xc)   XCENC  =       -19.27897121
  PAW double counting   =      1514.36848356    -1421.27055995
  entropy T*S    EENTRO =        -0.00009270
  eigenvalues    EBANDS =       -65.73397180
  atomic energy  EATOM  =      1741.10122161
  Solvation  Ediel_sol  =         0.00000000
  ---------------------------------------------------
  free energy    TOTEN  =       -24.96064281 eV

  energy without entropy =      -24.96055011  energy(sigma->0) =      -24.96059646


--------------------------------------------------------------------------------------------------------




--------------------------------------- Iteration      1(   4)  ---------------------------------------


     EDDAV:  cpu time    0.9366: real time    0.9615
       DOS:  cpu time    0.0025: real time    0.0027
    --------------------------------------------
      LOOP:  cpu time    0.9390: real time    0.9615

 eigenvalue-minimisations  :  3320
 total energy-change (2. order) :-0.6112322E-01  (-0.6060970E-01)
 number of electron      25.0000000 magnetization
 augmentation part       25.0000000 magnetization

 Free energy of the ion-electron system (eV)
  ---------------------------------------------------
  alpha Z        PSCENC =       102.46212233
  Ewald energy   TEWEN  =     -1546.29806141
  -Hartree energ DENC   =      -330.31081324
  -exchange      EXHF   =         0.00000000
  -V(xc)+E(xc)   XCENC  =       -19.27897121
  PAW double counting   =      1514.36848356    -1421.27055995
  entropy T*S    EENTRO =        -0.00013093
  eigenvalues    EBANDS =       -65.79505678
  atomic energy  EATOM  =      1741.10122161
  Solvation  Ediel_sol  =         0.00000000
  ---------------------------------------------------
  free energy    TOTEN  =       -25.02176602 eV

  energy without entropy =      -25.02163509  energy(sigma->0) =      -25.02170056


--------------------------------------------------------------------------------------------------------




--------------------------------------- Iteration      1(   5)  ---------------------------------------


     EDDAV:  cpu time    1.0075: real time    1.0165
       DOS:  cpu time    0.0025: real time    0.0027
    CHARGE:  cpu time    0.0871: real time    0.0877
    MIXING:  cpu time    0.0048: real time    0.0055
    --------------------------------------------
      LOOP:  cpu time    1.1020: real time    1.1152

 eigenvalue-minimisations  :  3680
 total energy-change (2. order) :-0.1368301E-02  (-0.1368057E-02)
 number of electron      25.0000001 magnetization
 augmentation part        4.7707609 magnetization

 Broyden mixing:
  rms(total) = 0.40221E+01    rms(broyden)= 0.40221E+01
  rms(prec ) = 0.42432E+01
  weight for this iteration     100.00

 Free energy of the ion-electron system (eV)
  ---------------------------------------------------
  alpha Z        PSCENC =       102.46212233
  Ewald energy   TEWEN  =     -1546.29806141
  -Hartree energ DENC   =      -330.31081324
  -exchange      EXHF   =         0.00000000
  -V(xc)+E(xc)   XCENC  =       -19.27897121
  PAW double counting   =      1514.36848356    -1421.27055995
  entropy T*S    EENTRO =        -0.00013050
  eigenvalues    EBANDS =       -65.79642552
  atomic energy  EATOM  =      1741.10122161
  Solvation  Ediel_sol  =         0.00000000
  ---------------------------------------------------
  free energy    TOTEN  =       -25.02313433 eV

  energy without entropy =      -25.02300383  energy(sigma->0) =      -25.02306908


--------------------------------------------------------------------------------------------------------




--------------------------------------- Iteration      1(   6)  ---------------------------------------


    POTLOK:  cpu time    0.0359: real time    0.0542
    SETDIJ:  cpu time    0.0106: real time    0.0107
     EDDAV:  cpu time    0.9550: real time    0.9552
       DOS:  cpu time    0.0026: real time    0.0028
    CHARGE:  cpu time    0.0794: real time    0.0795
    MIXING:  cpu time    0.0037: real time    0.0040
    --------------------------------------------
      LOOP:  cpu time    1.0872: real time    1.1063

 eigenvalue-minimisations  :  3512
 total energy-change (2. order) : 0.8225638E+00  (-0.1835720E+00)
 number of electron      25.0000001 magnetization
 augmentation part        4.9396317 magnetization

 Broyden mixing:
  rms(total) = 0.24729E+01    rms(broyden)= 0.24729E+01
  rms(prec ) = 0.25341E+01
  weight for this iteration     100.00

 eigenvalues of (default mixing * dielectric matrix)
  average eigenvalue GAMMA=   2.5268
  2.5268

 Free energy of the ion-electron system (eV)
  ---------------------------------------------------
  alpha Z        PSCENC =       102.46212233
  Ewald energy   TEWEN  =     -1546.29806141
  -Hartree energ DENC   =      -315.40782214
  -exchange      EXHF   =         0.00000000
  -V(xc)+E(xc)   XCENC  =       -19.79572726
  PAW double counting   =      1901.00692456    -1810.33112162
  entropy T*S    EENTRO =        -0.00033316
  eigenvalues    EBANDS =       -76.93777346
  atomic energy  EATOM  =      1741.10122161
  Solvation  Ediel_sol  =         0.00000000
  ---------------------------------------------------
  free energy    TOTEN  =       -24.20057055 eV

  energy without entropy =      -24.20023739  energy(sigma->0) =      -24.20040397


--------------------------------------------------------------------------------------------------------




--------------------------------------- Iteration      1(   7)  ---------------------------------------


    POTLOK:  cpu time    0.0357: real time    0.0547
    SETDIJ:  cpu time    0.0108: real time    0.0109
     EDDAV:  cpu time    1.0186: real time    1.0187
       DOS:  cpu time    0.0026: real time    0.0028
    CHARGE:  cpu time    0.0768: real time    0.0770
    MIXING:  cpu time    0.0031: real time    0.0036
    --------------------------------------------
      LOOP:  cpu time    1.1475: real time    1.1677

 eigenvalue-minimisations  :  3816
 total energy-change (2. order) : 0.1412728E+00  (-0.1050205E+00)
 number of electron      25.0000000 magnetization
 augmentation part        4.9904879 magnetization

 Broyden mixing:
  rms(total) = 0.36209E+00    rms(broyden)= 0.36209E+00
  rms(prec ) = 0.46300E+00
  weight for this iteration     100.00

 eigenvalues of (default mixing * dielectric matrix)
  average eigenvalue GAMMA=   1.9318
  1.2519  2.6118

 Free energy of the ion-electron system (eV)
  ---------------------------------------------------
  alpha Z        PSCENC =       102.46212233
  Ewald energy   TEWEN  =     -1546.29806141
  -Hartree energ DENC   =      -306.36459707
  -exchange      EXHF   =         0.00000000
  -V(xc)+E(xc)   XCENC  =       -20.04585308
  PAW double counting   =      2462.07635002    -2374.24548467
  entropy T*S    EENTRO =        -0.00032700
  eigenvalues    EBANDS =       -82.74466851
  atomic energy  EATOM  =      1741.10122161
  Solvation  Ediel_sol  =         0.00000000
  ---------------------------------------------------
  free energy    TOTEN  =       -24.05929776 eV

  energy without entropy =      -24.05897077  energy(sigma->0) =      -24.05913426


--------------------------------------------------------------------------------------------------------




--------------------------------------- Iteration      1(   8)  ---------------------------------------


    POTLOK:  cpu time    0.0361: real time    0.0540
    SETDIJ:  cpu time    0.0106: real time    0.0107
     EDDAV:  cpu time    0.9421: real time    0.9422
       DOS:  cpu time    0.0023: real time    0.0025
    CHARGE:  cpu time    0.0763: real time    0.0764
    MIXING:  cpu time    0.0032: real time    0.0033
    --------------------------------------------
      LOOP:  cpu time    1.0707: real time    1.0892

 eigenvalue-minimisations  :  3472
 total energy-change (2. order) : 0.2182679E-01  (-0.3957200E-01)
 number of electron      25.0000001 magnetization
 augmentation part        5.0279953 magnetization

 Broyden mixing:
  rms(total) = 0.95853E-01    rms(broyden)= 0.95853E-01
  rms(prec ) = 0.21828E+00
  weight for this iteration     100.00

 eigenvalues of (default mixing * dielectric matrix)
  average eigenvalue GAMMA=   1.5163
  2.4863  1.4319  0.6305

 Free energy of the ion-electron system (eV)
  ---------------------------------------------------
  alpha Z        PSCENC =       102.46212233
  Ewald energy   TEWEN  =     -1546.29806141
  -Hartree energ DENC   =      -307.13581582
  -exchange      EXHF   =         0.00000000
  -V(xc)+E(xc)   XCENC  =       -19.98975298
  PAW double counting   =      2504.50869157    -2416.78595827
  entropy T*S    EENTRO =        -0.00022552
  eigenvalues    EBANDS =       -81.89969250
  atomic energy  EATOM  =      1741.10122161
  Solvation  Ediel_sol  =         0.00000000
  ---------------------------------------------------
  free energy    TOTEN  =       -24.03747098 eV

  energy without entropy =      -24.03724546  energy(sigma->0) =      -24.03735822


--------------------------------------------------------------------------------------------------------




--------------------------------------- Iteration      1(   9)  ---------------------------------------


    POTLOK:  cpu time    0.0331: real time    0.0536
    SETDIJ:  cpu time    0.0106: real time    0.0107
     EDDAV:  cpu time    0.8337: real time    0.8338
       DOS:  cpu time    0.0025: real time    0.0027
    CHARGE:  cpu time    0.0761: real time    0.0763
    MIXING:  cpu time    0.0034: real time    0.0035
    --------------------------------------------
      LOOP:  cpu time    0.9594: real time    0.9780

 eigenvalue-minimisations  :  2920
 total energy-change (2. order) : 0.1070171E-01  (-0.6243706E-02)
 number of electron      25.0000001 magnetization
 augmentation part        4.9933221 magnetization

 Broyden mixing:
  rms(total) = 0.29391E-01    rms(broyden)= 0.29391E-01
  rms(prec ) = 0.47291E-01
  weight for this iteration     100.00

 eigenvalues of (default mixing * dielectric matrix)
  average eigenvalue GAMMA=   1.4262
  2.4202  1.3280  1.3280  0.6288

 Free energy of the ion-electron system (eV)
  ---------------------------------------------------
  alpha Z        PSCENC =       102.46212233
  Ewald energy   TEWEN  =     -1546.29806141
  -Hartree energ DENC   =      -308.43586292
  -exchange      EXHF   =         0.00000000
  -V(xc)+E(xc)   XCENC  =       -19.94568020
  PAW double counting   =      2495.14928100    -2407.34222887
  entropy T*S    EENTRO =        -0.00031669
  eigenvalues    EBANDS =       -80.71724412
  atomic energy  EATOM  =      1741.10122161
  Solvation  Ediel_sol  =         0.00000000
  ---------------------------------------------------
  free energy    TOTEN  =       -24.02676927 eV

  energy without entropy =      -24.02645258  energy(sigma->0) =      -24.02661093


--------------------------------------------------------------------------------------------------------




--------------------------------------- Iteration      1(  10)  ---------------------------------------


    POTLOK:  cpu time    0.0299: real time    0.0409
    SETDIJ:  cpu time    0.0109: real time    0.0110
     EDDAV:  cpu time    0.9875: real time    0.9877
       DOS:  cpu time    0.0028: real time    0.0030
    CHARGE:  cpu time    0.0763: real time    0.0764
    MIXING:  cpu time    0.0036: real time    0.0037
    --------------------------------------------
      LOOP:  cpu time    1.1111: real time    1.1254

 eigenvalue-minimisations  :  3672
 total energy-change (2. order) : 0.6686431E-04  (-0.8402262E-03)
 number of electron      25.0000000 magnetization
 augmentation part        4.9892123 magnetization

 Broyden mixing:
  rms(total) = 0.26702E-01    rms(broyden)= 0.26702E-01
  rms(prec ) = 0.33669E-01
  weight for this iteration     100.00

 eigenvalues of (default mixing * dielectric matrix)
  average eigenvalue GAMMA=   1.3760
  2.4919  1.8072  1.0577  0.8300  0.6934

 Free energy of the ion-electron system (eV)
  ---------------------------------------------------
  alpha Z        PSCENC =       102.46212233
  Ewald energy   TEWEN  =     -1546.29806141
  -Hartree energ DENC   =      -308.35819169
  -exchange      EXHF   =         0.00000000
  -V(xc)+E(xc)   XCENC  =       -19.94827857
  PAW double counting   =      2501.73107782    -2413.86659281
  entropy T*S    EENTRO =        -0.00031072
  eigenvalues    EBANDS =       -80.84968897
  atomic energy  EATOM  =      1741.10122161
  Solvation  Ediel_sol  =         0.00000000
  ---------------------------------------------------
  free energy    TOTEN  =       -24.02670241 eV

  energy without entropy =      -24.02639169  energy(sigma->0) =      -24.02654705


--------------------------------------------------------------------------------------------------------




--------------------------------------- Iteration      1(  11)  ---------------------------------------


    POTLOK:  cpu time    0.0284: real time    0.0545
    SETDIJ:  cpu time    0.0107: real time    0.0108
     EDDAV:  cpu time    0.9065: real time    0.9066
       DOS:  cpu time    0.0027: real time    0.0028
    CHARGE:  cpu time    0.0766: real time    0.0766
    MIXING:  cpu time    0.0036: real time    0.0038
    --------------------------------------------
      LOOP:  cpu time    1.0285: real time    1.0553

 eigenvalue-minimisations  :  3304
 total energy-change (2. order) : 0.1273681E-03  (-0.6555801E-04)
 number of electron      25.0000000 magnetization
 augmentation part        4.9915093 magnetization

 Broyden mixing:
  rms(total) = 0.60307E-02    rms(broyden)= 0.60307E-02
  rms(prec ) = 0.73635E-02
  weight for this iteration     100.00

 eigenvalues of (default mixing * dielectric matrix)
  average eigenvalue GAMMA=   1.4378
  2.5530  2.2772  1.1219  0.9976  0.9976  0.6793

 Free energy of the ion-electron system (eV)
  ---------------------------------------------------
  alpha Z        PSCENC =       102.46212233
  Ewald energy   TEWEN  =     -1546.29806141
  -Hartree energ DENC   =      -308.43116265
  -exchange      EXHF   =         0.00000000
  -V(xc)+E(xc)   XCENC  =       -19.94368372
  PAW double counting   =      2504.54016782    -2416.65983482
  entropy T*S    EENTRO =        -0.00031332
  eigenvalues    EBANDS =       -80.79703089
  atomic energy  EATOM  =      1741.10122161
  Solvation  Ediel_sol  =         0.00000000
  ---------------------------------------------------
  free energy    TOTEN  =       -24.02657504 eV

  energy without entropy =      -24.02626172  energy(sigma->0) =      -24.02641838


--------------------------------------------------------------------------------------------------------




--------------------------------------- Iteration      1(  12)  ---------------------------------------


    POTLOK:  cpu time    0.0296: real time    0.0543
    SETDIJ:  cpu time    0.0107: real time    0.0108
     EDDAV:  cpu time    0.9772: real time    0.9774
       DOS:  cpu time    0.0025: real time    0.0027
    --------------------------------------------
      LOOP:  cpu time    1.0199: real time    1.0423

 eigenvalue-minimisations  :  3640
 total energy-change (2. order) : 0.1851749E-05  (-0.7824455E-05)
 number of electron      25.0000000 magnetization
 augmentation part        4.9915093 magnetization

 Free energy of the ion-electron system (eV)
  ---------------------------------------------------
  alpha Z        PSCENC =       102.46212233
  Ewald energy   TEWEN  =     -1546.29806141
  -Hartree energ DENC   =      -308.49320895
  -exchange      EXHF   =         0.00000000
  -V(xc)+E(xc)   XCENC  =       -19.94089602
  PAW double counting   =      2504.63270292    -2416.73756498
  entropy T*S    EENTRO =        -0.00031358
  eigenvalues    EBANDS =       -80.75257512
  atomic energy  EATOM  =      1741.10122161
  Solvation  Ediel_sol  =         0.00000000
  ---------------------------------------------------
  free energy    TOTEN  =       -24.02657319 eV

  energy without entropy =      -24.02625961  energy(sigma->0) =      -24.02641640


--------------------------------------------------------------------------------------------------------




 average (electrostatic) potential at core
  the test charge radii are     1.1707  1.2059  1.1712
  (the norm of the test charge is              1.0000)
       1 -35.3173       2 -66.7159       3 -85.0236



 E-fermi :   8.5285     XC(G=0): -11.1813     alpha+bet :-13.1656


 k-point     1 :       0.0000    0.0000    0.0000
  band No.  band energies     occupation
      1     -23.7932      2.00000
      2     -23.7932      2.00000
      3     -23.7932      2.00000
      4      -4.0236      2.00000
      5       2.6598      2.00000
      6       2.6598      2.00000
      7       2.6598      2.00000
      8       3.4720      2.00000
      9       3.4720      2.00000
     10       6.9465      2.00000
     11       6.9465      2.00000
     12       6.9465      2.00000
     13       7.3395      2.00000
     14       9.3681      0.00000
     15       9.3681      0.00000
     16       9.3681      0.00000

 k-point     2 :       0.0769    0.0000   -0.0000
  band No.  band energies     occupation
      1     -23.7941      2.00000
      2     -23.7932      2.00000
      3     -23.7932      2.00000
      4      -3.9619      2.00000
      5       2.5791      2.00000
      6       2.6356      2.00000
      7       2.6356      2.00000
      8       3.5083      2.00000
      9       3.5083      2.00000
     10       6.3587      2.00000
     11       6.8804      2.00000
     12       6.8804      2.00000
     13       7.6455      2.00000
     14       9.2091      0.00000
     15       9.2091      0.00000
     16       9.7217      0.00000

 k-point     3 :       0.1538   -0.0000    0.0000
  band No.  band energies     occupation
      1     -23.7966      2.00000
      2     -23.7931      2.00000
      3     -23.7931      2.00000
      4      -3.7832      2.00000
      5       2.3560      2.00000
      6       2.5838      2.00000
      7       2.5838      2.00000
      8       3.5900      2.00000
      9       3.5900      2.00000
     10       5.5288      2.00000
     11       6.7148      2.00000
     12       6.7148      2.00000
     13       7.9002      2.00000
     14       9.1162      0.00000
     15       9.1162      0.00000
     16      10.4964      0.00000

 k-point     4 :       0.2308    0.0000   -0.0000
  band No.  band energies     occupation
      1     -23.8000      2.00000
      2     -23.7930      2.00000
      3     -23.7930      2.00000
      4      -3.5080      2.00000
      5       2.0303      2.00000
      6       2.5371      2.00000
      7       2.5371      2.00000
      8       3.6677      2.00000
      9       3.6677      2.00000
     10       4.7745      2.00000
     11       6.5206      2.00000
     12       6.5206      2.00000
     13       8.0991      2.00000
     14       9.1512      0.00000
     15       9.1512      0.00000
     16      11.1384      0.00000

 k-point     5 :       0.3077   -0.0000    0.0000
  band No.  band energies     occupation
      1     -23.8036      2.00000
      2     -23.7929      2.00000
      3     -23.7929      2.00000
      4      -3.1754      2.00000
      5       1.6472      2.00000
      6       2.5122      2.00000
      7       2.5122      2.00000
      8       3.7078      2.00000
      9       3.7078      2.00000
     10       4.1938      2.00000
     11       6.3599      2.00000
     12       6.3599      2.00000
     13       8.2782      2.00000
     14       9.2813      0.00000
     15       9.2813      0.00000
     16      10.6892      0.00000

 k-point     6 :       0.3846    0.0000   -0.0000
  band No.  band energies     occupation
      1     -23.8065      2.00000
      2     -23.7928      2.00000
      3     -23.7928      2.00000
      4      -2.8528      2.00000
      5       1.2780      2.00000
      6       2.5081      2.00000
      7       2.5081      2.00000
      8       3.7083      2.00000
      9       3.7083      2.00000
     10       3.8196      2.00000
     11       6.2595      2.00000
     12       6.2595      2.00000
     13       8.4553      2.00000
     14       9.4569      0.00000
     15       9.4569      0.00000
     16       9.9777      0.00000

 k-point     7 :       0.4615    0.0000    0.0000
  band No.  band energies     occupation
      1     -23.8082      2.00000
      2     -23.7928      2.00000
      3     -23.7928      2.00000
      4      -2.6421      2.00000
      5       1.0378      2.00000
      6       2.5124      2.00000
      7       2.5124      2.00000
      8       3.6417      2.00000
      9       3.6950      2.00000
     10       3.6950      2.00000
     11       6.2152      2.00000
     12       6.2152      2.00000
     13       8.6183      0.00000
     14       9.5070      0.00000
     15       9.5938      0.00000
     16       9.5938      0.00000

 k-point     8 :       0.0769    0.0769    0.0000
  band No.  band energies     occupation
      1     -23.7941      2.00000
      2     -23.7934      2.00000
      3     -23.7934      2.00000
      4      -3.9417      2.00000
      5       2.4484      2.00000
      6       2.6894      2.00000
      7       2.6894      2.00000
      8       3.5037      2.00000
      9       3.5217      2.00000
     10       6.3837      2.00000
     11       6.7537      2.00000
     12       6.7537      2.00000
     13       7.7381      2.00000
     14       9.0635      0.00000
     15       9.6421      0.00000
     16       9.6421      0.00000

 k-point     9 :       0.1538    0.0769    0.0000
  band No.  band energies     occupation
      1     -23.7959      2.00000
      2     -23.7935      2.00000
      3     -23.7933      2.00000
      4      -3.8031      2.00000
      5       2.2390      2.00000
      6       2.6676      2.00000
      7       2.6948      2.00000
      8       3.5636      2.00000
      9       3.5731      2.00000
     10       5.7652      2.00000
     11       6.5645      2.00000
     12       6.6209      2.00000
     13       7.9948      2.00000
     14       8.9259      0.00000
     15       9.3665      0.00000
     16      10.1009      0.00000

 k-point    10 :       0.2308    0.0769    0.0000
  band No.  band energies     occupation
      1     -23.7989      2.00000
      2     -23.7934      2.00000
      3     -23.7932      2.00000
      4      -3.5619      2.00000
      5       1.9878      2.00000
      6       2.5833      2.00000
      7       2.6705      2.00000
      8       3.6436      2.00000
      9       3.6447      2.00000
     10       5.0222      2.00000
     11       6.3802      2.00000
     12       6.4456      2.00000
     13       8.2708      2.00000
     14       8.9321      0.00000
     15       9.2623      0.00000
     16      10.6427      0.00000

 k-point    11 :       0.3077    0.0769    0.0000
  band No.  band energies     occupation
      1     -23.8024      2.00000
      2     -23.7933      2.00000
      3     -23.7931      2.00000
      4      -3.2507      2.00000
      5       1.6905      2.00000
      6       2.5050      2.00000
      7       2.6402      2.00000
      8       3.6978      2.00000
      9       3.6983      2.00000
     10       4.3881      2.00000
     11       6.2449      2.00000
     12       6.2721      2.00000
     13       8.4010      2.00000
     14       9.1728      0.00000
     15       9.2823      0.00000
     16      10.7604      0.00000

 k-point    12 :       0.3846    0.0769    0.0000
  band No.  band energies     occupation
      1     -23.8055      2.00000
      2     -23.7932      2.00000
      3     -23.7932      2.00000
      4      -2.9260      2.00000
      5       1.3741      2.00000
      6       2.4683      2.00000
      7       2.6101      2.00000
      8       3.7100      2.00000
      9       3.7116      2.00000
     10       3.9472      2.00000
     11       6.1420      2.00000
     12       6.1717      2.00000
     13       8.4866      2.00000
     14       9.4045      0.00000
     15       9.4752      0.00000
     16      10.1502      0.00000

 k-point    13 :       0.4615    0.0769    0.0000
  band No.  band energies     occupation
      1     -23.8075      2.00000
      2     -23.7933      2.00000
      3     -23.7930      2.00000
      4      -2.6761      2.00000
      5       1.1228      2.00000
      6       2.4752      2.00000
      7       2.5731      2.00000
      8       3.6445      2.00000
      9       3.7091      2.00000
     10       3.7565      2.00000
     11       6.0638      2.00000
     12       6.1487      2.00000
     13       8.6129      0.00000
     14       9.4929      0.00000
     15       9.5592      0.00000
     16       9.8164      0.00000

 k-point    14 :      -0.4615    0.0769    0.0000
  band No.  band energies     occupation
      1     -23.8080      2.00000
      2     -23.7935      2.00000
      3     -23.7928      2.00000
      4      -2.6029      2.00000
      5       1.0490      2.00000
      6       2.5128      2.00000
      7       2.5241      2.00000
      8       3.5946      2.00000
      9       3.7190      2.00000
     10       3.7320      2.00000
     11       6.0229      2.00000
     12       6.1645      2.00000
     13       8.7006      0.00000
     14       9.3127      0.00000
     15       9.6207      0.00000
     16       9.8734      0.00000

 k-point    15 :      -0.3846    0.0769   -0.0000
  band No.  band energies     occupation
      1     -23.8069      2.00000
      2     -23.7936      2.00000
      3     -23.7927      2.00000
      4      -2.7440      2.00000
      5       1.1964      2.00000
      6       2.4726      2.00000
      7       2.5666      2.00000
      8       3.6490      2.00000
      9       3.7407      2.00000
     10       3.7942      2.00000
     11       6.0038      2.00000
     12       6.2247      2.00000
     13       8.6047      0.00000
     14       9.5192      0.00000
     15       9.5226      0.00000
     16       9.8732      0.00000

 k-point    16 :      -0.3077    0.0769    0.0000
  band No.  band energies     occupation
      1     -23.8045      2.00000
      2     -23.7937      2.00000
      3     -23.7927      2.00000
      4      -3.0303      2.00000
      5       1.4919      2.00000
      6       2.4383      2.00000
      7       2.6262      2.00000
      8       3.6765      2.00000
      9       3.7487      2.00000
     10       4.0769      2.00000
     11       6.0114      2.00000
     12       6.3450      2.00000
     13       8.5065      1.99815
     14       9.3206      0.00000
     15       9.4306      0.00000
     16      10.3709      0.00000

 k-point    17 :      -0.2308    0.0769   -0.0000
  band No.  band energies     occupation
      1     -23.8012      2.00000
      2     -23.7938      2.00000
      3     -23.7927      2.00000
      4      -3.3587      2.00000
      5       1.8302      2.00000
      6       2.4383      2.00000
      7       2.6838      2.00000
      8       3.6559      2.00000
      9       3.7200      2.00000
     10       4.5831      2.00000
     11       6.0732      2.00000
     12       6.5266      2.00000
     13       8.4209      2.00000
     14       9.1164      0.00000
     15       9.2629      0.00000
     16      10.6479      0.00000

 k-point    18 :      -0.1538    0.0769   -0.0000
  band No.  band energies     occupation
      1     -23.7979      2.00000
      2     -23.7937      2.00000
      3     -23.7929      2.00000
      4      -3.6517      2.00000
      5       2.1455      2.00000
      6       2.4791      2.00000
      7       2.7245      2.00000
      8       3.5970      2.00000
      9       3.6535      2.00000
     10       5.2542      2.00000
     11       6.2242      2.00000
     12       6.7312      2.00000
     13       8.2348      2.00000
     14       8.9798      0.00000
     15       9.2432      0.00000
     16      10.1880      0.00000

 k-point    19 :      -0.0769    0.0769    0.0000
  band No.  band energies     occupation
      1     -23.7953      2.00000
      2     -23.7935      2.00000
      3     -23.7930      2.00000
      4      -3.8616      2.00000
      5       2.4069      2.00000
      6       2.5531      2.00000
      7       2.7142      2.00000
      8       3.5350      2.00000
      9       3.5710      2.00000
     10       5.9350      2.00000
     11       6.5172      2.00000
     12       6.8754      2.00000
     13       7.9175      2.00000
     14       8.9896      0.00000
     15       9.3534      0.00000
     16       9.7708      0.00000

 k-point    20 :       0.1538    0.1538    0.0000
  band No.  band energies     occupation
      1     -23.7965      2.00000
      2     -23.7937      2.00000
      3     -23.7937      2.00000
      4      -3.7091      2.00000
      5       2.0009      2.00000
      6       2.7735      2.00000
[...]
  168                map_backward                          0.001246                    8   7
  169                  map_gather                            0.000194                  8   8
  170                  m_alltoallv_z                         0.000676                  8   8
  171                  map_scatter                           0.000146                  8   8
  172          M_sumb_d                              0.006250                          8   4
  173          depsum                                0.001524                          4   4
  174            M_sumb_d                              0.000612                        8   5
  175          fft3d_mpi                             0.004838                          4   4
  176            fftbas_plan_mpi                       0.004526                        4   5
  177              dfftw_execute                         0.001612                     12   6
  178              map_backward                          0.002045                      8   6
  179                map_gather                            0.000398                    4   7
  180                m_alltoallv_z                         0.000954                    4   7
  181                map_scatter                           0.000510                    4   7
  182        forloc                                0.009149                            4   3
  183          M_sumb_d                              0.000258                          4   4
  184        fornl                                 0.086710                            4   3
  185          phase                                 0.003268                         84   4
  186          M_sumb_d                              0.025461                       1352   4
  187        fordep                                0.106770                            4   3
  188          setdij_                               0.106158                         24   4
  189            M_sumb_d                              0.005545                       24   5
  190          M_sumb_d                              0.000110                          4   4
  191        setdij_                               0.341713                           80   3
  192          M_sumb_d                              0.019210                         80   4
  193        set_dd_magatom                        0.000013                            4   3
  194        set_dd_paw                            0.030827                            4   3
  195          set_rsgf_all                          0.000016                          4   4
  196          M_sumb_d                              0.030213                         32   4
  197        strkin                                0.001642                            4   3
  198          M_sumb_d                              0.000506                          4   4
  199        strelo                                0.007538                            4   3
  200          M_sumb_d                              0.000452                          8   4
  201        strenl                                1.889009                            4   3
  202          spher                                 1.467826                         76   4
  203          phase                                 0.031690                        756   4
  204          proj1                                 0.346498                       3024   4
  205            crexp_mul_wave                        0.056785                     9072   5
  206            M_sumb_d                              0.082466                     3024   5
  207          M_sumb_d                              0.000855                          4   4
  208        M_sumb_d                              0.000953                           24   3
  209        fft3d_mpi                             0.049992                           44   3
  210          fftbas_plan_mpi                       0.046521                         44   4
  211            dfftw_execute                         0.016031                      132   5
  212            map_forward                           0.009486                       40   5
  213              map_gather                            0.001756                     20   6
  214              m_alltoallv_z                         0.004441                     20   6
  215              map_scatter                           0.002375                     20   6
  216            map_backward                          0.011773                       48   5
  217              map_gather                            0.002322                     24   6
  218              m_alltoallv_z                         0.005251                     24   6
  219              map_scatter                           0.003118                     24   6
  220        ggaall_grid                           0.004959                            4   3
  221        forhar                                0.017909                            8   3
  222          M_sumb_d                              0.000730                          8   4
  223        strehar                               0.008059                            4   3
  224          M_sumb_d                              0.000390                          4   4
  225        chggra                                0.020059                            4   3
  226          fft3d_mpi                             0.013649                         12   4
  227            fftbas_plan_mpi                       0.012731                       12   5
  228              dfftw_execute                         0.004468                     36   6
  229              map_backward                          0.001935                      8   6
  230                map_gather                            0.000345                    4   7
  231                m_alltoallv_z                         0.000852                    4   7
  232                map_scatter                           0.000550                    4   7
  233              map_forward                           0.003527                     16   6
  234                map_gather                            0.000630                    8   7
  235                m_alltoallv_z                         0.001678                    8   7
  236                map_scatter                           0.000868                    8   7
  237          M_sumb_d                              0.000524                         12   4
  238        brmix                                 0.014541                            4   3
  239          M_sumb_d                              0.000877                         24   4
  240          brpre                                 0.000162                          4   4
  241          setg0                                 0.003432                          4   4
  242          broyd                                 0.005162                          4   4
  243            M_sumb_d                              0.001310                       53   5
  244            brget                                 0.000836                      161   5
  245            brsav                                 0.000197                       45   5
  246          M_bcast_z                             0.001806                          4   4
  247          M_bcast_d                             0.000219                          4   4
  248        M_bcast_d                             0.000207                            8   3
  249      potlok                                0.081907                              4   2
  250        fft3d_mpi                             0.057074                           52   3
  251          fftbas_plan_mpi                       0.053117                         52   4
  252            dfftw_execute                         0.018353                      156   5
  253            map_forward                           0.012571                       56   5
  254              map_gather                            0.002207                     32   6
  255              m_alltoallv_z                         0.005993                     32   6
  256              map_scatter                           0.003098                     32   6
  257            map_backward                          0.011612                       48   5
  258              map_gather                            0.002317                     24   6
  259              m_alltoallv_z                         0.005098                     24   6
  260              map_scatter                           0.003132                     24   6
  261        ggaall_grid                           0.004928                            4   3
  262        M_sumb_d                              0.001080                           24   3
  263        M_bcast_d                             0.000355                            4   3
  264      potlok_metagga                        0.000014                              4   2
  265      set_dd_magatom                        0.000012                              4   2
  266      set_dd_paw                            0.001440                              4   2
  267        set_rsgf_all                          0.000016                            4   3
  268        M_sumb_d                              0.000860                           32   3
  269      densta                                0.001947                              1   2
  270        M_sumb_d                              0.000776                           40   3
  271      lprj_proall                           0.000008                              1   2

 Flat profile
 ============

             routine name                   CPU           calls
 ---------------------------------------------------------------
 total_time                              9.870682           1
 eddav                                   5.750369          33
 dfftw_execute                           4.635209       63432
 fftbas_plan_mpi                         3.924179       21146
 M_sumb_d                                3.029186       60438
 elmin                                   2.211946           4
 spher                                   1.579311          80
 m_alltoallv_z                           1.474139       21206
 pdssyex_zheevx                          1.399919         693
 M_alltoall_d                            1.276337       68810
 orth1                                   0.874847       13875
 proj1                                   0.784062        9782
 vhamil                                  0.693664        9194
 set_charge                              0.691065          29
 map_forward                             0.631290       23332
 fftwav_mpi                              0.628870       11403
 vnlac0                                  0.591307        9194
 gemm                                    0.569224       27582
 setdij_                                 0.556117         138
 redis_pw                                0.517370       26364
 redis_proj                              0.487462       32870
 hamiltmu                                0.471093        4597
 map_scatter                             0.456358       21206
 map_gather                              0.448887       21206
 M_bcast_z                               0.423467        6348
 map_backward                            0.321042       18956
 w1_copy                                 0.308930       27582
 fft3d_mpi                               0.290420       21144
 fftext_mpi                              0.261872        9194
 crpa_reader                             0.248305           1
 work_mul_crexp                          0.247768       27582
 crexp_mul_wave                          0.200473       29346
 eccp                                    0.185200        2772
 overl                                   0.168767       15700
 kinhamil                                0.166615        9194
 M_bcast_d                               0.164435        4684
 potlok                                  0.155784          33
 overl1                                  0.118456        9194
 lincom                                  0.096368         777
 pw_charge                               0.091380        2209
 force_and_stress                        0.088466           4
 setup_precond                           0.082253        2772
 apply_precond                           0.075654        6422
 phase                                   0.069834        1621
 w1_projall                              0.064968        3211
 fornl                                   0.057981           4
 soft_charge                             0.050906          29
 ggaall_grid                             0.045422          37
 strenl                                  0.042140           4
 truncate_high_frequency_w1              0.040253       11966
 densta                                  0.039311          34
 setg0                                   0.025027          33
 brmix                                   0.023268          29
 forhar                                  0.017179           8
 broyd                                   0.014368          29
 forloc                                  0.008891           4
 strehar                                 0.007669           4
 orthch                                  0.007370           4
 strelo                                  0.007086           4
 depsum                                  0.006668          29
 chggra                                  0.005887           4
 set_dd_paw                              0.005871          37
 proj                                    0.003640          84
 brget                                   0.003373         707
 choleski                                0.002448          84
 brgrid                                  0.001506           1
 brpre                                   0.001471          29
 brsav                                   0.001345         242
 strkin                                  0.001136           4
 fordep                                  0.000502           4
 set_rsgf_all                            0.000157          37
 vectorpot                               0.000134          30
 set_dd_magatom                          0.000127          37
 potlok_metagga                          0.000121          33
 set_kineden                             0.000095          25
 rotate_active_occupied_orbital          0.000027           4
 redis_pw_over_bands                     0.000014           4
 lprj_proall                             0.000008           1
 ---------------------------------------------------------------
  summed up times    47.8047499656677

 Accumulative profile
 ====================

             routine name                   CPU           calls
 ---------------------------------------------------------------
 total_time                             47.804750           1
 elmin                                  34.085931           4
 eddav                                  28.862488          33
 fft3d_mpi                              12.141518       21144
 fftbas_plan_mpi                        11.891103       21146
 hamiltmu                                8.805289        4597
 fftwav_mpi                              6.978127       11403
 kinhamil                                5.571688        9194
 fftext_mpi                              5.405072        9194
 dfftw_execute                           4.635209       63432
 M_sumb_d                                3.029186       60438
 force_and_stress                        2.982493           4
 set_charge                              2.237279          29
 vnlac0                                  1.950388        9194
 strenl                                  1.889009           4
 map_forward                             1.876274       23332
 spher                                   1.579311          80
 m_alltoallv_z                           1.474139       21206
 map_backward                            1.455441       18956
 soft_charge                             1.446192          29
 pdssyex_zheevx                          1.399919         693
 proj1                                   1.347844        9782
 M_alltoall_d                            1.276337       68810
 redis_pw                                1.210949       26364
 redis_proj                              1.070220       32870
 w1_projall                              1.026853        3211
 orth1                                   0.874847       13875
 potlok                                  0.699776          33
 vhamil                                  0.693664        9194
 setdij_                                 0.586953         138
 gemm                                    0.569224       27582
 map_scatter                             0.456358       21206
 map_gather                              0.448887       21206
 M_bcast_z                               0.423467        6348
 eccp                                    0.337485        2772
 w1_copy                                 0.308930       27582
 crpa_reader                             0.248305           1
 work_mul_crexp                          0.247768       27582
 set_dd_paw                              0.227929          37
 crexp_mul_wave                          0.200473       29346
 overl                                   0.168767       15700
 M_bcast_d                               0.164435        4684
 setup_precond                           0.145080        2772
 overl1                                  0.118456        9194
 fordep                                  0.106770           4
 lincom                                  0.096368         777
 pw_charge                               0.091380        2209
 brmix                                   0.090563          29
 fornl                                   0.086710           4
 apply_precond                           0.075654        6422
 phase                                   0.069834        1621
 orthch                                  0.069433           4
 densta                                  0.062967          34
 ggaall_grid                             0.045422          37
 proj                                    0.043101          84
 truncate_high_frequency_w1              0.040253       11966
 broyd                                   0.026609          29
 setg0                                   0.025027          33
 chggra                                  0.020059           4
 forhar                                  0.017909           8
 depsum                                  0.012189          29
 forloc                                  0.009149           4
 strehar                                 0.008059           4
 strelo                                  0.007538           4
 brget                                   0.003373         707
 choleski                                0.002448          84
 strkin                                  0.001642           4
 brgrid                                  0.001506           1
 brpre                                   0.001471          29
 brsav                                   0.001345         242
 set_rsgf_all                            0.000157          37
 vectorpot                               0.000134          30
 set_dd_magatom                          0.000127          37
 potlok_metagga                          0.000121          33
 set_kineden                             0.000095          25
 rotate_active_occupied_orbital          0.000027           4
 redis_pw_over_bands                     0.000014           4
 lprj_proall                             0.000008           1
 ---------------------------------------------------------------

Profiling took   1.584406  1.980376  0.005616  0.004433 seconds
Profiling took   1.503532 seconds
