<?xml version="1.0" encoding="ISO-8859-1"?>
<modeling>
 <generator>
  <i name="program" type="string">vasp </i>
  <i name="version" type="string">6.0.8  </i>
  <i name="subversion" type="string">29Jun18 (build Jun 13 2019 12:54:44) complex                          parallel </i>
  <i name="platform" type="string">IFC18_CrayMPICH </i>
  <i name="date" type="string">2021 11 11 </i>
  <i name="time" type="string">15:46:19 </i>
 </generator>
 <incar>
  <i type="int" name="KPAR">     4</i>
  <i type="int" name="NPAR">     4</i>
  <i type="int" name="ISTART">     0</i>
  <i type="string" name="PREC"> ACC</i>
  <i type="string" name="ALGO"> Normal</i>
  <i type="int" name="ISPIN">     1</i>
  <i type="int" name="NELMIN">     5</i>
  <i type="int" name="IBRION">     2</i>
  <i name="EDIFF">      0.00001000</i>
  <i type="int" name="NSW">    60</i>
  <i type="int" name="ISIF">     7</i>
  <i name="ENCUT">    520.00000000</i>
  <i name="POTIM">      0.10000000</i>
  <i type="logical" name="LREAL"> F  </i>
  <i type="int" name="ISMEAR">     0</i>
  <i name="SIGMA">      0.01000000</i>
  <i type="logical" name="LWAVE"> F  </i>
  <i type="logical" name="LCHARG"> F  </i>
  <i type="logical" name="LVTOT"> F  </i>
  <i type="string" name="ALGO"> Normal</i>
  <i type="string" name="GGA"> PS</i>
  <i name="EDIFF">      0.00001000</i>
  <i type="int" name="ISPIN">     1</i>
 </incar>
 <structure name="primitive_cell" >
  <crystal>
   <varray name="basis" >
    <v>       0.00000000       3.21546000       3.21546000 </v>
    <v>       3.21546000       0.00000000       3.21546000 </v>
    <v>       3.21546000       3.21546000       0.00000000 </v>
   </varray>
   <i name="volume">     66.49045881 </i>
   <varray name="rec_basis" >
    <v>      -0.15549875       0.15549875       0.15549875 </v>
    <v>       0.15549875      -0.15549875       0.15549875 </v>
    <v>       0.15549875       0.15549875      -0.15549875 </v>
   </varray>
  </crystal>
  <varray name="positions" >
   <v>       0.25000000       0.25000000       0.25000000 </v>
   <v>       0.00000000       0.00000000       0.00000000 </v>
   <v>       0.75000000       0.75000000       0.75000000 </v>
  </varray>
 </structure>
 <varray name="primitive_index" >
  <v type="int" >        1 </v>
  <v type="int" >        2 </v>
  <v type="int" >        3 </v>
 </varray>
 <kpoints>
  <generation param="Gamma">
   <v type="int" name="divisions">      13       13       13 </v>
   <v name="usershift">      0.00000000       0.00000000       0.00000000 </v>
   <v name="genvec1">      0.07692308      -0.00000000       0.00000000 </v>
   <v name="genvec2">     -0.00000000       0.07692308      -0.00000000 </v>
   <v name="genvec3">      0.00000000       0.00000000       0.07692308 </v>
   <v name="shift">      0.00000000       0.00000000       0.00000000 </v>
  </generation>
  <varray name="kpointlist" >
   <v>       0.00000000       0.00000000       0.00000000 </v>
   <v>       0.07692308       0.00000000      -0.00000000 </v>
   <v>       0.15384615      -0.00000000       0.00000000 </v>
   <v>       0.23076923       0.00000000      -0.00000000 </v>
   <v>       0.30769231      -0.00000000       0.00000000 </v>
   <v>       0.38461538       0.00000000      -0.00000000 </v>
   <v>       0.46153846       0.00000000       0.00000000 </v>
   <v>       0.07692308       0.07692308       0.00000000 </v>
   <v>       0.15384615       0.07692308       0.00000000 </v>
   <v>       0.23076923       0.07692308       0.00000000 </v>
   <v>       0.30769231       0.07692308       0.00000000 </v>
   <v>       0.38461538       0.07692308       0.00000000 </v>
   <v>       0.46153846       0.07692308       0.00000000 </v>
   <v>      -0.46153846       0.07692308       0.00000000 </v>
   <v>      -0.38461538       0.07692308      -0.00000000 </v>
   <v>      -0.30769231       0.07692308       0.00000000 </v>
   <v>      -0.23076923       0.07692308      -0.00000000 </v>
   <v>      -0.15384615       0.07692308      -0.00000000 </v>
   <v>      -0.07692308       0.07692308       0.00000000 </v>
   <v>       0.15384615       0.15384615       0.00000000 </v>
   <v>       0.23076923       0.15384615       0.00000000 </v>
   <v>       0.30769231       0.15384615       0.00000000 </v>
   <v>       0.38461538       0.15384615       0.00000000 </v>
   <v>       0.46153846       0.15384615       0.00000000 </v>
   <v>      -0.46153846       0.15384615      -0.00000000 </v>
   <v>      -0.38461538       0.15384615       0.00000000 </v>
   <v>      -0.30769231       0.15384615       0.00000000 </v>
   <v>      -0.23076923       0.15384615      -0.00000000 </v>
   <v>      -0.15384615       0.15384615      -0.00000000 </v>
   <v>       0.23076923       0.23076923       0.00000000 </v>
   <v>       0.30769231       0.23076923       0.00000000 </v>
   <v>       0.38461538       0.23076923       0.00000000 </v>
   <v>       0.46153846       0.23076923       0.00000000 </v>
   <v>      -0.46153846       0.23076923      -0.00000000 </v>
   <v>      -0.38461538       0.23076923       0.00000000 </v>
   <v>      -0.30769231       0.23076923       0.00000000 </v>
   <v>      -0.23076923       0.23076923      -0.00000000 </v>
   <v>       0.30769231       0.30769231       0.00000000 </v>
   <v>       0.38461538       0.30769231       0.00000000 </v>
   <v>       0.46153846       0.30769231       0.00000000 </v>
   <v>      -0.46153846       0.30769231       0.00000000 </v>
   <v>      -0.38461538       0.30769231      -0.00000000 </v>
   <v>      -0.30769231       0.30769231      -0.00000000 </v>
   <v>       0.38461538       0.38461538       0.00000000 </v>
   <v>       0.46153846       0.38461538       0.00000000 </v>
   <v>      -0.46153846       0.38461538      -0.00000000 </v>
   <v>      -0.38461538       0.38461538       0.00000000 </v>
   <v>       0.46153846       0.46153846       0.00000000 </v>
   <v>      -0.46153846       0.46153846       0.00000000 </v>
   <v>       0.23076923       0.15384615       0.07692308 </v>
   <v>       0.30769231       0.15384615       0.07692308 </v>
   <v>       0.38461538       0.15384615       0.07692308 </v>
   <v>       0.46153846       0.15384615       0.07692308 </v>
   <v>      -0.46153846       0.15384615       0.07692308 </v>
   <v>       0.30769231       0.23076923       0.07692308 </v>
   <v>       0.38461538       0.23076923       0.07692308 </v>
   <v>       0.46153846       0.23076923       0.07692308 </v>
   <v>      -0.46153846       0.23076923       0.07692308 </v>
   <v>      -0.38461538       0.23076923       0.07692308 </v>
   <v>      -0.30769231       0.23076923       0.07692308 </v>
   <v>      -0.23076923       0.23076923       0.07692308 </v>
   <v>      -0.15384615       0.23076923       0.07692308 </v>
   <v>       0.38461538       0.30769231       0.07692308 </v>
   <v>       0.46153846       0.30769231       0.07692308 </v>
   <v>      -0.46153846       0.30769231       0.07692308 </v>
   <v>      -0.38461538       0.30769231       0.07692308 </v>
   <v>      -0.30769231       0.30769231       0.07692308 </v>
   <v>      -0.23076923       0.30769231       0.07692308 </v>
   <v>       0.46153846       0.38461538       0.07692308 </v>
   <v>      -0.46153846       0.38461538       0.07692308 </v>
   <v>      -0.38461538       0.38461538       0.07692308 </v>
   <v>      -0.30769231       0.38461538       0.07692308 </v>
   <v>      -0.46153846       0.46153846       0.07692308 </v>
   <v>      -0.38461538       0.46153846       0.07692308 </v>
   <v>       0.46153846       0.30769231       0.15384615 </v>
   <v>      -0.46153846       0.30769231       0.15384615 </v>
   <v>      -0.38461538       0.30769231       0.15384615 </v>
   <v>      -0.46153846       0.38461538       0.15384615 </v>
   <v>      -0.38461538       0.38461538       0.15384615 </v>
   <v>      -0.30769231       0.38461538       0.15384615 </v>
   <v>      -0.23076923       0.38461538       0.15384615 </v>
   <v>      -0.38461538       0.46153846       0.15384615 </v>
   <v>      -0.30769231       0.46153846       0.15384615 </v>
   <v>      -0.30769231       0.46153846       0.23076923 </v>
  </varray>
  <varray name="weights" >
   <v>       0.00045517 </v>
   <v>       0.00364133 </v>
   <v>       0.00364133 </v>
   <v>       0.00364133 </v>
   <v>       0.00364133 </v>
   <v>       0.00364133 </v>
   <v>       0.00364133 </v>
   <v>       0.00273100 </v>
   <v>       0.01092399 </v>
   <v>       0.01092399 </v>
   <v>       0.01092399 </v>
   <v>       0.01092399 </v>
   <v>       0.01092399 </v>
   <v>       0.01092399 </v>
   <v>       0.01092399 </v>
   <v>       0.01092399 </v>
   <v>       0.01092399 </v>
   <v>       0.01092399 </v>
   <v>       0.00546199 </v>
   <v>       0.00273100 </v>
   <v>       0.01092399 </v>
   <v>       0.01092399 </v>
   <v>       0.01092399 </v>
   <v>       0.01092399 </v>
   <v>       0.01092399 </v>
   <v>       0.01092399 </v>
   <v>       0.01092399 </v>
   <v>       0.01092399 </v>
   <v>       0.00546199 </v>
   <v>       0.00273100 </v>
   <v>       0.01092399 </v>
   <v>       0.01092399 </v>
   <v>       0.01092399 </v>
   <v>       0.01092399 </v>
   <v>       0.01092399 </v>
   <v>       0.01092399 </v>
   <v>       0.00546199 </v>
   <v>       0.00273100 </v>
   <v>       0.01092399 </v>
   <v>       0.01092399 </v>
   <v>       0.01092399 </v>
   <v>       0.01092399 </v>
   <v>       0.00546199 </v>
   <v>       0.00273100 </v>
   <v>       0.01092399 </v>
   <v>       0.01092399 </v>
   <v>       0.00546199 </v>
   <v>       0.00273100 </v>
   <v>       0.00546199 </v>
   <v>       0.01092399 </v>
   <v>       0.02184797 </v>
   <v>       0.02184797 </v>
   <v>       0.02184797 </v>
   <v>       0.02184797 </v>
   <v>       0.01092399 </v>
   <v>       0.02184797 </v>
   <v>       0.02184797 </v>
   <v>       0.02184797 </v>
   <v>       0.02184797 </v>
   <v>       0.02184797 </v>
   <v>       0.02184797 </v>
   <v>       0.01092399 </v>
   <v>       0.01092399 </v>
   <v>       0.02184797 </v>
   <v>       0.02184797 </v>
   <v>       0.02184797 </v>
   <v>       0.02184797 </v>
   <v>       0.01092399 </v>
   <v>       0.01092399 </v>
   <v>       0.02184797 </v>
   <v>       0.02184797 </v>
   <v>       0.01092399 </v>
   <v>       0.01092399 </v>
   <v>       0.01092399 </v>
   <v>       0.01092399 </v>
   <v>       0.02184797 </v>
   <v>       0.02184797 </v>
   <v>       0.01092399 </v>
   <v>       0.02184797 </v>
   <v>       0.02184797 </v>
   <v>       0.01092399 </v>
   <v>       0.01092399 </v>
   <v>       0.01092399 </v>
   <v>       0.01092399 </v>
  </varray>
 </kpoints>
 <parameters>
  <separator name="general" >
   <i type="string" name="SYSTEM">unknown system</i>
   <i type="logical" name="LCOMPAT"> F  </i>
  </separator>
  <separator name="electronic" >
   <i type="string" name="PREC">acc</i>
   <i name="ENMAX">    520.00000000</i>
   <i name="ENAUG">    380.87800000</i>
   <i name="EDIFF">      0.00001000</i>
   <i type="int" name="IALGO">    38</i>
   <i type="int" name="IWAVPR">    11</i>
   <i type="int" name="NBANDS">    16</i>
   <i type="int" name="NBANDSLOW">    -1</i>
   <i type="int" name="NBANDSHIGH">    -1</i>
   <i name="NELECT">     25.00000000</i>
   <i type="int" name="TURBO">     0</i>
   <i type="int" name="IRESTART">     0</i>
   <i type="int" name="NREBOOT">     0</i>
   <i type="int" name="NMIN">     0</i>
   <i name="EREF">      0.00000000</i>
   <separator name="electronic smearing" >
    <i type="int" name="ISMEAR">     0</i>
    <i name="SIGMA">      0.01000000</i>
    <i name="KSPACING">      0.50000000</i>
    <i type="logical" name="KGAMMA"> T  </i>
    <i type="logical" name="KBLOWUP"> T  </i>
   </separator>
   <separator name="electronic projectors" >
    <i type="logical" name="LREAL"> F  </i>
    <v name="ROPT">      0.00000000      0.00000000      0.00000000</v>
    <i type="int" name="LMAXPAW">  -100</i>
    <i type="int" name="LMAXMIX">     2</i>
    <i type="logical" name="NLSPLINE"> F  </i>
   </separator>
   <separator name="electronic startup" >
    <i type="int" name="ISTART">     0</i>
    <i type="int" name="ICHARG">     2</i>
    <i type="int" name="INIWAV">     1</i>
   </separator>
   <separator name="electronic spin" >
    <i type="int" name="ISPIN">     1</i>
    <i type="logical" name="LNONCOLLINEAR"> F  </i>
    <v name="MAGMOM">      1.00000000      1.00000000      1.00000000</v>
    <i name="NUPDOWN">     -1.00000000</i>
    <i type="logical" name="LSORBIT"> F  </i>
    <v name="SAXIS">      0.00000000      0.00000000      1.00000000</v>
    <i type="logical" name="LSPIRAL"> F  </i>
    <v name="QSPIRAL">      0.00000000      0.00000000      0.00000000</v>
    <i type="logical" name="LZEROZ"> F  </i>
   </separator>
   <separator name="electronic exchange-correlation" >
    <i type="logical" name="LASPH"> F  </i>
    <i type="logical" name="LMETAGGA"> F  </i>
   </separator>
   <separator name="electronic convergence" >
    <i type="int" name="NELM">    60</i>
    <i type="int" name="NELMDL">    -5</i>
    <i type="int" name="NELMIN">     5</i>
    <i name="ENINI">    520.00000000</i>
    <separator name="electronic convergence detail" >
     <i type="logical" name="LDIAG"> T  </i>
     <i type="logical" name="LSUBROT"> F  </i>
     <i name="WEIMIN">      0.00100000</i>
     <i name="EBREAK">      0.00000016</i>
     <i name="DEPER">      0.30000000</i>
     <i type="int" name="NRMM">     4</i>
     <i name="TIME">      0.40000000</i>
    </separator>
   </separator>
   <separator name="electronic mixer" >
    <i name="AMIX">      0.40000000</i>
    <i name="BMIX">      1.00000000</i>
    <i name="AMIN">      0.10000000</i>
    <i name="AMIX_MAG">      1.60000000</i>
    <i name="BMIX_MAG">      1.00000000</i>
    <separator name="electronic mixer details" >
     <i type="int" name="IMIX">     4</i>
     <i type="logical" name="MIXFIRST"> F  </i>
     <i type="int" name="MAXMIX">   -45</i>
     <i name="WC">    100.00000000</i>
     <i type="int" name="INIMIX">     1</i>
     <i type="int" name="MIXPRE">     1</i>
     <i type="int" name="MREMOVE">     5</i>
    </separator>
   </separator>
   <separator name="electronic dipolcorrection" >
    <i type="logical" name="LDIPOL"> F  </i>
    <i type="logical" name="LMONO"> F  </i>
    <i type="int" name="IDIPOL">     0</i>
    <i name="EPSILON">      1.00000000</i>
    <v name="DIPOL">   -100.00000000   -100.00000000   -100.00000000</v>
    <i name="EFIELD">      0.00000000</i>
   </separator>
  </separator>
  <separator name="grids" >
   <i type="int" name="NGX">    36</i>
   <i type="int" name="NGY">    36</i>
   <i type="int" name="NGZ">    36</i>
   <i type="int" name="NGXF">    72</i>
   <i type="int" name="NGYF">    72</i>
   <i type="int" name="NGZF">    72</i>
   <i type="logical" name="ADDGRID"> F  </i>
  </separator>
  <separator name="ionic" >
   <i type="int" name="NSW">    60</i>
   <i type="int" name="IBRION">     2</i>
   <i type="int" name="MDALGO">     0</i>
   <i type="int" name="ISIF">     7</i>
   <i name="PSTRESS">      0.00000000</i>
   <i name="EDIFFG">      0.00010000</i>
   <i type="int" name="NFREE">     1</i>
   <i name="POTIM">      0.10000000</i>
   <i name="SMASS">     -3.00000000</i>
   <i name="SCALEE">      1.00000000</i>
  </separator>
  <separator name="ionic md" >
   <i name="TEBEG">      0.00010000</i>
   <i name="TEEND">      0.00010000</i>
   <i type="int" name="NBLOCK">     1</i>
   <i type="int" name="KBLOCK">    60</i>
   <i type="int" name="NPACO">   256</i>
   <i name="APACO">     16.00000000</i>
  </separator>
  <separator name="symmetry" >
   <i type="int" name="ISYM">     2</i>
   <i name="SYMPREC">      0.00001000</i>
  </separator>
  <separator name="dos" >
   <i type="int" name="LORBIT">     0</i>
   <v name="RWIGS">     -1.00000000     -1.00000000     -1.00000000</v>
   <i type="int" name="NEDOS">   301</i>
   <i name="EMIN">     10.00000000</i>
   <i name="EMAX">    -10.00000000</i>
   <i name="EFERMI">      0.00000000</i>
  </separator>
  <separator name="writing" >
   <i type="int" name="NWRITE">     2</i>
   <i type="logical" name="LWAVE"> F  </i>
   <i type="logical" name="LDOWNSAMPLE"> F  </i>
   <i type="logical" name="LCHARG"> F  </i>
   <i type="logical" name="LPARD"> F  </i>
   <i type="logical" name="LVTOT"> F  </i>
   <i type="logical" name="LVHAR"> F  </i>
   <i type="logical" name="LELF"> F  </i>
   <i type="logical" name="LOPTICS"> F  </i>
   <v name="STM">      0.00000000      0.00000000      0.00000000      0.00000000      0.00000000      0.00000000      0.00000000</v>
  </separator>
  <separator name="performance" >
   <i type="int" name="NPAR">     4</i>
   <i type="int" name="NSIM">     4</i>
   <i type="int" name="NBLK">    -1</i>
   <i type="logical" name="LPLANE"> T  </i>
   <i type="logical" name="LSCALAPACK"> T  </i>
   <i type="logical" name="LSCAAWARE"> F  </i>
   <i type="logical" name="LSCALU"> F  </i>
   <i type="logical" name="LASYNC"> F  </i>
   <i type="logical" name="LORBITALREAL"> F  </i>
  </separator>
  <separator name="miscellaneous" >
   <i type="int" name="IDIOT">     3</i>
   <i type="int" name="PHON_NSTRUCT">    -1</i>
   <i type="logical" name="LMUSIC"> F  </i>
   <v name="POMASS">    178.49000000    195.08000000    121.75000000</v>
   <v name="DARWINR">      0.00000000      0.00000000      0.00000000</v>
   <v name="DARWINV">      1.00000000      1.00000000      1.00000000</v>
   <i type="logical" name="LCORR"> T  </i>
  </separator>
  <i type="logical" name="GGA_COMPAT"> T  </i>
  <i type="logical" name="LBERRY"> F  </i>
  <i type="int" name="ICORELEVEL">     0</i>
  <i type="logical" name="LDAU"> F  </i>
  <i type="int" name="I_CONSTRAINED_M">     0</i>
  <separator name="electronic exchange-correlation" >
   <i type="string" name="GGA">PS</i>
   <i type="int" name="VOSKOWN">     0</i>
   <i type="logical" name="LHFCALC"> F  </i>
   <i type="string" name="PRECFOCK"></i>
   <i type="logical" name="LSYMGRAD"> F  </i>
   <i type="logical" name="LHFONE"> F  </i>
   <i type="logical" name="LRHFCALC"> F  </i>
   <i type="logical" name="LTHOMAS"> F  </i>
   <i type="logical" name="LMODELHF"> F  </i>
   <i type="logical" name="LFOCKACE"> F  </i>
   <i name="ENCUT4O">     -1.00000000</i>
   <i type="int" name="EXXOEP">     0</i>
   <i type="int" name="FOURORBIT">     0</i>
   <i name="AEXX">      0.00000000</i>
   <i name="HFALPHA">      0.00000000</i>
   <i name="MCALPHA">      0.00000000</i>
   <i name="ALDAX">      1.00000000</i>
   <i name="AGGAX">      1.00000000</i>
   <i name="ALDAC">      1.00000000</i>
   <i name="AGGAC">      1.00000000</i>
   <i type="int" name="NKREDX">     1</i>
   <i type="int" name="NKREDY">     1</i>
   <i type="int" name="NKREDZ">     1</i>
   <i type="logical" name="SHIFTRED"> F  </i>
   <i type="logical" name="ODDONLY"> F  </i>
   <i type="logical" name="EVENONLY"> F  </i>
   <i type="int" name="LMAXFOCK">     0</i>
   <i type="int" name="NMAXFOCKAE">     0</i>
   <i type="logical" name="LFOCKAEDFT"> F  </i>
   <i name="HFSCREEN">      0.00000000</i>
   <i name="HFSCREENC">      0.00000000</i>
   <i type="int" name="NBANDSGWLOW">     0</i>
  </separator>
  <separator name="vdW DFT" >
   <i type="logical" name="LUSE_VDW"> F  </i>
   <i name="Zab_VDW">     -0.84910000</i>
   <i name="PARAM1">      0.12340000</i>
   <i name="PARAM2">      1.00000000</i>
   <i name="PARAM3">      0.00000000</i>
  </separator>
  <separator name="model GW" >
   <i type="int" name="MODEL_GW">     0</i>
   <i name="MODEL_EPS0">     13.29809176</i>
   <i name="MODEL_ALPHA">      1.00000000</i>
  </separator>
  <separator name="linear response parameters" >
   <i type="logical" name="LEPSILON"> F  </i>
   <i type="logical" name="LRPA"> F  </i>
   <i type="logical" name="LNABLA"> F  </i>
   <i type="logical" name="LVEL"> F  </i>
   <i type="int" name="KINTER">     0</i>
   <i name="CSHIFT">      0.10000000</i>
   <i name="OMEGAMAX">     -1.00000000</i>
   <i name="DEG_THRESHOLD">      0.00200000</i>
   <i name="RTIME">     -0.10000000</i>
   <i name="WPLASMAI">      0.00000000</i>
   <v name="DFIELD">      0.00000000      0.00000000      0.00000000</v>
   <v name="WPLASMA">      0.00000000      0.00000000      0.00000000      0.00000000      0.00000000      0.00000000      0.00000000      0.00000000      0.00000000</v>
  </separator>
  <separator name="orbital magnetization" >
   <i type="logical" name="NUCIND"> F  </i>
   <v name="MAGPOS">      0.00000000      0.00000000      0.00000000</v>
   <i type="logical" name="LNICSALL"> T  </i>
   <i type="logical" name="ORBITALMAG"> F  </i>
   <i type="logical" name="LMAGBLOCH"> F  </i>
   <i type="logical" name="LCHIMAG"> F  </i>
   <i type="logical" name="LGAUGE"> T  </i>
   <i type="int" name="MAGATOM">     0</i>
   <v name="MAGDIPOL">      0.00000000      0.00000000      0.00000000</v>
   <v name="AVECCONST">      0.00000000      0.00000000      0.00000000</v>
  </separator>
  <separator name="response functions" >
   <i type="logical" name="LFINITE_TEMPERATURE"> F  </i>
   <i type="logical" name="LADDER"> F  </i>
   <i type="logical" name="LRPAFORCE"> F  </i>
   <i type="logical" name="LFXC"> F  </i>
   <i type="logical" name="LHARTREE"> T  </i>
   <i type="int" name="IBSE">     0</i>
   <v type="int" name="KPOINT">    -1     0     0     0</v>
   <i type="logical" name="LTCTC"> F  </i>
   <i type="logical" name="LTCTE"> F  </i>
   <i type="logical" name="LTETE"> F  </i>
   <i type="logical" name="LTRIPLET"> F  </i>
   <i type="logical" name="LFXCEPS"> F  </i>
   <i type="logical" name="LFXHEG"> F  </i>
   <i type="int" name="NATURALO">     2</i>
   <i type="logical" name="L2ORDER"> F  </i>
   <i type="logical" name="LDMP1"> F  </i>
   <i type="logical" name="LMP2LT"> F  </i>
   <i type="logical" name="LSMP2LT"> F  </i>
   <i type="logical" name="LUSEW"> F  </i>
   <i name="ENCUTGW">     -2.00000000</i>
   <i name="ENCUTGWSOFT">     -2.00000000</i>
   <i name="ENCUTLF">     -1.00000000</i>
   <i type="int" name="LMAXMP2">    -1</i>
   <i name="SCISSOR">      0.00000000</i>
   <i type="int" name="NOMEGA">     0</i>
   <i type="int" name="NOMEGAR">     0</i>
   <i type="int" name="NBANDSGW">    -1</i>
   <i type="int" name="NBANDSO">    -1</i>
   <i type="int" name="NBANDSV">    -1</i>
   <i type="int" name="NELM">     1</i>
   <i type="int" name="NELMHF">     1</i>
   <i type="int" name="DIM">     3</i>
   <i type="int" name="IESPILON">     4</i>
   <i type="int" name="ANTIRES">     0</i>
   <i name="OMEGAMAX">    -30.00000000</i>
   <i name="OMEGAMIN">    -30.00000000</i>
   <i name="OMEGATL">   -200.00000000</i>
   <i type="int" name="OMEGAGRID">   145</i>
   <i name="CSHIFT">     -0.10000000</i>
   <i type="logical" name="LSELFENERGY"> F  </i>
   <i type="logical" name="LSPECTRAL"> F  </i>
   <i type="logical" name="LSPECTRALGW"> F  </i>
   <i type="logical" name="LSINGLES"> F  </i>
   <i type="logical" name="LFERMIGW"> F  </i>
   <i type="logical" name="ODDONLYGW"> F  </i>
   <i type="logical" name="EVENONLYGW"> F  </i>
   <i type="int" name="NKREDLFX">     1</i>
   <i type="int" name="NKREDLFY">     1</i>
   <i type="int" name="NKREDLFZ">     1</i>
   <i type="int" name="MAXMEM">  2800</i>
   <i type="int" name="TELESCOPE">     0</i>
   <i type="int" name="NTAUPAR">     1</i>
   <i type="int" name="NOMEGAPAR">    -1</i>
   <i name="LAMBDA">      1.00000000</i>
  </separator>
  <separator name="External order field" >
   <i name="OFIELD_KAPPA">      0.00000000</i>
   <v name="OFIELD_K">      0.00000000      0.00000000      0.00000000</v>
   <i name="OFIELD_Q6_NEAR">      0.00000000</i>
   <i name="OFIELD_Q6_FAR">      0.00000000</i>
   <i name="OFIELD_A">      0.00000000</i>
  </separator>
 </parameters>
 <atominfo>
  <atoms>       3 </atoms>
  <types>       3 </types>
  <array name="atoms" >
   <dimension dim="1">ion</dimension>
   <field type="string">element</field>
   <field type="int">atomtype</field>
   <set>
    <rc><c>Hf</c><c>   1</c></rc>
    <rc><c>Pt</c><c>   2</c></rc>
    <rc><c>Sb</c><c>   3</c></rc>
   </set>
  </array>
  <array name="atomtypes" >
   <dimension dim="1">type</dimension>
   <field type="int">atomspertype</field>
   <field type="string">element</field>
   <field>mass</field>
   <field>valence</field>
   <field type="string">pseudopotential</field>
   <set>
    <rc><c>   1</c><c>Hf</c><c>    178.49000000</c><c>     10.00000000</c><c>  PAW_PBE Hf_pv 06Sep2000               </c></rc>
    <rc><c>   1</c><c>Pt</c><c>    195.08000000</c><c>     10.00000000</c><c>  PAW_PBE Pt 04Feb2005                  </c></rc>
    <rc><c>   1</c><c>Sb</c><c>    121.75000000</c><c>      5.00000000</c><c>  PAW_PBE Sb 06Sep2000                  </c></rc>
   </set>
  </array>
 </atominfo>
 <structure name="initialpos" >
  <crystal>
   <varray name="basis" >
    <v>       0.00000000       3.21546000       3.21546000 </v>
    <v>       3.21546000       0.00000000       3.21546000 </v>
    <v>       3.21546000       3.21546000       0.00000000 </v>
   </varray>
   <i name="volume">     66.49045881 </i>
   <varray name="rec_basis" >
    <v>      -0.15549875       0.15549875       0.15549875 </v>
    <v>       0.15549875      -0.15549875       0.15549875 </v>
    <v>       0.15549875       0.15549875      -0.15549875 </v>
   </varray>
  </crystal>
  <varray name="positions" >
   <v>       0.25000000       0.25000000       0.25000000 </v>
   <v>       0.00000000       0.00000000       0.00000000 </v>
   <v>       0.75000000       0.75000000       0.75000000 </v>
  </varray>
 </structure>
 <calculation>
  <scstep>
   <time name="dav">    0.80    0.82</time>
   <time name="total">    0.86    0.95</time>
   <energy>
    <i name="alphaZ">    102.46212233 </i>
    <i name="ewald">  -1546.29806141 </i>
    <i name="hartreedc">   -330.31081324 </i>
    <i name="XCdc">    -19.27897121 </i>
    <i name="pawpsdc">   1514.36848356 </i>
    <i name="pawaedc">  -1421.27055995 </i>
    <i name="eentropy">     -0.00003345 </i>
    <i name="bandstr">     75.53305316 </i>
    <i name="atom">   1741.10122161 </i>
    <i name="e_fr_energy">    116.30644140 </i>
    <i name="e_wo_entrp">    116.30647485 </i>
    <i name="e_0_energy">    116.30645813 </i>
   </energy>
  </scstep>
  <scstep>
   <time name="dav">    0.93    0.93</time>
   <time name="total">    0.93    0.94</time>
   <energy>
    <i name="e_fr_energy">    -20.79352649 </i>
    <i name="e_wo_entrp">    -20.79338328 </i>
    <i name="e_0_energy">    -20.79345488 </i>
   </energy>
  </scstep>
  <scstep>
   <time name="dav">    0.99    1.01</time>
   <time name="total">    0.99    1.01</time>
   <energy>
    <i name="e_fr_energy">    -24.96064281 </i>
    <i name="e_wo_entrp">    -24.96055011 </i>
    <i name="e_0_energy">    -24.96059646 </i>
   </energy>
  </scstep>
  <scstep>
   <time name="dav">    0.94    0.96</time>
   <time name="total">    0.94    0.96</time>
   <energy>
    <i name="e_fr_energy">    -25.02176602 </i>
    <i name="e_wo_entrp">    -25.02163509 </i>
    <i name="e_0_energy">    -25.02170056 </i>
   </energy>
  </scstep>
  <scstep>
   <time name="dav">    1.01    1.02</time>
   <time name="total">    1.10    1.12</time>
   <energy>
    <i name="e_fr_energy">    -25.02313433 </i>
    <i name="e_wo_entrp">    -25.02300383 </i>
    <i name="e_0_energy">    -25.02306908 </i>
   </energy>
  </scstep>
  <scstep>
   <time name="dav">    0.95    0.96</time>
   <time name="total">    1.09    1.11</time>
   <energy>
    <i name="e_fr_energy">    -24.20057055 </i>
    <i name="e_wo_entrp">    -24.20023739 </i>
    <i name="e_0_energy">    -24.20040397 </i>
   </energy>
  </scstep>
  <scstep>
   <time name="dav">    1.02    1.02</time>
   <time name="total">    1.15    1.17</time>
   <energy>
    <i name="e_fr_energy">    -24.05929776 </i>
    <i name="e_wo_entrp">    -24.05897077 </i>
    <i name="e_0_energy">    -24.05913426 </i>
   </energy>
  </scstep>
  <scstep>
   <time name="dav">    0.94    0.94</time>
   <time name="total">    1.07    1.09</time>
   <energy>
    <i name="e_fr_energy">    -24.03747098 </i>
    <i name="e_wo_entrp">    -24.03724546 </i>
    <i name="e_0_energy">    -24.03735822 </i>
   </energy>
  </scstep>
  <scstep>
   <time name="dav">    0.83    0.83</time>
   <time name="total">    0.96    0.98</time>
   <energy>
    <i name="e_fr_energy">    -24.02676927 </i>
    <i name="e_wo_entrp">    -24.02645258 </i>
    <i name="e_0_energy">    -24.02661093 </i>
   </energy>
  </scstep>
  <scstep>
   <time name="dav">    0.99    0.99</time>
   <time name="total">    1.11    1.13</time>
   <energy>
    <i name="e_fr_energy">    -24.02670241 </i>
    <i name="e_wo_entrp">    -24.02639169 </i>
    <i name="e_0_energy">    -24.02654705 </i>
   </energy>
  </scstep>
  <scstep>
   <time name="dav">    0.91    0.91</time>
   <time name="total">    1.03    1.06</time>
   <energy>
    <i name="e_fr_energy">    -24.02657504 </i>
    <i name="e_wo_entrp">    -24.02626172 </i>
    <i name="e_0_energy">    -24.02641838 </i>
   </energy>
  </scstep>
  <scstep>
   <time name="dav">    0.98    0.98</time>
   <time name="total">    1.02    1.04</time>
   <energy>
    <i name="alphaZ">    102.46212233 </i>
    <i name="ewald">  -1546.29806141 </i>
    <i name="hartreedc">   -308.49320895 </i>
    <i name="XCdc">    -19.94089602 </i>
    <i name="pawpsdc">   2504.63270292 </i>
    <i name="pawaedc">  -2416.73756498 </i>
    <i name="eentropy">     -0.00031358 </i>
    <i name="bandstr">    -80.75257512 </i>
    <i name="atom">   1741.10122161 </i>
    <i name="e_fr_energy">    -24.02657319 </i>
    <i name="e_wo_entrp">    -24.02625961 </i>
    <i name="e_0_energy">    -24.02641640 </i>
   </energy>
  </scstep>
  <structure>
   <crystal>
    <varray name="basis" >
     <v>       0.00000000       3.21546000       3.21546000 </v>
     <v>       3.21546000       0.00000000       3.21546000 </v>
     <v>       3.21546000       3.21546000       0.00000000 </v>
    </varray>
    <i name="volume">     66.49045881 </i>
    <varray name="rec_basis" >
     <v>      -0.15549875       0.15549875       0.15549875 </v>
     <v>       0.15549875      -0.15549875       0.15549875 </v>
     <v>       0.15549875       0.15549875      -0.15549875 </v>
    </varray>
   </crystal>
   <varray name="positions" >
    <v>       0.25000000       0.25000000       0.25000000 </v>
    <v>       0.00000000       0.00000000       0.00000000 </v>
    <v>       0.75000000       0.75000000       0.75000000 </v>
   </varray>
  </structure>
  <varray name="forces" >
   <v>      -0.00000000      -0.00000000       0.00000000 </v>
   <v>       0.00000000       0.00000000       0.00000000 </v>
   <v>      -0.00000000      -0.00000000      -0.00000000 </v>
  </varray>
  <varray name="stress" >
   <v>     -44.86873934       0.00000000      -0.00000000 </v>
   <v>       0.00000000     -44.86873934      -0.00000000 </v>
   <v>      -0.00000000       0.00000000     -44.86873934 </v>
  </varray>
  <energy>
   <i name="e_fr_energy">    -24.02657319 </i>
   <i name="e_wo_entrp">    -24.02641640 </i>
   <i name="e_0_energy">     -0.00031358 </i>
  </energy>
  <time name="totalsc">   13.27   13.74</time>
 </calculation>
 <calculation>
  <scstep>
   <time name="dav">    0.80    0.80</time>
   <time name="total">    0.93    0.96</time>
   <energy>
    <i name="alphaZ">    104.32523763 </i>
    <i name="ewald">  -1555.61416778 </i>
    <i name="hartreedc">   -310.33904911 </i>
    <i name="XCdc">    -19.59743410 </i>
    <i name="pawpsdc">   2504.59374325 </i>
    <i name="pawaedc">  -2416.69562663 </i>
    <i name="eentropy">     -0.00014288 </i>
    <i name="bandstr">    -71.88578126 </i>
    <i name="atom">   1741.10122161 </i>
    <i name="e_fr_energy">    -24.11199928 </i>
    <i name="e_wo_entrp">    -24.11185639 </i>
    <i name="e_0_energy">    -24.11192784 </i>
   </energy>
  </scstep>
  <scstep>
   <time name="dav">    0.79    0.79</time>
   <time name="total">    0.91    0.93</time>
   <energy>
    <i name="e_fr_energy">    -24.06537099 </i>
    <i name="e_wo_entrp">    -24.06511544 </i>
    <i name="e_0_energy">    -24.06524322 </i>
   </energy>
  </scstep>
  <scstep>
   <time name="dav">    0.84    0.84</time>
   <time name="total">    0.97    0.97</time>
   <energy>
    <i name="e_fr_energy">    -24.05337304 </i>
    <i name="e_wo_entrp">    -24.05308959 </i>
    <i name="e_0_energy">    -24.05323132 </i>
   </energy>
  </scstep>
  <scstep>
   <time name="dav">    0.97    0.97</time>
   <time name="total">    1.10    1.12</time>
   <energy>
    <i name="e_fr_energy">    -24.05152955 </i>
    <i name="e_wo_entrp">    -24.05125344 </i>
    <i name="e_0_energy">    -24.05139149 </i>
   </energy>
  </scstep>
  <scstep>
   <time name="dav">    0.93    0.93</time>
   <time name="total">    1.05    1.08</time>
   <energy>
    <i name="e_fr_energy">    -24.05142892 </i>
    <i name="e_wo_entrp">    -24.05115865 </i>
    <i name="e_0_energy">    -24.05129379 </i>
   </energy>
  </scstep>
  <scstep>
   <time name="dav">    0.91    0.91</time>
   <time name="total">    1.03    1.06</time>
   <energy>
    <i name="e_fr_energy">    -24.05143793 </i>
    <i name="e_wo_entrp">    -24.05116818 </i>
    <i name="e_0_energy">    -24.05130305 </i>
   </energy>
  </scstep>
  <scstep>
   <time name="dav">    0.97    0.97</time>
   <time name="total">    1.10    1.12</time>
   <energy>
    <i name="e_fr_energy">    -24.05142394 </i>
    <i name="e_wo_entrp">    -24.05115678 </i>
    <i name="e_0_energy">    -24.05129036 </i>
   </energy>
  </scstep>
  <scstep>
   <time name="dav">    0.59    0.59</time>
   <time name="total">    0.63    0.65</time>
   <energy>
    <i name="alphaZ">    104.32523763 </i>
    <i name="ewald">  -1555.61416778 </i>
    <i name="hartreedc">   -305.44664003 </i>
    <i name="XCdc">    -19.77033636 </i>
    <i name="pawpsdc">   2568.87604753 </i>
    <i name="pawaedc">  -2481.08678673 </i>
    <i name="eentropy">     -0.00026660 </i>
    <i name="bandstr">    -76.43573473 </i>
    <i name="atom">   1741.10122161 </i>
    <i name="e_fr_energy">    -24.05142547 </i>
    <i name="e_wo_entrp">    -24.05115887 </i>
    <i name="e_0_energy">    -24.05129217 </i>
   </energy>
  </scstep>
  <structure>
   <crystal>
    <varray name="basis" >
     <v>       0.00000000       3.19620358       3.19620358 </v>
     <v>       3.19620358       0.00000000       3.19620358 </v>
     <v>       3.19620358       3.19620358       0.00000000 </v>
    </varray>
    <i name="volume">     65.30302427 </i>
    <varray name="rec_basis" >
     <v>      -0.15643559       0.15643559       0.15643559 </v>
     <v>       0.15643559      -0.15643559       0.15643559 </v>
     <v>       0.15643559       0.15643559      -0.15643559 </v>
    </varray>
   </crystal>
   <varray name="positions" >
    <v>       0.25000000       0.25000000       0.25000000 </v>
    <v>       0.00000000       0.00000000       0.00000000 </v>
    <v>       0.75000000       0.75000000       0.75000000 </v>
   </varray>
  </structure>
  <varray name="forces" >
   <v>      -0.00000000       0.00000000      -0.00000000 </v>
   <v>       0.00000000      -0.00000000      -0.00000000 </v>
   <v>       0.00000000      -0.00000000       0.00000000 </v>
  </varray>
  <varray name="stress" >
   <v>     -22.53846143       0.00000000       0.00000000 </v>
   <v>       0.00000000     -22.53846143       0.00000000 </v>
   <v>       0.00000000       0.00000000     -22.53846143 </v>
  </varray>
  <energy>
   <i name="e_fr_energy">    -24.05142547 </i>
   <i name="e_wo_entrp">    -24.05129217 </i>
   <i name="e_0_energy">     -0.00026660 </i>
  </energy>
  <time name="totalsc">    8.75    9.06</time>
 </calculation>
 <calculation>
  <scstep>
   <time name="dav">    0.79    0.80</time>
   <time name="total">    0.92    0.94</time>
   <energy>
    <i name="alphaZ">    106.37639438 </i>
    <i name="ewald">  -1565.74313996 </i>
    <i name="hartreedc">   -307.43608095 </i>
    <i name="XCdc">    -19.39802326 </i>
    <i name="pawpsdc">   2568.92740432 </i>
    <i name="pawaedc">  -2481.13599622 </i>
    <i name="eentropy">     -0.00031197 </i>
    <i name="bandstr">    -66.82002815 </i>
    <i name="atom">   1741.10122161 </i>
    <i name="e_fr_energy">    -24.12856019 </i>
    <i name="e_wo_entrp">    -24.12824822 </i>
    <i name="e_0_energy">    -24.12840420 </i>
   </energy>
  </scstep>
  <scstep>
   <time name="dav">    0.79    0.79</time>
   <time name="total">    0.92    0.93</time>
   <energy>
    <i name="e_fr_energy">    -24.07421811 </i>
    <i name="e_wo_entrp">    -24.07404213 </i>
    <i name="e_0_energy">    -24.07413012 </i>
   </energy>
  </scstep>
  <scstep>
   <time name="dav">    0.83    0.83</time>
   <time name="total">    0.95    0.97</time>
   <energy>
    <i name="e_fr_energy">    -24.06108212 </i>
    <i name="e_wo_entrp">    -24.06080622 </i>
    <i name="e_0_energy">    -24.06094417 </i>
   </energy>
  </scstep>
  <scstep>
   <time name="dav">    0.97    0.97</time>
   <time name="total">    1.09    1.13</time>
   <energy>
    <i name="e_fr_energy">    -24.05901421 </i>
    <i name="e_wo_entrp">    -24.05872297 </i>
    <i name="e_0_energy">    -24.05886859 </i>
   </energy>
  </scstep>
  <scstep>
   <time name="dav">    0.92    0.92</time>
   <time name="total">    1.07    1.09</time>
   <energy>
    <i name="e_fr_energy">    -24.05888213 </i>
    <i name="e_wo_entrp">    -24.05860362 </i>
    <i name="e_0_energy">    -24.05874287 </i>
   </energy>
  </scstep>
  <scstep>
   <time name="dav">    0.90    0.90</time>
   <time name="total">    1.02    1.05</time>
   <energy>
    <i name="e_fr_energy">    -24.05889927 </i>
    <i name="e_wo_entrp">    -24.05862266 </i>
    <i name="e_0_energy">    -24.05876097 </i>
   </energy>
  </scstep>
  <scstep>
   <time name="dav">    0.98    0.98</time>
   <time name="total">    1.11    1.13</time>
   <energy>
    <i name="e_fr_energy">    -24.05887553 </i>
    <i name="e_wo_entrp">    -24.05860450 </i>
    <i name="e_0_energy">    -24.05874001 </i>
   </energy>
  </scstep>
  <scstep>
   <time name="dav">    0.58    0.58</time>
   <time name="total">    0.63    0.65</time>
   <energy>
    <i name="alphaZ">    106.37639438 </i>
    <i name="ewald">  -1565.74313996 </i>
    <i name="hartreedc">   -302.20235410 </i>
    <i name="XCdc">    -19.58272411 </i>
    <i name="pawpsdc">   2642.98177123 </i>
    <i name="pawaedc">  -2555.31217880 </i>
    <i name="eentropy">     -0.00027218 </i>
    <i name="bandstr">    -71.67759600 </i>
    <i name="atom">   1741.10122161 </i>
    <i name="e_fr_energy">    -24.05887793 </i>
    <i name="e_wo_entrp">    -24.05860575 </i>
    <i name="e_0_energy">    -24.05874184 </i>
   </energy>
  </scstep>
  <structure>
   <crystal>
    <varray name="basis" >
     <v>       0.00000000       3.17552697       3.17552697 </v>
     <v>       3.17552697       0.00000000       3.17552697 </v>
     <v>       3.17552697       3.17552697       0.00000000 </v>
    </varray>
    <i name="volume">     64.04384699 </i>
    <varray name="rec_basis" >
     <v>      -0.15745418       0.15745418       0.15745418 </v>
     <v>       0.15745418      -0.15745418       0.15745418 </v>
     <v>       0.15745418       0.15745418      -0.15745418 </v>
    </varray>
   </crystal>
   <varray name="positions" >
    <v>       0.25000000       0.25000000       0.25000000 </v>
    <v>       0.00000000       0.00000000       0.00000000 </v>
    <v>       0.75000000       0.75000000       0.75000000 </v>
   </varray>
  </structure>
  <varray name="forces" >
   <v>       0.00000000      -0.00000000       0.00000000 </v>
   <v>      -0.00000000       0.00000000      -0.00000000 </v>
   <v>       0.00000000      -0.00000000       0.00000000 </v>
  </varray>
  <varray name="stress" >
   <v>       3.53633610       0.00000000      -0.00000000 </v>
   <v>       0.00000000       3.53633610       0.00000000 </v>
   <v>       0.00000000       0.00000000       3.53633610 </v>
  </varray>
  <energy>
   <i name="e_fr_energy">    -24.05887793 </i>
   <i name="e_wo_entrp">    -24.05874184 </i>
   <i name="e_0_energy">     -0.00027218 </i>
  </energy>
  <time name="totalsc">    8.74    9.05</time>
 </calculation>
 <calculation>
  <scstep>
   <time name="dav">    0.80    0.80</time>
   <time name="total">    0.92    0.93</time>
   <energy>
    <i name="alphaZ">    106.09977020 </i>
    <i name="ewald">  -1564.38476090 </i>
    <i name="hartreedc">   -301.94261452 </i>
    <i name="XCdc">    -19.63209502 </i>
    <i name="pawpsdc">   2642.98191100 </i>
    <i name="pawaedc">  -2555.31030023 </i>
    <i name="eentropy">     -0.00023943 </i>
    <i name="bandstr">    -72.97322558 </i>
    <i name="atom">   1741.10122161 </i>
    <i name="e_fr_energy">    -24.06033288 </i>
    <i name="e_wo_entrp">    -24.06009344 </i>
    <i name="e_0_energy">    -24.06021316 </i>
   </energy>
  </scstep>
  <scstep>
   <time name="dav">    0.78    0.78</time>
   <time name="total">    1.00    1.02</time>
   <energy>
    <i name="e_fr_energy">    -24.05937205 </i>
    <i name="e_wo_entrp">    -24.05908455 </i>
    <i name="e_0_energy">    -24.05922830 </i>
   </energy>
  </scstep>
  <scstep>
   <time name="dav">    0.84    0.84</time>
   <time name="total">    0.96    0.98</time>
   <energy>
    <i name="e_fr_energy">    -24.05913313 </i>
    <i name="e_wo_entrp">    -24.05886626 </i>
    <i name="e_0_energy">    -24.05899970 </i>
   </energy>
  </scstep>
  <scstep>
   <time name="dav">    0.97    0.97</time>
   <time name="total">    1.18    1.21</time>
   <energy>
    <i name="e_fr_energy">    -24.05909202 </i>
    <i name="e_wo_entrp">    -24.05882576 </i>
    <i name="e_0_energy">    -24.05895889 </i>
   </energy>
  </scstep>
  <scstep>
   <time name="dav">    0.61    0.61</time>
   <time name="total">    0.66    0.67</time>
   <energy>
    <i name="alphaZ">    106.09977020 </i>
    <i name="ewald">  -1564.38476090 </i>
    <i name="hartreedc">   -302.63709658 </i>
    <i name="XCdc">    -19.60752110 </i>
    <i name="pawpsdc">   2633.59042998 </i>
    <i name="pawaedc">  -2545.89778553 </i>
    <i name="eentropy">     -0.00026775 </i>
    <i name="bandstr">    -72.32307977 </i>
    <i name="atom">   1741.10122161 </i>
    <i name="e_fr_energy">    -24.05908986 </i>
    <i name="e_wo_entrp">    -24.05882211 </i>
    <i name="e_0_energy">    -24.05895598 </i>
   </energy>
  </scstep>
  <structure>
   <crystal>
    <varray name="basis" >
     <v>       0.00000000       3.17828433       3.17828433 </v>
     <v>       3.17828433       0.00000000       3.17828433 </v>
     <v>       3.17828433       3.17828433       0.00000000 </v>
    </varray>
    <i name="volume">     64.21082263 </i>
    <varray name="rec_basis" >
     <v>      -0.15731758       0.15731758       0.15731758 </v>
     <v>       0.15731758      -0.15731758       0.15731758 </v>
     <v>       0.15731758       0.15731758      -0.15731758 </v>
    </varray>
   </crystal>
   <varray name="positions" >
    <v>       0.25000000       0.25000000       0.25000000 </v>
    <v>       0.00000000       0.00000000       0.00000000 </v>
    <v>       0.75000000       0.75000000       0.75000000 </v>
   </varray>
  </structure>
  <varray name="forces" >
   <v>       0.00000000       0.00000000       0.00000000 </v>
   <v>      -0.00000000      -0.00000000      -0.00000000 </v>
   <v>       0.00000000       0.00000000       0.00000000 </v>
  </varray>
  <varray name="stress" >
   <v>       0.49079655      -0.00000000       0.00000000 </v>
   <v>      -0.00000000       0.49079655       0.00000000 </v>
   <v>       0.00000000      -0.00000000       0.49079655 </v>
  </varray>
  <energy>
   <i name="e_fr_energy">    -24.05908986 </i>
   <i name="e_wo_entrp">    -24.05895598 </i>
   <i name="e_0_energy">     -0.00026775 </i>
  </energy>
  <time name="totalsc">    5.61    5.90</time>
  <eigenvalues>
   <array>
    <dimension dim="1">band</dimension>
    <dimension dim="2">kpoint</dimension>
    <dimension dim="3">spin</dimension>
    <field>eigene</field>
    <field>occ</field>
    <set>
     <set comment="spin 1">
      <set comment="kpoint 1">
       <r>  -23.2811    1.0000 </r>
       <r>  -23.2811    1.0000 </r>
       <r>  -23.2811    1.0000 </r>
       <r>   -3.8529    1.0000 </r>
       <r>    2.8931    1.0000 </r>
       <r>    2.8931    1.0000 </r>
       <r>    2.8931    1.0000 </r>
       <r>    3.7078    1.0000 </r>
       <r>    3.7078    1.0000 </r>
       <r>    7.3082    1.0000 </r>
       <r>    7.3082    1.0000 </r>
       <r>    7.3082    1.0000 </r>
       <r>    7.9899    1.0000 </r>
       <r>    9.8551    0.0000 </r>
       <r>    9.8551    0.0000 </r>
       <r>    9.8551    0.0000 </r>
      </set>
      <set comment="kpoint 2">
       <r>  -23.2822    1.0000 </r>
       <r>  -23.2811    1.0000 </r>
       <r>  -23.2811    1.0000 </r>
       <r>   -3.7880    1.0000 </r>
       <r>    2.8143    1.0000 </r>
       <r>    2.8652    1.0000 </r>
       <r>    2.8652    1.0000 </r>
       <r>    3.7484    1.0000 </r>
       <r>    3.7484    1.0000 </r>
       <r>    6.7557    1.0000 </r>
       <r>    7.2423    1.0000 </r>
       <r>    7.2423    1.0000 </r>
       <r>    8.2314    1.0000 </r>
       <r>    9.6909    0.0000 </r>
       <r>    9.6909    0.0000 </r>
       <r>   10.2369    0.0000 </r>
      </set>
      <set comment="kpoint 3">
       <r>  -23.2851    1.0000 </r>
       <r>  -23.2809    1.0000 </r>
       <r>  -23.2809    1.0000 </r>
       <r>   -3.5999    1.0000 </r>
       <r>    2.5952    1.0000 </r>
       <r>    2.8057    1.0000 </r>
       <r>    2.8057    1.0000 </r>
       <r>    3.8385    1.0000 </r>
       <r>    3.8385    1.0000 </r>
       <r>    5.8951    1.0000 </r>
       <r>    7.0773    1.0000 </r>
       <r>    7.0773    1.0000 </r>
       <r>    8.4602    1.0000 </r>
       <r>    9.5912    0.0000 </r>
       <r>    9.5912    0.0000 </r>
       <r>   11.0245    0.0000 </r>
      </set>
      <set comment="kpoint 4">
       <r>  -23.2892    1.0000 </r>
       <r>  -23.2807    1.0000 </r>
       <r>  -23.2807    1.0000 </r>
       <r>   -3.3098    1.0000 </r>
       <r>    2.2726    1.0000 </r>
       <r>    2.7525    1.0000 </r>
       <r>    2.7525    1.0000 </r>
       <r>    3.9223    1.0000 </r>
       <r>    3.9223    1.0000 </r>
       <r>    5.1069    1.0000 </r>
       <r>    6.8851    1.0000 </r>
       <r>    6.8851    1.0000 </r>
       <r>    8.6392    1.0000 </r>
       <r>    9.6223    0.0000 </r>
       <r>    9.6223    0.0000 </r>
       <r>   11.6734    0.0000 </r>
      </set>
      <set comment="kpoint 5">
       <r>  -23.2935    1.0000 </r>
       <r>  -23.2806    1.0000 </r>
       <r>  -23.2806    1.0000 </r>
       <r>   -2.9588    1.0000 </r>
       <r>    1.8889    1.0000 </r>
       <r>    2.7238    1.0000 </r>
       <r>    2.7238    1.0000 </r>
       <r>    3.9636    1.0000 </r>
       <r>    3.9636    1.0000 </r>
       <r>    4.5001    1.0000 </r>
       <r>    6.7283    1.0000 </r>
       <r>    6.7283    1.0000 </r>
       <r>    8.8016    1.0000 </r>
       <r>    9.7521    0.0000 </r>
       <r>    9.7521    0.0000 </r>
       <r>   11.2237    0.0000 </r>
      </set>
      <set comment="kpoint 6">
       <r>  -23.2970    1.0000 </r>
       <r>  -23.2804    1.0000 </r>
       <r>  -23.2804    1.0000 </r>
       <r>   -2.6171    1.0000 </r>
       <r>    1.5142    1.0000 </r>
       <r>    2.7185    1.0000 </r>
       <r>    2.7185    1.0000 </r>
       <r>    3.9617    1.0000 </r>
       <r>    3.9617    1.0000 </r>
       <r>    4.1101    1.0000 </r>
       <r>    6.6327    1.0000 </r>
       <r>    6.6327    1.0000 </r>
       <r>    8.9645    0.9980 </r>
       <r>    9.9305    0.0000 </r>
       <r>    9.9305    0.0000 </r>
       <r>   10.4815    0.0000 </r>
      </set>
      <set comment="kpoint 7">
       <r>  -23.2990    1.0000 </r>
       <r>  -23.2803    1.0000 </r>
       <r>  -23.2803    1.0000 </r>
       <r>   -2.3930    1.0000 </r>
       <r>    1.2674    1.0000 </r>
       <r>    2.7228    1.0000 </r>
       <r>    2.7228    1.0000 </r>
       <r>    3.9253    1.0000 </r>
       <r>    3.9456    1.0000 </r>
       <r>    3.9456    1.0000 </r>
       <r>    6.5919    1.0000 </r>
       <r>    6.5919    1.0000 </r>
       <r>    9.1177    0.0000 </r>
       <r>    9.9982    0.0000 </r>
       <r>   10.0708    0.0000 </r>
       <r>   10.0708    0.0000 </r>
      </set>
      <set comment="kpoint 8">
       <r>  -23.2821    1.0000 </r>
       <r>  -23.2812    1.0000 </r>
       <r>  -23.2812    1.0000 </r>
       <r>   -3.7667    1.0000 </r>
       <r>    2.6736    1.0000 </r>
       <r>    2.9239    1.0000 </r>
       <r>    2.9239    1.0000 </r>
       <r>    3.7409    1.0000 </r>
       <r>    3.7655    1.0000 </r>
       <r>    6.7949    1.0000 </r>
       <r>    7.1122    1.0000 </r>
       <r>    7.1122    1.0000 </r>
       <r>    8.3037    1.0000 </r>
       <r>    9.5565    0.0000 </r>
       <r>   10.1376    0.0000 </r>
       <r>   10.1381    0.0000 </r>
      </set>
      <set comment="kpoint 9">
       <r>  -23.2843    1.0000 </r>
       <r>  -23.2813    1.0000 </r>
       <r>  -23.2811    1.0000 </r>
       <r>   -3.6208    1.0000 </r>
       <r>    2.4614    1.0000 </r>
       <r>    2.9001    1.0000 </r>
       <r>    2.9269    1.0000 </r>
       <r>    3.8057    1.0000 </r>
       <r>    3.8234    1.0000 </r>
       <r>    6.1451    1.0000 </r>
       <r>    6.9209    1.0000 </r>
       <r>    6.9883    1.0000 </r>
       <r>    8.5412    1.0000 </r>
       <r>    9.4120    0.0000 </r>
       <r>    9.8507    0.0000 </r>
       <r>   10.6237    0.0000 </r>
      </set>
      <set comment="kpoint 10">
       <r>  -23.2879    1.0000 </r>
       <r>  -23.2813    1.0000 </r>
       <r>  -23.2809    1.0000 </r>
       <r>   -3.3667    1.0000 </r>
       <r>    2.2141    1.0000 </r>
       <r>    2.8079    1.0000 </r>
       <r>    2.8968    1.0000 </r>
       <r>    3.8936    1.0000 </r>
       <r>    3.9001    1.0000 </r>
       <r>    5.3669    1.0000 </r>
       <r>    6.7375    1.0000 </r>
       <r>    6.8157    1.0000 </r>
       <r>    8.8084    1.0000 </r>
       <r>    9.4078    0.0000 </r>
       <r>    9.7367    0.0000 </r>
       <r>   11.1913    0.0000 </r>
      </set>
      <set comment="kpoint 11">
       <r>  -23.2921    1.0000 </r>
       <r>  -23.2811    1.0000 </r>
       <r>  -23.2808    1.0000 </r>
       <r>   -3.0385    1.0000 </r>
       <r>    1.9228    1.0000 </r>
       <r>    2.7200    1.0000 </r>
       <r>    2.8614    1.0000 </r>
       <r>    3.9503    1.0000 </r>
       <r>    3.9572    1.0000 </r>
       <r>    4.7048    1.0000 </r>
       <r>    6.6070    1.0000 </r>
       <r>    6.6423    1.0000 </r>
       <r>    8.9164    1.0000 </r>
       <r>    9.6587    0.0000 </r>
       <r>    9.7509    0.0000 </r>
       <r>   11.3026    0.0000 </r>
      </set>
      <set comment="kpoint 12">
       <r>  -23.2958    1.0000 </r>
       <r>  -23.2808    1.0000 </r>
       <r>  -23.2808    1.0000 </r>
       <r>   -2.6953    1.0000 </r>
       <r>    1.6080    1.0000 </r>
       <r>    2.6775    1.0000 </r>
       <r>    2.8274    1.0000 </r>
       <r>    3.9630    1.0000 </r>
       <r>    3.9694    1.0000 </r>
       <r>    4.2440    1.0000 </r>
       <r>    6.5137    1.0000 </r>
       <r>    6.5403    1.0000 </r>
       <r>    8.9839    0.5533 </r>
       <r>    9.8728    0.0000 </r>
       <r>    9.9669    0.0000 </r>
       <r>   10.6609    0.0000 </r>
      </set>
      <set comment="kpoint 13">
       <r>  -23.2982    1.0000 </r>
       <r>  -23.2810    1.0000 </r>
       <r>  -23.2806    1.0000 </r>
       <r>   -2.4302    1.0000 </r>
       <r>    1.3536    1.0000 </r>
       <r>    2.6834    1.0000 </r>
       <r>    2.7870    1.0000 </r>
       <r>    3.9169    1.0000 </r>
       <r>    3.9598    1.0000 </r>
       <r>    4.0268    1.0000 </r>
       <r>    6.4381    1.0000 </r>
       <r>    6.5221    1.0000 </r>
       <r>    9.1014    0.0000 </r>
       <r>    9.9552    0.0000 </r>
       <r>   10.0324    0.0000 </r>
       <r>   10.3411    0.0000 </r>
      </set>
      <set comment="kpoint 14">
       <r>  -23.2988    1.0000 </r>
       <r>  -23.2811    1.0000 </r>
       <r>  -23.2804    1.0000 </r>
       <r>   -2.3522    1.0000 </r>
       <r>    1.2783    1.0000 </r>
       <r>    2.7236    1.0000 </r>
       <r>    2.7341    1.0000 </r>
       <r>    3.8703    1.0000 </r>
       <r>    3.9717    1.0000 </r>
       <r>    3.9937    1.0000 </r>
       <r>    6.3982    1.0000 </r>
       <r>    6.5388    1.0000 </r>
       <r>    9.1916    0.0000 </r>
       <r>    9.7670    0.0000 </r>
       <r>   10.0994    0.0000 </r>
       <r>   10.3952    0.0000 </r>
      </set>
      <set comment="kpoint 15">
       <r>  -23.2975    1.0000 </r>
       <r>  -23.2814    1.0000 </r>
       <r>  -23.2803    1.0000 </r>
       <r>   -2.5023    1.0000 </r>
       <r>    1.4292    1.0000 </r>
       <r>    2.6791    1.0000 </r>
       <r>    2.7818    1.0000 </r>
       <r>    3.9086    1.0000 </r>
       <r>    3.9976    1.0000 </r>
       <r>    4.0756    1.0000 </r>
       <r>    6.3765    1.0000 </r>
       <r>    6.5969    1.0000 </r>
       <r>    9.0990    0.0000 </r>
       <r>    9.9840    0.0000 </r>
       <r>    9.9980    0.0000 </r>
       <r>   10.3922    0.0000 </r>
      </set>
      <set comment="kpoint 16">
       <r>  -23.2946    1.0000 </r>
       <r>  -23.2815    1.0000 </r>
       <r>  -23.2802    1.0000 </r>
       <r>   -2.8056    1.0000 </r>
       <r>    1.7285    1.0000 </r>
       <r>    2.6432    1.0000 </r>
       <r>    2.8470    1.0000 </r>
       <r>    3.9280    1.0000 </r>
       <r>    4.0094    1.0000 </r>
       <r>    4.3795    1.0000 </r>
       <r>    6.3786    1.0000 </r>
       <r>    6.7143    1.0000 </r>
       <r>    9.0151    0.0000 </r>
       <r>    9.7951    0.0000 </r>
       <r>    9.9097    0.0000 </r>
       <r>   10.8895    0.0000 </r>
      </set>
      <set comment="kpoint 17">
       <r>  -23.2907    1.0000 </r>
       <r>  -23.2816    1.0000 </r>
       <r>  -23.2804    1.0000 </r>
       <r>   -3.1525    1.0000 </r>
       <r>    2.0669    1.0000 </r>
       <r>    2.6449    1.0000 </r>
       <r>    2.9114    1.0000 </r>
       <r>    3.9059    1.0000 </r>
       <r>    3.9809    1.0000 </r>
       <r>    4.9082    1.0000 </r>
       <r>    6.4349    1.0000 </r>
       <r>    6.8942    1.0000 </r>
       <r>    8.9539    1.0000 </r>
       <r>    9.5865    0.0000 </r>
       <r>    9.7373    0.0000 </r>
       <r>   11.1911    0.0000 </r>
      </set>
      <set comment="kpoint 18">
       <r>  -23.2867    1.0000 </r>
       <r>  -23.2816    1.0000 </r>
       <r>  -23.2806    1.0000 </r>
       <r>   -3.4613    1.0000 </r>
       <r>    2.3797    1.0000 </r>
       <r>    2.6909    1.0000 </r>
       <r>    2.9582    1.0000 </r>
       <r>    3.8429    1.0000 </r>
       <r>    3.9099    1.0000 </r>
       <r>    5.6097    1.0000 </r>
       <r>    6.5830    1.0000 </r>
       <r>    7.0981    1.0000 </r>
       <r>    8.7878    1.0000 </r>
       <r>    9.4483    0.0000 </r>
       <r>    9.7206    0.0000 </r>
       <r>   10.7083    0.0000 </r>
      </set>
      <set comment="kpoint 19">
       <r>  -23.2836    1.0000 </r>
       <r>  -23.2814    1.0000 </r>
       <r>  -23.2808    1.0000 </r>
       <r>   -3.6824    1.0000 </r>
       <r>    2.6396    1.0000 </r>
       <r>    2.7733    1.0000 </r>
       <r>    2.9497    1.0000 </r>
       <r>    3.7761    1.0000 </r>
       <r>    3.8193    1.0000 </r>
       <r>    6.3224    1.0000 </r>
       <r>    6.8756    1.0000 </r>
       <r>    7.2404    1.0000 </r>
       <r>    8.4821    1.0000 </r>
       <r>    9.4620    0.0000 </r>
       <r>    9.8451    0.0000 </r>
       <r>   10.2713    0.0000 </r>
      </set>
      <set comment="kpoint 20">
       <r>  -23.2851    1.0000 </r>
       <r>  -23.2816    1.0000 </r>
       <r>  -23.2816    1.0000 </r>
       <r>   -3.5218    1.0000 </r>
       <r>    2.2145    1.0000 </r>
       <r>    3.0109    1.0000 </r>
       <r>    3.0109    1.0000 </r>
       <r>    3.8043    1.0000 </r>
       <r>    3.8360    1.0000 </r>
       <r>    6.0945    1.0000 </r>
       <r>    6.7109    1.0000 </r>
       <r>    6.7109    1.0000 </r>
       <r>    8.5044    1.0000 </r>
       <r>    9.4300    0.0000 </r>
       <r>    9.9053    0.0000 </r>
       <r>   10.7412    0.0000 </r>
      </set>
      <set comment="kpoint 21">
       <r>  -23.2877    1.0000 </r>
       <r>  -23.2817    1.0000 </r>
       <r>  -23.2817    1.0000 </r>
       <r>   -3.3152    1.0000 </r>
       <r>    1.9816    1.0000 </r>
       <r>    3.0029    1.0000 </r>
       <r>    3.0391    1.0000 </r>
       <r>    3.8246    1.0000 </r>
       <r>    3.9125    1.0000 </r>
       <r>    5.5747    1.0000 </r>
       <r>    6.5224    1.0000 </r>
       <r>    6.5228    1.0000 </r>
       <r>    8.7102    1.0000 </r>
       <r>    9.4114    0.0000 </r>
       <r>    9.7656    0.0000 </r>
       <r>   11.0838    0.0000 </r>
      </set>
      <set comment="kpoint 22">
       <r>  -23.2912    1.0000 </r>
       <r>  -23.2818    1.0000 </r>
       <r>  -23.2817    1.0000 </r>
       <r>   -3.0298    1.0000 </r>
       <r>    1.7778    1.0000 </r>
       <r>    2.9003    1.0000 </r>
       <r>    3.0267    1.0000 </r>
       <r>    3.8839    1.0000 </r>
       <r>    3.9796    1.0000 </r>
       <r>    4.9455    1.0000 </r>
       <r>    6.3312    1.0000 </r>
       <r>    6.4013    1.0000 </r>
       <r>    8.9346    1.0000 </r>
       <r>    9.6179    0.0000 </r>
       <r>    9.6970    0.0000 </r>
       <r>   11.2103    0.0000 </r>
      </set>
      <set comment="kpoint 23">
       <r>  -23.2945    1.0000 </r>
       <r>  -23.2821    1.0000 </r>
       <r>  -23.2815    1.0000 </r>
       <r>   -2.7159    1.0000 </r>
       <r>    1.6032    1.0000 </r>
       <r>    2.7750    1.0000 </r>
       <r>    2.9865    1.0000 </r>
       <r>    3.9339    1.0000 </r>
       <r>    4.0068    1.0000 </r>
       <r>    4.4236    1.0000 </r>
       <r>    6.1693    1.0000 </r>
       <r>    6.3541    1.0000 </r>
       <r>    8.9548    1.0000 </r>
       <r>    9.7658    0.0000 </r>
       <r>   10.1080    0.0000 </r>
       <r>   10.7475    0.0000 </r>
      </set>
      <set comment="kpoint 24">
       <r>  -23.2968    1.0000 </r>
       <r>  -23.2827    1.0000 </r>
       <r>  -23.2811    1.0000 </r>
       <r>   -2.4488    1.0000 </r>
       <r>    1.4651    1.0000 </r>
       <r>    2.6886    1.0000 </r>
       <r>    2.9163    1.0000 </r>
       <r>    3.9059    1.0000 </r>
       <r>    4.0150    1.0000 </r>
       <r>    4.1382    1.0000 </r>
       <r>    6.0558    1.0000 </r>
       <r>    6.3548    1.0000 </r>
       <r>    9.0017    0.0083 </r>
       <r>    9.9483    0.0000 </r>
       <r>   10.1151    0.0000 </r>
       <r>   10.5935    0.0000 </r>
      </set>
      <set comment="kpoint 25">
       <r>  -23.2977    1.0000 </r>
       <r>  -23.2832    1.0000 </r>
       <r>  -23.2808    1.0000 </r>
       <r>   -2.3188    1.0000 </r>
       <r>    1.4006    1.0000 </r>
       <r>    2.6810    1.0000 </r>
       <r>    2.8190    1.0000 </r>
       <r>    3.8158    1.0000 </r>
       <r>    4.0343    1.0000 </r>
       <r>    4.0997    1.0000 </r>
       <r>    5.9781    1.0000 </r>
       <r>    6.3837    1.0000 </r>
       <r>    9.1414    0.0000 </r>
       <r>    9.7298    0.0000 </r>
       <r>   10.1126    0.0000 </r>
       <r>   10.8548    0.0000 </r>
      </set>
      <set comment="kpoint 26">
       <r>  -23.2970    1.0000 </r>
       <r>  -23.2836    1.0000 </r>
       <r>  -23.2804    1.0000 </r>
       <r>   -2.3825    1.0000 </r>
       <r>    1.4525    1.0000 </r>
       <r>    2.7150    1.0000 </r>
       <r>    2.7584    1.0000 </r>
       <r>    3.8236    1.0000 </r>
       <r>    4.0629    1.0000 </r>
       <r>    4.1583    1.0000 </r>
       <r>    5.9087    1.0000 </r>
       <r>    6.4499    1.0000 </r>
       <r>    9.2177    0.0000 </r>
       <r>    9.7862    0.0000 </r>
       <r>   10.0933    0.0000 </r>
       <r>   10.8373    0.0000 </r>
      </set>
      <set comment="kpoint 27">
       <r>  -23.2949    1.0000 </r>
       <r>  -23.2837    1.0000 </r>
       <r>  -23.2802    1.0000 </r>
       <r>   -2.6116    1.0000 </r>
       <r>    1.6132    1.0000 </r>
       <r>    2.6332    1.0000 </r>
       <r>    2.8877    1.0000 </r>
       <r>    3.8766    1.0000 </r>
       <r>    4.0751    1.0000 </r>
       <r>    4.3661    1.0000 </r>
       <r>    5.8432    1.0000 </r>
       <r>    6.5755    1.0000 </r>
       <r>    9.2257    0.0000 </r>
       <r>    9.9142    0.0000 </r>
       <r>   10.1679    0.0000 </r>
       <r>   10.6972    0.0000 </r>
      </set>
      <set comment="kpoint 28">
       <r>  -23.2920    1.0000 </r>
       <r>  -23.2834    1.0000 </r>
       <r>  -23.2802    1.0000 </r>
       <r>   -2.9197    1.0000 </r>
       <r>    1.8418    1.0000 </r>
       <r>    2.5964    1.0000 </r>
       <r>    3.0045    1.0000 </r>
       <r>    3.8883    1.0000 </r>
       <r>    4.0503    1.0000 </r>
       <r>    4.7769    1.0000 </r>
       <r>    5.8383    1.0000 </r>
       <r>    6.7622    1.0000 </r>
       <r>    9.3260    0.0000 </r>
       <r>    9.6871    0.0000 </r>
       <r>    9.9971    0.0000 </r>
       <r>   10.8478    0.0000 </r>
      </set>
      <set comment="kpoint 29">
       <r>  -23.2891    1.0000 </r>
       <r>  -23.2826    1.0000 </r>
       <r>  -23.2803    1.0000 </r>
       <r>   -3.2227    1.0000 </r>
       <r>    2.1063    1.0000 </r>
       <r>    2.6159    1.0000 </r>
       <r>    3.0421    1.0000 </r>
       <r>    3.8630    1.0000 </r>
       <r>    3.9893    1.0000 </r>
       <r>    5.2614    1.0000 </r>
       <r>    6.0421    1.0000 </r>
       <r>    6.9664    1.0000 </r>
       <r>    9.2873    0.0000 </r>
       <r>    9.5014    0.0000 </r>
       <r>    9.7056    0.0000 </r>
       <r>   10.6723    0.0000 </r>
      </set>
      <set comment="kpoint 30">
       <r>  -23.2893    1.0000 </r>
       <r>  -23.2821    1.0000 </r>
       <r>  -23.2821    1.0000 </r>
       <r>   -3.1633    1.0000 </r>
       <r>    1.7625    1.0000 </r>
       <r>    3.1381    1.0000 </r>
       <r>    3.1381    1.0000 </r>
       <r>    3.7385    1.0000 </r>
       <r>    3.9789    1.0000 </r>
       <r>    5.4687    1.0000 </r>
       <r>    6.3185    1.0000 </r>
       <r>    6.3185    1.0000 </r>
       <r>    8.5017    1.0000 </r>
       <r>    9.5300    0.0000 </r>
       <r>    9.6543    0.0000 </r>
       <r>   11.2066    0.0000 </r>
      </set>
      <set comment="kpoint 31">
       <r>  -23.2918    1.0000 </r>
       <r>  -23.2824    1.0000 </r>
       <r>  -23.2823    1.0000 </r>
       <r>   -2.9356    1.0000 </r>
       <r>    1.6054    1.0000 </r>
       <r>    3.1194    1.0000 </r>
       <r>    3.1779    1.0000 </r>
       <r>    3.7426    1.0000 </r>
       <r>    4.0532    1.0000 </r>
       <r>    5.0565    1.0000 </r>
       <r>    6.1103    1.0000 </r>
       <r>    6.1838    1.0000 </r>
       <r>    8.6181    1.0000 </r>
       <r>    9.5452    0.0000 </r>
       <r>    9.6765    0.0000 </r>
       <r>   11.2126    0.0000 </r>
      </set>
      <set comment="kpoint 32">
       <r>  -23.2944    1.0000 </r>
       <r>  -23.2831    1.0000 </r>
       <r>  -23.2822    1.0000 </r>
       <r>   -2.6747    1.0000 </r>
       <r>    1.5290    1.0000 </r>
       <r>    2.9741    1.0000 </r>
       <r>    3.1611    1.0000 </r>
       <r>    3.8337    1.0000 </r>
       <r>    4.0931    1.0000 </r>
       <r>    4.5705    1.0000 </r>
       <r>    5.8709    1.0000 </r>
       <r>    6.1356    1.0000 </r>
       <r>    8.7463    1.0000 </r>
       <r>    9.5646    0.0000 </r>
       <r>   10.1025    0.0000 </r>
       <r>   10.8420    0.0000 </r>
      </set>
      <set comment="kpoint 33">
       <r>  -23.2960    1.0000 </r>
       <r>  -23.2842    1.0000 </r>
       <r>  -23.2819    1.0000 </r>
       <r>   -2.4396    1.0000 </r>
       <r>    1.5327    1.0000 </r>
       <r>    2.8016    1.0000 </r>
       <r>    3.0869    1.0000 </r>
       <r>    3.8722    1.0000 </r>
       <r>    4.1072    1.0000 </r>
       <r>    4.2295    1.0000 </r>
       <r>    5.6674    1.0000 </r>
       <r>    6.1442    1.0000 </r>
       <r>    8.8016    1.0000 </r>
       <r>    9.7598    0.0000 </r>
       <r>   10.2997    0.0000 </r>
       <r>   10.6732    0.0000 </r>
      </set>
      <set comment="kpoint 34">
       <r>  -23.2965    1.0000 </r>
       <r>  -23.2855    1.0000 </r>
       <r>  -23.2814    1.0000 </r>
       <r>   -2.2951    1.0000 </r>
       <r>    1.5812    1.0000 </r>
       <r>    2.6713    1.0000 </r>
       <r>    2.9635    1.0000 </r>
       <r>    3.7460    1.0000 </r>
       <r>    4.1248    1.0000 </r>
       <r>    4.2171    1.0000 </r>
       <r>    5.5191    1.0000 </r>
       <r>    6.1794    1.0000 </r>
       <r>    8.9147    1.0000 </r>
       <r>    9.8719    0.0000 </r>
       <r>   10.0588    0.0000 </r>
       <r>   10.9524    0.0000 </r>
      </set>
      <set comment="kpoint 35">
       <r>  -23.2958    1.0000 </r>
       <r>  -23.2864    1.0000 </r>
       <r>  -23.2809    1.0000 </r>
       <r>   -2.2884    1.0000 </r>
       <r>    1.6094    1.0000 </r>
       <r>    2.6655    1.0000 </r>
       <r>    2.8204    1.0000 </r>
       <r>    3.7091    1.0000 </r>
       <r>    4.1449    1.0000 </r>
       <r>    4.3137    1.0000 </r>
       <r>    5.4139    1.0000 </r>
       <r>    6.2489    1.0000 </r>
       <r>    9.1128    0.0000 </r>
       <r>    9.6898    0.0000 </r>
       <r>   10.1966    0.0000 </r>
       <r>   10.8928    0.0000 </r>
      </set>
      <set comment="kpoint 36">
       <r>  -23.2945    1.0000 </r>
       <r>  -23.2865    1.0000 </r>
       <r>  -23.2805    1.0000 </r>
       <r>   -2.4231    1.0000 </r>
       <r>    1.6193    1.0000 </r>
       <r>    2.6946    1.0000 </r>
       <r>    2.7932    1.0000 </r>
       <r>    3.7861    1.0000 </r>
       <r>    4.1447    1.0000 </r>
       <r>    4.4600    1.0000 </r>
       <r>    5.3522    1.0000 </r>
       <r>    6.3765    1.0000 </r>
       <r>    9.2417    0.0000 </r>
       <r>    9.9557    0.0000 </r>
       <r>   10.0801    0.0000 </r>
       <r>   10.7933    0.0000 </r>
      </set>
      <set comment="kpoint 37">
       <r>  -23.2932    1.0000 </r>
       <r>  -23.2854    1.0000 </r>
       <r>  -23.2802    1.0000 </r>
       <r>   -2.6559    1.0000 </r>
       <r>    1.6855    1.0000 </r>
       <r>    2.6145    1.0000 </r>
       <r>    2.9452    1.0000 </r>
       <r>    3.8628    1.0000 </r>
       <r>    4.1109    1.0000 </r>
       <r>    4.6449    1.0000 </r>
       <r>    5.4394    1.0000 </r>
       <r>    6.5624    1.0000 </r>
       <r>    9.3246    0.0000 </r>
       <r>    9.8769    0.0000 </r>
       <r>   10.4598    0.0000 </r>
       <r>   10.6688    0.0000 </r>
      </set>
      <set comment="kpoint 38">
       <r>  -23.2938    1.0000 </r>
       <r>  -23.2826    1.0000 </r>
       <r>  -23.2826    1.0000 </r>
       <r>   -2.7755    1.0000 </r>
       <r>    1.4939    1.0000 </r>
       <r>    3.2779    1.0000 </r>
       <r>    3.2779    1.0000 </r>
       <r>    3.5960    1.0000 </r>
       <r>    4.1443    1.0000 </r>
       <r>    4.8646    1.0000 </r>
       <r>    6.0201    1.0000 </r>
       <r>    6.0201    1.0000 </r>
       <r>    8.4303    1.0000 </r>
       <r>    9.3743    0.0000 </r>
       <r>    9.7334    0.0000 </r>
       <r>   11.1575    0.0000 </r>
      </set>
      <set comment="kpoint 39">
       <r>  -23.2958    1.0000 </r>
       <r>  -23.2832    1.0000 </r>
       <r>  -23.2828    1.0000 </r>
       <r>   -2.5839    1.0000 </r>
       <r>    1.4799    1.0000 </r>
       <r>    3.1939    1.0000 </r>
       <r>    3.3091    1.0000 </r>
       <r>    3.6584    1.0000 </r>
       <r>    4.2043    1.0000 </r>
       <r>    4.5013    1.0000 </r>
       <r>    5.8172    1.0000 </r>
       <r>    5.9473    1.0000 </r>
       <r>    8.4853    1.0000 </r>
       <r>    9.3118    0.0000 </r>
       <r>    9.9598    0.0000 </r>
       <r>   10.8883    0.0000 </r>
      </set>
      <set comment="kpoint 40">
       <r>  -23.2969    1.0000 </r>
       <r>  -23.2844    1.0000 </r>
       <r>  -23.2826    1.0000 </r>
       <r>   -2.4049    1.0000 </r>
       <r>    1.5705    1.0000 </r>
       <r>    2.9912    1.0000 </r>
       <r>    3.2620    1.0000 </r>
       <r>    3.7818    1.0000 </r>
       <r>    4.1730    1.0000 </r>
       <r>    4.2227    1.0000 </r>
       <r>    5.5203    1.0000 </r>
       <r>    5.9480    1.0000 </r>
       <r>    8.5714    1.0000 </r>
       <r>    9.4538    0.0000 </r>
       <r>   10.3613    0.0000 </r>
       <r>   10.6083    0.0000 </r>
      </set>
      <set comment="kpoint 41">
       <r>  -23.2967    1.0000 </r>
       <r>  -23.2862    1.0000 </r>
       <r>  -23.2821    1.0000 </r>
       <r>   -2.2799    1.0000 </r>
       <r>    1.7271    1.0000 </r>
       <r>    2.7775    1.0000 </r>
       <r>    3.1407    1.0000 </r>
       <r>    3.6479    1.0000 </r>
       <r>    4.2230    1.0000 </r>
       <r>    4.2279    1.0000 </r>
       <r>    5.2442    1.0000 </r>
       <r>    5.9842    1.0000 </r>
       <r>    8.6710    1.0000 </r>
       <r>    9.8216    0.0000 </r>
       <r>   10.0345    0.0000 </r>
       <r>   10.7260    0.0000 </r>
      </set>
      <set comment="kpoint 42">
       <r>  -23.2953    1.0000 </r>
       <r>  -23.2881    1.0000 </r>
       <r>  -23.2816    1.0000 </r>
       <r>   -2.2372    1.0000 </r>
       <r>    1.8256    1.0000 </r>
       <r>    2.6122    1.0000 </r>
       <r>    2.9775    1.0000 </r>
       <r>    3.5707    1.0000 </r>
       <r>    4.2255    1.0000 </r>
       <r>    4.4307    1.0000 </r>
       <r>    5.0443    1.0000 </r>
       <r>    6.0571    1.0000 </r>
       <r>    8.8551    1.0000 </r>
       <r>    9.7660    0.0000 </r>
       <r>   10.2544    0.0000 </r>
       <r>   10.7137    0.0000 </r>
      </set>
      <set comment="kpoint 43">
       <r>  -23.2942    1.0000 </r>
       <r>  -23.2886    1.0000 </r>
       <r>  -23.2810    1.0000 </r>
       <r>   -2.2878    1.0000 </r>
       <r>    1.7380    1.0000 </r>
       <r>    2.6488    1.0000 </r>
       <r>    2.8169    1.0000 </r>
       <r>    3.6556    1.0000 </r>
       <r>    4.1993    1.0000 </r>
       <r>    4.5482    1.0000 </r>
       <r>    5.0358    1.0000 </r>
       <r>    6.1890    1.0000 </r>
       <r>    9.1004    0.0000 </r>
       <r>    9.7120    0.0000 </r>
       <r>   10.2438    0.0000 </r>
       <r>   10.6592    0.0000 </r>
      </set>
      <set comment="kpoint 44">
       <r>  -23.2976    1.0000 </r>
       <r>  -23.2831    1.0000 </r>
       <r>  -23.2831    1.0000 </r>
       <r>   -2.4684    1.0000 </r>
       <r>    1.5105    1.0000 </r>
       <r>    3.3959    1.0000 </r>
       <r>    3.3959    1.0000 </r>
       <r>    3.4541    1.0000 </r>
       <r>    4.2222    1.0000 </r>
       <r>    4.2948    1.0000 </r>
       <r>    5.8375    1.0000 </r>
       <r>    5.8375    1.0000 </r>
       <r>    8.3574    1.0000 </r>
       <r>    9.1291    0.0000 </r>
       <r>    9.8558    0.0000 </r>
       <r>   10.8249    0.0000 </r>
      </set>
      <set comment="kpoint 45">
       <r>  -23.2986    1.0000 </r>
       <r>  -23.2837    1.0000 </r>
       <r>  -23.2831    1.0000 </r>
       <r>   -2.3575    1.0000 </r>
       <r>    1.6291    1.0000 </r>
       <r>    3.2056    1.0000 </r>
       <r>    3.3992    1.0000 </r>
       <r>    3.6255    1.0000 </r>
       <r>    3.9195    1.0000 </r>
       <r>    4.3293    1.0000 </r>
       <r>    5.6580    1.0000 </r>
       <r>    5.8128    1.0000 </r>
       <r>    8.3879    1.0000 </r>
       <r>    9.1415    0.0000 </r>
       <r>   10.0361    0.0000 </r>
       <r>   10.6055    0.0000 </r>
      </set>
      <set comment="kpoint 46">
       <r>  -23.2983    1.0000 </r>
       <r>  -23.2852    1.0000 </r>
       <r>  -23.2828    1.0000 </r>
       <r>   -2.2748    1.0000 </r>
       <r>    1.7928    1.0000 </r>
       <r>    2.9929    1.0000 </r>
       <r>    3.3115    1.0000 </r>
       <r>    3.5346    1.0000 </r>
       <r>    3.9999    1.0000 </r>
       <r>    4.3210    1.0000 </r>
       <r>    5.3427    1.0000 </r>
       <r>    5.8421    1.0000 </r>
       <r>    8.4759    1.0000 </r>
       <r>    9.4117    0.0000 </r>
       <r>   10.1643    0.0000 </r>
       <r>   10.5677    0.0000 </r>
      </set>
      <set comment="kpoint 47">
       <r>  -23.2968    1.0000 </r>
       <r>  -23.2871    1.0000 </r>
       <r>  -23.2823    1.0000 </r>
       <r>   -2.2332    1.0000 </r>
       <r>    1.9032    1.0000 </r>
       <r>    2.7458    1.0000 </r>
       <r>    3.1557    1.0000 </r>
       <r>    3.4706    1.0000 </r>
       <r>    4.2779    1.0000 </r>
       <r>    4.2867    1.0000 </r>
       <r>    5.0636    1.0000 </r>
       <r>    5.9184    1.0000 </r>
       <r>    8.6253    1.0000 </r>
       <r>    9.8999    0.0000 </r>
       <r>    9.9425    0.0000 </r>
       <r>   10.4911    0.0000 </r>
      </set>
      <set comment="kpoint 48">
       <r>  -23.2998    1.0000 </r>
       <r>  -23.2833    1.0000 </r>
       <r>  -23.2833    1.0000 </r>
       <r>   -2.3135    1.0000 </r>
       <r>    1.7160    1.0000 </r>
       <r>    3.4069    1.0000 </r>
       <r>    3.4622    1.0000 </r>
       <r>    3.4622    1.0000 </r>
       <r>    3.6523    1.0000 </r>
       <r>    4.3864    1.0000 </r>
       <r>    5.7578    1.0000 </r>
       <r>    5.7578    1.0000 </r>
       <r>    8.3123    1.0000 </r>
       <r>    8.9841    0.5394 </r>
       <r>    9.8185    0.0000 </r>
       <r>   10.5805    0.0000 </r>
      </set>
      <set comment="kpoint 49">
       <r>  -23.2997    1.0000 </r>
       <r>  -23.2839    1.0000 </r>
       <r>  -23.2832    1.0000 </r>
       <r>   -2.2848    1.0000 </r>
       <r>    1.7857    1.0000 </r>
       <r>    3.2334    1.0000 </r>
       <r>    3.4306    1.0000 </r>
       <r>    3.4891    1.0000 </r>
       <r>    3.7136    1.0000 </r>
       <r>    4.3799    1.0000 </r>
       <r>    5.6104    1.0000 </r>
       <r>    5.7693    1.0000 </r>
       <r>    8.3528    1.0000 </r>
       <r>    9.0804    0.0000 </r>
       <r>    9.9916    0.0000 </r>
       <r>   10.5004    0.0000 </r>
      </set>
      <set comment="kpoint 50">
       <r>  -23.2865    1.0000 </r>
       <r>  -23.2819    1.0000 </r>
       <r>  -23.2809    1.0000 </r>
       <r>   -3.4433    1.0000 </r>
       <r>    2.2214    1.0000 </r>
       <r>    2.8306    1.0000 </r>
       <r>    3.0209    1.0000 </r>
       <r>    3.8339    1.0000 </r>
       <r>    3.8925    1.0000 </r>
       <r>    5.7380    1.0000 </r>
       <r>    6.4554    1.0000 </r>
       <r>    6.9465    1.0000 </r>
       <r>    8.8320    1.0000 </r>
       <r>    9.3471    0.0000 </r>
       <r>    9.8074    0.0000 </r>
       <r>   10.6811    0.0000 </r>
      </set>
      <set comment="kpoint 51">
       <r>  -23.2897    1.0000 </r>
       <r>  -23.2823    1.0000 </r>
       <r>  -23.2807    1.0000 </r>
       <r>   -3.1724    1.0000 </r>
       <r>    1.9788    1.0000 </r>
       <r>    2.7459    1.0000 </r>
       <r>    3.0262    1.0000 </r>
       <r>    3.8807    1.0000 </r>
       <r>    3.9710    1.0000 </r>
       <r>    5.1432    1.0000 </r>
       <r>    6.1817    1.0000 </r>
       <r>    6.7992    1.0000 </r>
       <r>    9.1346    0.0000 </r>
       <r>    9.4429    0.0000 </r>
       <r>    9.7472    0.0000 </r>
       <r>   10.9639    0.0000 </r>
      </set>
      <set comment="kpoint 52">
       <r>  -23.2933    1.0000 </r>
       <r>  -23.2825    1.0000 </r>
       <r>  -23.2806    1.0000 </r>
       <r>   -2.8505    1.0000 </r>
       <r>    1.7395    1.0000 </r>
       <r>    2.6885    1.0000 </r>
       <r>    2.9643    1.0000 </r>
       <r>    3.9164    1.0000 </r>
       <r>    4.0175    1.0000 </r>
       <r>    4.5805    1.0000 </r>
       <r>    6.0943    1.0000 </r>
       <r>    6.6264    1.0000 </r>
       <r>    9.1134    0.0000 </r>
       <r>    9.7094    0.0000 </r>
       <r>    9.9748    0.0000 </r>
       <r>   10.9600    0.0000 </r>
      </set>
      <set comment="kpoint 53">
       <r>  -23.2962    1.0000 </r>
       <r>  -23.2826    1.0000 </r>
       <r>  -23.2806    1.0000 </r>
       <r>   -2.5460    1.0000 </r>
       <r>    1.5213    1.0000 </r>
       <r>    2.6697    1.0000 </r>
       <r>    2.8786    1.0000 </r>
       <r>    3.9059    1.0000 </r>
       <r>    4.0229    1.0000 </r>
       <r>    4.2119    1.0000 </r>
       <r>    6.0856    1.0000 </r>
       <r>    6.5013    1.0000 </r>
       <r>    9.1035    0.0000 </r>
       <r>    9.8791    0.0000 </r>
       <r>   10.1813    0.0000 </r>
       <r>   10.5427    0.0000 </r>
      </set>
      <set comment="kpoint 54">
       <r>  -23.2978    1.0000 </r>
       <r>  -23.2826    1.0000 </r>
       <r>  -23.2806    1.0000 </r>
       <r>   -2.3527    1.0000 </r>
       <r>    1.3790    1.0000 </r>
       <r>    2.6800    1.0000 </r>
       <r>    2.8091    1.0000 </r>
       <r>    3.8466    1.0000 </r>
       <r>    4.0016    1.0000 </r>
       <r>    4.0900    1.0000 </r>
       <r>    6.0935    1.0000 </r>
       <r>    6.4435    1.0000 </r>
       <r>    9.1863    0.0000 </r>
       <r>    9.7325    0.0000 </r>
       <r>   10.1068    0.0000 </r>
       <r>   10.7096    0.0000 </r>
      </set>
      <set comment="kpoint 55">
       <r>  -23.2901    1.0000 </r>
       <r>  -23.2825    1.0000 </r>
       <r>  -23.2815    1.0000 </r>
       <r>   -3.0954    1.0000 </r>
       <r>    1.7762    1.0000 </r>
       <r>    2.9631    1.0000 </r>
       <r>    3.1203    1.0000 </r>
       <r>    3.8235    1.0000 </r>
       <r>    3.9845    1.0000 </r>
       <r>    5.2318    1.0000 </r>
       <r>    6.0832    1.0000 </r>
       <r>    6.5096    1.0000 </r>
       <r>    8.8438    1.0000 </r>
       <r>    9.5208    0.0000 </r>
       <r>    9.6917    0.0000 </r>
       <r>   11.1125    0.0000 </r>
      </set>
      <set comment="kpoint 56">
       <r>  -23.2928    1.0000 </r>
       <r>  -23.2833    1.0000 </r>
       <r>  -23.2814    1.0000 </r>
       <r>   -2.8205    1.0000 </r>
       <r>    1.6293    1.0000 </r>
       <r>    2.8707    1.0000 </r>
       <r>    3.1085    1.0000 </r>
       <r>    3.8757    1.0000 </r>
       <r>    4.0329    1.0000 </r>
       <r>    4.7664    1.0000 </r>
       <r>    5.8390    1.0000 </r>
       <r>    6.3992    1.0000 </r>
       <r>    8.9764    0.8815 </r>
       <r>    9.5729    0.0000 </r>
       <r>    9.9959    0.0000 </r>
       <r>   11.0237    0.0000 </r>
      </set>
      <set comment="kpoint 57">
       <r>  -23.2951    1.0000 </r>
       <r>  -23.2839    1.0000 </r>
       <r>  -23.2814    1.0000 </r>
       <r>   -2.5470    1.0000 </r>
       <r>    1.5477    1.0000 </r>
       <r>    2.7585    1.0000 </r>
       <r>    3.0421    1.0000 </r>
       <r>    3.9130    1.0000 </r>
       <r>    4.0385    1.0000 </r>
       <r>    4.3636    1.0000 </r>
       <r>    5.7308    1.0000 </r>
       <r>    6.3065    1.0000 </r>
       <r>    8.9890    0.2749 </r>
       <r>    9.7039    0.0000 </r>
       <r>   10.4150    0.0000 </r>
       <r>   10.5645    0.0000 </r>
      </set>
      <set comment="kpoint 58">
       <r>  -23.2965    1.0000 </r>
       <r>  -23.2846    1.0000 </r>
       <r>  -23.2813    1.0000 </r>
       <r>   -2.3478    1.0000 </r>
       <r>    1.5217    1.0000 </r>
       <r>    2.6601    1.0000 </r>
       <r>    2.9617    1.0000 </r>
       <r>    3.8260    1.0000 </r>
       <r>    4.0398    1.0000 </r>
       <r>    4.2184    1.0000 </r>
[...]
       <r>    9.4288    0.0000 </r>
       <r>   10.1018    0.0000 </r>
       <r>   10.7594    0.0000 </r>
      </set>
      <set comment="kpoint 79">
       <r>  -23.2956    1.0000 </r>
       <r>  -23.2873    1.0000 </r>
       <r>  -23.2825    1.0000 </r>
       <r>   -2.2527    1.0000 </r>
       <r>    1.8360    1.0000 </r>
       <r>    2.6029    1.0000 </r>
       <r>    3.2798    1.0000 </r>
       <r>    3.6978    1.0000 </r>
       <r>    4.0592    1.0000 </r>
       <r>    4.3503    1.0000 </r>
       <r>    4.8607    1.0000 </r>
       <r>    6.1095    1.0000 </r>
       <r>    8.9982    0.0295 </r>
       <r>    9.5911    0.0000 </r>
       <r>    9.7477    0.0000 </r>
       <r>   10.5408    0.0000 </r>
      </set>
      <set comment="kpoint 80">
       <r>  -23.2948    1.0000 </r>
       <r>  -23.2885    1.0000 </r>
       <r>  -23.2823    1.0000 </r>
       <r>   -2.2228    1.0000 </r>
       <r>    1.9362    1.0000 </r>
       <r>    2.4859    1.0000 </r>
       <r>    3.2352    1.0000 </r>
       <r>    3.5980    1.0000 </r>
       <r>    4.1342    1.0000 </r>
       <r>    4.4454    1.0000 </r>
       <r>    4.6991    1.0000 </r>
       <r>    6.1294    1.0000 </r>
       <r>    9.1706    0.0000 </r>
       <r>    9.4996    0.0000 </r>
       <r>    9.7994    0.0000 </r>
       <r>   10.4133    0.0000 </r>
      </set>
      <set comment="kpoint 81">
       <r>  -23.2946    1.0000 </r>
       <r>  -23.2881    1.0000 </r>
       <r>  -23.2819    1.0000 </r>
       <r>   -2.2693    1.0000 </r>
       <r>    1.7945    1.0000 </r>
       <r>    2.5554    1.0000 </r>
       <r>    3.1563    1.0000 </r>
       <r>    3.6864    1.0000 </r>
       <r>    4.1097    1.0000 </r>
       <r>    4.4894    1.0000 </r>
       <r>    4.8392    1.0000 </r>
       <r>    6.1587    1.0000 </r>
       <r>    9.2590    0.0000 </r>
       <r>    9.5186    0.0000 </r>
       <r>    9.7658    0.0000 </r>
       <r>   10.7150    0.0000 </r>
      </set>
      <set comment="kpoint 82">
       <r>  -23.2969    1.0000 </r>
       <r>  -23.2863    1.0000 </r>
       <r>  -23.2830    1.0000 </r>
       <r>   -2.2458    1.0000 </r>
       <r>    1.8853    1.0000 </r>
       <r>    2.7435    1.0000 </r>
       <r>    3.3600    1.0000 </r>
       <r>    3.7300    1.0000 </r>
       <r>    3.9281    1.0000 </r>
       <r>    4.2777    1.0000 </r>
       <r>    4.9218    1.0000 </r>
       <r>    6.0372    1.0000 </r>
       <r>    8.7507    1.0000 </r>
       <r>    9.3393    0.0000 </r>
       <r>   10.0242    0.0000 </r>
       <r>   10.3891    0.0000 </r>
      </set>
      <set comment="kpoint 83">
       <r>  -23.2957    1.0000 </r>
       <r>  -23.2878    1.0000 </r>
       <r>  -23.2829    1.0000 </r>
       <r>   -2.2154    1.0000 </r>
       <r>    2.0127    1.0000 </r>
       <r>    2.5644    1.0000 </r>
       <r>    3.3216    1.0000 </r>
       <r>    3.6229    1.0000 </r>
       <r>    4.1617    1.0000 </r>
       <r>    4.2261    1.0000 </r>
       <r>    4.6868    1.0000 </r>
       <r>    6.0925    1.0000 </r>
       <r>    8.9459    1.0000 </r>
       <r>    9.4998    0.0000 </r>
       <r>    9.8247    0.0000 </r>
       <r>   10.2300    0.0000 </r>
      </set>
      <set comment="kpoint 84">
       <r>  -23.2948    1.0000 </r>
       <r>  -23.2885    1.0000 </r>
       <r>  -23.2829    1.0000 </r>
       <r>   -2.2106    1.0000 </r>
       <r>    2.0490    1.0000 </r>
       <r>    2.4752    1.0000 </r>
       <r>    3.3225    1.0000 </r>
       <r>    3.7164    1.0000 </r>
       <r>    4.0850    1.0000 </r>
       <r>    4.2732    1.0000 </r>
       <r>    4.5686    1.0000 </r>
       <r>    6.1379    1.0000 </r>
       <r>    9.2474    0.0000 </r>
       <r>    9.4755    0.0000 </r>
       <r>    9.5459    0.0000 </r>
       <r>   10.2265    0.0000 </r>
      </set>
     </set>
    </set>
   </array>
  </eigenvalues>
  <separator name="orbital magnetization" >
   <v name="MAGDIPOLOUT">      0.00000000      0.00000000      0.00000000</v>
  </separator>
  <dos>
   <i name="efermi">      8.98480358 </i>
   <total>
    <array>
     <dimension dim="1">gridpoints</dimension>
     <dimension dim="2">spin</dimension>
     <field>energy</field>
     <field>total</field>
     <field>integrated</field>
     <set>
      <set comment="spin 1">
       <r>   -25.0485     0.0000     0.0000 </r>
       <r>   -24.9202     0.0000     0.0000 </r>
       <r>   -24.7920     0.0000     0.0000 </r>
       <r>   -24.6638     0.0000     0.0000 </r>
       <r>   -24.5355     0.0000     0.0000 </r>
       <r>   -24.4073     0.0000     0.0000 </r>
       <r>   -24.2791     0.0000     0.0000 </r>
       <r>   -24.1508     0.0000     0.0000 </r>
       <r>   -24.0226     0.0000     0.0000 </r>
       <r>   -23.8944     0.0000     0.0000 </r>
       <r>   -23.7661     0.0000     0.0000 </r>
       <r>   -23.6379     0.0000     0.0000 </r>
       <r>   -23.5097     0.0000     0.0000 </r>
       <r>   -23.3814     0.0000     0.0000 </r>
       <r>   -23.2532    46.7883     5.9999 </r>
       <r>   -23.1249     0.0000     6.0000 </r>
       <r>   -22.9967     0.0000     6.0000 </r>
       <r>   -22.8685     0.0000     6.0000 </r>
       <r>   -22.7402     0.0000     6.0000 </r>
       <r>   -22.6120     0.0000     6.0000 </r>
       <r>   -22.4838     0.0000     6.0000 </r>
       <r>   -22.3555     0.0000     6.0000 </r>
       <r>   -22.2273     0.0000     6.0000 </r>
       <r>   -22.0991     0.0000     6.0000 </r>
       <r>   -21.9708     0.0000     6.0000 </r>
       <r>   -21.8426     0.0000     6.0000 </r>
       <r>   -21.7144     0.0000     6.0000 </r>
       <r>   -21.5861     0.0000     6.0000 </r>
       <r>   -21.4579     0.0000     6.0000 </r>
       <r>   -21.3297     0.0000     6.0000 </r>
       <r>   -21.2014     0.0000     6.0000 </r>
       <r>   -21.0732     0.0000     6.0000 </r>
       <r>   -20.9450     0.0000     6.0000 </r>
       <r>   -20.8167     0.0000     6.0000 </r>
       <r>   -20.6885     0.0000     6.0000 </r>
       <r>   -20.5602     0.0000     6.0000 </r>
       <r>   -20.4320     0.0000     6.0000 </r>
       <r>   -20.3038     0.0000     6.0000 </r>
       <r>   -20.1755     0.0000     6.0000 </r>
       <r>   -20.0473     0.0000     6.0000 </r>
       <r>   -19.9191     0.0000     6.0000 </r>
       <r>   -19.7908     0.0000     6.0000 </r>
       <r>   -19.6626     0.0000     6.0000 </r>
       <r>   -19.5344     0.0000     6.0000 </r>
       <r>   -19.4061     0.0000     6.0000 </r>
       <r>   -19.2779     0.0000     6.0000 </r>
       <r>   -19.1497     0.0000     6.0000 </r>
       <r>   -19.0214     0.0000     6.0000 </r>
       <r>   -18.8932     0.0000     6.0000 </r>
       <r>   -18.7650     0.0000     6.0000 </r>
       <r>   -18.6367     0.0000     6.0000 </r>
       <r>   -18.5085     0.0000     6.0000 </r>
       <r>   -18.3803     0.0000     6.0000 </r>
       <r>   -18.2520     0.0000     6.0000 </r>
       <r>   -18.1238     0.0000     6.0000 </r>
       <r>   -17.9955     0.0000     6.0000 </r>
       <r>   -17.8673     0.0000     6.0000 </r>
       <r>   -17.7391     0.0000     6.0000 </r>
       <r>   -17.6108     0.0000     6.0000 </r>
       <r>   -17.4826     0.0000     6.0000 </r>
       <r>   -17.3544     0.0000     6.0000 </r>
       <r>   -17.2261     0.0000     6.0000 </r>
       <r>   -17.0979     0.0000     6.0000 </r>
       <r>   -16.9697     0.0000     6.0000 </r>
       <r>   -16.8414     0.0000     6.0000 </r>
       <r>   -16.7132     0.0000     6.0000 </r>
       <r>   -16.5850     0.0000     6.0000 </r>
       <r>   -16.4567     0.0000     6.0000 </r>
       <r>   -16.3285     0.0000     6.0000 </r>
       <r>   -16.2003     0.0000     6.0000 </r>
       <r>   -16.0720     0.0000     6.0000 </r>
       <r>   -15.9438     0.0000     6.0000 </r>
       <r>   -15.8155     0.0000     6.0000 </r>
       <r>   -15.6873     0.0000     6.0000 </r>
       <r>   -15.5591     0.0000     6.0000 </r>
       <r>   -15.4308     0.0000     6.0000 </r>
       <r>   -15.3026     0.0000     6.0000 </r>
       <r>   -15.1744     0.0000     6.0000 </r>
       <r>   -15.0461     0.0000     6.0000 </r>
       <r>   -14.9179     0.0000     6.0000 </r>
       <r>   -14.7897     0.0000     6.0000 </r>
       <r>   -14.6614     0.0000     6.0000 </r>
       <r>   -14.5332     0.0000     6.0000 </r>
       <r>   -14.4050     0.0000     6.0000 </r>
       <r>   -14.2767     0.0000     6.0000 </r>
       <r>   -14.1485     0.0000     6.0000 </r>
       <r>   -14.0203     0.0000     6.0000 </r>
       <r>   -13.8920     0.0000     6.0000 </r>
       <r>   -13.7638     0.0000     6.0000 </r>
       <r>   -13.6356     0.0000     6.0000 </r>
       <r>   -13.5073     0.0000     6.0000 </r>
       <r>   -13.3791     0.0000     6.0000 </r>
       <r>   -13.2508     0.0000     6.0000 </r>
       <r>   -13.1226     0.0000     6.0000 </r>
       <r>   -12.9944     0.0000     6.0000 </r>
       <r>   -12.8661     0.0000     6.0000 </r>
       <r>   -12.7379     0.0000     6.0000 </r>
       <r>   -12.6097     0.0000     6.0000 </r>
       <r>   -12.4814     0.0000     6.0000 </r>
       <r>   -12.3532     0.0000     6.0000 </r>
       <r>   -12.2250     0.0000     6.0000 </r>
       <r>   -12.0967     0.0000     6.0000 </r>
       <r>   -11.9685     0.0000     6.0000 </r>
       <r>   -11.8403     0.0000     6.0000 </r>
       <r>   -11.7120     0.0000     6.0000 </r>
       <r>   -11.5838     0.0000     6.0000 </r>
       <r>   -11.4556     0.0000     6.0000 </r>
       <r>   -11.3273     0.0000     6.0000 </r>
       <r>   -11.1991     0.0000     6.0000 </r>
       <r>   -11.0709     0.0000     6.0000 </r>
       <r>   -10.9426     0.0000     6.0000 </r>
       <r>   -10.8144     0.0000     6.0000 </r>
       <r>   -10.6861     0.0000     6.0000 </r>
       <r>   -10.5579     0.0000     6.0000 </r>
       <r>   -10.4297     0.0000     6.0000 </r>
       <r>   -10.3014     0.0000     6.0000 </r>
       <r>   -10.1732     0.0000     6.0000 </r>
       <r>   -10.0450     0.0000     6.0000 </r>
       <r>    -9.9167     0.0000     6.0000 </r>
       <r>    -9.7885     0.0000     6.0000 </r>
       <r>    -9.6603     0.0000     6.0000 </r>
       <r>    -9.5320     0.0000     6.0000 </r>
       <r>    -9.4038     0.0000     6.0000 </r>
       <r>    -9.2756     0.0000     6.0000 </r>
       <r>    -9.1473     0.0000     6.0000 </r>
       <r>    -9.0191     0.0000     6.0000 </r>
       <r>    -8.8909     0.0000     6.0000 </r>
       <r>    -8.7626     0.0000     6.0000 </r>
       <r>    -8.6344     0.0000     6.0000 </r>
       <r>    -8.5061     0.0000     6.0000 </r>
       <r>    -8.3779     0.0000     6.0000 </r>
       <r>    -8.2497     0.0000     6.0000 </r>
       <r>    -8.1214     0.0000     6.0000 </r>
       <r>    -7.9932     0.0000     6.0000 </r>
       <r>    -7.8650     0.0000     6.0000 </r>
       <r>    -7.7367     0.0000     6.0000 </r>
       <r>    -7.6085     0.0000     6.0000 </r>
       <r>    -7.4803     0.0000     6.0000 </r>
       <r>    -7.3520     0.0000     6.0000 </r>
       <r>    -7.2238     0.0000     6.0000 </r>
       <r>    -7.0956     0.0000     6.0000 </r>
       <r>    -6.9673     0.0000     6.0000 </r>
       <r>    -6.8391     0.0000     6.0000 </r>
       <r>    -6.7109     0.0000     6.0000 </r>
       <r>    -6.5826     0.0000     6.0000 </r>
       <r>    -6.4544     0.0000     6.0000 </r>
       <r>    -6.3262     0.0000     6.0000 </r>
       <r>    -6.1979     0.0000     6.0000 </r>
       <r>    -6.0697     0.0000     6.0000 </r>
       <r>    -5.9414     0.0000     6.0000 </r>
       <r>    -5.8132     0.0000     6.0000 </r>
       <r>    -5.6850     0.0000     6.0000 </r>
       <r>    -5.5567     0.0000     6.0000 </r>
       <r>    -5.4285     0.0000     6.0000 </r>
       <r>    -5.3003     0.0000     6.0000 </r>
       <r>    -5.1720     0.0000     6.0000 </r>
       <r>    -5.0438     0.0000     6.0000 </r>
       <r>    -4.9156     0.0000     6.0000 </r>
       <r>    -4.7873     0.0000     6.0000 </r>
       <r>    -4.6591     0.0000     6.0000 </r>
       <r>    -4.5309     0.0000     6.0000 </r>
       <r>    -4.4026     0.0000     6.0000 </r>
       <r>    -4.2744     0.0000     6.0000 </r>
       <r>    -4.1462     0.0000     6.0000 </r>
       <r>    -4.0179     0.0000     6.0000 </r>
       <r>    -3.8897     0.0000     6.0000 </r>
       <r>    -3.7615     0.0896     6.0124 </r>
       <r>    -3.6332     0.0919     6.0254 </r>
       <r>    -3.5050     0.0422     6.0591 </r>
       <r>    -3.3767     0.1836     6.1046 </r>
       <r>    -3.2485     0.2272     6.1538 </r>
       <r>    -3.1203     0.5538     6.2358 </r>
       <r>    -2.9920     0.3407     6.3013 </r>
       <r>    -2.8638     0.5213     6.3755 </r>
       <r>    -2.7356     0.2215     6.4899 </r>
       <r>    -2.6073     0.7713     6.6533 </r>
       <r>    -2.4791     1.1953     6.8570 </r>
       <r>    -2.3509     2.2578     7.2172 </r>
       <r>    -2.2226     4.1565     7.9322 </r>
       <r>    -2.0944     0.0000     8.0000 </r>
       <r>    -1.9662     0.0000     8.0000 </r>
       <r>    -1.8379     0.0000     8.0000 </r>
       <r>    -1.7097     0.0000     8.0000 </r>
       <r>    -1.5815     0.0000     8.0000 </r>
       <r>    -1.4532     0.0000     8.0000 </r>
       <r>    -1.3250     0.0000     8.0000 </r>
       <r>    -1.1968     0.0000     8.0000 </r>
       <r>    -1.0685     0.0000     8.0000 </r>
       <r>    -0.9403     0.0000     8.0000 </r>
       <r>    -0.8120     0.0000     8.0000 </r>
       <r>    -0.6838     0.0000     8.0000 </r>
       <r>    -0.5556     0.0000     8.0000 </r>
       <r>    -0.4273     0.0000     8.0000 </r>
       <r>    -0.2991     0.0000     8.0000 </r>
       <r>    -0.1709     0.0000     8.0000 </r>
       <r>    -0.0426     0.0000     8.0000 </r>
       <r>     0.0856     0.0000     8.0000 </r>
       <r>     0.2138     0.0000     8.0000 </r>
       <r>     0.3421     0.0000     8.0000 </r>
       <r>     0.4703     0.0000     8.0000 </r>
       <r>     0.5985     0.0000     8.0000 </r>
       <r>     0.7268     0.0000     8.0000 </r>
       <r>     0.8550     0.0000     8.0000 </r>
       <r>     0.9832     0.0000     8.0000 </r>
       <r>     1.1115     0.0000     8.0000 </r>
       <r>     1.2397     0.0000     8.0000 </r>
       <r>     1.3680     0.1868     8.0531 </r>
       <r>     1.4962     0.7081     8.2073 </r>
       <r>     1.6244     2.8334     8.8258 </r>
       <r>     1.7527     2.2673     9.2994 </r>
       <r>     1.8809     1.1060     9.5874 </r>
       <r>     2.0091     0.9040     9.7982 </r>
       <r>     2.1374     0.2556     9.8680 </r>
       <r>     2.2656     0.3926     9.9183 </r>
       <r>     2.3938     0.1665     9.9458 </r>
       <r>     2.5221     0.6821    10.0338 </r>
       <r>     2.6503     2.5626    10.4715 </r>
       <r>     2.7785     3.0691    11.4668 </r>
       <r>     2.9068     3.2138    12.1445 </r>
       <r>     3.0350     3.5529    12.8279 </r>
       <r>     3.1632     2.5372    13.3750 </r>
       <r>     3.2915     2.0231    13.7242 </r>
       <r>     3.4197     0.8838    13.9713 </r>
       <r>     3.5479     0.9427    14.1318 </r>
       <r>     3.6762     1.8590    14.4077 </r>
       <r>     3.8044     2.8205    14.9753 </r>
       <r>     3.9327     5.7537    16.1507 </r>
       <r>     4.0609     5.5303    17.1762 </r>
       <r>     4.1891     3.1028    18.0338 </r>
       <r>     4.3174     2.4788    18.7366 </r>
       <r>     4.4456     1.6714    19.2284 </r>
       <r>     4.5738     1.3184    19.5054 </r>
       <r>     4.7021     0.5389    19.6422 </r>
       <r>     4.8303     0.6713    19.7793 </r>
       <r>     4.9585     0.6775    19.9385 </r>
       <r>     5.0868     0.5745    20.0564 </r>
       <r>     5.2150     1.5319    20.2957 </r>
       <r>     5.3432     0.4483    20.4954 </r>
       <r>     5.4715     0.6237    20.6271 </r>
       <r>     5.5997     1.5650    20.8516 </r>
       <r>     5.7279     0.9798    21.0496 </r>
       <r>     5.8562     1.5280    21.3166 </r>
       <r>     5.9844     1.5056    21.5504 </r>
       <r>     6.1126     3.3447    22.0484 </r>
       <r>     6.2409     1.9793    22.5451 </r>
       <r>     6.3691     2.0863    22.8756 </r>
       <r>     6.4974     1.4173    23.2268 </r>
       <r>     6.6256     1.0538    23.5516 </r>
       <r>     6.7538     0.5803    23.7057 </r>
       <r>     6.8821     0.2854    23.8154 </r>
       <r>     7.0103     0.4258    23.9244 </r>
       <r>     7.1385     0.3691    23.9718 </r>
       <r>     7.2668     0.1987    23.9973 </r>
       <r>     7.3950     0.0000    24.0000 </r>
       <r>     7.5232     0.0000    24.0000 </r>
       <r>     7.6515     0.0000    24.0000 </r>
       <r>     7.7797     0.0000    24.0000 </r>
       <r>     7.9079     0.0000    24.0000 </r>
       <r>     8.0362     0.0071    24.0009 </r>
       <r>     8.1644     0.0000    24.0009 </r>
       <r>     8.2926     0.0594    24.0085 </r>
       <r>     8.4209     0.3778    24.0676 </r>
       <r>     8.5491     0.9729    24.2167 </r>
       <r>     8.6774     0.6180    24.3678 </r>
       <r>     8.8056     1.0748    24.5757 </r>
       <r>     8.9338     0.8552    24.7951 </r>
       <r>     9.0621     1.5722    25.1784 </r>
       <r>     9.1903     3.1013    25.7077 </r>
       <r>     9.3185     1.4716    26.0576 </r>
       <r>     9.4468     1.7758    26.4025 </r>
       <r>     9.5750     2.4259    26.8354 </r>
       <r>     9.7032     2.2101    27.3394 </r>
       <r>     9.8315     3.1814    28.2104 </r>
       <r>     9.9597     1.6825    28.5708 </r>
       <r>    10.0879     3.0923    29.2268 </r>
       <r>    10.2162     1.7533    29.7688 </r>
       <r>    10.3444     0.3729    29.9049 </r>
       <r>    10.4726     2.1959    30.2588 </r>
       <r>    10.6009     1.7711    30.5721 </r>
       <r>    10.7291     2.2382    31.0089 </r>
       <r>    10.8573     2.0079    31.3672 </r>
       <r>    10.9856     1.5330    31.7050 </r>
       <r>    11.1138     0.2679    31.8559 </r>
       <r>    11.2421     0.7806    31.9708 </r>
       <r>    11.3703     0.1704    31.9927 </r>
       <r>    11.4985     0.0000    31.9927 </r>
       <r>    11.6268     0.0000    31.9927 </r>
       <r>    11.7550     0.0000    32.0000 </r>
       <r>    11.8832     0.0000    32.0000 </r>
       <r>    12.0115     0.0000    32.0000 </r>
       <r>    12.1397     0.0000    32.0000 </r>
       <r>    12.2679     0.0000    32.0000 </r>
       <r>    12.3962     0.0000    32.0000 </r>
       <r>    12.5244     0.0000    32.0000 </r>
       <r>    12.6526     0.0000    32.0000 </r>
       <r>    12.7809     0.0000    32.0000 </r>
       <r>    12.9091     0.0000    32.0000 </r>
       <r>    13.0373     0.0000    32.0000 </r>
       <r>    13.1656     0.0000    32.0000 </r>
       <r>    13.2938     0.0000    32.0000 </r>
       <r>    13.4220     0.0000    32.0000 </r>
      </set>
     </set>
    </array>
   </total>
  </dos>
 </calculation>
 <structure name="finalpos" >
  <crystal>
   <varray name="basis" >
    <v>       0.00000000       3.17828433       3.17828433 </v>
    <v>       3.17828433       0.00000000       3.17828433 </v>
    <v>       3.17828433       3.17828433       0.00000000 </v>
   </varray>
   <i name="volume">     64.21082263 </i>
   <varray name="rec_basis" >
    <v>      -0.15731758       0.15731758       0.15731758 </v>
    <v>       0.15731758      -0.15731758       0.15731758 </v>
    <v>       0.15731758       0.15731758      -0.15731758 </v>
   </varray>
  </crystal>
  <varray name="positions" >
   <v>       0.25000000       0.25000000       0.25000000 </v>
   <v>       0.00000000       0.00000000       0.00000000 </v>
   <v>       0.75000000       0.75000000       0.75000000 </v>
  </varray>
 </structure>
</modeling>
