 running  128 mpi-ranks, with    1 threads/rank, on    1 nodes
 distrk:  each k-point on   32 cores,    4 groups
 distr:  one band on   16 cores,    2 groups
 vasp.6.4.3 19Mar24 (build Jun  3 2025 16:21:13) complex                         
 POSCAR found type information on POSCAR Ti
 POSCAR found :  1 types and       1 ions
 Reading from existing POTCAR
 scaLAPACK will be used
 Reading from existing POTCAR
 LDA part: xc-table for (Slater+PW92), standard interpolation
 -----------------------------------------------------------------------------
|                                                                             |
|           W    W    AA    RRRRR   N    N  II  N    N   GGGG   !!!           |
|           W    W   A  A   R    R  NN   N  II  NN   N  G    G  !!!           |
|           W    W  A    A  R    R  N N  N  II  N N  N  G       !!!           |
|           W WW W  AAAAAA  RRRRR   N  N N  II  N  N N  G  GGG   !            |
|           WW  WW  A    A  R   R   N   NN  II  N   NN  G    G                |
|           W    W  A    A  R    R  N    N  II  N    N   GGGG   !!!           |
|                                                                             |
|     The requested file  could not be found or opened for reading            |
|     k-point information. Automatic k-point generation is used as a          |
|     fallback, which may lead to unwanted results.                           |
|                                                                             |
 -----------------------------------------------------------------------------

 INCAR ok, starting setup
 POSCAR ok, starting setup
 FFT: planning ... GRIDC
 FFT: planning ... GRID_SOFT
 FFT: planning ... GRID
 WAVECAR not read
 entering main loop
       N       E                     dE             d eps       ncg     rms          rms(c)
DAV:   1     0.117983767568E+03    0.11798E+03   -0.40880E+03 29000   0.442E+02
DAV:   2     0.179787270863E+01   -0.11619E+03   -0.10698E+03 29712   0.160E+02
DAV:   3    -0.502510582081E+01   -0.68230E+01   -0.67218E+01 34512   0.386E+01
DAV:   4    -0.507360758357E+01   -0.48502E-01   -0.48493E-01 31192   0.334E+00
DAV:   5    -0.507371463451E+01   -0.10705E-03   -0.10705E-03 33928   0.154E-01    0.238E+01
DAV:   6    -0.753857574719E+01   -0.24649E+01   -0.92522E-01 34712   0.678E+00    0.637E+00
DAV:   7    -0.767837550055E+01   -0.13980E+00   -0.20208E-01 33720   0.373E+00    0.229E+00
DAV:   8    -0.770563058475E+01   -0.27255E-01   -0.34455E-02 31624   0.104E+00    0.123E+00
DAV:   9    -0.771281650373E+01   -0.71859E-02   -0.56972E-03 30560   0.433E-01    0.934E-01
DAV:  10    -0.772060839146E+01   -0.77919E-02   -0.59025E-03 29504   0.336E-01    0.340E-01
DAV:  11    -0.772342574398E+01   -0.28174E-02   -0.17697E-03 33280   0.164E-01    0.207E-01
DAV:  12    -0.772548953536E+01   -0.20638E-02   -0.91673E-04 32968   0.919E-02    0.116E-01
DAV:  13    -0.772626619977E+01   -0.77666E-03   -0.60182E-04 33360   0.624E-02    0.361E-02
DAV:  14    -0.772632290085E+01   -0.56701E-04   -0.13567E-05 35360   0.193E-02    0.363E-02
DAV:  15    -0.772639066766E+01   -0.67767E-04   -0.37996E-05 32784   0.180E-02    0.196E-02
DAV:  16    -0.772641001185E+01   -0.19344E-04   -0.56046E-06 33936   0.630E-03    0.116E-02
DAV:  17    -0.772642006478E+01   -0.10053E-04   -0.12575E-05 32616   0.102E-02    0.301E-03
DAV:  18    -0.772642106982E+01   -0.10050E-05   -0.33631E-07 31776   0.277E-03    0.208E-03
DAV:  19    -0.772642116004E+01   -0.90214E-07   -0.82943E-08 29864   0.819E-04
   1 F= -.77264212E+01 E0= -.77249701E+01  d E =-.772642E+01  mag=     0.0005
 summed vel is now    0.000000000000000         0.000000000000000      
    0.000000000000000     
quench:  g(F)=  0.117E-64 g(S)=  0.390E-04 dE (1.order)=-0.780E-04
 bond charge predicted
       N       E                     dE             d eps       ncg     rms          rms(c)
DAV:   1    -0.772733001167E+01   -0.90894E-03   -0.48259E-03 42656   0.670E-01    0.256E-01
DAV:   2    -0.772644788077E+01    0.88213E-03   -0.81986E-04 37680   0.260E-01    0.543E-02
DAV:   3    -0.772643234028E+01    0.15540E-04   -0.15985E-04 34992   0.374E-02    0.159E-02
DAV:   4    -0.772645052259E+01   -0.18182E-04   -0.23440E-05 32760   0.146E-02    0.111E-02
DAV:   5    -0.772646649116E+01   -0.15969E-04   -0.10897E-05 31968   0.793E-03    0.828E-03
DAV:   6    -0.772646966390E+01   -0.31727E-05   -0.29812E-06 30376   0.602E-03    0.842E-04
DAV:   7    -0.772646993367E+01   -0.26977E-06   -0.18997E-07 31816   0.117E-03    0.568E-04
DAV:   8    -0.772646994568E+01   -0.12012E-07   -0.22918E-09 16560   0.252E-04
   2 F= -.77264699E+01 E0= -.77250223E+01  d E =-.487856E-04  mag=     0.0000
 summed vel is now    0.000000000000000         0.000000000000000      
    0.000000000000000     
quench:  g(F)=  0.117E-64 g(S)=  0.361E-05 dE (1.order)=-0.309E-04
 bond charge predicted
       N       E                     dE             d eps       ncg     rms          rms(c)
DAV:   1    -0.772791641465E+01   -0.14465E-02   -0.82013E-03 42696   0.874E-01    0.333E-01
DAV:   2    -0.772641991688E+01    0.14965E-02   -0.13834E-03 37680   0.339E-01    0.708E-02
DAV:   3    -0.772639344224E+01    0.26475E-04   -0.27050E-04 34960   0.489E-02    0.208E-02
DAV:   4    -0.772642423385E+01   -0.30792E-04   -0.40061E-05 32712   0.192E-02    0.144E-02
DAV:   5    -0.772645106462E+01   -0.26831E-04   -0.18548E-05 31992   0.104E-02    0.108E-02
DAV:   6    -0.772645635086E+01   -0.52862E-05   -0.57727E-06 30216   0.846E-03    0.107E-03
DAV:   7    -0.772645659888E+01   -0.24801E-06   -0.31151E-07 32232   0.157E-03    0.293E-04
DAV:   8    -0.772645665436E+01   -0.55487E-07   -0.16911E-09 17616   0.158E-04
   3 F= -.77264567E+01 E0= -.77250142E+01  d E =0.132913E-04  mag=     0.0000
 summed vel is now    0.000000000000000         0.000000000000000      
    0.000000000000000     
quench:  g(F)=  0.375E-63 g(S)=  0.118E-04 dE (1.order)=-0.118E-04
 bond charge predicted
       N       E                     dE             d eps       ncg     rms          rms(c)
DAV:   1    -0.772653163155E+01   -0.75033E-04   -0.36571E-04 42696   0.185E-01    0.704E-02
DAV:   2    -0.772646560297E+01    0.66029E-04   -0.62801E-05 37712   0.717E-02    0.148E-02
DAV:   3    -0.772646460020E+01    0.10028E-05   -0.11993E-05 34992   0.103E-02    0.436E-03
DAV:   4    -0.772646580050E+01   -0.12003E-05   -0.17583E-06 32672   0.401E-03    0.305E-03
DAV:   5    -0.772646671990E+01   -0.91940E-06   -0.82616E-07 31864   0.219E-03    0.226E-03
DAV:   6    -0.772646678384E+01   -0.63946E-07   -0.25402E-07 30048   0.177E-03
   4 F= -.77264668E+01 E0= -.77250231E+01  d E =-.101295E-04  mag=     0.0000
 summed vel is now    0.000000000000000         0.000000000000000      
    0.000000000000000     
quench:  g(F)=  0.774E-63 g(S)=  0.617E-05 dE (1.order)=-0.209E-04
 bond charge predicted
       N       E                     dE             d eps       ncg     rms          rms(c)
DAV:   1    -0.772686394595E+01   -0.39723E-03   -0.21789E-03 42752   0.452E-01    0.172E-01
DAV:   2    -0.772646636814E+01    0.39758E-03   -0.37725E-04 37912   0.175E-01    0.362E-02
DAV:   3    -0.772646007607E+01    0.62921E-05   -0.71913E-05 35104   0.251E-02    0.106E-02
DAV:   4    -0.772646784508E+01   -0.77690E-05   -0.10544E-05 32680   0.978E-03    0.751E-03
DAV:   5    -0.772647424912E+01   -0.64040E-05   -0.50235E-06 31968   0.540E-03    0.554E-03
DAV:   6    -0.772647512906E+01   -0.87994E-06   -0.15362E-06 30232   0.435E-03    0.549E-04
DAV:   7    -0.772647503503E+01    0.94027E-07   -0.80399E-08 31136   0.797E-04
   5 F= -.77264750E+01 E0= -.77250287E+01  d E =-.825119E-05  mag=     0.0000
 summed vel is now    0.000000000000000         0.000000000000000      
    0.000000000000000     
quench:  g(F)=  0.675E-64 g(S)=  0.130E-06 dE (1.order)=-0.130E-06
 reached required accuracy - stopping structural energy minimisation
 PROFILE, used timers:     429
