   3   3   0   0
  0.2999541E+02  0.5029950E-09  0.5029950E-09  0.5029950E-09  0.5000000E-15
  1.000000000000000E-004
  CAR
 unknown system
     11.08410311    -35.33113971  301      7.18700576      1.00000000
    -35.331  0.0000E+00  0.0000E+00
    -35.176  0.0000E+00  0.0000E+00
    -35.022  0.0000E+00  0.0000E+00
    -34.867  0.0000E+00  0.0000E+00
    -34.712  0.0000E+00  0.0000E+00
    -34.558  0.0000E+00  0.0000E+00
    -34.403  0.0000E+00  0.0000E+00
    -34.248  0.0000E+00  0.0000E+00
    -34.093  0.0000E+00  0.0000E+00
    -33.939  0.0000E+00  0.0000E+00
    -33.784  0.0000E+00  0.0000E+00
    -33.629  0.0000E+00  0.0000E+00
    -33.475  0.0000E+00  0.0000E+00
    -33.320  0.0000E+00  0.0000E+00
    -33.165  0.1293E+02  0.2000E+01
    -33.010  0.0000E+00  0.2000E+01
    -32.856  0.0000E+00  0.2000E+01
    -32.701  0.0000E+00  0.2000E+01
    -32.546  0.0000E+00  0.2000E+01
    -32.392  0.0000E+00  0.2000E+01
    -32.237  0.0000E+00  0.2000E+01
    -32.082  0.0000E+00  0.2000E+01
    -31.927  0.0000E+00  0.2000E+01
    -31.773  0.0000E+00  0.2000E+01
    -31.618  0.0000E+00  0.2000E+01
    -31.463  0.0000E+00  0.2000E+01
    -31.308  0.0000E+00  0.2000E+01
    -31.154  0.0000E+00  0.2000E+01
    -30.999  0.0000E+00  0.2000E+01
    -30.844  0.0000E+00  0.2000E+01
    -30.690  0.0000E+00  0.2000E+01
    -30.535  0.0000E+00  0.2000E+01
    -30.380  0.0000E+00  0.2000E+01
    -30.225  0.0000E+00  0.2000E+01
    -30.071  0.0000E+00  0.2000E+01
    -29.916  0.0000E+00  0.2000E+01
    -29.761  0.0000E+00  0.2000E+01
    -29.607  0.0000E+00  0.2000E+01
    -29.452  0.0000E+00  0.2000E+01
    -29.297  0.0000E+00  0.2000E+01
    -29.142  0.0000E+00  0.2000E+01
    -28.988  0.0000E+00  0.2000E+01
    -28.833  0.0000E+00  0.2000E+01
    -28.678  0.0000E+00  0.2000E+01
    -28.524  0.0000E+00  0.2000E+01
    -28.369  0.0000E+00  0.2000E+01
    -28.214  0.0000E+00  0.2000E+01
    -28.059  0.0000E+00  0.2000E+01
    -27.905  0.0000E+00  0.2000E+01
    -27.750  0.0000E+00  0.2000E+01
    -27.595  0.0000E+00  0.2000E+01
    -27.441  0.0000E+00  0.2000E+01
    -27.286  0.0000E+00  0.2000E+01
    -27.131  0.0000E+00  0.2000E+01
    -26.976  0.0000E+00  0.2000E+01
    -26.822  0.0000E+00  0.2000E+01
    -26.667  0.0000E+00  0.2000E+01
    -26.512  0.0000E+00  0.2000E+01
    -26.358  0.0000E+00  0.2000E+01
    -26.203  0.0000E+00  0.2000E+01
    -26.048  0.0000E+00  0.2000E+01
    -25.893  0.0000E+00  0.2000E+01
    -25.739  0.0000E+00  0.2000E+01
    -25.584  0.0000E+00  0.2000E+01
    -25.429  0.0000E+00  0.2000E+01
    -25.275  0.0000E+00  0.2000E+01
    -25.120  0.0000E+00  0.2000E+01
    -24.965  0.0000E+00  0.2000E+01
    -24.810  0.0000E+00  0.2000E+01
    -24.656  0.0000E+00  0.2000E+01
    -24.501  0.0000E+00  0.2000E+01
    -24.346  0.0000E+00  0.2000E+01
    -24.191  0.0000E+00  0.2000E+01
    -24.037  0.0000E+00  0.2000E+01
    -23.882  0.0000E+00  0.2000E+01
    -23.727  0.0000E+00  0.2000E+01
    -23.573  0.0000E+00  0.2000E+01
    -23.418  0.0000E+00  0.2000E+01
    -23.263  0.0000E+00  0.2000E+01
    -23.108  0.0000E+00  0.2000E+01
    -22.954  0.0000E+00  0.2000E+01
    -22.799  0.0000E+00  0.2000E+01
    -22.644  0.0000E+00  0.2000E+01
    -22.490  0.0000E+00  0.2000E+01
    -22.335  0.0000E+00  0.2000E+01
    -22.180  0.0000E+00  0.2000E+01
    -22.025  0.0000E+00  0.2000E+01
    -21.871  0.0000E+00  0.2000E+01
    -21.716  0.0000E+00  0.2000E+01
    -21.561  0.0000E+00  0.2000E+01
    -21.407  0.0000E+00  0.2000E+01
    -21.252  0.0000E+00  0.2000E+01
    -21.097  0.0000E+00  0.2000E+01
    -20.942  0.0000E+00  0.2000E+01
    -20.788  0.0000E+00  0.2000E+01
    -20.633  0.0000E+00  0.2000E+01
    -20.478  0.0000E+00  0.2000E+01
    -20.324  0.0000E+00  0.2000E+01
    -20.169  0.0000E+00  0.2000E+01
    -20.014  0.0000E+00  0.2000E+01
    -19.859  0.0000E+00  0.2000E+01
    -19.705  0.0000E+00  0.2000E+01
    -19.550  0.0000E+00  0.2000E+01
    -19.395  0.0000E+00  0.2000E+01
    -19.241  0.0000E+00  0.2000E+01
    -19.086  0.0000E+00  0.2000E+01
    -18.931  0.0000E+00  0.2000E+01
    -18.776  0.0000E+00  0.2000E+01
    -18.622  0.0000E+00  0.2000E+01
    -18.467  0.0000E+00  0.2000E+01
    -18.312  0.0000E+00  0.2000E+01
    -18.157  0.0000E+00  0.2000E+01
    -18.003  0.0000E+00  0.2000E+01
    -17.848  0.0000E+00  0.2000E+01
    -17.693  0.0000E+00  0.2000E+01
    -17.539  0.0000E+00  0.2000E+01
    -17.384  0.0000E+00  0.2000E+01
    -17.229  0.0000E+00  0.2000E+01
    -17.074  0.0000E+00  0.2000E+01
    -16.920  0.0000E+00  0.2000E+01
    -16.765  0.0000E+00  0.2000E+01
    -16.610  0.0000E+00  0.2000E+01
    -16.456  0.0000E+00  0.2000E+01
    -16.301  0.0000E+00  0.2000E+01
    -16.146  0.0000E+00  0.2000E+01
    -15.991  0.0000E+00  0.2000E+01
    -15.837  0.0000E+00  0.2000E+01
    -15.682  0.0000E+00  0.2000E+01
    -15.527  0.3878E+02  0.1200E+02
    -15.373  0.0000E+00  0.1200E+02
    -15.218  0.0000E+00  0.1200E+02
    -15.063  0.0000E+00  0.1200E+02
    -14.908  0.0000E+00  0.1200E+02
    -14.754  0.0000E+00  0.1200E+02
    -14.599  0.0000E+00  0.1200E+02
    -14.444  0.0000E+00  0.1200E+02
    -14.290  0.0000E+00  0.1200E+02
    -14.135  0.0000E+00  0.1200E+02
    -13.980  0.0000E+00  0.1200E+02
    -13.825  0.0000E+00  0.1200E+02
    -13.671  0.0000E+00  0.1200E+02
    -13.516  0.0000E+00  0.1200E+02
    -13.361  0.0000E+00  0.1200E+02
    -13.207  0.0000E+00  0.1200E+02
    -13.052  0.0000E+00  0.1200E+02
    -12.897  0.0000E+00  0.1200E+02
    -12.742  0.0000E+00  0.1200E+02
    -12.588  0.0000E+00  0.1200E+02
    -12.433  0.0000E+00  0.1200E+02
    -12.278  0.0000E+00  0.1200E+02
    -12.124  0.0000E+00  0.1200E+02
    -11.969  0.0000E+00  0.1200E+02
    -11.814  0.0000E+00  0.1200E+02
    -11.659  0.0000E+00  0.1200E+02
    -11.505  0.0000E+00  0.1200E+02
    -11.350  0.0000E+00  0.1200E+02
    -11.195  0.5171E+00  0.1208E+02
    -11.040  0.2638E+02  0.1796E+02
    -10.886  0.0000E+00  0.1800E+02
    -10.731  0.0000E+00  0.1800E+02
    -10.576  0.0000E+00  0.1800E+02
    -10.422  0.0000E+00  0.1800E+02
    -10.267  0.0000E+00  0.1800E+02
    -10.112  0.0000E+00  0.1800E+02
     -9.957  0.0000E+00  0.1800E+02
     -9.803  0.0000E+00  0.1800E+02
     -9.648  0.0000E+00  0.1800E+02
     -9.493  0.0000E+00  0.1800E+02
     -9.339  0.0000E+00  0.1800E+02
     -9.184  0.0000E+00  0.1800E+02
     -9.029  0.0000E+00  0.1800E+02
     -8.874  0.0000E+00  0.1800E+02
     -8.720  0.0000E+00  0.1800E+02
     -8.565  0.0000E+00  0.1800E+02
     -8.410  0.0000E+00  0.1800E+02
     -8.256  0.0000E+00  0.1800E+02
     -8.101  0.0000E+00  0.1800E+02
     -7.946  0.0000E+00  0.1800E+02
     -7.791  0.0000E+00  0.1800E+02
     -7.637  0.0000E+00  0.1800E+02
     -7.482  0.0000E+00  0.1800E+02
     -7.327  0.0000E+00  0.1800E+02
     -7.173  0.0000E+00  0.1800E+02
     -7.018  0.0000E+00  0.1800E+02
     -6.863  0.0000E+00  0.1800E+02
     -6.708  0.0000E+00  0.1800E+02
     -6.554  0.0000E+00  0.1800E+02
     -6.399  0.0000E+00  0.1800E+02
     -6.244  0.0000E+00  0.1800E+02
     -6.090  0.0000E+00  0.1800E+02
     -5.935  0.0000E+00  0.1800E+02
     -5.780  0.0000E+00  0.1800E+02
     -5.625  0.0000E+00  0.1800E+02
     -5.471  0.0000E+00  0.1800E+02
     -5.316  0.0000E+00  0.1800E+02
     -5.161  0.0000E+00  0.1800E+02
     -5.007  0.0000E+00  0.1800E+02
     -4.852  0.0000E+00  0.1800E+02
     -4.697  0.0000E+00  0.1800E+02
     -4.542  0.7512E-17  0.1800E+02
     -4.388  0.8750E-01  0.1801E+02
     -4.233  0.2966E+00  0.1810E+02
     -4.078  0.6414E+00  0.1825E+02
     -3.923  0.2682E+01  0.1874E+02
     -3.769  0.3351E+01  0.1992E+02
     -3.614  0.0000E+00  0.2000E+02
     -3.459  0.0000E+00  0.2000E+02
     -3.305  0.0000E+00  0.2000E+02
     -3.150  0.0000E+00  0.2000E+02
     -2.995  0.0000E+00  0.2000E+02
     -2.840  0.0000E+00  0.2000E+02
     -2.686  0.0000E+00  0.2000E+02
     -2.531  0.0000E+00  0.2000E+02
     -2.376  0.0000E+00  0.2000E+02
     -2.222  0.0000E+00  0.2000E+02
     -2.067  0.0000E+00  0.2000E+02
     -1.912  0.0000E+00  0.2000E+02
     -1.757  0.0000E+00  0.2000E+02
     -1.603  0.0000E+00  0.2000E+02
     -1.448  0.0000E+00  0.2000E+02
     -1.293  0.0000E+00  0.2000E+02
     -1.139  0.0000E+00  0.2000E+02
     -0.984  0.0000E+00  0.2000E+02
     -0.829  0.0000E+00  0.2000E+02
     -0.674  0.0000E+00  0.2000E+02
     -0.520  0.0000E+00  0.2000E+02
     -0.365  0.0000E+00  0.2000E+02
     -0.210  0.0000E+00  0.2000E+02
     -0.056  0.0000E+00  0.2000E+02
      0.099  0.0000E+00  0.2000E+02
      0.254  0.0000E+00  0.2000E+02
      0.409  0.0000E+00  0.2000E+02
      0.563  0.0000E+00  0.2000E+02
      0.718  0.0000E+00  0.2000E+02
      0.873  0.0000E+00  0.2000E+02
      1.027  0.0000E+00  0.2000E+02
      1.182  0.0000E+00  0.2000E+02
      1.337  0.0000E+00  0.2000E+02
      1.492  0.0000E+00  0.2000E+02
      1.646  0.1087E-14  0.2000E+02
      1.801  0.3032E+00  0.2005E+02
      1.956  0.9539E+00  0.2027E+02
      2.110  0.1577E+01  0.2097E+02
      2.265  0.1964E+01  0.2137E+02
      2.420  0.8170E+00  0.2160E+02
      2.575  0.8283E+00  0.2185E+02
      2.729  0.8659E-01  0.2196E+02
      2.884  0.4189E+01  0.2265E+02
      3.039  0.3333E+01  0.2386E+02
      3.194  0.2325E+01  0.2470E+02
      3.348  0.3744E+01  0.2580E+02
      3.503  0.1117E+00  0.2603E+02
      3.658  0.6590E+00  0.2617E+02
      3.812  0.7595E+01  0.2850E+02
      3.967  0.6243E+01  0.3035E+02
      4.122  0.2983E+01  0.3128E+02
      4.277  0.9191E+00  0.3165E+02
      4.431  0.1001E+01  0.3192E+02
      4.586  0.5949E+00  0.3211E+02
      4.741  0.1839E+01  0.3244E+02
      4.895  0.9882E+00  0.3264E+02
      5.050  0.1189E+01  0.3300E+02
      5.205  0.5583E+00  0.3319E+02
      5.360  0.1411E+01  0.3355E+02
      5.514  0.4304E+00  0.3368E+02
      5.669  0.6287E+01  0.3518E+02
      5.824  0.9223E+00  0.3579E+02
      5.978  0.4942E+00  0.3593E+02
      6.133  0.7061E-01  0.3597E+02
      6.288  0.1412E-01  0.3600E+02
      6.443  0.4707E-01  0.3602E+02
      6.597  0.1262E+00  0.3604E+02
      6.752  0.3162E+00  0.3610E+02
      6.907  0.4663E+00  0.3624E+02
      7.061  0.1171E+01  0.3653E+02
      7.216  0.2244E+01  0.3716E+02
      7.371  0.2056E+01  0.3765E+02
      7.526  0.1288E+01  0.3803E+02
      7.680  0.8240E+00  0.3826E+02
      7.835  0.3772E+00  0.3839E+02
      7.990  0.9217E+00  0.3862E+02
      8.144  0.2505E+01  0.3917E+02
      8.299  0.3600E+01  0.4011E+02
      8.454  0.1893E+01  0.4080E+02
      8.609  0.4127E+01  0.4193E+02
      8.763  0.8757E+01  0.4428E+02
      8.918  0.7891E+01  0.4728E+02
      9.073  0.0000E+00  0.4800E+02
      9.227  0.0000E+00  0.4800E+02
      9.382  0.0000E+00  0.4800E+02
      9.537  0.0000E+00  0.4800E+02
      9.692  0.0000E+00  0.4800E+02
      9.846  0.0000E+00  0.4800E+02
     10.001  0.0000E+00  0.4800E+02
     10.156  0.0000E+00  0.4800E+02
     10.311  0.0000E+00  0.4800E+02
     10.465  0.0000E+00  0.4800E+02
     10.620  0.0000E+00  0.4800E+02
     10.775  0.0000E+00  0.4800E+02
     10.929  0.0000E+00  0.4800E+02
     11.084  0.0000E+00  0.4800E+02
