    3    3    1    1
  0.2999541E+02  0.5029950E-09  0.5029950E-09  0.5029950E-09  0.5000000E-15
  1.000000000000000E-004
  CAR
 unknown system
     37     84     24

  0.0000000E+00  0.0000000E+00  0.0000000E+00  0.4551661E-03
    1      -33.221356   1.000000
    2      -15.610638   1.000000
    3      -15.610638   1.000000
    4      -15.584489   1.000000
    5      -15.584489   1.000000
    6      -15.584489   1.000000
    7      -11.065344   1.000000
    8      -11.065344   1.000000
    9      -11.065344   1.000000
   10       -4.486404   1.000000
   11        3.330969   1.000000
   12        3.330969   1.000000
   13        3.330969   1.000000
   14        3.621537   1.000000
   15        3.621537   1.000000
   16        4.941287   1.000000
   17        6.281914   1.000000
   18        6.281914   1.000000
   19        6.281914   1.000000
   20        7.463560   0.000000
   21        7.463560   0.000000
   22        7.463560   0.000000
   23        8.147539   0.000000
   24        8.870685   0.000000

  0.7692308E-01 -0.1427642E-17  0.2775982E-17  0.3641329E-02
    1      -33.221207   1.000000
    2      -15.611036   1.000000
    3      -15.611036   1.000000
    4      -15.584563   1.000000
    5      -15.584409   1.000000
    6      -15.584409   1.000000
    7      -11.074189   1.000000
    8      -11.064390   1.000000
    9      -11.064390   1.000000
   10       -4.443944   1.000000
   11        3.186277   1.000000
   12        3.254738   1.000000
   13        3.254738   1.000000
   14        3.693463   1.000000
   15        3.693463   1.000000
   16        4.846196   1.000000
   17        6.204304   1.000000
   18        6.204304   1.000000
   19        6.319270   1.000000
   20        7.539934   0.000000
   21        7.548050   0.000000
   22        7.548050   0.000000
   23        8.319006   0.000000
   24        8.880259   0.000000

  0.1538462E+00 -0.4010835E-17  0.6707516E-17  0.3641329E-02
    1      -33.220797   1.000000
    2      -15.612115   1.000000
    3      -15.612115   1.000000
    4      -15.584762   1.000000
    5      -15.584150   1.000000
    6      -15.584150   1.000000
    7      -11.098187   1.000000
    8      -11.061753   1.000000
    9      -11.061753   1.000000
   10       -4.325625   1.000000
   11        2.844745   1.000000
   12        3.131892   1.000000
   13        3.131892   1.000000
   14        3.795920   1.000000
   15        3.795920   1.000000
   16        4.593320   1.000000
   17        6.039690   1.000000
   18        6.039690   1.000000
   19        6.389981   1.000000
   20        7.746204   0.000000
   21        7.746204   0.000000
   22        7.865548   0.000000
   23        8.612552   0.000000
   24        8.902862   0.000000

  0.2307692E+00 -0.5438477E-17  0.9483498E-17  0.3641329E-02
    1      -33.220220   1.000000
    2      -15.613657   1.000000
    3      -15.613657   1.000000
    4      -15.585062   1.000000
    5      -15.583778   1.000000
    6      -15.583778   1.000000
    7      -11.130810   1.000000
    8      -11.058048   1.000000
    9      -11.058048   1.000000
   10       -4.157127   1.000000
   11        2.451106   1.000000
   12        3.032886   1.000000
   13        3.032886   1.000000
   14        3.843620   1.000000
   15        3.843620   1.000000
   16        4.290852   1.000000
   17        5.886762   1.000000
   18        5.886762   1.000000
   19        6.477388   1.000000
   20        7.981780   0.000000
   21        7.981780   0.000000
   22        8.346681   0.000000
   23        8.826245   0.000000
   24        8.907847   0.000000

  0.3076923E+00 -0.8021671E-17  0.1341503E-16  0.3641329E-02
    1      -33.219607   1.000000
    2      -15.615305   1.000000
    3      -15.615305   1.000000
    4      -15.585425   1.000000
    5      -15.583365   1.000000
    6      -15.583365   1.000000
    7      -11.163968   1.000000
    8      -11.054130   1.000000
    9      -11.054130   1.000000
   10       -3.975903   1.000000
   11        2.097762   1.000000
   12        2.973740   1.000000
   13        2.973740   1.000000
   14        3.819430   1.000000
   15        3.819430   1.000000
   16        4.034779   1.000000
   17        5.791709   1.000000
   18        5.791709   1.000000
   19        6.598519   1.000000
   20        8.203037   0.000000
   21        8.203037   0.000000
   22        8.748398   0.000000
   23        8.873237   0.000000
   24        8.873934   0.000000

  0.3846154E+00  0.7504403E-17 -0.7627026E-18  0.3641329E-02
    1      -33.219099   1.000000
    2      -15.616674   1.000000
    3      -15.616674   1.000000
    4      -15.585757   1.000000
    5      -15.583016   1.000000
    6      -15.583016   1.000000
    7      -11.190368   1.000000
    8      -11.050895   1.000000
    9      -11.050895   1.000000
   10       -3.823686   1.000000
   11        1.837174   1.000000
   12        2.951597   1.000000
   13        2.951597   1.000000
   14        3.752589   1.000000
   15        3.752589   1.000000
   16        3.864380   1.000000
   17        5.750843   1.000000
   18        5.750843   1.000000
   19        6.749389   1.000000
   20        8.367334   0.000000
   21        8.367334   0.000000
   22        8.837703   0.000000
   23        8.837739   0.000000
   24        8.885202   0.000000

  0.4615385E+00 -0.1203251E-16  0.2012255E-16  0.3641329E-02
    1      -33.218815   1.000000
    2      -15.617453   1.000000
    3      -15.617453   1.000000
    4      -15.585948   1.000000
    5      -15.582810   1.000000
    6      -15.582810   1.000000
    7      -11.204858   1.000000
    8      -11.049072   1.000000
    9      -11.049072   1.000000
   10       -3.736905   1.000000
   11        1.699669   1.000000
   12        2.950056   1.000000
   13        2.950056   1.000000
   14        3.697394   1.000000
   15        3.697394   1.000000
   16        3.782737   1.000000
   17        5.739324   1.000000
   18        5.739324   1.000000
   19        6.875336   1.000000
   20        8.452295   0.000000
   21        8.452295   0.000000
   22        8.815196   0.000000
   23        8.815222   0.000000
   24        8.831197   0.000000

  0.7692308E-01  0.7692308E-01  0.2227965E-17  0.2730997E-02
    1      -33.221159   1.000000
    2      -15.611746   1.000000
    3      -15.610502   1.000000
    4      -15.584671   1.000000
    5      -15.584335   1.000000
    6      -15.584335   1.000000
    7      -11.071932   1.000000
    8      -11.066699   1.000000
    9      -11.066699   1.000000
   10       -4.430911   1.000000
   11        2.999089   1.000000
   12        3.345063   1.000000
   13        3.345063   1.000000
   14        3.636879   1.000000
   15        3.713867   1.000000
   16        4.844057   1.000000
   17        6.098342   1.000000
   18        6.098342   1.000000
   19        6.517903   1.000000
   20        7.301065   0.000000
   21        7.687582   0.000000
   22        7.687582   0.000000
   23        8.349519   0.000000
   24        8.865947   0.000000

  0.1538462E+00  0.7692308E-01  0.7397196E-17  0.1092399E-01
    1      -33.220836   1.000000
    2      -15.612978   1.000000
    3      -15.610771   1.000000
    4      -15.584855   1.000000
    5      -15.584138   1.000000
    6      -15.584090   1.000000
    7      -11.089761   1.000000
    8      -11.066961   1.000000
    9      -11.063547   1.000000
   10       -4.341217   1.000000
   11        2.727325   1.000000
   12        3.247205   1.000000
   13        3.292408   1.000000
   14        3.705017   1.000000
   15        3.787418   1.000000
   16        4.689938   1.000000
   17        5.915807   1.000000
   18        5.939260   1.000000
   19        6.695885   1.000000
   20        7.316905   0.000000
   21        7.890748   0.000000
   22        7.934648   0.000000
   23        8.568873   0.000000
   24        8.870216   0.000000

  0.2307692E+00  0.7692308E-01  0.9404196E-17  0.1092399E-01
    1      -33.220317   1.000000
    2      -15.614445   1.000000
    3      -15.611790   1.000000
    4      -15.585081   1.000000
    5      -15.583869   1.000000
    6      -15.583721   1.000000
    7      -11.119272   1.000000
    8      -11.065125   1.000000
    9      -11.059084   1.000000
   10       -4.194883   1.000000
   11        2.432368   1.000000
   12        3.074068   1.000000
   13        3.200970   1.000000
   14        3.770065   1.000000
   15        3.863929   1.000000
   16        4.424237   1.000000
   17        5.739428   1.000000
   18        5.806157   1.000000
   19        6.765918   1.000000
   20        7.607252   0.000000
   21        8.095741   0.000000
   22        8.277889   0.000000
   23        8.783316   0.000000
   24        8.862014   0.000000

  0.3076923E+00  0.7692308E-01  0.1333573E-16  0.1092399E-01
    1      -33.219719   1.000000
    2      -15.615823   1.000000
    3      -15.613331   1.000000
    4      -15.585348   1.000000
    5      -15.583549   1.000000
    6      -15.583304   1.000000
    7      -11.151788   1.000000
    8      -11.061618   1.000000
    9      -11.055467   1.000000
   10       -4.024920   1.000000
   11        2.147197   1.000000
   12        2.950566   1.000000
   13        3.124880   1.000000
   14        3.769021   1.000000
   15        3.878613   1.000000
   16        4.150870   1.000000
   17        5.636535   1.000000
   18        5.732797   1.000000
   19        6.785392   1.000000
   20        7.979628   0.000000
   21        8.274934   0.000000
   22        8.631888   0.000000
   23        8.853960   0.000000
   24        8.881756   0.000000

  0.3846154E+00  0.7692308E-01  0.1303578E-16  0.1092399E-01
    1      -33.219179   1.000000
    2      -15.616805   1.000000
    3      -15.615027   1.000000
    4      -15.585615   1.000000
    5      -15.583238   1.000000
    6      -15.582948   1.000000
    7      -11.179876   1.000000
    8      -11.057252   1.000000
    9      -11.053509   1.000000
   10       -3.870255   1.000000
   11        1.916003   1.000000
   12        2.899585   1.000000
   13        3.065327   1.000000
   14        3.725814   1.000000
   15        3.830937   1.000000
   16        3.942724   1.000000
   17        5.596240   1.000000
   18        5.708506   1.000000
   19        6.851413   1.000000
   20        8.254930   0.000000
   21        8.406766   0.000000
   22        8.791118   0.000000
   23        8.834129   0.000000
   24        8.907420   0.000000

  0.4615385E+00  0.7692308E-01  0.1360096E-19  0.1092399E-01
    1      -33.218818   1.000000
    2      -15.617146   1.000000
    3      -15.616482   1.000000
    4      -15.585798   1.000000
    5      -15.582993   1.000000
    6      -15.582728   1.000000
    7      -11.197868   1.000000
    8      -11.053601   1.000000
    9      -11.053015   1.000000
   10       -3.766690   1.000000
   11        1.772348   1.000000
   12        2.911245   1.000000
   13        3.006459   1.000000
   14        3.699165   1.000000
   15        3.761227   1.000000
   16        3.818238   1.000000
   17        5.587653   1.000000
   18        5.705625   1.000000
   19        6.952798   1.000000
   20        8.386553   0.000000
   21        8.477786   0.000000
   22        8.784729   0.000000
   23        8.809825   0.000000
   24        8.895739   0.000000

 -0.4615385E+00  0.7692308E-01 -0.3407964E-16  0.1092399E-01
    1      -33.218723   1.000000
    2      -15.617362   1.000000
    3      -15.616789   1.000000
    4      -15.585839   1.000000
    5      -15.582899   1.000000
    6      -15.582719   1.000000
    7      -11.202508   1.000000
    8      -11.055667   1.000000
    9      -11.049866   1.000000
   10       -3.738335   1.000000
   11        1.734496   1.000000
   12        2.940791   1.000000
   13        2.963792   1.000000
   14        3.704434   1.000000
   15        3.728068   1.000000
   16        3.787395   1.000000
   17        5.580590   1.000000
   18        5.709101   1.000000
   19        6.999490   1.000000
   20        8.416518   0.000000
   21        8.476120   0.000000
   22        8.789905   0.000000
   23        8.798888   0.000000
   24        8.870064   0.000000

 -0.3846154E+00  0.7692308E-01 -0.1627032E-16  0.1092399E-01
    1      -33.218914   1.000000
    2      -15.617472   1.000000
    3      -15.615791   1.000000
    4      -15.585714   1.000000
    5      -15.582971   1.000000
    6      -15.582910   1.000000
    7      -11.193045   1.000000
    8      -11.059186   1.000000
    9      -11.048523   1.000000
   10       -3.791888   1.000000
   11        1.808473   1.000000
   12        2.885203   1.000000
   13        3.033283   1.000000
   14        3.690560   1.000000
   15        3.802945   1.000000
   16        3.848920   1.000000
   17        5.558025   1.000000
   18        5.724466   1.000000
   19        6.937233   1.000000
   20        8.386715   0.000000
   21        8.422318   0.000000
   22        8.800269   0.000000
   23        8.809221   0.000000
   24        8.910474   0.000000

 -0.3076923E+00  0.7692308E-01  0.3834546E-18  0.1092399E-01
    1      -33.219345   1.000000
    2      -15.616782   1.000000
    3      -15.614384   1.000000
    4      -15.585465   1.000000
    5      -15.583251   1.000000
    6      -15.583203   1.000000
    7      -11.171202   1.000000
    8      -11.063292   1.000000
    9      -11.049298   1.000000
   10       -3.915019   1.000000
   11        1.989768   1.000000
   12        2.864139   1.000000
   13        3.109215   1.000000
   14        3.721309   1.000000
   15        3.882564   1.000000
   16        3.998033   1.000000
   17        5.525498   1.000000
   18        5.773014   1.000000
   19        6.846211   1.000000
   20        8.208814   0.000000
   21        8.336066   0.000000
   22        8.779265   0.000000
   23        8.831893   0.000000
   24        8.912257   0.000000

 -0.2307692E+00  0.7692308E-01 -0.9562800E-17  0.1092399E-01
    1      -33.219922   1.000000
    2      -15.615471   1.000000
    3      -15.612890   1.000000
    4      -15.585172   1.000000
    5      -15.583664   1.000000
    6      -15.583535   1.000000
    7      -11.141221   1.000000
    8      -11.066951   1.000000
    9      -11.052030   1.000000
   10       -4.079033   1.000000
   11        2.261886   1.000000
   12        2.893225   1.000000
   13        3.198265   1.000000
   14        3.748163   1.000000
   15        3.921110   1.000000
   16        4.231141   1.000000
   17        5.521690   1.000000
   18        5.877145   1.000000
   19        6.787432   1.000000
   20        7.970235   0.000000
   21        8.105519   0.000000
   22        8.544290   0.000000
   23        8.854582   0.000000
   24        8.881797   0.000000

 -0.1538462E+00  0.7692308E-01 -0.6786818E-17  0.1092399E-01
    1      -33.220508   1.000000
    2      -15.613833   1.000000
    3      -15.611673   1.000000
    4      -15.584906   1.000000
    5      -15.584039   1.000000
    6      -15.583885   1.000000
    7      -11.109701   1.000000
    8      -11.069064   1.000000
    9      -11.056094   1.000000
   10       -4.245855   1.000000
   11        2.592326   1.000000
   12        2.976378   1.000000
   13        3.301201   1.000000
   14        3.720516   1.000000
   15        3.892879   1.000000
   16        4.506153   1.000000
   17        5.618682   1.000000
   18        6.031313   1.000000
   19        6.728864   1.000000
   20        7.729048   0.000000
   21        7.741425   0.000000
   22        8.238438   0.000000
   23        8.723290   0.000000
   24        8.878122   0.000000

 -0.7692308E-01  0.7692308E-01 -0.2855284E-17  0.5461994E-02
    1      -33.220972   1.000000
    2      -15.612232   1.000000
    3      -15.610998   1.000000
    4      -15.584695   1.000000
    5      -15.584303   1.000000
    6      -15.584193   1.000000
    7      -11.085091   1.000000
    8      -11.068230   1.000000
    9      -11.060560   1.000000
   10       -4.377344   1.000000
   11        2.928279   1.000000
   12        3.105584   1.000000
   13        3.357096   1.000000
   14        3.669940   1.000000
   15        3.805335   1.000000
   16        4.729687   1.000000
   17        5.879271   1.000000
   18        6.173979   1.000000
   19        6.547537   1.000000
   20        7.511433   0.000000
   21        7.561315   0.000000
   22        7.913630   0.000000
   23        8.497646   0.000000
   24        8.885245   0.000000

  0.1538462E+00  0.1538462E+00  0.4455930E-17  0.2730997E-02
    1      -33.220620   1.000000
    2      -15.614046   1.000000
    3      -15.610116   1.000000
    4      -15.585164   1.000000
    5      -15.583864   1.000000
    6      -15.583864   1.000000
    7      -11.089974   1.000000
    8      -11.070520   1.000000
    9      -11.070520   1.000000
   10       -4.289434   1.000000
   11        2.474684   1.000000
   12        3.376896   1.000000
   13        3.376896   1.000000
   14        3.680186   1.000000
   15        3.718756   1.000000
   16        4.695394   1.000000
   17        5.800008   1.000000
   18        5.800008   1.000000
   19        6.834086   1.000000
   20        7.187821   0.454087
   21        8.074646   0.000000
   22        8.074646   0.000000
   23        8.648039   0.000000
   24        8.847703   0.000000

  0.2307692E+00  0.1538462E+00  0.8169342E-17  0.1092399E-01
    1      -33.220192   1.000000
    2      -15.615066   1.000000
    3      -15.610306   1.000000
    4      -15.585435   1.000000
    5      -15.583567   1.000000
    6      -15.583500   1.000000
    7      -11.110852   1.000000
    8      -11.071619   1.000000
    9      -11.068411   1.000000
   10       -4.183403   1.000000
   11        2.251313   1.000000
   12        3.271818   1.000000
   13        3.345483   1.000000
   14        3.728106   1.000000
   15        3.763981   1.000000
   16        4.557836   1.000000
   17        5.603149   1.000000
   18        5.689656   1.000000
   19        7.025106   1.000000
   20        7.263536   0.000000
   21        8.239911   0.000000
   22        8.294915   0.000000
   23        8.790488   0.000000
   24        8.835373   0.000000

  0.3076923E+00  0.1538462E+00  0.1210088E-16  0.1092399E-01
    1      -33.219656   1.000000
    2      -15.615818   1.000000
    3      -15.611315   1.000000
    4      -15.585620   1.000000
    5      -15.583344   1.000000
    6      -15.583088   1.000000
    7      -11.139289   1.000000
    8      -11.070027   1.000000
    9      -11.065296   1.000000
   10       -4.048923   1.000000
   11        2.083635   1.000000
   12        3.089647   1.000000
   13        3.277161   1.000000
   14        3.748409   1.000000
   15        3.832500   1.000000
   16        4.330266   1.000000
   17        5.410367   1.000000
   18        5.638000   1.000000
   19        7.061971   1.000000
   20        7.674100   0.000000
   21        8.372439   0.000000
   22        8.544745   0.000000
   23        8.824316   0.000000
   24        8.880281   0.000000

  0.3846154E+00  0.1538462E+00  0.1487686E-16  0.1092399E-01
    1      -33.219131   1.000000
    2      -15.616133   1.000000
    3      -15.612901   1.000000
    4      -15.585699   1.000000
    5      -15.583207   1.000000
    6      -15.582713   1.000000
    7      -11.165637   1.000000
    8      -11.066111   1.000000
    9      -11.064786   1.000000
   10       -3.917526   1.000000
   11        1.974417   1.000000
   12        2.956165   1.000000
   13        3.196505   1.000000
   14        3.733499   1.000000
   15        3.845365   1.000000
   16        4.098168   1.000000
   17        5.311708   1.000000
   18        5.629609   1.000000
   19        7.048678   1.000000
   20        8.113831   0.000000
   21        8.470269   0.000000
   22        8.723228   0.000000
   23        8.811951   0.000000
   24        8.921842   0.000000

  0.4615385E+00  0.1538462E+00  0.1880839E-16  0.1092399E-01
    1      -33.218741   1.000000
    2      -15.615947   1.000000
    3      -15.614680   1.000000
    4      -15.585670   1.000000
    5      -15.583154   1.000000
    6      -15.582487   1.000000
    7      -11.184119   1.000000
    8      -11.067183   1.000000
    9      -11.060767   1.000000
   10       -3.818139   1.000000
   11        1.911599   1.000000
   12        2.907060   1.000000
   13        3.094959   1.000000
   14        3.735285   1.000000
   15        3.803918   1.000000
   16        3.932716   1.000000
   17        5.277318   1.000000
   18        5.632326   1.000000
   19        7.098363   1.000000
   20        8.309233   0.000000
   21        8.530388   0.000000
   22        8.756014   0.000000
   23        8.794474   0.000000
   24        8.931418   0.000000

 -0.4615385E+00  0.1538462E+00 -0.2143670E-16  0.1092399E-01
    1      -33.218571   1.000000
    2      -15.616238   1.000000
    3      -15.615296   1.000000
    4      -15.585561   1.000000
    5      -15.583166   1.000000
    6      -15.582467   1.000000
    7      -11.191408   1.000000
    8      -11.071731   1.000000
    9      -11.055204   1.000000
   10       -3.771113   1.000000
   11        1.882487   1.000000
   12        2.942193   1.000000
   13        2.979486   1.000000
   14        3.742459   1.000000
   15        3.783419   1.000000
   16        3.863467   1.000000
   17        5.257317   1.000000
   18        5.632568   1.000000
   19        7.178467   0.886386
   20        8.306696   0.000000
   21        8.539090   0.000000
   22        8.777880   0.000000
   23        8.788958   0.000000
   24        8.910403   0.000000

 -0.3846154E+00  0.1538462E+00 -0.3138296E-16  0.1092399E-01
    1      -33.218663   1.000000
    2      -15.617234   1.000000
    3      -15.614337   1.000000
    4      -15.585411   1.000000
    5      -15.583227   1.000000
    6      -15.582652   1.000000
    7      -11.186606   1.000000
    8      -11.077008   1.000000
    9      -11.050686   1.000000
   10       -3.786038   1.000000
   11        1.889444   1.000000
   12        2.877351   1.000000
   13        3.039714   1.000000
   14        3.694298   1.000000
   15        3.864392   1.000000
   16        3.898631   1.000000
   17        5.214303   1.000000
   18        5.641591   1.000000
   19        7.205266   0.004906
   20        8.334330   0.000000
   21        8.466522   0.000000
   22        8.778916   0.000000
   23        8.801823   0.000000
   24        8.917043   0.000000

 -0.3076923E+00  0.1538462E+00 -0.1472919E-16  0.1092399E-01
    1      -33.218994   1.000000
    2      -15.617441   1.000000
    3      -15.613266   1.000000
    4      -15.585260   1.000000
    5      -15.583319   1.000000
    6      -15.582988   1.000000
    7      -11.171185   1.000000
    8      -11.081199   1.000000
    9      -11.048249   1.000000
   10       -3.861108   1.000000
   11        1.950976   1.000000
   12        2.814745   1.000000
   13        3.170970   1.000000
   14        3.674974   1.000000
   15        3.942808   1.000000
   16        4.030630   1.000000
   17        5.143866   1.000000
   18        5.684641   1.000000
   19        7.189340   0.370634
   20        8.303670   0.000000
   21        8.343769   0.000000
   22        8.786418   0.000000
   23        8.796081   0.000000
   24        8.938394   0.000000

 -0.2307692E+00  0.1538462E+00  0.9231991E-17  0.1092399E-01
    1      -33.219489   1.000000
    2      -15.616828   1.000000
    3      -15.612331   1.000000
    4      -15.585142   1.000000
    5      -15.583444   1.000000
    6      -15.583394   1.000000
    7      -11.149081   1.000000
    8      -11.082271   1.000000
    9      -11.048463   1.000000
   10       -3.981756   1.000000
   11        2.088801   1.000000
   12        2.807915   1.000000
   13        3.302819   1.000000
   14        3.672232   1.000000
   15        3.981710   1.000000
   16        4.229793   1.000000
   17        5.102092   1.000000
   18        5.781641   1.000000
   19        7.175688   0.945262
   20        8.080961   0.000000
   21        8.170347   0.000000
   22        8.694754   0.000000
   23        8.818871   0.000000
   24        8.974319   0.000000

 -0.1538462E+00  0.1538462E+00 -0.8021671E-17  0.5461994E-02
    1      -33.220037   1.000000
    2      -15.615522   1.000000
    3      -15.611743   1.000000
    4      -15.585037   1.000000
    5      -15.583765   1.000000
    6      -15.583627   1.000000
    7      -11.126612   1.000000
    8      -11.078162   1.000000
    9      -11.051295   1.000000
   10       -4.121107   1.000000
   11        2.309955   1.000000
   12        2.863049   1.000000
   13        3.381330   1.000000
   14        3.667780   1.000000
   15        3.962551   1.000000
   16        4.408596   1.000000
   17        5.233530   1.000000
   18        5.918734   1.000000
   19        7.080544   1.000000
   20        7.858981   0.000000
   21        7.862266   0.000000
   22        8.514256   0.000000
   23        8.843536   0.000000
   24        8.852111   0.000000

  0.2307692E+00  0.2307692E+00  0.6683896E-17  0.2730997E-02
    1      -33.219872   1.000000
    2      -15.615368   1.000000
    3      -15.609559   1.000000
    4      -15.585857   1.000000
    5      -15.583149   1.000000
    6      -15.583149   1.000000
    7      -11.115012   1.000000
    8      -11.076052   1.000000
    9      -11.076052   1.000000
   10       -4.127888   1.000000
   11        2.095026   1.000000
   12        3.400243   1.000000
   13        3.400243   1.000000
   14        3.622590   1.000000
   15        3.743338   1.000000
   16        4.554392   1.000000
   17        5.598811   1.000000
   18        5.598811   1.000000
   19        6.829569   1.000000
   20        7.440304   0.000000
   21        8.362858   0.000000
   22        8.362858   0.000000
   23        8.808010   0.000000
   24        8.845267   0.000000

  0.3076923E+00  0.2307692E+00  0.1279056E-16  0.1092399E-01
    1      -33.219430   1.000000
    2      -15.615276   1.000000
    3      -15.609741   1.000000
    4      -15.586145   1.000000
    5      -15.582831   1.000000
    6      -15.582737   1.000000
    7      -11.133839   1.000000
    8      -11.077420   1.000000
    9      -11.076693   1.000000
   10       -4.044665   1.000000
   11        2.016361   1.000000
   12        3.265955   1.000000
   13        3.373551   1.000000
   14        3.674551   1.000000
   15        3.771826   1.000000
   16        4.431231   1.000000
   17        5.426880   1.000000
   18        5.564163   1.000000
   19        6.976621   1.000000
   20        7.612976   0.000000
   21        8.455859   0.000000
   22        8.500280   0.000000
   23        8.786436   0.000000
   24        8.864112   0.000000

  0.3846154E+00  0.2307692E+00  0.1479756E-16  0.1092399E-01
    1      -33.218970   1.000000
    2      -15.614816   1.000000
    3      -15.610791   1.000000
    4      -15.586208   1.000000
    5      -15.582705   1.000000
    6      -15.582364   1.000000
    7      -11.154677   1.000000
    8      -11.078251   1.000000
    9      -11.075427   1.000000
   10       -3.954765   1.000000
   11        2.019402   1.000000
   12        3.083183   1.000000
   13        3.302024   1.000000
   14        3.760539   1.000000
   15        3.779055   1.000000
   16        4.248157   1.000000
   17        5.197100   1.000000
   18        5.567477   1.000000
   19        7.100919   1.000000
   20        7.985570   0.000000
   21        8.526146   0.000000
   22        8.653137   0.000000
   23        8.780463   0.000000
   24        8.877711   0.000000

  0.4615385E+00  0.2307692E+00  0.1565316E-16  0.1092399E-01
    1      -33.218593   1.000000
    2      -15.614105   1.000000
    3      -15.612458   1.000000
    4      -15.586025   1.000000
    5      -15.582815   1.000000
    6      -15.582135   1.000000
    7      -11.169680   1.000000
    8      -11.083644   1.000000
    9      -11.070531   1.000000
   10       -3.877200   1.000000
   11        2.071832   1.000000
   12        2.961812   1.000000
   13        3.190744   1.000000
   14        3.789576   1.000000
   15        3.797008   1.000000
   16        4.075190   1.000000
   17        5.037416   1.000000
   18        5.569860   1.000000
   19        7.159594   0.999947
   20        8.265098   0.000000
   21        8.578306   0.000000
   22        8.721954   0.000000
   23        8.778964   0.000000
   24        8.959624   0.000000

 -0.4615385E+00  0.2307692E+00 -0.7638216E-17  0.1092399E-01
    1      -33.218390   1.000000
    2      -15.614348   1.000000
    3      -15.613314   1.000000
    4      -15.585628   1.000000
    5      -15.583114   1.000000
    6      -15.582105   1.000000
    7      -11.175628   1.000000
    8      -11.091898   1.000000
    9      -11.063840   1.000000
   10       -3.825386   1.000000
   11        2.109344   1.000000
   12        2.928729   1.000000
   13        3.054921   1.000000
   14        3.749246   1.000000
   15        3.848164   1.000000
   16        3.994933   1.000000
   17        4.944661   1.000000
   18        5.557911   1.000000
   19        7.260599   0.000000
   20        8.253940   0.000000
   21        8.605157   0.000000
   22        8.762093   0.000000
   23        8.766758   0.000000
   24        8.921108   0.000000

 -0.3846154E+00  0.2307692E+00 -0.1758447E-16  0.1092399E-01
    1      -33.218405   1.000000
    2      -15.616033   1.000000
    3      -15.612629   1.000000
    4      -15.585146   1.000000
    5      -15.583493   1.000000
    6      -15.582286   1.000000
    7      -11.172631   1.000000
    8      -11.100018   1.000000
    9      -11.056872   1.000000
   10       -3.807941   1.000000
   11        2.083930   1.000000
   12        2.925156   1.000000
   13        2.985389   1.000000
   14        3.703235   1.000000
   15        3.919994   1.000000
   16        4.016217   1.000000
   17        4.878869   1.000000
   18        5.550472   1.000000
   19        7.376288   0.000000
   20        8.215215   0.000000
   21        8.571811   0.000000
   22        8.756627   0.000000