       N       E                     dE             d eps       ncg     rms          rms(c)
DAV:   1     0.435858379143E+03    0.43586E+03   -0.20180E+04  4032   0.196E+03
DAV:   2     0.458494067754E+02   -0.39001E+03   -0.38271E+03  4208   0.482E+02
DAV:   3    -0.183128036410E+02   -0.64162E+02   -0.63295E+02  5512   0.164E+02
DAV:   4    -0.226368202569E+02   -0.43240E+01   -0.43036E+01  7256   0.442E+01
DAV:   5    -0.227743386606E+02   -0.13752E+00   -0.13747E+00  5536   0.625E+00    0.274E+01
DAV:   6    -0.217212091626E+02    0.10531E+01   -0.21416E+00  5128   0.799E+00    0.176E+01
DAV:   7    -0.216182715113E+02    0.10294E+00   -0.28001E+00  6120   0.861E+00    0.640E+00
DAV:   8    -0.215501537115E+02    0.68118E-01   -0.55605E-01  5112   0.336E+00    0.399E+00
DAV:   9    -0.215467567167E+02    0.33970E-02   -0.13769E-01  6264   0.198E+00    0.101E+00
DAV:  10    -0.215440695882E+02    0.26871E-02   -0.26132E-02  4928   0.102E+00    0.737E-01
DAV:  11    -0.215421283595E+02    0.19412E-02   -0.15304E-02  5968   0.611E-01    0.191E-01
DAV:  12    -0.215419908267E+02    0.13753E-03   -0.21223E-03  6728   0.262E-01    0.609E-02
DAV:  13    -0.215419997592E+02   -0.89325E-05   -0.10379E-04  5600   0.581E-02    0.360E-02
DAV:  14    -0.215419944061E+02    0.53532E-05   -0.28603E-05  6152   0.264E-02    0.668E-03
DAV:  15    -0.215419943246E+02    0.81482E-07   -0.32276E-06  5792   0.901E-03    0.112E-02
DAV:  16    -0.215419944652E+02   -0.14060E-06   -0.28669E-07  4128   0.416E-03    0.257E-03
DAV:  17    -0.215419944644E+02    0.74851E-09   -0.42940E-08  3872   0.186E-03
   1 F= -.21541994E+02 E0= -.21541760E+02  d E =-.469013E-03
