 vasp.6.0.8 29Jun18 (build Jun 13 2019 12:54:44) complex

 executed on      IFC18_CrayMPICH date 2021.12.05  14:21:47
 running   64 mpi-ranks, with    1 threads/rank
 distrk:  each k-point on   16 cores,    4 groups
 distr:  one band on NCORES_PER_BAND=   4 cores,    4 groups


--------------------------------------------------------------------------------------------------------


 INCAR:
 POTCAR:    PAW_PBE Th 07Sep2000
 POTCAR:    PAW_PBE Bi_d 06Sep2000
 POTCAR:    PAW_PBE Pt 04Feb2005
 POTCAR:    PAW_PBE Th 07Sep2000
   VRHFIN =Th:  [Xe,5d,4f]
   LEXCH  = PE
   EATOM  =   984.7553 eV,   72.3775 Ry

   TITEL  = PAW_PBE Th 07Sep2000
   LULTRA =        F    use ultrasoft PP ?
   IUNSCR =        1    unscreen: 0-lin 1-nonlin 2-no
   RPACOR =    2.200    partial core radius
   POMASS =  232.039; ZVAL   =   12.000    mass and valenz
   RCORE  =    2.800    outmost cutoff radius
   RWIGS  =    3.000; RWIGS  =    1.588    wigner-seitz radius (au A)
   ENMAX  =  247.306; ENMIN  =  185.480 eV
   RCLOC  =    2.211    cutoff for local pot
   LCOR   =        T    correct aug charges
   LPAW   =        T    paw PP
   EAUG   =  535.431
   DEXC   =    0.000
   RMAX   =    2.862    core radius for proj-oper
   RAUG   =    1.300    factor for augmentation sphere
   RDEP   =    2.926    radius for radial grids
   RDEPT  =    2.250    core radius for aug-charge

   Atomic configuration
   18 entries
     n  l   j            E        occ.
     1  0  0.50   -109990.1879   2.0000
     2  0  0.50    -20388.0147   2.0000
     2  1  1.50    -17049.6156   6.0000
     3  0  0.50     -5106.5436   2.0000
     3  1  1.50     -4175.1262   6.0000
     3  2  2.50     -3342.8437  10.0000
     4  0  0.50     -1280.8211   2.0000
     4  1  1.50      -976.4859   6.0000
     4  2  2.50      -661.8358  10.0000
     4  3  3.50      -324.9124  14.0000
     5  0  0.50      -278.7726   2.0000
     5  1  1.50      -186.2212   6.0000
     5  2  2.50       -86.9031  10.0000
     6  0  0.50       -43.3059   2.0000
     7  0  0.50        -4.0783   2.0000
     6  1  1.50       -21.4071   6.0000
     6  2  1.50        -2.3664   1.0000
     5  3  2.50        -1.2804   1.0000
   Description
     l       E           TYP  RCUT    TYP  RCUT
     0    -43.3059201     23  2.800
     0     -4.0782900     23  2.800
     1    -21.4071032     23  2.500
     1    -22.7676858     23  2.500
     2     -2.3664170     23  2.500
     2      3.0546543     23  2.500
     3     -1.2803910     23  2.800
     3      0.1360583     23  2.800
  local pseudopotential read in
  partial core-charges read in
  partial kinetic energy density read in
  atomic valenz-charges read in
  non local Contribution for L=           0  read in
    real space projection operators read in
  non local Contribution for L=           0  read in
    real space projection operators read in
  non local Contribution for L=           1  read in
    real space projection operators read in
  non local Contribution for L=           1  read in
    real space projection operators read in
  non local Contribution for L=           2  read in
    real space projection operators read in
  non local Contribution for L=           2  read in
    real space projection operators read in
  non local Contribution for L=           3  read in
    real space projection operators read in
  non local Contribution for L=           3  read in
    real space projection operators read in
    PAW grid and wavefunctions read in

   number of l-projection  operators is LMAX  =           8
   number of lm-projection operators is LMMAX =          32

 POTCAR:    PAW_PBE Bi_d 06Sep2000
   VRHFIN =Bi:
   LEXCH  = PE
   EATOM  =  1959.2045 eV,  143.9975 Ry

   TITEL  = PAW_PBE Bi_d 06Sep2000
   LULTRA =        F    use ultrasoft PP ?
   IUNSCR =        1    unscreen: 0-lin 1-nonlin 2-no
   RPACOR =    2.200    partial core radius
   POMASS =  208.980; ZVAL   =   15.000    mass and valenz
   RCORE  =    2.500    outmost cutoff radius
   RWIGS  =    3.090; RWIGS  =    1.635    wigner-seitz radius (au A)
   ENMAX  =  242.839; ENMIN  =  182.129 eV
   ICORE  =        3    local potential
   LCOR   =        T    correct aug charges
   LPAW   =        T    paw PP
   EAUG   =  442.899
   DEXC   =    0.000
   RMAX   =    2.551    core radius for proj-oper
   RAUG   =    1.300    factor for augmentation sphere
   RDEP   =    2.650    radius for radial grids
   RDEPT  =    2.039    core radius for aug-charge

   Atomic configuration
   16 entries
     n  l   j            E        occ.
     1  0  0.50    -90639.6581   2.0000
     2  0  0.50    -16282.4666   2.0000
     2  1  1.50    -13922.8286   6.0000
     3  0  0.50     -3930.4763   2.0000
     3  1  1.50     -3256.7013   6.0000
     3  2  2.50     -2581.6168  10.0000
     4  0  0.50      -902.2614   2.0000
     4  1  1.50      -681.5915   6.0000
     4  2  2.50      -429.8249  10.0000
     4  3  3.50      -152.6004  14.0000
     5  0  0.50      -157.7156   2.0000
     5  1  1.50       -95.8054   6.0000
     5  2  2.50       -27.0806  10.0000
     6  0  0.50       -14.4732   2.0000
     6  1  1.50        -4.5702   3.0000
     5  3  2.50        -2.7212   0.0000
   Description
     l       E           TYP  RCUT    TYP  RCUT
     2    -27.0805982     23  2.500
     2     -1.3605826     23  2.500
     0    -14.4732271     23  2.500
     0      6.8029130     23  2.500
     1     -4.5701651     23  2.500
     1     13.6058260     23  2.500
     3     -1.3605826      7  2.500
  local pseudopotential read in
  partial core-charges read in
  partial kinetic energy density read in
  atomic valenz-charges read in
  non local Contribution for L=           2  read in
    real space projection operators read in
  non local Contribution for L=           2  read in
    real space projection operators read in
  non local Contribution for L=           0  read in
    real space projection operators read in
  non local Contribution for L=           0  read in
    real space projection operators read in
  non local Contribution for L=           1  read in
    real space projection operators read in
  non local Contribution for L=           1  read in
    real space projection operators read in
    PAW grid and wavefunctions read in

   number of l-projection  operators is LMAX  =           6
   number of lm-projection operators is LMMAX =          18

 POTCAR:    PAW_PBE Pt 04Feb2005
   VRHFIN =Pt: s1d9
   LEXCH  = PE
   EATOM  =   729.1176 eV,   53.5886 Ry

   TITEL  = PAW_PBE Pt 04Feb2005
   LULTRA =        F    use ultrasoft PP ?
   IUNSCR =        1    unscreen: 0-lin 1-nonlin 2-no
   RPACOR =    2.330    partial core radius
   POMASS =  195.080; ZVAL   =   10.000    mass and valenz
   RCORE  =    2.600    outmost cutoff radius
   RWIGS  =    2.750; RWIGS  =    1.455    wigner-seitz radius (au A)
   ENMAX  =  230.283; ENMIN  =  172.712 eV
   ICORE  =        3    local potential
   LCOR   =        T    correct aug charges
   LPAW   =        T    paw PP
   EAUG   =  358.966
   DEXC   =    0.000
   RMAX   =    2.658    core radius for proj-oper
   RAUG   =    1.300    factor for augmentation sphere
   RDEP   =    2.761    radius for radial grids
   RDEPT  =    2.203    core radius for aug-charge

   Atomic configuration
   16 entries
     n  l   j            E        occ.
     1  0  0.50    -78401.1885   2.0000
     2  0  0.50    -13770.7750   2.0000
     2  1  1.50    -11931.0468   6.0000
     3  0  0.50     -3234.7234   2.0000
     3  1  1.50     -2699.2216   6.0000
     3  2  2.50     -2119.5714  10.0000
     4  0  0.50      -695.1528   2.0000
     4  1  1.50      -519.6034   6.0000
     4  2  2.50      -306.6786  10.0000
     4  3  3.50       -70.1041  14.0000
     5  0  0.50      -101.7747   2.0000
     5  1  1.50       -55.9873   6.0000
     5  2  2.50        -6.1423   9.0000
     6  0  0.50        -5.6573   1.0000
     6  1  1.50        -6.8029   0.0000
     5  3  2.50        -1.3606   0.0000
   Description
     l       E           TYP  RCUT    TYP  RCUT
     2     -6.1423404     23  2.500
     2     -7.5029230     23  2.500
     0     -5.6573207     23  2.500
     0      0.7416693     23  2.500
     1     -2.7211652     23  2.600
     1     20.4087390     23  2.600
     3     -1.3605826     23  2.500
  local pseudopotential read in
  partial core-charges read in
  partial kinetic energy density read in
  atomic valenz-charges read in
  non local Contribution for L=           2  read in
    real space projection operators read in
  non local Contribution for L=           2  read in
    real space projection operators read in
  non local Contribution for L=           0  read in
    real space projection operators read in
  non local Contribution for L=           0  read in
    real space projection operators read in
  non local Contribution for L=           1  read in
    real space projection operators read in
  non local Contribution for L=           1  read in
    real space projection operators read in
    PAW grid and wavefunctions read in

   number of l-projection  operators is LMAX  =           6
   number of lm-projection operators is LMMAX =          18

 WARNING: PSMAXN for non-local potential too small
          PSMAXN should be >   13.5545592237991       NTYP=           1

 -----------------------------------------------------------------------------
|                                                                             |
|  ADVICE TO THIS USER RUNNING 'VASP/VAMP'   (HEAR YOUR MASTER'S VOICE ...):  |
|                                                                             |
|      You enforced a specific xc-type in the INCAR file,                     |
|      a different type was found on the POTCAR file                          |
|          I HOPE YOU KNOW, WHAT YOU ARE  DOING                               |
|                                                                             |
 -----------------------------------------------------------------------------

  PAW_PBE Th 07Sep2000                  :
 energy of atom  1       EATOM= -984.7553
 kinetic energy error for atom=    0.0005 (will be added to EATOM!!)
  PAW_PBE Bi_d 06Sep2000                :
 energy of atom  2       EATOM=-1959.2045
 kinetic energy error for atom=    0.0012 (will be added to EATOM!!)
  PAW_PBE Pt 04Feb2005                  :
 energy of atom  3       EATOM= -729.1176
 kinetic energy error for atom=    0.0010 (will be added to EATOM!!)


 POSCAR: Th1 Bi1 Pt1
  positions in direct lattice
  No initial velocities read in
 exchange correlation table for  LEXCH =       14
   RHO(1)=    0.500       N(1)  =     2000
   RHO(2)=  100.500       N(2)  =     4000



--------------------------------------------------------------------------------------------------------


 ion  position               nearest neighbor table
   1  0.250  0.250  0.250-   3 3.08   3 3.08   3 3.08   3 3.08   2 3.56   2 3.56   2 3.56   2 3.56
                             2 3.56   2 3.56
   2  0.750  0.750  0.750-   3 3.08   3 3.08   3 3.08   3 3.08   1 3.56   1 3.56   1 3.56   1 3.56
                             1 3.56   1 3.56
   3  0.000  0.000  0.000-   2 3.08   2 3.08   2 3.08   1 3.08   2 3.08   1 3.08   1 3.08   1 3.08


  LATTYP: Found a face centered cubic cell.
 ALAT       =     7.1134240629

  Lattice vectors:

 A1 = (   0.0000000000,   3.5567120314,   3.5567120314)
 A2 = (   3.5567120314,   0.0000000000,   3.5567120314)
 A3 = (   3.5567120314,   3.5567120314,   0.0000000000)


Analysis of symmetry for initial positions (statically):
=====================================================================
 Subroutine PRICEL returns:
 Original cell was already a primitive cell.


 Routine SETGRP: Setting up the symmetry group for a
 face centered cubic supercell.


 Subroutine GETGRP returns: Found 24 space group operations
 (whereof 24 operations were pure point group operations)
 out of a pool of 48 trial point group operations.


The static configuration has the point symmetry T_d .


Analysis of symmetry for dynamics (positions and initial velocities):
=====================================================================
 Subroutine PRICEL returns:
 Original cell was already a primitive cell.


 Routine SETGRP: Setting up the symmetry group for a
 face centered cubic supercell.


 Subroutine GETGRP returns: Found 24 space group operations
 (whereof 24 operations were pure point group operations)
 out of a pool of 48 trial point group operations.


The dynamic configuration has the point symmetry T_d .


 Subroutine INISYM returns: Found 24 space group operations
 (whereof 24 operations are pure point group operations),
 and found     1 'primitive' translations


----------------------------------------------------------------------------------------

                                     Primitive cell

  volume of cell :      89.9862

  direct lattice vectors                    reciprocal lattice vectors
     0.000000000  3.556712031  3.556712031    -0.140579275  0.140579275  0.140579275
     3.556712031  0.000000000  3.556712031     0.140579275 -0.140579275  0.140579275
     3.556712031  3.556712031  0.000000000     0.140579275  0.140579275 -0.140579275

  length of vectors
     5.029950392  5.029950392  5.029950392     0.243490447  0.243490447  0.243490447

  position of ions in fractional coordinates (direct lattice)
     0.250000000  0.250000000  0.250000000
     0.750000000  0.750000000  0.750000000
     0.000000000  0.000000000  0.000000000

  ion indices of the primitive-cell ions
   primitive index   ion index
                 1           1
                 2           2
                 3           3

----------------------------------------------------------------------------------------



 KPOINTS: KPOINTS

Automatic generation of k-mesh.
Space group operators:
 irot       det(A)        alpha          n_x          n_y          n_z        tau_x        tau_y        tau_z
    1     1.000000     0.000000     1.000000     0.000000     0.000000     0.000000     0.000000     0.000000
    2     1.000000   120.000000    -0.577350    -0.577350    -0.577350     0.000000     0.000000     0.000000
    3     1.000000   120.000000     0.577350     0.577350     0.577350     0.000000     0.000000     0.000000
    4    -1.000000    90.000000     0.000000    -0.000000    -1.000000     0.000000     0.000000     0.000000
    5    -1.000000   180.000000    -0.000000     0.707107     0.707107     0.000000     0.000000     0.000000
    6    -1.000000    90.000000     0.000000     1.000000     0.000000     0.000000     0.000000     0.000000
    7     1.000000   180.000000     0.000000     0.000000     1.000000     0.000000     0.000000     0.000000
    8     1.000000   120.000000    -0.577350     0.577350     0.577350     0.000000     0.000000     0.000000
    9     1.000000   120.000000    -0.577350     0.577350    -0.577350     0.000000     0.000000     0.000000
   10    -1.000000    90.000000     0.000000     0.000000     1.000000     0.000000     0.000000     0.000000
   11    -1.000000    90.000000    -1.000000    -0.000000    -0.000000     0.000000     0.000000     0.000000
   12    -1.000000   180.000000     0.707107     0.000000     0.707107     0.000000     0.000000     0.000000
   13     1.000000   120.000000     0.577350    -0.577350     0.577350     0.000000     0.000000     0.000000
   14     1.000000   120.000000    -0.577350    -0.577350     0.577350     0.000000     0.000000     0.000000
   15     1.000000   180.000000     1.000000     0.000000     0.000000     0.000000     0.000000     0.000000
   16    -1.000000    90.000000     0.000000    -1.000000     0.000000     0.000000     0.000000     0.000000
   17    -1.000000   180.000000     0.707107     0.707107     0.000000     0.000000     0.000000     0.000000
   18    -1.000000    90.000000     1.000000     0.000000    -0.000000     0.000000     0.000000     0.000000
   19     1.000000   120.000000     0.577350    -0.577350    -0.577350     0.000000     0.000000     0.000000
   20     1.000000   180.000000     0.000000    -1.000000     0.000000     0.000000     0.000000     0.000000
   21     1.000000   120.000000     0.577350     0.577350    -0.577350     0.000000     0.000000     0.000000
   22    -1.000000   180.000000     0.000000    -0.707107     0.707107     0.000000     0.000000     0.000000
   23    -1.000000   180.000000    -0.707107     0.707107     0.000000     0.000000     0.000000     0.000000
   24    -1.000000   180.000000     0.707107     0.000000    -0.707107     0.000000     0.000000     0.000000

 Subroutine IBZKPT returns following result:
 ===========================================

 Found     84 irreducible k-points:

 Following reciprocal coordinates:
            Coordinates               Weight
  0.000000  0.000000  0.000000      1.000000
  0.076923 -0.000000  0.000000      8.000000
  0.153846 -0.000000  0.000000      8.000000
  0.230769 -0.000000  0.000000      8.000000
  0.307692 -0.000000  0.000000      8.000000
  0.384615  0.000000 -0.000000      8.000000
  0.461538 -0.000000  0.000000      8.000000
  0.076923  0.076923  0.000000      6.000000
  0.153846  0.076923  0.000000     24.000000
  0.230769  0.076923  0.000000     24.000000
  0.307692  0.076923  0.000000     24.000000
  0.384615  0.076923  0.000000     24.000000
  0.461538  0.076923  0.000000     24.000000
 -0.461538  0.076923 -0.000000     24.000000
 -0.384615  0.076923 -0.000000     24.000000
 -0.307692  0.076923  0.000000     24.000000
 -0.230769  0.076923 -0.000000     24.000000
 -0.153846  0.076923 -0.000000     24.000000
 -0.076923  0.076923 -0.000000     12.000000
  0.153846  0.153846  0.000000      6.000000
  0.230769  0.153846  0.000000     24.000000
  0.307692  0.153846  0.000000     24.000000
  0.384615  0.153846  0.000000     24.000000
  0.461538  0.153846  0.000000     24.000000
 -0.461538  0.153846 -0.000000     24.000000
 -0.384615  0.153846 -0.000000     24.000000
 -0.307692  0.153846 -0.000000     24.000000
 -0.230769  0.153846  0.000000     24.000000
 -0.153846  0.153846 -0.000000     12.000000
  0.230769  0.230769  0.000000      6.000000
  0.307692  0.230769  0.000000     24.000000
  0.384615  0.230769  0.000000     24.000000
  0.461538  0.230769  0.000000     24.000000
 -0.461538  0.230769 -0.000000     24.000000
 -0.384615  0.230769 -0.000000     24.000000
 -0.307692  0.230769 -0.000000     24.000000
 -0.230769  0.230769 -0.000000     12.000000
  0.307692  0.307692  0.000000      6.000000
  0.384615  0.307692  0.000000     24.000000
  0.461538  0.307692  0.000000     24.000000
 -0.461538  0.307692  0.000000     24.000000
 -0.384615  0.307692  0.000000     24.000000
 -0.307692  0.307692 -0.000000     12.000000
  0.384615  0.384615  0.000000      6.000000
  0.461538  0.384615  0.000000     24.000000
 -0.461538  0.384615 -0.000000     24.000000
 -0.384615  0.384615  0.000000     12.000000
  0.461538  0.461538  0.000000      6.000000
 -0.461538  0.461538 -0.000000     12.000000
  0.230769  0.153846  0.076923     24.000000
  0.307692  0.153846  0.076923     48.000000
  0.384615  0.153846  0.076923     48.000000
  0.461538  0.153846  0.076923     48.000000
 -0.461538  0.153846  0.076923     48.000000
  0.307692  0.230769  0.076923     24.000000
  0.384615  0.230769  0.076923     48.000000
  0.461538  0.230769  0.076923     48.000000
 -0.461538  0.230769  0.076923     48.000000
 -0.384615  0.230769  0.076923     48.000000
 -0.307692  0.230769  0.076923     48.000000
 -0.230769  0.230769  0.076923     48.000000
 -0.153846  0.230769  0.076923     24.000000
  0.384615  0.307692  0.076923     24.000000
  0.461538  0.307692  0.076923     48.000000
 -0.461538  0.307692  0.076923     48.000000
 -0.384615  0.307692  0.076923     48.000000
 -0.307692  0.307692  0.076923     48.000000
 -0.230769  0.307692  0.076923     24.000000
  0.461538  0.384615  0.076923     24.000000
 -0.461538  0.384615  0.076923     48.000000
 -0.384615  0.384615  0.076923     48.000000
 -0.307692  0.384615  0.076923     24.000000
 -0.461538  0.461538  0.076923     24.000000
 -0.384615  0.461538  0.076923     24.000000
  0.461538  0.307692  0.153846     24.000000
 -0.461538  0.307692  0.153846     48.000000
 -0.384615  0.307692  0.153846     48.000000
 -0.461538  0.384615  0.153846     24.000000
 -0.384615  0.384615  0.153846     48.000000
 -0.307692  0.384615  0.153846     48.000000
 -0.230769  0.384615  0.153846     24.000000
 -0.384615  0.461538  0.153846     24.000000
 -0.307692  0.461538  0.153846     24.000000
 -0.307692  0.461538  0.230769     24.000000

 Following cartesian coordinates:
            Coordinates               Weight
  0.000000  0.000000  0.000000      1.000000
 -0.011230  0.011230  0.011230      8.000000
 -0.022460  0.022460  0.022460      8.000000
 -0.033690  0.033690  0.033690      8.000000
 -0.044920  0.044920  0.044920      8.000000
 -0.056151  0.056151  0.056151      8.000000
 -0.067381  0.067381  0.067381      8.000000
  0.000000  0.000000  0.022460      6.000000
 -0.011230  0.011230  0.033690     24.000000
 -0.022460  0.022460  0.044920     24.000000
 -0.033690  0.033690  0.056151     24.000000
 -0.044920  0.044920  0.067381     24.000000
 -0.056151  0.056151  0.078611     24.000000
  0.078611 -0.078611 -0.056151     24.000000
  0.067381 -0.067381 -0.044920     24.000000
  0.056151 -0.056151 -0.033690     24.000000
  0.044920 -0.044920 -0.022460     24.000000
  0.033690 -0.033690 -0.011230     24.000000
  0.022460 -0.022460  0.000000     12.000000
 -0.000000  0.000000  0.044920      6.000000
 -0.011230  0.011230  0.056151     24.000000
 -0.022460  0.022460  0.067381     24.000000
 -0.033690  0.033690  0.078611     24.000000
 -0.044920  0.044920  0.089841     24.000000
  0.089841 -0.089841 -0.044920     24.000000
  0.078611 -0.078611 -0.033690     24.000000
  0.067381 -0.067381 -0.022460     24.000000
  0.056151 -0.056151 -0.011230     24.000000
  0.044920 -0.044920  0.000000     12.000000
 -0.000000  0.000000  0.067381      6.000000
 -0.011230  0.011230  0.078611     24.000000
 -0.022460  0.022460  0.089841     24.000000
 -0.033690  0.033690  0.101071     24.000000
  0.101071 -0.101071 -0.033690     24.000000
  0.089841 -0.089841 -0.022460     24.000000
  0.078611 -0.078611 -0.011230     24.000000
  0.067381 -0.067381  0.000000     12.000000
 -0.000000  0.000000  0.089841      6.000000
 -0.011230  0.011230  0.101071     24.000000
 -0.022460  0.022460  0.112301     24.000000
  0.112301 -0.112301 -0.022460     24.000000
  0.101071 -0.101071 -0.011230     24.000000
  0.089841 -0.089841  0.000000     12.000000
  0.000000 -0.000000  0.112301      6.000000
 -0.011230  0.011230  0.123531     24.000000
  0.123531 -0.123531 -0.011230     24.000000
  0.112301 -0.112301  0.000000     12.000000
  0.000000 -0.000000  0.134761      6.000000
  0.134761 -0.134761  0.000000     12.000000
 -0.000000  0.022460  0.044920     24.000000
 -0.011230  0.033690  0.056151     48.000000
 -0.022460  0.044920  0.067381     48.000000
 -0.033690  0.056151  0.078611     48.000000
  0.101071 -0.078611 -0.056151     48.000000
  0.000000  0.022460  0.067381     24.000000
 -0.011230  0.033690  0.078611     48.000000
 -0.022460  0.044920  0.089841     48.000000
  0.112301 -0.089841 -0.044920     48.000000
  0.101071 -0.078611 -0.033690     48.000000
  0.089841 -0.067381 -0.022460     48.000000
  0.078611 -0.056151 -0.011230     48.000000
  0.067381 -0.044920  0.000000     24.000000
  0.000000  0.022460  0.089841     24.000000
 -0.011230  0.033690  0.101071     48.000000
  0.123531 -0.101071 -0.033690     48.000000
  0.112301 -0.089841 -0.022460     48.000000
  0.101071 -0.078611 -0.011230     48.000000
  0.089841 -0.067381 -0.000000     24.000000
  0.000000  0.022460  0.112301     24.000000
  0.134761 -0.112301 -0.022460     48.000000
  0.123531 -0.101071 -0.011230     48.000000
  0.112301 -0.089841  0.000000     24.000000
  0.145991 -0.123531 -0.011230     24.000000
  0.134761 -0.112301 -0.000000     24.000000
 -0.000000  0.044920  0.089841     24.000000
  0.134761 -0.089841 -0.044920     48.000000
  0.123531 -0.078611 -0.033690     48.000000
  0.145991 -0.101071 -0.033690     24.000000
  0.134761 -0.089841 -0.022460     48.000000
  0.123531 -0.078611 -0.011230     48.000000
  0.112301 -0.067381  0.000000     24.000000
  0.145991 -0.101071 -0.011230     24.000000
  0.134761 -0.089841  0.000000     24.000000
  0.145991 -0.078611 -0.011230     24.000000



--------------------------------------------------------------------------------------------------------




 Dimension of arrays:
   k-points           NKPTS =     84   k-points in BZ     NKDIM =     84   number of bands    NBANDS=     24
   number of dos      NEDOS =    301   number of ions     NIONS =      3
   non local maximal  LDIM  =      8   non local SUM 2l+1 LMDIM =     32
   total plane-waves  NPLWV = 110592
   max r-space proj   IRMAX =      1   max aug-charges    IRDMAX= 595623
   dimension x,y,z NGX =    48 NGY =   48 NGZ =   48
   dimension x,y,z NGXF=    96 NGYF=   96 NGZF=   96
   support grid    NGXF=   192 NGYF=  192 NGZF=  192
   ions per type =               1   1   1
   NGX,Y,Z   is equivalent  to a cutoff of  15.86, 15.86, 15.86 a.u.
   NGXF,Y,Z  is equivalent  to a cutoff of  31.73, 31.73, 31.73 a.u.

 SYSTEM =  unknown system
 POSCAR =  Th1 Bi1 Pt1

 Startparameter for this run:
   NWRITE =      2    write-flag & timer
   PREC   = acc       normal or accurate (medium, high low for compatibility)
   ISTART =      0    job   : 0-new  1-cont  2-samecut
   ICHARG =      2    charge: 1-file 2-atom 10-const
   ISPIN  =      1    spin polarized calculation?
   LNONCOLLINEAR =      F non collinear calculations
   LSORBIT =      F    spin-orbit coupling
   INIWAV =      1    electr: 0-lowe 1-rand  2-diag
   LASPH  =      F    aspherical Exc in radial PAW
   METAGGA=      F    non-selfconsistent MetaGGA calc.

 Electronic Relaxation 1
   ENCUT  =  700.0 eV  51.45 Ry    7.17 a.u.  10.85 10.85 10.85*2*pi/ulx,y,z
   ENINI  =  700.0     initial cutoff
   ENAUG  =  535.4 eV  augmentation charge cutoff
   NELM   =     60;   NELMIN=  5; NELMDL= -5     # of ELM steps
   EDIFF  = 0.1E-06   stopping-criterion for ELM
   LREAL  =      F    real-space projection
   NLSPLINE    = F    spline interpolate recip. space projectors
   LCOMPAT=      F    compatible to vasp.4.4
   GGA_COMPAT  = T    GGA compatible to vasp.4.4-vasp.4.6
   LMAXPAW     = -100 max onsite density
   LMAXMIX     =    2 max onsite mixed and CHGCAR
   VOSKOWN=      0    Vosko Wilk Nusair interpolation
   ROPT   =    0.00000   0.00000   0.00000
 Ionic relaxation
   EDIFFG = 0.1E-05   stopping-criterion for IOM
   NSW    =      0    number of steps for IOM
   NBLOCK =      1;   KBLOCK =      1    inner block; outer block
   IBRION =     -1    ionic relax: 0-MD 1-quasi-New 2-CG
   NFREE  =      0    steps in history (QN), initial steepest desc. (CG)
   ISIF   =      3    stress and relaxation
   IWAVPR =     10    prediction:  0-non 1-charg 2-wave 3-comb
   ISYM   =      2    0-nonsym 1-usesym 2-fastsym
   LCORR  =      T    Harris-Foulkes like correction to forces

   POTIM  = 0.5000    time-step for ionic-motion
   TEIN   =    0.0    initial temperature
   TEBEG  =    0.0;   TEEND  =   0.0 temperature during run
   SMASS  =  -3.00    Nose mass-parameter (am)
   estimated Nose-frequenzy (Omega)   =  0.10E-29 period in steps = 0.13E+47 mass=  -0.578E-27a.u.
   SCALEE = 1.0000    scale energy and forces
   NPACO  =    256;   APACO  = 16.0  distance and # of slots for P.C.
   PSTRESS=    0.0 pullay stress

  Mass of Ions in am
   POMASS = 232.04208.98195.08
  Ionic Valenz
   ZVAL   =  12.00 15.00 10.00
  Atomic Wigner-Seitz radii
   RWIGS  =  -1.00 -1.00 -1.00
  virtual crystal weights
   VCA    =   1.00  1.00  1.00
   NELECT =      37.0000    total number of electrons
   NUPDOWN=      -1.0000    fix difference up-down

 DOS related values:
   EMIN   =  10.00;   EMAX   =-10.00  energy-range for DOS
   EFERMI =   0.00
   ISMEAR =     0;   SIGMA  =   0.01  broadening in eV -4-tet -1-fermi 0-gaus

 Electronic relaxation 2 (details)
   IALGO  =     38    algorithm
   LDIAG  =      T    sub-space diagonalisation (order eigenvalues)
   LSUBROT=      F    optimize rotation matrix (better conditioning)
   TURBO    =      0    0=normal 1=particle mesh
   IRESTART =      0    0=no restart 2=restart with 2 vectors
   NREBOOT  =      0    no. of reboots
   NMIN     =      0    reboot dimension
   EREF     =   0.00    reference energy to select bands
   IMIX   =      4    mixing-type and parameters
     AMIX     =   0.40;   BMIX     =  1.00
     AMIX_MAG =   1.60;   BMIX_MAG =  1.00
     AMIN     =   0.10
     WC   =   100.;   INIMIX=   1;  MIXPRE=   1;  MAXMIX= -45

 Intra band minimization:
   WEIMIN = 0.0000     energy-eigenvalue tresh-hold
   EBREAK =  0.10E-08  absolut break condition
   DEPER  =   0.30     relativ break condition

   TIME   =   0.40     timestep for ELM

  volume/ion in A,a.u.               =      30.00       202.42
  Fermi-wavevector in a.u.,A,eV,Ry     =   1.217353  2.300465 20.163147  1.481950
  Thomas-Fermi vector in A             =   2.352677

 Write flags
   LWAVE        =      F    write WAVECAR
   LDOWNSAMPLE  =      F    k-point downsampling of WAVECAR
   LCHARG       =      F    write CHGCAR
   LVTOT        =      F    write LOCPOT, total local potential
   LVHAR        =      F    write LOCPOT, Hartree potential only
   LELF         =      F    write electronic localiz. function (ELF)
   LORBIT       =      0    0 simple, 1 ext, 2 COOP (PROOUT), +10 PAW based schemes


 Dipole corrections
   LMONO  =      F    monopole corrections only (constant potential shift)
   LDIPOL =      F    correct potential (dipole corrections)
   IDIPOL =      0    1-x, 2-y, 3-z, 4-all directions
   EPSILON=  1.0000000 bulk dielectric constant

 Exchange correlation treatment:
   GGA     =    PS    GGA type
   LEXCH   =    14    internal setting for exchange type
   VOSKOWN=      0    Vosko Wilk Nusair interpolation
   LHFCALC =     F    Hartree Fock is set to
   LHFONE  =     F    Hartree Fock one center treatment
   AEXX    =    0.0000 exact exchange contribution

 Linear response parameters
   LEPSILON=     F    determine dielectric tensor
   LRPA    =     F    only Hartree local field effects (RPA)
   LNABLA  =     F    use nabla operator in PAW spheres
   LVEL    =     F    velocity operator in full k-point grid
   LINTERFAST=   F  fast interpolation
   KINTER  =     0    interpolate to denser k-point grid
   CSHIFT  =0.1000    complex shift for real part using Kramers Kronig
   OMEGAMAX=  -1.0    maximum frequency
   DEG_THRESHOLD= 0.2000000E-02 threshold for treating states as degnerate
   RTIME   =   -0.100 relaxation time in fs
  (WPLASMAI=    0.000 imaginary part of plasma frequency in eV, 0.658/RTIME)
   DFIELD  = 0.0000000 0.0000000 0.0000000 field for delta impulse in time

 Orbital magnetization related:
   ORBITALMAG=     F  switch on orbital magnetization
   LCHIMAG   =     F  perturbation theory with respect to B field
   DQ        =  0.001000  dq finite difference perturbation B field
   LLRAUG    =     F  two centre corrections for induced B field



--------------------------------------------------------------------------------------------------------


 Static calculation
 charge density and potential will be updated during run
 non-spin polarized calculation
 Variant of blocked Davidson
 Davidson routine will perform the subspace rotation
 perform sub-space diagonalisation
    after iterative eigenvector-optimisation
 modified Broyden-mixing scheme, WC =      100.0
 initial mixing is a Kerker type mixing with AMIX =  0.4000 and BMIX =      1.0000
 Hartree-type preconditioning will be used
 using additional bands            5
 reciprocal scheme for non local part
 use partial core corrections
 calculate Harris-corrections to forces
   (improved forces if not selfconsistent)
 use gradient corrections
 use of overlap-Matrix (Vanderbilt PP)
 Gauss-broadening in eV      SIGMA  =   0.01


--------------------------------------------------------------------------------------------------------


  energy-cutoff  :      700.00
  volume of cell :       89.99
      direct lattice vectors                 reciprocal lattice vectors
     0.000000000  3.556712031  3.556712031    -0.140579275  0.140579275  0.140579275
     3.556712031  0.000000000  3.556712031     0.140579275 -0.140579275  0.140579275
     3.556712031  3.556712031  0.000000000     0.140579275  0.140579275 -0.140579275

  length of vectors
     5.029950392  5.029950392  5.029950392     0.243490447  0.243490447  0.243490447



 k-points in units of 2pi/SCALE and weight: KPOINTS
   0.00000000  0.00000000  0.00000000       0.000
  -0.01123011  0.01123011  0.01123011       0.004
  -0.02246022  0.02246022  0.02246022       0.004
  -0.03369033  0.03369033  0.03369033       0.004
  -0.04492043  0.04492043  0.04492043       0.004
  -0.05615054  0.05615054  0.05615054       0.004
  -0.06738065  0.06738065  0.06738065       0.004
   0.00000000  0.00000000  0.02246022       0.003
  -0.01123011  0.01123011  0.03369033       0.011
  -0.02246022  0.02246022  0.04492043       0.011
  -0.03369033  0.03369033  0.05615054       0.011
  -0.04492043  0.04492043  0.06738065       0.011
  -0.05615054  0.05615054  0.07861076       0.011
   0.07861076 -0.07861076 -0.05615054       0.011
   0.06738065 -0.06738065 -0.04492043       0.011
   0.05615054 -0.05615054 -0.03369033       0.011
   0.04492043 -0.04492043 -0.02246022       0.011
   0.03369033 -0.03369033 -0.01123011       0.011
   0.02246022 -0.02246022  0.00000000       0.005
  -0.00000000  0.00000000  0.04492043       0.003
  -0.01123011  0.01123011  0.05615054       0.011
  -0.02246022  0.02246022  0.06738065       0.011
  -0.03369033  0.03369033  0.07861076       0.011
  -0.04492043  0.04492043  0.08984087       0.011
   0.08984087 -0.08984087 -0.04492043       0.011
   0.07861076 -0.07861076 -0.03369033       0.011
   0.06738065 -0.06738065 -0.02246022       0.011
   0.05615054 -0.05615054 -0.01123011       0.011
   0.04492043 -0.04492043  0.00000000       0.005
  -0.00000000  0.00000000  0.06738065       0.003
  -0.01123011  0.01123011  0.07861076       0.011
  -0.02246022  0.02246022  0.08984087       0.011
  -0.03369033  0.03369033  0.10107098       0.011
   0.10107098 -0.10107098 -0.03369033       0.011
   0.08984087 -0.08984087 -0.02246022       0.011
   0.07861076 -0.07861076 -0.01123011       0.011
   0.06738065 -0.06738065  0.00000000       0.005
  -0.00000000  0.00000000  0.08984087       0.003
  -0.01123011  0.01123011  0.10107098       0.011
  -0.02246022  0.02246022  0.11230109       0.011
   0.11230109 -0.11230109 -0.02246022       0.011
   0.10107098 -0.10107098 -0.01123011       0.011
   0.08984087 -0.08984087  0.00000000       0.005
   0.00000000 -0.00000000  0.11230109       0.003
  -0.01123011  0.01123011  0.12353119       0.011
   0.12353119 -0.12353119 -0.01123011       0.011
   0.11230109 -0.11230109  0.00000000       0.005
   0.00000000 -0.00000000  0.13476130       0.003
   0.13476130 -0.13476130  0.00000000       0.005
  -0.00000000  0.02246022  0.04492043       0.011
  -0.01123011  0.03369033  0.05615054       0.022
  -0.02246022  0.04492043  0.06738065       0.022
  -0.03369033  0.05615054  0.07861076       0.022
   0.10107098 -0.07861076 -0.05615054       0.022
   0.00000000  0.02246022  0.06738065       0.011
  -0.01123011  0.03369033  0.07861076       0.022
  -0.02246022  0.04492043  0.08984087       0.022
   0.11230109 -0.08984087 -0.04492043       0.022
   0.10107098 -0.07861076 -0.03369033       0.022
   0.08984087 -0.06738065 -0.02246022       0.022
   0.07861076 -0.05615054 -0.01123011       0.022
   0.06738065 -0.04492043  0.00000000       0.011
   0.00000000  0.02246022  0.08984087       0.011
  -0.01123011  0.03369033  0.10107098       0.022
   0.12353119 -0.10107098 -0.03369033       0.022
   0.11230109 -0.08984087 -0.02246022       0.022
   0.10107098 -0.07861076 -0.01123011       0.022
   0.08984087 -0.06738065 -0.00000000       0.011
   0.00000000  0.02246022  0.11230109       0.011
   0.13476130 -0.11230109 -0.02246022       0.022
   0.12353119 -0.10107098 -0.01123011       0.022
   0.11230109 -0.08984087  0.00000000       0.011
   0.14599141 -0.12353119 -0.01123011       0.011
   0.13476130 -0.11230109 -0.00000000       0.011
  -0.00000000  0.04492043  0.08984087       0.011
   0.13476130 -0.08984087 -0.04492043       0.022
   0.12353119 -0.07861076 -0.03369033       0.022
   0.14599141 -0.10107098 -0.03369033       0.011
   0.13476130 -0.08984087 -0.02246022       0.022
   0.12353119 -0.07861076 -0.01123011       0.022
   0.11230109 -0.06738065  0.00000000       0.011
   0.14599141 -0.10107098 -0.01123011       0.011
   0.13476130 -0.08984087  0.00000000       0.011
   0.14599141 -0.07861076 -0.01123011       0.011

 k-points in reciprocal lattice and weights: KPOINTS
   0.00000000  0.00000000  0.00000000       0.000
   0.07692308 -0.00000000  0.00000000       0.004
   0.15384615 -0.00000000  0.00000000       0.004
   0.23076923 -0.00000000  0.00000000       0.004
   0.30769231 -0.00000000  0.00000000       0.004
   0.38461538  0.00000000 -0.00000000       0.004
   0.46153846 -0.00000000  0.00000000       0.004
   0.07692308  0.07692308  0.00000000       0.003
   0.15384615  0.07692308  0.00000000       0.011
   0.23076923  0.07692308  0.00000000       0.011
   0.30769231  0.07692308  0.00000000       0.011
   0.38461538  0.07692308  0.00000000       0.011
   0.46153846  0.07692308  0.00000000       0.011
  -0.46153846  0.07692308 -0.00000000       0.011
  -0.38461538  0.07692308 -0.00000000       0.011
  -0.30769231  0.07692308  0.00000000       0.011
  -0.23076923  0.07692308 -0.00000000       0.011
  -0.15384615  0.07692308 -0.00000000       0.011
  -0.07692308  0.07692308 -0.00000000       0.005
   0.15384615  0.15384615  0.00000000       0.003
   0.23076923  0.15384615  0.00000000       0.011
   0.30769231  0.15384615  0.00000000       0.011
   0.38461538  0.15384615  0.00000000       0.011
   0.46153846  0.15384615  0.00000000       0.011
  -0.46153846  0.15384615 -0.00000000       0.011
  -0.38461538  0.15384615 -0.00000000       0.011
  -0.30769231  0.15384615 -0.00000000       0.011
  -0.23076923  0.15384615  0.00000000       0.011
  -0.15384615  0.15384615 -0.00000000       0.005
   0.23076923  0.23076923  0.00000000       0.003
   0.30769231  0.23076923  0.00000000       0.011
   0.38461538  0.23076923  0.00000000       0.011
   0.46153846  0.23076923  0.00000000       0.011
  -0.46153846  0.23076923 -0.00000000       0.011
  -0.38461538  0.23076923 -0.00000000       0.011
  -0.30769231  0.23076923 -0.00000000       0.011
  -0.23076923  0.23076923 -0.00000000       0.005
   0.30769231  0.30769231  0.00000000       0.003
   0.38461538  0.30769231  0.00000000       0.011
   0.46153846  0.30769231  0.00000000       0.011
  -0.46153846  0.30769231  0.00000000       0.011
  -0.38461538  0.30769231  0.00000000       0.011
  -0.30769231  0.30769231 -0.00000000       0.005
   0.38461538  0.38461538  0.00000000       0.003
   0.46153846  0.38461538  0.00000000       0.011
  -0.46153846  0.38461538 -0.00000000       0.011
  -0.38461538  0.38461538  0.00000000       0.005
   0.46153846  0.46153846  0.00000000       0.003
  -0.46153846  0.46153846 -0.00000000       0.005
   0.23076923  0.15384615  0.07692308       0.011
   0.30769231  0.15384615  0.07692308       0.022
   0.38461538  0.15384615  0.07692308       0.022
   0.46153846  0.15384615  0.07692308       0.022
  -0.46153846  0.15384615  0.07692308       0.022
   0.30769231  0.23076923  0.07692308       0.011
   0.38461538  0.23076923  0.07692308       0.022
   0.46153846  0.23076923  0.07692308       0.022
  -0.46153846  0.23076923  0.07692308       0.022
  -0.38461538  0.23076923  0.07692308       0.022
  -0.30769231  0.23076923  0.07692308       0.022
  -0.23076923  0.23076923  0.07692308       0.022
  -0.15384615  0.23076923  0.07692308       0.011
   0.38461538  0.30769231  0.07692308       0.011
   0.46153846  0.30769231  0.07692308       0.022
  -0.46153846  0.30769231  0.07692308       0.022
  -0.38461538  0.30769231  0.07692308       0.022
  -0.30769231  0.30769231  0.07692308       0.022
  -0.23076923  0.30769231  0.07692308       0.011
   0.46153846  0.38461538  0.07692308       0.011
  -0.46153846  0.38461538  0.07692308       0.022
  -0.38461538  0.38461538  0.07692308       0.022
  -0.30769231  0.38461538  0.07692308       0.011
  -0.46153846  0.46153846  0.07692308       0.011
  -0.38461538  0.46153846  0.07692308       0.011
   0.46153846  0.30769231  0.15384615       0.011
  -0.46153846  0.30769231  0.15384615       0.022
  -0.38461538  0.30769231  0.15384615       0.022
  -0.46153846  0.38461538  0.15384615       0.011
  -0.38461538  0.38461538  0.15384615       0.022
  -0.30769231  0.38461538  0.15384615       0.022
  -0.23076923  0.38461538  0.15384615       0.011
  -0.38461538  0.46153846  0.15384615       0.011
  -0.30769231  0.46153846  0.15384615       0.011
  -0.30769231  0.46153846  0.23076923       0.011

 position of ions in fractional coordinates (direct lattice)
   0.25000000  0.25000000  0.25000000
   0.75000000  0.75000000  0.75000000
   0.00000000  0.00000000  0.00000000

 position of ions in cartesian coordinates  (Angst):
   1.77835602  1.77835602  1.77835602
   5.33506805  5.33506805  5.33506805
   0.00000000  0.00000000  0.00000000



--------------------------------------------------------------------------------------------------------


 k-point  1 :   0.0000 0.0000 0.0000  plane waves:    3767
 k-point  2 :   0.0769-0.0000 0.0000  plane waves:    3779
 k-point  3 :   0.1538-0.0000 0.0000  plane waves:    3777
 k-point  4 :   0.2308-0.0000 0.0000  plane waves:    3777
 k-point  5 :   0.3077-0.0000 0.0000  plane waves:    3774
 k-point  6 :   0.3846 0.0000-0.0000  plane waves:    3786
 k-point  7 :   0.4615-0.0000 0.0000  plane waves:    3795
 k-point  8 :   0.0769 0.0769 0.0000  plane waves:    3783
 k-point  9 :   0.1538 0.0769 0.0000  plane waves:    3770
 k-point 10 :   0.2308 0.0769 0.0000  plane waves:    3771
 k-point 11 :   0.3077 0.0769 0.0000  plane waves:    3780
 k-point 12 :   0.3846 0.0769 0.0000  plane waves:    3788
 k-point 13 :   0.4615 0.0769 0.0000  plane waves:    3782
 k-point 14 :  -0.4615 0.0769-0.0000  plane waves:    3772
 k-point 15 :  -0.3846 0.0769-0.0000  plane waves:    3785
 k-point 16 :  -0.3077 0.0769 0.0000  plane waves:    3775
 k-point 17 :  -0.2308 0.0769-0.0000  plane waves:    3770
 k-point 18 :  -0.1538 0.0769-0.0000  plane waves:    3765
 k-point 19 :  -0.0769 0.0769-0.0000  plane waves:    3771
 k-point 20 :   0.1538 0.1538 0.0000  plane waves:    3775
 k-point 21 :   0.2308 0.1538 0.0000  plane waves:    3779
 k-point 22 :   0.3077 0.1538 0.0000  plane waves:    3770
 k-point 23 :   0.3846 0.1538 0.0000  plane waves:    3791
 k-point 24 :   0.4615 0.1538 0.0000  plane waves:    3777
 k-point 25 :  -0.4615 0.1538-0.0000  plane waves:    3783
 k-point 26 :  -0.3846 0.1538-0.0000  plane waves:    3784
 k-point 27 :  -0.3077 0.1538-0.0000  plane waves:    3783
 k-point 28 :  -0.2308 0.1538 0.0000  plane waves:    3782
 k-point 29 :  -0.1538 0.1538-0.0000  plane waves:    3753
 k-point 30 :   0.2308 0.2308 0.0000  plane waves:    3775
 k-point 31 :   0.3077 0.2308 0.0000  plane waves:    3788
 k-point 32 :   0.3846 0.2308 0.0000  plane waves:    3783
 k-point 33 :   0.4615 0.2308 0.0000  plane waves:    3790
 k-point 34 :  -0.4615 0.2308-0.0000  plane waves:    3788
 k-point 35 :  -0.3846 0.2308-0.0000  plane waves:    3786
 k-point 36 :  -0.3077 0.2308-0.0000  plane waves:    3782
 k-point 37 :  -0.2308 0.2308-0.0000  plane waves:    3773
 k-point 38 :   0.3077 0.3077 0.0000  plane waves:    3799
 k-point 39 :   0.3846 0.3077 0.0000  plane waves:    3779
 k-point 40 :   0.4615 0.3077 0.0000  plane waves:    3795
 k-point 41 :  -0.4615 0.3077 0.0000  plane waves:    3790
 k-point 42 :  -0.3846 0.3077 0.0000  plane waves:    3785
 k-point 43 :  -0.3077 0.3077-0.0000  plane waves:    3791
 k-point 44 :   0.3846 0.3846 0.0000  plane waves:    3800
 k-point 45 :   0.4615 0.3846 0.0000  plane waves:    3789
 k-point 46 :  -0.4615 0.3846-0.0000  plane waves:    3799
 k-point 47 :  -0.3846 0.3846 0.0000  plane waves:    3789
 k-point 48 :   0.4615 0.4615 0.0000  plane waves:    3820
 k-point 49 :  -0.4615 0.4615-0.0000  plane waves:    3804
 k-point 50 :   0.2308 0.1538 0.0769  plane waves:    3764
 k-point 51 :   0.3077 0.1538 0.0769  plane waves:    3777
 k-point 52 :   0.3846 0.1538 0.0769  plane waves:    3785
 k-point 53 :   0.4615 0.1538 0.0769  plane waves:    3778
 k-point 54 :  -0.4615 0.1538 0.0769  plane waves:    3781
 k-point 55 :   0.3077 0.2308 0.0769  plane waves:    3782
 k-point 56 :   0.3846 0.2308 0.0769  plane waves:    3777
 k-point 57 :   0.4615 0.2308 0.0769  plane waves:    3782
 k-point 58 :  -0.4615 0.2308 0.0769  plane waves:    3789
 k-point 59 :  -0.3846 0.2308 0.0769  plane waves:    3783
 k-point 60 :  -0.3077 0.2308 0.0769  plane waves:    3786
 k-point 61 :  -0.2308 0.2308 0.0769  plane waves:    3783
 k-point 62 :  -0.1538 0.2308 0.0769  plane waves:    3778
 k-point 63 :   0.3846 0.3077 0.0769  plane waves:    3793
 k-point 64 :   0.4615 0.3077 0.0769  plane waves:    3785
 k-point 65 :  -0.4615 0.3077 0.0769  plane waves:    3791
 k-point 66 :  -0.3846 0.3077 0.0769  plane waves:    3787
 k-point 67 :  -0.3077 0.3077 0.0769  plane waves:    3788
 k-point 68 :  -0.2308 0.3077 0.0769  plane waves:    3787
 k-point 69 :   0.4615 0.3846 0.0769  plane waves:    3787
 k-point 70 :  -0.4615 0.3846 0.0769  plane waves:    3790
 k-point 71 :  -0.3846 0.3846 0.0769  plane waves:    3795
 k-point 72 :  -0.3077 0.3846 0.0769  plane waves:    3797
 k-point 73 :  -0.4615 0.4615 0.0769  plane waves:    3795
 k-point 74 :  -0.3846 0.4615 0.0769  plane waves:    3796
 k-point 75 :   0.4615 0.3077 0.1538  plane waves:    3790
 k-point 76 :  -0.4615 0.3077 0.1538  plane waves:    3793
 k-point 77 :  -0.3846 0.3077 0.1538  plane waves:    3787
 k-point 78 :  -0.4615 0.3846 0.1538  plane waves:    3783
 k-point 79 :  -0.3846 0.3846 0.1538  plane waves:    3791
 k-point 80 :  -0.3077 0.3846 0.1538  plane waves:    3781
 k-point 81 :  -0.2308 0.3846 0.1538  plane waves:    3779
 k-point 82 :  -0.3846 0.4615 0.1538  plane waves:    3795
 k-point 83 :  -0.3077 0.4615 0.1538  plane waves:    3783
 k-point 84 :  -0.3077 0.4615 0.2308  plane waves:    3788

 maximum and minimum number of plane-waves per node :       960      919

 maximum number of plane-waves:      3820
 maximum index in each direction:
   IXMAX=   11   IYMAX=   10   IZMAX=   10
   IXMIN=  -11   IYMIN=  -11   IZMIN=  -11


 parallel 3D FFT for wavefunctions:
    minimum data exchange during FFTs selected (reduces bandwidth)
 parallel 3D FFT for charge:
    minimum data exchange during FFTs selected (reduces bandwidth)


 total amount of memory used by VASP MPI-rank0   113686. kBytes
=======================================================================

   base      :      30000. kBytes
   nonl-proj :      61977. kBytes
   fftplans  :       8952. kBytes
   grid      :       4709. kBytes
   one-center:         49. kBytes
   wavefun   :       7999. kBytes

     INWAV:  cpu time    0.0003: real time    0.0007
 Broyden mixing: mesh for mixing (old mesh)
   NGX = 21   NGY = 21   NGZ = 21
  (NGX  = 96   NGY  = 96   NGZ  = 96)
  gives a total of   9261 points

 initial charge density was supplied:
 charge density of overlapping atoms calculated
 number of electron      37.0000000 magnetization
 keeping initial charge density in first step


--------------------------------------------------------------------------------------------------------


 Maximum index for augmentation-charges        36489 (set IRDMAX)


--------------------------------------------------------------------------------------------------------


 First call to EWALD:  gamma=   0.396
 Maximum number of real-space cells 3x 3x 3
 Maximum number of reciprocal cells 3x 3x 3

    FEWALD:  cpu time    0.0061: real time    0.0064


--------------------------------------- Iteration      1(   1)  ---------------------------------------


    POTLOK:  cpu time    0.0590: real time    0.1421
    SETDIJ:  cpu time    0.1340: real time    0.1345
     EDDAV:  cpu time    1.7157: real time    1.7195
       DOS:  cpu time    0.0041: real time    0.0046
    --------------------------------------------
      LOOP:  cpu time    1.9132: real time    2.0013

 eigenvalue-minimisations  :  4032
 total energy-change (2. order) : 0.4358584E+03  (-0.2017994E+04)
 number of electron      37.0000000 magnetization
 augmentation part       37.0000000 magnetization

 Free energy of the ion-electron system (eV)
  ---------------------------------------------------
  alpha Z        PSCENC =       190.93544626
  Ewald energy   TEWEN  =     -3011.82109593
  -Hartree energ DENC   =      -807.98686212
  -exchange      EXHF   =         0.00000000
  -V(xc)+E(xc)   XCENC  =        67.15550983
  PAW double counting   =      3147.30828992    -3070.62761383
  entropy T*S    EENTRO =        -0.00030499
  eigenvalues    EBANDS =       246.22158737
  atomic energy  EATOM  =      3674.67342263
  Solvation  Ediel_sol  =         0.00000000
  ---------------------------------------------------
  free energy    TOTEN  =       435.85837914 eV

  energy without entropy =      435.85868413  energy(sigma->0) =      435.85853164


--------------------------------------------------------------------------------------------------------




--------------------------------------- Iteration      1(   2)  ---------------------------------------


     EDDAV:  cpu time    1.7564: real time    1.7770
       DOS:  cpu time    0.0031: real time    0.0040
    --------------------------------------------
      LOOP:  cpu time    1.7595: real time    1.7837

 eigenvalue-minimisations  :  4208
 total energy-change (2. order) :-0.3900090E+03  (-0.3827102E+03)
 number of electron      37.0000000 magnetization
 augmentation part       37.0000000 magnetization

 Free energy of the ion-electron system (eV)
  ---------------------------------------------------
  alpha Z        PSCENC =       190.93544626
  Ewald energy   TEWEN  =     -3011.82109593
  -Hartree energ DENC   =      -807.98686212
  -exchange      EXHF   =         0.00000000
  -V(xc)+E(xc)   XCENC  =        67.15550983
  PAW double counting   =      3147.30828992    -3070.62761383
  entropy T*S    EENTRO =        -0.00009100
  eigenvalues    EBANDS =      -143.78759899
  atomic energy  EATOM  =      3674.67342263
  Solvation  Ediel_sol  =         0.00000000
  ---------------------------------------------------
  free energy    TOTEN  =        45.84940678 eV

  energy without entropy =       45.84949777  energy(sigma->0) =       45.84945227


--------------------------------------------------------------------------------------------------------




--------------------------------------- Iteration      1(   3)  ---------------------------------------


     EDDAV:  cpu time    2.1180: real time    2.1364
       DOS:  cpu time    0.0032: real time    0.0033
    --------------------------------------------
      LOOP:  cpu time    2.1212: real time    2.1400

 eigenvalue-minimisations  :  5512
 total energy-change (2. order) :-0.6416221E+02  (-0.6329462E+02)
 number of electron      37.0000000 magnetization
 augmentation part       37.0000000 magnetization

 Free energy of the ion-electron system (eV)
  ---------------------------------------------------
  alpha Z        PSCENC =       190.93544626
  Ewald energy   TEWEN  =     -3011.82109593
  -Hartree energ DENC   =      -807.98686212
  -exchange      EXHF   =         0.00000000
  -V(xc)+E(xc)   XCENC  =        67.15550983
  PAW double counting   =      3147.30828992    -3070.62761383
  entropy T*S    EENTRO =        -0.00035674
  eigenvalues    EBANDS =      -207.94954367
  atomic energy  EATOM  =      3674.67342263
  Solvation  Ediel_sol  =         0.00000000
  ---------------------------------------------------
  free energy    TOTEN  =       -18.31280364 eV

  energy without entropy =      -18.31244690  energy(sigma->0) =      -18.31262527


--------------------------------------------------------------------------------------------------------




--------------------------------------- Iteration      1(   4)  ---------------------------------------


     EDDAV:  cpu time    2.6402: real time    2.6734
       DOS:  cpu time    0.0031: real time    0.0033
    --------------------------------------------
      LOOP:  cpu time    2.6434: real time    2.6795

 eigenvalue-minimisations  :  7256
 total energy-change (2. order) :-0.4324017E+01  (-0.4303564E+01)
 number of electron      37.0000000 magnetization
 augmentation part       37.0000000 magnetization

 Free energy of the ion-electron system (eV)
  ---------------------------------------------------
  alpha Z        PSCENC =       190.93544626
  Ewald energy   TEWEN  =     -3011.82109593
  -Hartree energ DENC   =      -807.98686212
  -exchange      EXHF   =         0.00000000
  -V(xc)+E(xc)   XCENC  =        67.15550983
  PAW double counting   =      3147.30828992    -3070.62761383
  entropy T*S    EENTRO =        -0.00026863
  eigenvalues    EBANDS =      -212.27364839
  atomic energy  EATOM  =      3674.67342263
  Solvation  Ediel_sol  =         0.00000000
  ---------------------------------------------------
  free energy    TOTEN  =       -22.63682026 eV

  energy without entropy =      -22.63655163  energy(sigma->0) =      -22.63668594


--------------------------------------------------------------------------------------------------------




--------------------------------------- Iteration      1(   5)  ---------------------------------------


     EDDAV:  cpu time    2.1324: real time    2.1575
       DOS:  cpu time    0.0031: real time    0.0032
    CHARGE:  cpu time    0.4595: real time    0.4606
    MIXING:  cpu time    0.0093: real time    0.0113
    --------------------------------------------
      LOOP:  cpu time    2.6043: real time    2.6282

 eigenvalue-minimisations  :  5536
 total energy-change (2. order) :-0.1375184E+00  (-0.1374690E+00)
 number of electron      37.0000000 magnetization
 augmentation part        6.0302897 magnetization

 Broyden mixing:
  rms(total) = 0.27368E+01    rms(broyden)= 0.27368E+01
  rms(prec ) = 0.31153E+01
  weight for this iteration     100.00

 Free energy of the ion-electron system (eV)
  ---------------------------------------------------
  alpha Z        PSCENC =       190.93544626
  Ewald energy   TEWEN  =     -3011.82109593
  -Hartree energ DENC   =      -807.98686212
  -exchange      EXHF   =         0.00000000
  -V(xc)+E(xc)   XCENC  =        67.15550983
  PAW double counting   =      3147.30828992    -3070.62761383
  entropy T*S    EENTRO =        -0.00028225
  eigenvalues    EBANDS =      -212.41115317
  atomic energy  EATOM  =      3674.67342263
  Solvation  Ediel_sol  =         0.00000000
  ---------------------------------------------------
  free energy    TOTEN  =       -22.77433866 eV

  energy without entropy =      -22.77405641  energy(sigma->0) =      -22.77419754


--------------------------------------------------------------------------------------------------------




--------------------------------------- Iteration      1(   6)  ---------------------------------------


    POTLOK:  cpu time    0.0537: real time    0.0732
    SETDIJ:  cpu time    0.1250: real time    0.1251
     EDDAV:  cpu time    1.9967: real time    1.9970
       DOS:  cpu time    0.0032: real time    0.0033
    CHARGE:  cpu time    0.4073: real time    0.4074
    MIXING:  cpu time    0.0163: real time    0.0165
    --------------------------------------------
      LOOP:  cpu time    2.6021: real time    2.6224

 eigenvalue-minimisations  :  5128
 total energy-change (2. order) : 0.1053129E+01  (-0.2141629E+00)
 number of electron      37.0000000 magnetization
 augmentation part        6.0647703 magnetization

 Broyden mixing:
  rms(total) = 0.17555E+01    rms(broyden)= 0.17555E+01
  rms(prec ) = 0.18830E+01
  weight for this iteration     100.00

 eigenvalues of (default mixing * dielectric matrix)
  average eigenvalue GAMMA=   2.6872
  2.6872

 Free energy of the ion-electron system (eV)
  ---------------------------------------------------
  alpha Z        PSCENC =       190.93544626
  Ewald energy   TEWEN  =     -3011.82109593
  -Hartree energ DENC   =      -793.07961474
  -exchange      EXHF   =         0.00000000
  -V(xc)+E(xc)   XCENC  =        66.69503445
  PAW double counting   =      3353.93628146    -3281.26441841
  entropy T*S    EENTRO =        -0.00023474
  eigenvalues    EBANDS =      -221.79603014
  atomic energy  EATOM  =      3674.67342263
  Solvation  Ediel_sol  =         0.00000000
  ---------------------------------------------------
  free energy    TOTEN  =       -21.72120916 eV

  energy without entropy =      -21.72097442  energy(sigma->0) =      -21.72109179


--------------------------------------------------------------------------------------------------------




--------------------------------------- Iteration      1(   7)  ---------------------------------------


    POTLOK:  cpu time    0.0491: real time    0.0810
    SETDIJ:  cpu time    0.1218: real time    0.1219
     EDDAV:  cpu time    2.2734: real time    2.2736
       DOS:  cpu time    0.0030: real time    0.0035
    CHARGE:  cpu time    0.3856: real time    0.3858
    MIXING:  cpu time    0.0050: real time    0.0055
    --------------------------------------------
      LOOP:  cpu time    2.8379: real time    2.8718

 eigenvalue-minimisations  :  6120
 total energy-change (2. order) : 0.1029377E+00  (-0.2800065E+00)
 number of electron      37.0000000 magnetization
 augmentation part        6.0367384 magnetization

 Broyden mixing:
  rms(total) = 0.64018E+00    rms(broyden)= 0.64018E+00
  rms(prec ) = 0.77512E+00
  weight for this iteration     100.00

 eigenvalues of (default mixing * dielectric matrix)
  average eigenvalue GAMMA=   2.1673
  1.0337  3.3010

 Free energy of the ion-electron system (eV)
  ---------------------------------------------------
  alpha Z        PSCENC =       190.93544626
  Ewald energy   TEWEN  =     -3011.82109593
  -Hartree energ DENC   =      -778.69915861
  -exchange      EXHF   =         0.00000000
  -V(xc)+E(xc)   XCENC  =        66.42453575
  PAW double counting   =      3619.72727366    -3551.20212092
  entropy T*S    EENTRO =        -0.00025126
  eigenvalues    EBANDS =      -231.65632308
  atomic energy  EATOM  =      3674.67342263
  Solvation  Ediel_sol  =         0.00000000
  ---------------------------------------------------
  free energy    TOTEN  =       -21.61827151 eV

  energy without entropy =      -21.61802025  energy(sigma->0) =      -21.61814588


--------------------------------------------------------------------------------------------------------




--------------------------------------- Iteration      1(   8)  ---------------------------------------


    POTLOK:  cpu time    0.0561: real time    0.0898
    SETDIJ:  cpu time    0.1208: real time    0.1209
     EDDAV:  cpu time    1.9813: real time    1.9824
       DOS:  cpu time    0.0034: real time    0.0036
    CHARGE:  cpu time    0.3820: real time    0.3821
    MIXING:  cpu time    0.0090: real time    0.0091
    --------------------------------------------
      LOOP:  cpu time    2.5527: real time    2.5884

 eigenvalue-minimisations  :  5112
 total energy-change (2. order) : 0.6811780E-01  (-0.5560483E-01)
 number of electron      37.0000000 magnetization
 augmentation part        5.9790986 magnetization

 Broyden mixing:
  rms(total) = 0.39857E+00    rms(broyden)= 0.39857E+00
  rms(prec ) = 0.43219E+00
  weight for this iteration     100.00

 eigenvalues of (default mixing * dielectric matrix)
  average eigenvalue GAMMA=   1.7815
  3.1088  1.1178  1.1178

 Free energy of the ion-electron system (eV)
  ---------------------------------------------------
  alpha Z        PSCENC =       190.93544626
  Ewald energy   TEWEN  =     -3011.82109593
  -Hartree energ DENC   =      -780.12661464
  -exchange      EXHF   =         0.00000000
  -V(xc)+E(xc)   XCENC  =        66.46197916
  PAW double counting   =      3636.12574371    -3567.44761416
  entropy T*S    EENTRO =        -0.00050913
  eigenvalues    EBANDS =      -230.35091162
  atomic energy  EATOM  =      3674.67342263
  Solvation  Ediel_sol  =         0.00000000
  ---------------------------------------------------
  free energy    TOTEN  =       -21.55015371 eV

  energy without entropy =      -21.54964459  energy(sigma->0) =      -21.54989915


--------------------------------------------------------------------------------------------------------




--------------------------------------- Iteration      1(   9)  ---------------------------------------


    POTLOK:  cpu time    0.0550: real time    0.0838
    SETDIJ:  cpu time    0.1186: real time    0.1187
     EDDAV:  cpu time    2.3364: real time    2.3367
       DOS:  cpu time    0.0031: real time    0.0032
    CHARGE:  cpu time    0.3848: real time    0.3849
    MIXING:  cpu time    0.0062: real time    0.0063
    --------------------------------------------
      LOOP:  cpu time    2.9041: real time    2.9315

 eigenvalue-minimisations  :  6264
 total energy-change (2. order) : 0.3396995E-02  (-0.1376886E-01)
 number of electron      37.0000000 magnetization
 augmentation part        5.9498327 magnetization

 Broyden mixing:
  rms(total) = 0.10109E+00    rms(broyden)= 0.10109E+00
  rms(prec ) = 0.14875E+00
  weight for this iteration     100.00

 eigenvalues of (default mixing * dielectric matrix)
  average eigenvalue GAMMA=   1.4483
  2.6624  1.2792  1.2792  0.5725

 Free energy of the ion-electron system (eV)
  ---------------------------------------------------
  alpha Z        PSCENC =       190.93544626
  Ewald energy   TEWEN  =     -3011.82109593
  -Hartree energ DENC   =      -782.33058294
  -exchange      EXHF   =         0.00000000
  -V(xc)+E(xc)   XCENC  =        66.49812793
  PAW double counting   =      3686.63326153    -3617.87612070
  entropy T*S    EENTRO =        -0.00053499
  eigenvalues    EBANDS =      -228.25868050
  atomic energy  EATOM  =      3674.67342263
  Solvation  Ediel_sol  =         0.00000000
  ---------------------------------------------------
  free energy    TOTEN  =       -21.54675672 eV

  energy without entropy =      -21.54622173  energy(sigma->0) =      -21.54648922


--------------------------------------------------------------------------------------------------------




--------------------------------------- Iteration      1(  10)  ---------------------------------------


    POTLOK:  cpu time    0.0473: real time    0.0762
    SETDIJ:  cpu time    0.1206: real time    0.1208
     EDDAV:  cpu time    1.9433: real time    1.9435
       DOS:  cpu time    0.0032: real time    0.0033
    CHARGE:  cpu time    0.3854: real time    0.3857
    MIXING:  cpu time    0.0083: real time    0.0084
    --------------------------------------------
      LOOP:  cpu time    2.5081: real time    2.5379

 eigenvalue-minimisations  :  4928
 total energy-change (2. order) : 0.2687128E-02  (-0.2613164E-02)
 number of electron      37.0000000 magnetization
 augmentation part        5.9645948 magnetization

 Broyden mixing:
  rms(total) = 0.73663E-01    rms(broyden)= 0.73663E-01
  rms(prec ) = 0.10627E+00
  weight for this iteration     100.00

 eigenvalues of (default mixing * dielectric matrix)
  average eigenvalue GAMMA=   1.5196
  2.7551  2.0806  1.0788  1.0657  0.6176

 Free energy of the ion-electron system (eV)
  ---------------------------------------------------
  alpha Z        PSCENC =       190.93544626
  Ewald energy   TEWEN  =     -3011.82109593
  -Hartree energ DENC   =      -781.97665432
  -exchange      EXHF   =         0.00000000
  -V(xc)+E(xc)   XCENC  =        66.46885148
  PAW double counting   =      3672.64373138    -3603.75225787
  entropy T*S    EENTRO =        -0.00055815
  eigenvalues    EBANDS =      -228.71495507
  atomic energy  EATOM  =      3674.67342263
  Solvation  Ediel_sol  =         0.00000000
  ---------------------------------------------------
  free energy    TOTEN  =       -21.54406959 eV

  energy without entropy =      -21.54351144  energy(sigma->0) =      -21.54379051


--------------------------------------------------------------------------------------------------------




--------------------------------------- Iteration      1(  11)  ---------------------------------------


    POTLOK:  cpu time    0.0483: real time    0.0760
    SETDIJ:  cpu time    0.1221: real time    0.1222
     EDDAV:  cpu time    2.2478: real time    2.2480
       DOS:  cpu time    0.0031: real time    0.0032
    CHARGE:  cpu time    0.3827: real time    0.3829
    MIXING:  cpu time    0.0081: real time    0.0082
    --------------------------------------------
      LOOP:  cpu time    2.8120: real time    2.8431

 eigenvalue-minimisations  :  5968
 total energy-change (2. order) : 0.1941229E-02  (-0.1530441E-02)
 number of electron      37.0000000 magnetization
 augmentation part        5.9712217 magnetization

 Broyden mixing:
  rms(total) = 0.19073E-01    rms(broyden)= 0.19073E-01
  rms(prec ) = 0.28632E-01
  weight for this iteration     100.00

 eigenvalues of (default mixing * dielectric matrix)
  average eigenvalue GAMMA=   1.3467
  2.4423  2.0043  1.0053  1.0053  0.9614  0.6618

 Free energy of the ion-electron system (eV)
  ---------------------------------------------------
  alpha Z        PSCENC =       190.93544626
  Ewald energy   TEWEN  =     -3011.82109593
  -Hartree energ DENC   =      -782.52115973
  -exchange      EXHF   =         0.00000000
  -V(xc)+E(xc)   XCENC  =        66.46524187
  PAW double counting   =      3678.21552983    -3609.16059998
  entropy T*S    EENTRO =        -0.00046049
  eigenvalues    EBANDS =      -228.32845281
  atomic energy  EATOM  =      3674.67342263
  Solvation  Ediel_sol  =         0.00000000
  ---------------------------------------------------
  free energy    TOTEN  =       -21.54212836 eV

  energy without entropy =      -21.54166787  energy(sigma->0) =      -21.54189811


--------------------------------------------------------------------------------------------------------




--------------------------------------- Iteration      1(  12)  ---------------------------------------


    POTLOK:  cpu time    0.0520: real time    0.0753
    SETDIJ:  cpu time    0.1205: real time    0.1207
     EDDAV:  cpu time    2.5065: real time    2.5067
       DOS:  cpu time    0.0031: real time    0.0033
    CHARGE:  cpu time    0.3855: real time    0.3857
    MIXING:  cpu time    0.0082: real time    0.0082
    --------------------------------------------
      LOOP:  cpu time    3.0758: real time    3.0993

 eigenvalue-minimisations  :  6728
 total energy-change (2. order) : 0.1375328E-03  (-0.2122263E-03)
 number of electron      37.0000000 magnetization
 augmentation part        5.9716960 magnetization

 Broyden mixing:
  rms(total) = 0.60870E-02    rms(broyden)= 0.60870E-02
  rms(prec ) = 0.70410E-02
  weight for this iteration     100.00

 eigenvalues of (default mixing * dielectric matrix)
  average eigenvalue GAMMA=   1.3670
  2.3963  2.0085  1.3235  1.3235  0.6366  0.9401  0.9401

 Free energy of the ion-electron system (eV)
  ---------------------------------------------------
  alpha Z        PSCENC =       190.93544626
  Ewald energy   TEWEN  =     -3011.82109593
  -Hartree energ DENC   =      -782.63656382
  -exchange      EXHF   =         0.00000000
  -V(xc)+E(xc)   XCENC  =        66.47140853
  PAW double counting   =      3673.81818921    -3604.72029792
  entropy T*S    EENTRO =        -0.00046448
  eigenvalues    EBANDS =      -228.26203530
  atomic energy  EATOM  =      3674.67342263
  Solvation  Ediel_sol  =         0.00000000
  ---------------------------------------------------
  free energy    TOTEN  =       -21.54199083 eV

  energy without entropy =      -21.54152634  energy(sigma->0) =      -21.54175858


--------------------------------------------------------------------------------------------------------




--------------------------------------- Iteration      1(  13)  ---------------------------------------


    POTLOK:  cpu time    0.0578: real time    0.0843
    SETDIJ:  cpu time    0.1208: real time    0.1210
     EDDAV:  cpu time    2.1526: real time    2.1529
       DOS:  cpu time    0.0032: real time    0.0034
    CHARGE:  cpu time    0.3822: real time    0.3825
    MIXING:  cpu time    0.0085: real time    0.0086
    --------------------------------------------
      LOOP:  cpu time    2.7251: real time    2.7540

 eigenvalue-minimisations  :  5600
 total energy-change (2. order) :-0.8932545E-05  (-0.1037874E-04)
 number of electron      37.0000000 magnetization
 augmentation part        5.9721951 magnetization

 Broyden mixing:
  rms(total) = 0.35975E-02    rms(broyden)= 0.35975E-02
  rms(prec ) = 0.54975E-02
  weight for this iteration     100.00

 eigenvalues of (default mixing * dielectric matrix)
  average eigenvalue GAMMA=   1.4466
  2.5481  2.0150  2.0150  1.3771  0.6443  0.9640  0.9640  1.0458

 Free energy of the ion-electron system (eV)
  ---------------------------------------------------
  alpha Z        PSCENC =       190.93544626
  Ewald energy   TEWEN  =     -3011.82109593
  -Hartree energ DENC   =      -782.61240804
  -exchange      EXHF   =         0.00000000
  -V(xc)+E(xc)   XCENC  =        66.47057387
  PAW double counting   =      3673.73240441    -3604.62747969
  entropy T*S    EENTRO =        -0.00046229
  eigenvalues    EBANDS =      -228.29240098
  atomic energy  EATOM  =      3674.67342263
  Solvation  Ediel_sol  =         0.00000000
  ---------------------------------------------------
  free energy    TOTEN  =       -21.54199976 eV

  energy without entropy =      -21.54153747  energy(sigma->0) =      -21.54176861


--------------------------------------------------------------------------------------------------------




--------------------------------------- Iteration      1(  14)  ---------------------------------------


    POTLOK:  cpu time    0.0603: real time    0.0795
    SETDIJ:  cpu time    0.1196: real time    0.1198
     EDDAV:  cpu time    2.3428: real time    2.3431
       DOS:  cpu time    0.0030: real time    0.0031
    CHARGE:  cpu time    0.3880: real time    0.3882
    MIXING:  cpu time    0.0060: real time    0.0061
    --------------------------------------------
      LOOP:  cpu time    2.9198: real time    2.9374

 eigenvalue-minimisations  :  6152
 total energy-change (2. order) : 0.5353180E-05  (-0.2860324E-05)
 number of electron      37.0000000 magnetization
 augmentation part        5.9718315 magnetization

 Broyden mixing:
  rms(total) = 0.66843E-03    rms(broyden)= 0.66841E-03
  rms(prec ) = 0.94774E-03
  weight for this iteration     100.00

 eigenvalues of (default mixing * dielectric matrix)
  average eigenvalue GAMMA=   1.4112
  2.4106  2.4106  1.8815  0.6444  1.2402  1.0825  1.0825  0.9743  0.9743

 Free energy of the ion-electron system (eV)
  ---------------------------------------------------
  alpha Z        PSCENC =       190.93544626
  Ewald energy   TEWEN  =     -3011.82109593
  -Hartree energ DENC   =      -782.60358929
  -exchange      EXHF   =         0.00000000
  -V(xc)+E(xc)   XCENC  =        66.47158764
  PAW double counting   =      3673.20006728    -3604.10541481
  entropy T*S    EENTRO =        -0.00046788
  eigenvalues    EBANDS =      -228.29195031
  atomic energy  EATOM  =      3674.67342263
  Solvation  Ediel_sol  =         0.00000000
  ---------------------------------------------------
  free energy    TOTEN  =       -21.54199441 eV

  energy without entropy =      -21.54152653  energy(sigma->0) =      -21.54176047


--------------------------------------------------------------------------------------------------------




--------------------------------------- Iteration      1(  15)  ---------------------------------------


    POTLOK:  cpu time    0.0476: real time    0.0749
    SETDIJ:  cpu time    0.1209: real time    0.1215
     EDDAV:  cpu time    2.2376: real time    2.2378
       DOS:  cpu time    0.0031: real time    0.0033
    CHARGE:  cpu time    0.3829: real time    0.3830
    MIXING:  cpu time    0.0081: real time    0.0082
    --------------------------------------------
      LOOP:  cpu time    2.8003: real time    2.8302

 eigenvalue-minimisations  :  5792
 total energy-change (2. order) : 0.8148209E-07  (-0.3227602E-06)
 number of electron      37.0000000 magnetization
 augmentation part        5.9717974 magnetization

 Broyden mixing:
  rms(total) = 0.11193E-02    rms(broyden)= 0.11193E-02
  rms(prec ) = 0.11545E-02
  weight for this iteration     100.00

 eigenvalues of (default mixing * dielectric matrix)
  average eigenvalue GAMMA=   1.3930
  2.6412  2.2057  1.4529  1.4529  1.3622  1.3622  0.9619  0.9619  0.6444  0.8848

 Free energy of the ion-electron system (eV)
  ---------------------------------------------------
  alpha Z        PSCENC =       190.93544626
  Ewald energy   TEWEN  =     -3011.82109593
  -Hartree energ DENC   =      -782.59638475
  -exchange      EXHF   =         0.00000000
  -V(xc)+E(xc)   XCENC  =        66.47129868
  PAW double counting   =      3673.14065793    -3604.04493348
  entropy T*S    EENTRO =        -0.00046914
  eigenvalues    EBANDS =      -228.29993653
  atomic energy  EATOM  =      3674.67342263
  Solvation  Ediel_sol  =         0.00000000
  ---------------------------------------------------
  free energy    TOTEN  =       -21.54199432 eV

  energy without entropy =      -21.54152519  energy(sigma->0) =      -21.54175976


--------------------------------------------------------------------------------------------------------




--------------------------------------- Iteration      1(  16)  ---------------------------------------


    POTLOK:  cpu time    0.0578: real time    0.0798
    SETDIJ:  cpu time    0.1214: real time    0.1215
     EDDAV:  cpu time    1.7389: real time    1.7390
       DOS:  cpu time    0.0030: real time    0.0034
    CHARGE:  cpu time    0.3786: real time    0.3789
    MIXING:  cpu time    0.0171: real time    0.0180
    --------------------------------------------
      LOOP:  cpu time    2.3168: real time    2.3408

 eigenvalue-minimisations  :  4128
 total energy-change (2. order) :-0.1405956E-06  (-0.2866887E-07)
 number of electron      37.0000000 magnetization
 augmentation part        5.9717694 magnetization

 Broyden mixing:
  rms(total) = 0.25717E-03    rms(broyden)= 0.25712E-03
  rms(prec ) = 0.27451E-03
  weight for this iteration     100.00

 eigenvalues of (default mixing * dielectric matrix)
  average eigenvalue GAMMA=   1.4611
  2.6031  2.6031  1.9233  1.9233  1.3484  0.6443  0.9896  0.9896  1.0440  1.0017
  1.0017

 Free energy of the ion-electron system (eV)
  ---------------------------------------------------
  alpha Z        PSCENC =       190.93544626
  Ewald energy   TEWEN  =     -3011.82109593
  -Hartree energ DENC   =      -782.59612656
  -exchange      EXHF   =         0.00000000
  -V(xc)+E(xc)   XCENC  =        66.47103002
  PAW double counting   =      3673.35902755    -3604.26091701
  entropy T*S    EENTRO =        -0.00046893
  eigenvalues    EBANDS =      -228.30231250
  atomic energy  EATOM  =      3674.67342263
  Solvation  Ediel_sol  =         0.00000000
  ---------------------------------------------------
  free energy    TOTEN  =       -21.54199447 eV

  energy without entropy =      -21.54152554  energy(sigma->0) =      -21.54176000


--------------------------------------------------------------------------------------------------------




--------------------------------------- Iteration      1(  17)  ---------------------------------------


    POTLOK:  cpu time    0.0535: real time    0.0770
    SETDIJ:  cpu time    0.1213: real time    0.1214
     EDDAV:  cpu time    1.6542: real time    1.6545
       DOS:  cpu time    0.0031: real time    0.0032
    --------------------------------------------
      LOOP:  cpu time    1.8320: real time    1.8533

 eigenvalue-minimisations  :  3872
 total energy-change (2. order) : 0.7485141E-09  (-0.4293990E-08)
 number of electron      37.0000000 magnetization
 augmentation part        5.9717694 magnetization

 Free energy of the ion-electron system (eV)
  ---------------------------------------------------
  alpha Z        PSCENC =       190.93544626
  Ewald energy   TEWEN  =     -3011.82109593
  -Hartree energ DENC   =      -782.59602663
  -exchange      EXHF   =         0.00000000
  -V(xc)+E(xc)   XCENC  =        66.47093327
  PAW double counting   =      3673.36337587    -3604.26428408
  entropy T*S    EENTRO =        -0.00046901
  eigenvalues    EBANDS =      -228.30329684
  atomic energy  EATOM  =      3674.67342263
  Solvation  Ediel_sol  =         0.00000000
  ---------------------------------------------------
  free energy    TOTEN  =       -21.54199446 eV

  energy without entropy =      -21.54152545  energy(sigma->0) =      -21.54175996


--------------------------------------------------------------------------------------------------------




 average (electrostatic) potential at core
  the test charge radii are     1.1985  1.0856  1.2059
  (the norm of the test charge is              1.0000)
       1 -58.9462       2-103.5139       3 -66.7963



 E-fermi :   7.1870     XC(G=0): -10.4828     alpha+bet :-12.5022


 k-point     1 :       0.0000    0.0000    0.0000
  band No.  band energies     occupation
      1     -33.2214      2.00000
      2     -15.6106      2.00000
      3     -15.6106      2.00000
      4     -15.5845      2.00000
      5     -15.5845      2.00000
      6     -15.5845      2.00000
      7     -11.0653      2.00000
      8     -11.0653      2.00000
      9     -11.0653      2.00000
     10      -4.4864      2.00000
     11       3.3310      2.00000
     12       3.3310      2.00000
     13       3.3310      2.00000
     14       3.6215      2.00000
     15       3.6215      2.00000
     16       4.9413      2.00000
     17       6.2819      2.00000
     18       6.2819      2.00000
     19       6.2819      2.00000
     20       7.4636      0.00000
     21       7.4636      0.00000
     22       7.4636      0.00000
     23       8.1475      0.00000
     24       8.8707      0.00000

 k-point     2 :       0.0769   -0.0000    0.0000
  band No.  band energies     occupation
      1     -33.2212      2.00000
      2     -15.6110      2.00000
      3     -15.6110      2.00000
      4     -15.5846      2.00000
      5     -15.5844      2.00000
      6     -15.5844      2.00000
      7     -11.0742      2.00000
      8     -11.0644      2.00000
      9     -11.0644      2.00000
     10      -4.4439      2.00000
     11       3.1863      2.00000
     12       3.2547      2.00000
     13       3.2547      2.00000
     14       3.6935      2.00000
     15       3.6935      2.00000
     16       4.8462      2.00000
     17       6.2043      2.00000
     18       6.2043      2.00000
     19       6.3193      2.00000
     20       7.5399      0.00000
     21       7.5480      0.00000
     22       7.5480      0.00000
     23       8.3190      0.00000
     24       8.8803      0.00000

 k-point     3 :       0.1538   -0.0000    0.0000
  band No.  band energies     occupation
      1     -33.2208      2.00000
      2     -15.6121      2.00000
      3     -15.6121      2.00000
      4     -15.5848      2.00000
      5     -15.5841      2.00000
      6     -15.5841      2.00000
      7     -11.0982      2.00000
      8     -11.0618      2.00000
[...]
  212              fftbas_plan_mpi                       0.097715                     12   6
  213                dfftw_execute                         0.039947                   36   7
  214                map_backward                          0.006480                   12   7
  215                  map_gather                            0.001670                  6   8
  216                  m_alltoallv_z                         0.002325                  6   8
  217                  map_scatter                           0.002190                  6   8
  218                map_forward                           0.047996                   12   7
  219                  map_gather                            0.026741                  6   8
  220                  m_alltoallv_z                         0.008536                  6   8
  221                  map_scatter                           0.012418                  6   8
  222            M_sumb_d                              0.001862                        6   5
  223          M_sumb_d                              0.000025                          1   4
  224        setdij_                               2.022234                           20   3
  225          fft3d_mpi                             0.352939                         40   4
  226            fftbas_plan_mpi                       0.322993                       40   5
  227              dfftw_execute                         0.136088                    120   6
  228              map_backward                          0.019983                     40   6
  229                map_gather                            0.005633                   20   7
  230                m_alltoallv_z                         0.006613                   20   7
  231                map_scatter                           0.006751                   20   7
  232              map_forward                           0.156068                     40   6
  233                map_gather                            0.089150                   20   7
  234                m_alltoallv_z                         0.027726                   20   7
  235                map_scatter                           0.038219                   20   7
  236          M_sumb_d                              0.007664                         20   4
  237        set_dd_magatom                        0.000003                            1   3
  238        set_dd_paw                            0.021589                            1   3
  239          set_rsgf_all                          0.000004                          1   4
  240          M_sumb_d                              0.021435                          8   4
  241        strkin                                0.000829                            1   3
  242          M_sumb_d                              0.000066                          1   4
  243        strelo                                0.003884                            1   3
  244          M_sumb_d                              0.000324                          2   4
  245        strenl                                1.309014                            1   3
  246          spher                                 0.993043                         19   4
  247          phase                                 0.015091                        189   4
  248          proj1                                 0.277452                       1134   4
  249            crexp_mul_wave                        0.036695                     3402   5
  250            M_sumb_d                              0.072612                     1134   5
  251          M_sumb_d                              0.000037                          1   4
  252        M_sumb_d                              0.000202                            6   3
  253        fft3d_mpi                             0.022458                           11   3
  254          fftbas_plan_mpi                       0.020642                         11   4
  255            dfftw_execute                         0.007714                       33   5
  256            map_forward                           0.004431                       10   5
  257              map_gather                            0.001545                      5   6
  258              m_alltoallv_z                         0.001502                      5   6
  259              map_scatter                           0.001141                      5   6
  260            map_backward                          0.005893                       12   5
  261              map_gather                            0.001561                      6   6
  262              m_alltoallv_z                         0.001754                      6   6
  263              map_scatter                           0.002296                      6   6
  264        ggaall_grid                           0.002633                            1   3
  265        forhar                                0.010348                            2   3
  266          M_sumb_d                              0.000312                          2   4
  267        strehar                               0.004274                            1   3
  268          M_sumb_d                              0.000134                          1   4
  269        chggra                                0.009398                            1   3
  270          fft3d_mpi                             0.005908                          3   4
  271            fftbas_plan_mpi                       0.005437                        3   5
  272              dfftw_execute                         0.002055                      9   6
  273              map_backward                          0.001031                      2   6
  274                map_gather                            0.000321                    1   7
  275                m_alltoallv_z                         0.000291                    1   7
  276                map_scatter                           0.000367                    1   7
  277              map_forward                           0.001655                      4   6
  278                map_gather                            0.000576                    2   7
  279                m_alltoallv_z                         0.000564                    2   7
  280                map_scatter                           0.000421                    2   7
  281          M_sumb_d                              0.000127                          3   4
  282        brmix                                 0.022142                            1   3
  283          M_sumb_d                              0.000289                          6   4
  284          brpre                                 0.000052                          1   4
  285          setg0                                 0.002535                          1   4
  286          broyd                                 0.002566                          1   4
  287            M_sumb_d                              0.000783                       19   5
  288            brget                                 0.000343                       69   5
  289            brsav                                 0.000097                       17   5
  290          M_bcast_z                             0.015236                          1   4
  291          M_bcast_d                             0.000044                          1   4
  292        M_bcast_d                             0.000041                            2   3
  293      potlok                                0.039572                              1   2
  294        fft3d_mpi                             0.025477                           13   3
  295          fftbas_plan_mpi                       0.023449                         13   4
  296            dfftw_execute                         0.008667                       39   5
  297            map_forward                           0.005570                       14   5
  298              map_gather                            0.001746                      8   6
  299              m_alltoallv_z                         0.002031                      8   6
  300              map_scatter                           0.001438                      8   6
  301            map_backward                          0.006207                       12   5
  302              map_gather                            0.001698                      6   6
  303              m_alltoallv_z                         0.001868                      6   6
  304              map_scatter                           0.002291                      6   6
  305        ggaall_grid                           0.002656                            1   3
  306        M_sumb_d                              0.000353                            6   3
  307        M_bcast_d                             0.000133                            1   3
  308      potlok_metagga                        0.000003                              1   2
  309      set_dd_magatom                        0.000004                              1   2
  310      set_dd_paw                            0.000477                              1   2
  311        set_rsgf_all                          0.000004                            1   3
  312        M_sumb_d                              0.000259                            8   3
  313      densta                                0.002417                              1   2
  314        M_sumb_d                              0.000849                           41   3
  315      lprj_proall                           0.000007                              1   2

 Flat profile
 ============

             routine name                   CPU           calls
 ---------------------------------------------------------------
 total_time                             17.660775           1
 dfftw_execute                           7.940425       52566
 eddav                                   5.524080          17
 fftbas_plan_mpi                         3.782772       17524
 setdij_                                 3.578942          41
 set_charge                              3.030828          13
 M_sumb_d                                2.949632       48586
 m_alltoallv_z                           2.215425       17549
 pdssyex_zheevx                          1.588981         357
 M_alltoall_d                            1.416588       58254
 vhamil                                  1.363570        7926
 elmin                                   1.211474           1
 proj1                                   1.149663        7044
 spher                                   1.148523          20
 fftwav_mpi                              1.116804        9291
 map_forward                             1.093732       18876
 gemm                                    1.055480       23778
 orth1                                   1.049500       11910
 map_gather                              0.960617       17549
 map_scatter                             0.917456       17549
 vnlac0                                  0.543936        7926
 M_bcast_z                               0.534134        6516
 redis_pw                                0.503535       22392
 hamiltmu                                0.450108        3963
 redis_proj                              0.434284       28197
 w1_copy                                 0.379990       23778
 fft3d_mpi                               0.343777       17522
 eccp                                    0.323238        2142
 work_mul_crexp                          0.312660       23778
 map_backward                            0.289849       16168
 fftext_mpi                              0.286543        7926
 crpa_reader                             0.254236           1
 crexp_mul_wave                          0.243118       21132
 pw_charge                               0.198472        1365
 kinhamil                                0.168223        7926
 overl                                   0.159070       13731
 potlok                                  0.142658          14
 M_bcast_d                               0.130386        3997
 overl1                                  0.096149        7926
 apply_precond                           0.085011        5784
 setup_precond                           0.075224        2142
 lincom                                  0.067699         378
 w1_projall                              0.064178        2892
 fornl                                   0.056284           1
 force_and_stress                        0.055236           1
 brmix                                   0.048421          13
 phase                                   0.046855         589
 soft_charge                             0.043499          13
 ggaall_grid                             0.039685          15
 truncate_high_frequency_w1              0.034674       10068
 densta                                  0.028021          18
 setg0                                   0.026426          14
 strenl                                  0.023391           1
 broyd                                   0.011690          13
 forhar                                  0.010036           2
 depsum                                  0.005604          13
 forloc                                  0.005120           1
 strehar                                 0.004140           1
 strelo                                  0.003560           1
 set_dd_paw                              0.003526          15
 chggra                                  0.003363           1
 brgrid                                  0.003362           1
 brget                                   0.002427         501
 orthch                                  0.002359           1
 choleski                                0.001996          21
 proj                                    0.001677          21
 brsav                                   0.001010         145
 brpre                                   0.000860          13
 strkin                                  0.000763           1
 fordep                                  0.000121           1
 vectorpot                               0.000077          14
 set_rsgf_all                            0.000068          15
 set_dd_magatom                          0.000056          15
 potlok_metagga                          0.000051          14
 set_kineden                             0.000045          12
 rotate_active_occupied_orbital          0.000015           1
 lprj_proall                             0.000007           1
 redis_pw_over_bands                     0.000003           1
 ---------------------------------------------------------------
  summed up times    67.3061740398407

 Accumulative profile
 ====================

             routine name                   CPU           calls
 ---------------------------------------------------------------
 total_time                             67.306174           1
 elmin                                  43.874138           1
 eddav                                  35.711089          17
 fft3d_mpi                              17.520975       17522
 fftbas_plan_mpi                        17.200276       17524
 hamiltmu                               11.717109        3963
 fftwav_mpi                             10.255046        9291
 dfftw_execute                           7.940425       52566
 kinhamil                                7.388180        7926
 fftext_mpi                              7.219957        7926
 set_charge                              5.083228          13
 force_and_stress                        4.553251           1
 setdij_                                 4.374670          41
 map_forward                             3.413694       18876
 M_sumb_d                                2.949632       48586
 vnlac0                                  2.419101        7926
 m_alltoallv_z                           2.215425       17549
 map_backward                            2.063386       16168
 proj1                                   1.886851        7044
 soft_charge                             1.775300          13
 w1_projall                              1.642296        2892
 pdssyex_zheevx                          1.588981         357
 M_alltoall_d                            1.416588       58254
 vhamil                                  1.363570        7926
 strenl                                  1.309014           1
 redis_pw                                1.293804       22392
 spher                                   1.148523          20
 redis_proj                              1.060602       28197
 gemm                                    1.055480       23778
 orth1                                   1.049500       11910
 map_gather                              0.960617       17549
 map_scatter                             0.917456       17549
 fordep                                  0.606461           1
 potlok                                  0.552304          14
 M_bcast_z                               0.534134        6516
 eccp                                    0.454531        2142
 w1_copy                                 0.379990       23778
 work_mul_crexp                          0.312660       23778
 crpa_reader                             0.254236           1
 crexp_mul_wave                          0.243118       21132
 pw_charge                               0.198472        1365
 set_dd_paw                              0.189428          15
 overl                                   0.159070       13731
 brmix                                   0.131113          13
 M_bcast_d                               0.130386        3997
 setup_precond                           0.125329        2142
 overl1                                  0.096149        7926
 apply_precond                           0.085011        5784
 fornl                                   0.073223           1
 lincom                                  0.067699         378
 phase                                   0.046855         589
 densta                                  0.041799          18
 ggaall_grid                             0.039685          15
 truncate_high_frequency_w1              0.034674       10068
 orthch                                  0.034579           1
 proj                                    0.032958          21
 setg0                                   0.026426          14
 broyd                                   0.021566          13
 depsum                                  0.010751          13
 forhar                                  0.010348           2
 chggra                                  0.009398           1
 forloc                                  0.005175           1
 strehar                                 0.004274           1
 strelo                                  0.003884           1
 brgrid                                  0.003362           1
 brget                                   0.002427         501
 choleski                                0.001996          21
 brsav                                   0.001010         145
 brpre                                   0.000860          13
 strkin                                  0.000829           1
 vectorpot                               0.000077          14
 set_rsgf_all                            0.000068          15
 set_dd_magatom                          0.000056          15
 potlok_metagga                          0.000051          14
 set_kineden                             0.000045          12
 rotate_active_occupied_orbital          0.000015           1
 lprj_proall                             0.000007           1
 redis_pw_over_bands                     0.000003           1
 ---------------------------------------------------------------

Profiling took   1.444903  1.676367  0.006750  0.005311 seconds
Profiling took   1.443256 seconds
