<?xml version="1.0" encoding="ISO-8859-1"?>
<modeling>
 <generator>
  <i name="program" type="string">vasp </i>
  <i name="version" type="string">6.0.8  </i>
  <i name="subversion" type="string">29Jun18 (build Jun 13 2019 12:54:44) complex                          parallel </i>
  <i name="platform" type="string">IFC18_CrayMPICH </i>
  <i name="date" type="string">2021 12 05 </i>
  <i name="time" type="string">14:21:47 </i>
 </generator>
 <incar>
  <i type="int" name="KPAR">     4</i>
  <i type="int" name="NPAR">     4</i>
  <i type="int" name="ISTART">     0</i>
  <i type="string" name="PREC"> ACC</i>
  <i type="string" name="ALGO"> Normal</i>
  <i type="logical" name="ADDGRID"> T  </i>
  <i type="int" name="ISPIN">     1</i>
  <i type="int" name="NELMIN">     5</i>
  <i type="int" name="IBRION">    -1</i>
  <i name="EDIFF">      0.00000010</i>
  <i type="int" name="NSW">     0</i>
  <i type="int" name="ISIF">     3</i>
  <i name="ENCUT">    700.00000000</i>
  <i type="logical" name="LREAL"> F  </i>
  <i type="int" name="ISMEAR">     0</i>
  <i name="SIGMA">      0.01000000</i>
  <i type="logical" name="LWAVE"> F  </i>
  <i type="logical" name="LCHARG"> F  </i>
  <i type="logical" name="LVTOT"> F  </i>
  <i type="string" name="ALGO"> Normal</i>
  <i type="string" name="GGA"> PS</i>
  <i name="EDIFF">      0.00000010</i>
  <i type="int" name="ISPIN">     1</i>
 </incar>
 <structure name="primitive_cell" >
  <crystal>
   <varray name="basis" >
    <v>       0.00000000       3.55671203       3.55671203 </v>
    <v>       3.55671203       0.00000000       3.55671203 </v>
    <v>       3.55671203       3.55671203       0.00000000 </v>
   </varray>
   <i name="volume">     89.98624046 </i>
   <varray name="rec_basis" >
    <v>      -0.14057928       0.14057928       0.14057928 </v>
    <v>       0.14057928      -0.14057928       0.14057928 </v>
    <v>       0.14057928       0.14057928      -0.14057928 </v>
   </varray>
  </crystal>
  <varray name="positions" >
   <v>       0.25000000       0.25000000       0.25000000 </v>
   <v>       0.75000000       0.75000000       0.75000000 </v>
   <v>       0.00000000       0.00000000       0.00000000 </v>
  </varray>
 </structure>
 <varray name="primitive_index" >
  <v type="int" >        1 </v>
  <v type="int" >        2 </v>
  <v type="int" >        3 </v>
 </varray>
 <kpoints>
  <generation param="Gamma">
   <v type="int" name="divisions">      13       13       13 </v>
   <v name="usershift">      0.00000000       0.00000000       0.00000000 </v>
   <v name="genvec1">      0.07692308      -0.00000000       0.00000000 </v>
   <v name="genvec2">     -0.00000000       0.07692308      -0.00000000 </v>
   <v name="genvec3">      0.00000000       0.00000000       0.07692308 </v>
   <v name="shift">      0.00000000       0.00000000       0.00000000 </v>
  </generation>
  <varray name="kpointlist" >
   <v>       0.00000000       0.00000000       0.00000000 </v>
   <v>       0.07692308      -0.00000000       0.00000000 </v>
   <v>       0.15384615      -0.00000000       0.00000000 </v>
   <v>       0.23076923      -0.00000000       0.00000000 </v>
   <v>       0.30769231      -0.00000000       0.00000000 </v>
   <v>       0.38461538       0.00000000      -0.00000000 </v>
   <v>       0.46153846      -0.00000000       0.00000000 </v>
   <v>       0.07692308       0.07692308       0.00000000 </v>
   <v>       0.15384615       0.07692308       0.00000000 </v>
   <v>       0.23076923       0.07692308       0.00000000 </v>
   <v>       0.30769231       0.07692308       0.00000000 </v>
   <v>       0.38461538       0.07692308       0.00000000 </v>
   <v>       0.46153846       0.07692308       0.00000000 </v>
   <v>      -0.46153846       0.07692308      -0.00000000 </v>
   <v>      -0.38461538       0.07692308      -0.00000000 </v>
   <v>      -0.30769231       0.07692308       0.00000000 </v>
   <v>      -0.23076923       0.07692308      -0.00000000 </v>
   <v>      -0.15384615       0.07692308      -0.00000000 </v>
   <v>      -0.07692308       0.07692308      -0.00000000 </v>
   <v>       0.15384615       0.15384615       0.00000000 </v>
   <v>       0.23076923       0.15384615       0.00000000 </v>
   <v>       0.30769231       0.15384615       0.00000000 </v>
   <v>       0.38461538       0.15384615       0.00000000 </v>
   <v>       0.46153846       0.15384615       0.00000000 </v>
   <v>      -0.46153846       0.15384615      -0.00000000 </v>
   <v>      -0.38461538       0.15384615      -0.00000000 </v>
   <v>      -0.30769231       0.15384615      -0.00000000 </v>
   <v>      -0.23076923       0.15384615       0.00000000 </v>
   <v>      -0.15384615       0.15384615      -0.00000000 </v>
   <v>       0.23076923       0.23076923       0.00000000 </v>
   <v>       0.30769231       0.23076923       0.00000000 </v>
   <v>       0.38461538       0.23076923       0.00000000 </v>
   <v>       0.46153846       0.23076923       0.00000000 </v>
   <v>      -0.46153846       0.23076923      -0.00000000 </v>
   <v>      -0.38461538       0.23076923      -0.00000000 </v>
   <v>      -0.30769231       0.23076923      -0.00000000 </v>
   <v>      -0.23076923       0.23076923      -0.00000000 </v>
   <v>       0.30769231       0.30769231       0.00000000 </v>
   <v>       0.38461538       0.30769231       0.00000000 </v>
   <v>       0.46153846       0.30769231       0.00000000 </v>
   <v>      -0.46153846       0.30769231       0.00000000 </v>
   <v>      -0.38461538       0.30769231       0.00000000 </v>
   <v>      -0.30769231       0.30769231      -0.00000000 </v>
   <v>       0.38461538       0.38461538       0.00000000 </v>
   <v>       0.46153846       0.38461538       0.00000000 </v>
   <v>      -0.46153846       0.38461538      -0.00000000 </v>
   <v>      -0.38461538       0.38461538       0.00000000 </v>
   <v>       0.46153846       0.46153846       0.00000000 </v>
   <v>      -0.46153846       0.46153846      -0.00000000 </v>
   <v>       0.23076923       0.15384615       0.07692308 </v>
   <v>       0.30769231       0.15384615       0.07692308 </v>
   <v>       0.38461538       0.15384615       0.07692308 </v>
   <v>       0.46153846       0.15384615       0.07692308 </v>
   <v>      -0.46153846       0.15384615       0.07692308 </v>
   <v>       0.30769231       0.23076923       0.07692308 </v>
   <v>       0.38461538       0.23076923       0.07692308 </v>
   <v>       0.46153846       0.23076923       0.07692308 </v>
   <v>      -0.46153846       0.23076923       0.07692308 </v>
   <v>      -0.38461538       0.23076923       0.07692308 </v>
   <v>      -0.30769231       0.23076923       0.07692308 </v>
   <v>      -0.23076923       0.23076923       0.07692308 </v>
   <v>      -0.15384615       0.23076923       0.07692308 </v>
   <v>       0.38461538       0.30769231       0.07692308 </v>
   <v>       0.46153846       0.30769231       0.07692308 </v>
   <v>      -0.46153846       0.30769231       0.07692308 </v>
   <v>      -0.38461538       0.30769231       0.07692308 </v>
   <v>      -0.30769231       0.30769231       0.07692308 </v>
   <v>      -0.23076923       0.30769231       0.07692308 </v>
   <v>       0.46153846       0.38461538       0.07692308 </v>
   <v>      -0.46153846       0.38461538       0.07692308 </v>
   <v>      -0.38461538       0.38461538       0.07692308 </v>
   <v>      -0.30769231       0.38461538       0.07692308 </v>
   <v>      -0.46153846       0.46153846       0.07692308 </v>
   <v>      -0.38461538       0.46153846       0.07692308 </v>
   <v>       0.46153846       0.30769231       0.15384615 </v>
   <v>      -0.46153846       0.30769231       0.15384615 </v>
   <v>      -0.38461538       0.30769231       0.15384615 </v>
   <v>      -0.46153846       0.38461538       0.15384615 </v>
   <v>      -0.38461538       0.38461538       0.15384615 </v>
   <v>      -0.30769231       0.38461538       0.15384615 </v>
   <v>      -0.23076923       0.38461538       0.15384615 </v>
   <v>      -0.38461538       0.46153846       0.15384615 </v>
   <v>      -0.30769231       0.46153846       0.15384615 </v>
   <v>      -0.30769231       0.46153846       0.23076923 </v>
  </varray>
  <varray name="weights" >
   <v>       0.00045517 </v>
   <v>       0.00364133 </v>
   <v>       0.00364133 </v>
   <v>       0.00364133 </v>
   <v>       0.00364133 </v>
   <v>       0.00364133 </v>
   <v>       0.00364133 </v>
   <v>       0.00273100 </v>
   <v>       0.01092399 </v>
   <v>       0.01092399 </v>
   <v>       0.01092399 </v>
   <v>       0.01092399 </v>
   <v>       0.01092399 </v>
   <v>       0.01092399 </v>
   <v>       0.01092399 </v>
   <v>       0.01092399 </v>
   <v>       0.01092399 </v>
   <v>       0.01092399 </v>
   <v>       0.00546199 </v>
   <v>       0.00273100 </v>
   <v>       0.01092399 </v>
   <v>       0.01092399 </v>
   <v>       0.01092399 </v>
   <v>       0.01092399 </v>
   <v>       0.01092399 </v>
   <v>       0.01092399 </v>
   <v>       0.01092399 </v>
   <v>       0.01092399 </v>
   <v>       0.00546199 </v>
   <v>       0.00273100 </v>
   <v>       0.01092399 </v>
   <v>       0.01092399 </v>
   <v>       0.01092399 </v>
   <v>       0.01092399 </v>
   <v>       0.01092399 </v>
   <v>       0.01092399 </v>
   <v>       0.00546199 </v>
   <v>       0.00273100 </v>
   <v>       0.01092399 </v>
   <v>       0.01092399 </v>
   <v>       0.01092399 </v>
   <v>       0.01092399 </v>
   <v>       0.00546199 </v>
   <v>       0.00273100 </v>
   <v>       0.01092399 </v>
   <v>       0.01092399 </v>
   <v>       0.00546199 </v>
   <v>       0.00273100 </v>
   <v>       0.00546199 </v>
   <v>       0.01092399 </v>
   <v>       0.02184797 </v>
   <v>       0.02184797 </v>
   <v>       0.02184797 </v>
   <v>       0.02184797 </v>
   <v>       0.01092399 </v>
   <v>       0.02184797 </v>
   <v>       0.02184797 </v>
   <v>       0.02184797 </v>
   <v>       0.02184797 </v>
   <v>       0.02184797 </v>
   <v>       0.02184797 </v>
   <v>       0.01092399 </v>
   <v>       0.01092399 </v>
   <v>       0.02184797 </v>
   <v>       0.02184797 </v>
   <v>       0.02184797 </v>
   <v>       0.02184797 </v>
   <v>       0.01092399 </v>
   <v>       0.01092399 </v>
   <v>       0.02184797 </v>
   <v>       0.02184797 </v>
   <v>       0.01092399 </v>
   <v>       0.01092399 </v>
   <v>       0.01092399 </v>
   <v>       0.01092399 </v>
   <v>       0.02184797 </v>
   <v>       0.02184797 </v>
   <v>       0.01092399 </v>
   <v>       0.02184797 </v>
   <v>       0.02184797 </v>
   <v>       0.01092399 </v>
   <v>       0.01092399 </v>
   <v>       0.01092399 </v>
   <v>       0.01092399 </v>
  </varray>
 </kpoints>
 <parameters>
  <separator name="general" >
   <i type="string" name="SYSTEM">unknown system</i>
   <i type="logical" name="LCOMPAT"> F  </i>
  </separator>
  <separator name="electronic" >
   <i type="string" name="PREC">acc</i>
   <i name="ENMAX">    700.00000000</i>
   <i name="ENAUG">    535.43100000</i>
   <i name="EDIFF">      0.00000010</i>
   <i type="int" name="IALGO">    38</i>
   <i type="int" name="IWAVPR">    10</i>
   <i type="int" name="NBANDS">    24</i>
   <i type="int" name="NBANDSLOW">    -1</i>
   <i type="int" name="NBANDSHIGH">    -1</i>
   <i name="NELECT">     37.00000000</i>
   <i type="int" name="TURBO">     0</i>
   <i type="int" name="IRESTART">     0</i>
   <i type="int" name="NREBOOT">     0</i>
   <i type="int" name="NMIN">     0</i>
   <i name="EREF">      0.00000000</i>
   <separator name="electronic smearing" >
    <i type="int" name="ISMEAR">     0</i>
    <i name="SIGMA">      0.01000000</i>
    <i name="KSPACING">      0.50000000</i>
    <i type="logical" name="KGAMMA"> T  </i>
    <i type="logical" name="KBLOWUP"> T  </i>
   </separator>
   <separator name="electronic projectors" >
    <i type="logical" name="LREAL"> F  </i>
    <v name="ROPT">      0.00000000      0.00000000      0.00000000</v>
    <i type="int" name="LMAXPAW">  -100</i>
    <i type="int" name="LMAXMIX">     2</i>
    <i type="logical" name="NLSPLINE"> F  </i>
   </separator>
   <separator name="electronic startup" >
    <i type="int" name="ISTART">     0</i>
    <i type="int" name="ICHARG">     2</i>
    <i type="int" name="INIWAV">     1</i>
   </separator>
   <separator name="electronic spin" >
    <i type="int" name="ISPIN">     1</i>
    <i type="logical" name="LNONCOLLINEAR"> F  </i>
    <v name="MAGMOM">      1.00000000      1.00000000      1.00000000</v>
    <i name="NUPDOWN">     -1.00000000</i>
    <i type="logical" name="LSORBIT"> F  </i>
    <v name="SAXIS">      0.00000000      0.00000000      1.00000000</v>
    <i type="logical" name="LSPIRAL"> F  </i>
    <v name="QSPIRAL">      0.00000000      0.00000000      0.00000000</v>
    <i type="logical" name="LZEROZ"> F  </i>
   </separator>
   <separator name="electronic exchange-correlation" >
    <i type="logical" name="LASPH"> F  </i>
    <i type="logical" name="LMETAGGA"> F  </i>
   </separator>
   <separator name="electronic convergence" >
    <i type="int" name="NELM">    60</i>
    <i type="int" name="NELMDL">    -5</i>
    <i type="int" name="NELMIN">     5</i>
    <i name="ENINI">    700.00000000</i>
    <separator name="electronic convergence detail" >
     <i type="logical" name="LDIAG"> T  </i>
     <i type="logical" name="LSUBROT"> F  </i>
     <i name="WEIMIN">      0.00000000</i>
     <i name="EBREAK">      0.00000000</i>
     <i name="DEPER">      0.30000000</i>
     <i type="int" name="NRMM">     4</i>
     <i name="TIME">      0.40000000</i>
    </separator>
   </separator>
   <separator name="electronic mixer" >
    <i name="AMIX">      0.40000000</i>
    <i name="BMIX">      1.00000000</i>
    <i name="AMIN">      0.10000000</i>
    <i name="AMIX_MAG">      1.60000000</i>
    <i name="BMIX_MAG">      1.00000000</i>
    <separator name="electronic mixer details" >
     <i type="int" name="IMIX">     4</i>
     <i type="logical" name="MIXFIRST"> F  </i>
     <i type="int" name="MAXMIX">   -45</i>
     <i name="WC">    100.00000000</i>
     <i type="int" name="INIMIX">     1</i>
     <i type="int" name="MIXPRE">     1</i>
     <i type="int" name="MREMOVE">     5</i>
    </separator>
   </separator>
   <separator name="electronic dipolcorrection" >
    <i type="logical" name="LDIPOL"> F  </i>
    <i type="logical" name="LMONO"> F  </i>
    <i type="int" name="IDIPOL">     0</i>
    <i name="EPSILON">      1.00000000</i>
    <v name="DIPOL">   -100.00000000   -100.00000000   -100.00000000</v>
    <i name="EFIELD">      0.00000000</i>
   </separator>
  </separator>
  <separator name="grids" >
   <i type="int" name="NGX">    48</i>
   <i type="int" name="NGY">    48</i>
   <i type="int" name="NGZ">    48</i>
   <i type="int" name="NGXF">    96</i>
   <i type="int" name="NGYF">    96</i>
   <i type="int" name="NGZF">    96</i>
   <i type="logical" name="ADDGRID"> T  </i>
  </separator>
  <separator name="ionic" >
   <i type="int" name="NSW">     0</i>
   <i type="int" name="IBRION">    -1</i>
   <i type="int" name="MDALGO">     0</i>
   <i type="int" name="ISIF">     3</i>
   <i name="PSTRESS">      0.00000000</i>
   <i name="EDIFFG">      0.00000100</i>
   <i type="int" name="NFREE">     0</i>
   <i name="POTIM">      0.50000000</i>
   <i name="SMASS">     -3.00000000</i>
   <i name="SCALEE">      1.00000000</i>
  </separator>
  <separator name="ionic md" >
   <i name="TEBEG">      0.00010000</i>
   <i name="TEEND">      0.00010000</i>
   <i type="int" name="NBLOCK">     1</i>
   <i type="int" name="KBLOCK">     1</i>
   <i type="int" name="NPACO">   256</i>
   <i name="APACO">     16.00000000</i>
  </separator>
  <separator name="symmetry" >
   <i type="int" name="ISYM">     2</i>
   <i name="SYMPREC">      0.00001000</i>
  </separator>
  <separator name="dos" >
   <i type="int" name="LORBIT">     0</i>
   <v name="RWIGS">     -1.00000000     -1.00000000     -1.00000000</v>
   <i type="int" name="NEDOS">   301</i>
   <i name="EMIN">     10.00000000</i>
   <i name="EMAX">    -10.00000000</i>
   <i name="EFERMI">      0.00000000</i>
  </separator>
  <separator name="writing" >
   <i type="int" name="NWRITE">     2</i>
   <i type="logical" name="LWAVE"> F  </i>
   <i type="logical" name="LDOWNSAMPLE"> F  </i>
   <i type="logical" name="LCHARG"> F  </i>
   <i type="logical" name="LPARD"> F  </i>
   <i type="logical" name="LVTOT"> F  </i>
   <i type="logical" name="LVHAR"> F  </i>
   <i type="logical" name="LELF"> F  </i>
   <i type="logical" name="LOPTICS"> F  </i>
   <v name="STM">      0.00000000      0.00000000      0.00000000      0.00000000      0.00000000      0.00000000      0.00000000</v>
  </separator>
  <separator name="performance" >
   <i type="int" name="NPAR">     4</i>
   <i type="int" name="NSIM">     4</i>
   <i type="int" name="NBLK">    -1</i>
   <i type="logical" name="LPLANE"> T  </i>
   <i type="logical" name="LSCALAPACK"> T  </i>
   <i type="logical" name="LSCAAWARE"> F  </i>
   <i type="logical" name="LSCALU"> F  </i>
   <i type="logical" name="LASYNC"> F  </i>
   <i type="logical" name="LORBITALREAL"> F  </i>
  </separator>
  <separator name="miscellaneous" >
   <i type="int" name="IDIOT">     3</i>
   <i type="int" name="PHON_NSTRUCT">    -1</i>
   <i type="logical" name="LMUSIC"> F  </i>
   <v name="POMASS">    232.03900000    208.98000000    195.08000000</v>
   <v name="DARWINR">      0.00000000      0.00000000      0.00000000</v>
   <v name="DARWINV">      1.00000000      1.00000000      1.00000000</v>
   <i type="logical" name="LCORR"> T  </i>
  </separator>
  <i type="logical" name="GGA_COMPAT"> T  </i>
  <i type="logical" name="LBERRY"> F  </i>
  <i type="int" name="ICORELEVEL">     0</i>
  <i type="logical" name="LDAU"> F  </i>
  <i type="int" name="I_CONSTRAINED_M">     0</i>
  <separator name="electronic exchange-correlation" >
   <i type="string" name="GGA">PS</i>
   <i type="int" name="VOSKOWN">     0</i>
   <i type="logical" name="LHFCALC"> F  </i>
   <i type="string" name="PRECFOCK"></i>
   <i type="logical" name="LSYMGRAD"> F  </i>
   <i type="logical" name="LHFONE"> F  </i>
   <i type="logical" name="LRHFCALC"> F  </i>
   <i type="logical" name="LTHOMAS"> F  </i>
   <i type="logical" name="LMODELHF"> F  </i>
   <i type="logical" name="LFOCKACE"> F  </i>
   <i name="ENCUT4O">     -1.00000000</i>
   <i type="int" name="EXXOEP">     0</i>
   <i type="int" name="FOURORBIT">     0</i>
   <i name="AEXX">      0.00000000</i>
   <i name="HFALPHA">      0.00000000</i>
   <i name="MCALPHA">      0.00000000</i>
   <i name="ALDAX">      1.00000000</i>
   <i name="AGGAX">      1.00000000</i>
   <i name="ALDAC">      1.00000000</i>
   <i name="AGGAC">      1.00000000</i>
   <i type="int" name="NKREDX">     1</i>
   <i type="int" name="NKREDY">     1</i>
   <i type="int" name="NKREDZ">     1</i>
   <i type="logical" name="SHIFTRED"> F  </i>
   <i type="logical" name="ODDONLY"> F  </i>
   <i type="logical" name="EVENONLY"> F  </i>
   <i type="int" name="LMAXFOCK">     0</i>
   <i type="int" name="NMAXFOCKAE">     0</i>
   <i type="logical" name="LFOCKAEDFT"> F  </i>
   <i name="HFSCREEN">      0.00000000</i>
   <i name="HFSCREENC">      0.00000000</i>
   <i type="int" name="NBANDSGWLOW">     0</i>
  </separator>
  <separator name="vdW DFT" >
   <i type="logical" name="LUSE_VDW"> F  </i>
   <i name="Zab_VDW">     -0.84910000</i>
   <i name="PARAM1">      0.12340000</i>
   <i name="PARAM2">      1.00000000</i>
   <i name="PARAM3">      0.00000000</i>
  </separator>
  <separator name="model GW" >
   <i type="int" name="MODEL_GW">     0</i>
   <i name="MODEL_EPS0">     17.99724809</i>
   <i name="MODEL_ALPHA">      1.00000000</i>
  </separator>
  <separator name="linear response parameters" >
   <i type="logical" name="LEPSILON"> F  </i>
   <i type="logical" name="LRPA"> F  </i>
   <i type="logical" name="LNABLA"> F  </i>
   <i type="logical" name="LVEL"> F  </i>
   <i type="int" name="KINTER">     0</i>
   <i name="CSHIFT">      0.10000000</i>
   <i name="OMEGAMAX">     -1.00000000</i>
   <i name="DEG_THRESHOLD">      0.00200000</i>
   <i name="RTIME">     -0.10000000</i>
   <i name="WPLASMAI">      0.00000000</i>
   <v name="DFIELD">      0.00000000      0.00000000      0.00000000</v>
   <v name="WPLASMA">      0.00000000      0.00000000      0.00000000      0.00000000      0.00000000      0.00000000      0.00000000      0.00000000      0.00000000</v>
  </separator>
  <separator name="orbital magnetization" >
   <i type="logical" name="NUCIND"> F  </i>
   <v name="MAGPOS">      0.00000000      0.00000000      0.00000000</v>
   <i type="logical" name="LNICSALL"> T  </i>
   <i type="logical" name="ORBITALMAG"> F  </i>
   <i type="logical" name="LMAGBLOCH"> F  </i>
   <i type="logical" name="LCHIMAG"> F  </i>
   <i type="logical" name="LGAUGE"> T  </i>
   <i type="int" name="MAGATOM">     0</i>
   <v name="MAGDIPOL">      0.00000000      0.00000000      0.00000000</v>
   <v name="AVECCONST">      0.00000000      0.00000000      0.00000000</v>
  </separator>
  <separator name="response functions" >
   <i type="logical" name="LFINITE_TEMPERATURE"> F  </i>
   <i type="logical" name="LADDER"> F  </i>
   <i type="logical" name="LRPAFORCE"> F  </i>
   <i type="logical" name="LFXC"> F  </i>
   <i type="logical" name="LHARTREE"> T  </i>
   <i type="int" name="IBSE">     0</i>
   <v type="int" name="KPOINT">    -1     0     0     0</v>
   <i type="logical" name="LTCTC"> F  </i>
   <i type="logical" name="LTCTE"> F  </i>
   <i type="logical" name="LTETE"> F  </i>
   <i type="logical" name="LTRIPLET"> F  </i>
   <i type="logical" name="LFXCEPS"> F  </i>
   <i type="logical" name="LFXHEG"> F  </i>
   <i type="int" name="NATURALO">     2</i>
   <i type="logical" name="L2ORDER"> F  </i>
   <i type="logical" name="LDMP1"> F  </i>
   <i type="logical" name="LMP2LT"> F  </i>
   <i type="logical" name="LSMP2LT"> F  </i>
   <i type="logical" name="LUSEW"> F  </i>
   <i name="ENCUTGW">     -2.00000000</i>
   <i name="ENCUTGWSOFT">     -2.00000000</i>
   <i name="ENCUTLF">     -1.00000000</i>
   <i type="int" name="LMAXMP2">    -1</i>
   <i name="SCISSOR">      0.00000000</i>
   <i type="int" name="NOMEGA">     0</i>
   <i type="int" name="NOMEGAR">     0</i>
   <i type="int" name="NBANDSGW">    -1</i>
   <i type="int" name="NBANDSO">    -1</i>
   <i type="int" name="NBANDSV">    -1</i>
   <i type="int" name="NELM">     1</i>
   <i type="int" name="NELMHF">     1</i>
   <i type="int" name="DIM">     3</i>
   <i type="int" name="IESPILON">     4</i>
   <i type="int" name="ANTIRES">     0</i>
   <i name="OMEGAMAX">    -30.00000000</i>
   <i name="OMEGAMIN">    -30.00000000</i>
   <i name="OMEGATL">   -200.00000000</i>
   <i type="int" name="OMEGAGRID">   145</i>
   <i name="CSHIFT">     -0.10000000</i>
   <i type="logical" name="LSELFENERGY"> F  </i>
   <i type="logical" name="LSPECTRAL"> F  </i>
   <i type="logical" name="LSPECTRALGW"> F  </i>
   <i type="logical" name="LSINGLES"> F  </i>
   <i type="logical" name="LFERMIGW"> F  </i>
   <i type="logical" name="ODDONLYGW"> F  </i>
   <i type="logical" name="EVENONLYGW"> F  </i>
   <i type="int" name="NKREDLFX">     1</i>
   <i type="int" name="NKREDLFY">     1</i>
   <i type="int" name="NKREDLFZ">     1</i>
   <i type="int" name="MAXMEM">  2800</i>
   <i type="int" name="TELESCOPE">     0</i>
   <i type="int" name="NTAUPAR">     1</i>
   <i type="int" name="NOMEGAPAR">    -1</i>
   <i name="LAMBDA">      1.00000000</i>
  </separator>
  <separator name="External order field" >
   <i name="OFIELD_KAPPA">      0.00000000</i>
   <v name="OFIELD_K">      0.00000000      0.00000000      0.00000000</v>
   <i name="OFIELD_Q6_NEAR">      0.00000000</i>
   <i name="OFIELD_Q6_FAR">      0.00000000</i>
   <i name="OFIELD_A">      0.00000000</i>
  </separator>
 </parameters>
 <atominfo>
  <atoms>       3 </atoms>
  <types>       3 </types>
  <array name="atoms" >
   <dimension dim="1">ion</dimension>
   <field type="string">element</field>
   <field type="int">atomtype</field>
   <set>
    <rc><c>Th</c><c>   1</c></rc>
    <rc><c>Bi</c><c>   2</c></rc>
    <rc><c>Pt</c><c>   3</c></rc>
   </set>
  </array>
  <array name="atomtypes" >
   <dimension dim="1">type</dimension>
   <field type="int">atomspertype</field>
   <field type="string">element</field>
   <field>mass</field>
   <field>valence</field>
   <field type="string">pseudopotential</field>
   <set>
    <rc><c>   1</c><c>Th</c><c>    232.03900000</c><c>     12.00000000</c><c>  PAW_PBE Th 07Sep2000                  </c></rc>
    <rc><c>   1</c><c>Bi</c><c>    208.98000000</c><c>     15.00000000</c><c>  PAW_PBE Bi_d 06Sep2000                </c></rc>
    <rc><c>   1</c><c>Pt</c><c>    195.08000000</c><c>     10.00000000</c><c>  PAW_PBE Pt 04Feb2005                  </c></rc>
   </set>
  </array>
 </atominfo>
 <structure name="initialpos" >
  <crystal>
   <varray name="basis" >
    <v>       0.00000000       3.55671203       3.55671203 </v>
    <v>       3.55671203       0.00000000       3.55671203 </v>
    <v>       3.55671203       3.55671203       0.00000000 </v>
   </varray>
   <i name="volume">     89.98624046 </i>
   <varray name="rec_basis" >
    <v>      -0.14057928       0.14057928       0.14057928 </v>
    <v>       0.14057928      -0.14057928       0.14057928 </v>
    <v>       0.14057928       0.14057928      -0.14057928 </v>
   </varray>
  </crystal>
  <varray name="positions" >
   <v>       0.25000000       0.25000000       0.25000000 </v>
   <v>       0.75000000       0.75000000       0.75000000 </v>
   <v>       0.00000000       0.00000000       0.00000000 </v>
  </varray>
 </structure>
 <calculation>
  <scstep>
   <time name="dav">    1.72    1.72</time>
   <time name="total">    1.91    2.00</time>
   <energy>
    <i name="alphaZ">    190.93544626 </i>
    <i name="ewald">  -3011.82109593 </i>
    <i name="hartreedc">   -807.98686212 </i>
    <i name="XCdc">     67.15550983 </i>
    <i name="pawpsdc">   3147.30828992 </i>
    <i name="pawaedc">  -3070.62761383 </i>
    <i name="eentropy">     -0.00030499 </i>
    <i name="bandstr">    246.22158737 </i>
    <i name="atom">   3674.67342263 </i>
    <i name="e_fr_energy">    435.85837914 </i>
    <i name="e_wo_entrp">    435.85868413 </i>
    <i name="e_0_energy">    435.85853164 </i>
   </energy>
  </scstep>
  <scstep>
   <time name="dav">    1.76    1.78</time>
   <time name="total">    1.76    1.78</time>
   <energy>
    <i name="e_fr_energy">     45.84940678 </i>
    <i name="e_wo_entrp">     45.84949777 </i>
    <i name="e_0_energy">     45.84945227 </i>
   </energy>
  </scstep>
  <scstep>
   <time name="dav">    2.12    2.14</time>
   <time name="total">    2.12    2.14</time>
   <energy>
    <i name="e_fr_energy">    -18.31280364 </i>
    <i name="e_wo_entrp">    -18.31244690 </i>
    <i name="e_0_energy">    -18.31262527 </i>
   </energy>
  </scstep>
  <scstep>
   <time name="dav">    2.64    2.67</time>
   <time name="total">    2.64    2.68</time>
   <energy>
    <i name="e_fr_energy">    -22.63682026 </i>
    <i name="e_wo_entrp">    -22.63655163 </i>
    <i name="e_0_energy">    -22.63668594 </i>
   </energy>
  </scstep>
  <scstep>
   <time name="dav">    2.13    2.16</time>
   <time name="total">    2.60    2.63</time>
   <energy>
    <i name="e_fr_energy">    -22.77433866 </i>
    <i name="e_wo_entrp">    -22.77405641 </i>
    <i name="e_0_energy">    -22.77419754 </i>
   </energy>
  </scstep>
  <scstep>
   <time name="dav">    2.00    2.00</time>
   <time name="total">    2.60    2.62</time>
   <energy>
    <i name="e_fr_energy">    -21.72120916 </i>
    <i name="e_wo_entrp">    -21.72097442 </i>
    <i name="e_0_energy">    -21.72109179 </i>
   </energy>
  </scstep>
  <scstep>
   <time name="dav">    2.27    2.27</time>
   <time name="total">    2.84    2.87</time>
   <energy>
    <i name="e_fr_energy">    -21.61827151 </i>
    <i name="e_wo_entrp">    -21.61802025 </i>
    <i name="e_0_energy">    -21.61814588 </i>
   </energy>
  </scstep>
  <scstep>
   <time name="dav">    1.98    1.98</time>
   <time name="total">    2.55    2.59</time>
   <energy>
    <i name="e_fr_energy">    -21.55015371 </i>
    <i name="e_wo_entrp">    -21.54964459 </i>
    <i name="e_0_energy">    -21.54989915 </i>
   </energy>
  </scstep>
  <scstep>
   <time name="dav">    2.34    2.34</time>
   <time name="total">    2.90    2.93</time>
   <energy>
    <i name="e_fr_energy">    -21.54675672 </i>
    <i name="e_wo_entrp">    -21.54622173 </i>
    <i name="e_0_energy">    -21.54648922 </i>
   </energy>
  </scstep>
  <scstep>
   <time name="dav">    1.94    1.94</time>
   <time name="total">    2.51    2.54</time>
   <energy>
    <i name="e_fr_energy">    -21.54406959 </i>
    <i name="e_wo_entrp">    -21.54351144 </i>
    <i name="e_0_energy">    -21.54379051 </i>
   </energy>
  </scstep>
  <scstep>
   <time name="dav">    2.25    2.25</time>
   <time name="total">    2.81    2.84</time>
   <energy>
    <i name="e_fr_energy">    -21.54212836 </i>
    <i name="e_wo_entrp">    -21.54166787 </i>
    <i name="e_0_energy">    -21.54189811 </i>
   </energy>
  </scstep>
  <scstep>
   <time name="dav">    2.51    2.51</time>
   <time name="total">    3.08    3.10</time>
   <energy>
    <i name="e_fr_energy">    -21.54199083 </i>
    <i name="e_wo_entrp">    -21.54152634 </i>
    <i name="e_0_energy">    -21.54175858 </i>
   </energy>
  </scstep>
  <scstep>
   <time name="dav">    2.15    2.15</time>
   <time name="total">    2.73    2.75</time>
   <energy>
    <i name="e_fr_energy">    -21.54199976 </i>
    <i name="e_wo_entrp">    -21.54153747 </i>
    <i name="e_0_energy">    -21.54176861 </i>
   </energy>
  </scstep>
  <scstep>
   <time name="dav">    2.34    2.34</time>
   <time name="total">    2.92    2.94</time>
   <energy>
    <i name="e_fr_energy">    -21.54199441 </i>
    <i name="e_wo_entrp">    -21.54152653 </i>
    <i name="e_0_energy">    -21.54176047 </i>
   </energy>
  </scstep>
  <scstep>
   <time name="dav">    2.24    2.24</time>
   <time name="total">    2.80    2.83</time>
   <energy>
    <i name="e_fr_energy">    -21.54199432 </i>
    <i name="e_wo_entrp">    -21.54152519 </i>
    <i name="e_0_energy">    -21.54175976 </i>
   </energy>
  </scstep>
  <scstep>
   <time name="dav">    1.74    1.74</time>
   <time name="total">    2.32    2.34</time>
   <energy>
    <i name="e_fr_energy">    -21.54199447 </i>
    <i name="e_wo_entrp">    -21.54152554 </i>
    <i name="e_0_energy">    -21.54176000 </i>
   </energy>
  </scstep>
  <scstep>
   <time name="dav">    1.65    1.65</time>
   <time name="total">    1.83    1.85</time>
   <energy>
    <i name="alphaZ">    190.93544626 </i>
    <i name="ewald">  -3011.82109593 </i>
    <i name="hartreedc">   -782.59602663 </i>
    <i name="XCdc">     66.47093327 </i>
    <i name="pawpsdc">   3673.36337587 </i>
    <i name="pawaedc">  -3604.26428408 </i>
    <i name="eentropy">     -0.00046901 </i>
    <i name="bandstr">   -228.30329684 </i>
    <i name="atom">   3674.67342263 </i>
    <i name="e_fr_energy">    -21.54199446 </i>
    <i name="e_wo_entrp">    -21.54152545 </i>
    <i name="e_0_energy">    -21.54175996 </i>
   </energy>
  </scstep>
  <structure>
   <crystal>
    <varray name="basis" >
     <v>       0.00000000       3.55671203       3.55671203 </v>
     <v>       3.55671203       0.00000000       3.55671203 </v>
     <v>       3.55671203       3.55671203       0.00000000 </v>
    </varray>
    <i name="volume">     89.98624046 </i>
    <varray name="rec_basis" >
     <v>      -0.14057928       0.14057928       0.14057928 </v>
     <v>       0.14057928      -0.14057928       0.14057928 </v>
     <v>       0.14057928       0.14057928      -0.14057928 </v>
    </varray>
   </crystal>
   <varray name="positions" >
    <v>       0.25000000       0.25000000       0.25000000 </v>
    <v>       0.75000000       0.75000000       0.75000000 </v>
    <v>       0.00000000       0.00000000       0.00000000 </v>
   </varray>
  </structure>
  <varray name="forces" >
   <v>       0.00000000       0.00000000       0.00000000 </v>
   <v>       0.00000000       0.00000000       0.00000000 </v>
   <v>      -0.00000000      -0.00000000      -0.00000000 </v>
  </varray>
  <varray name="stress" >
   <v>     -92.31768422       0.00000000       0.00000000 </v>
   <v>      -0.00000000     -92.31768422      -0.00000000 </v>
   <v>      -0.00000000      -0.00000000     -92.31768422 </v>
  </varray>
  <energy>
   <i name="e_fr_energy">    -21.54199446 </i>
   <i name="e_wo_entrp">    -21.54175996 </i>
   <i name="e_0_energy">     -0.00046901 </i>
  </energy>
  <time name="totalsc">   47.80   48.66</time>
  <eigenvalues>
   <array>
    <dimension dim="1">band</dimension>
    <dimension dim="2">kpoint</dimension>
    <dimension dim="3">spin</dimension>
    <field>eigene</field>
    <field>occ</field>
    <set>
     <set comment="spin 1">
      <set comment="kpoint 1">
       <r>  -33.2214    1.0000 </r>
       <r>  -15.6106    1.0000 </r>
       <r>  -15.6106    1.0000 </r>
       <r>  -15.5845    1.0000 </r>
       <r>  -15.5845    1.0000 </r>
       <r>  -15.5845    1.0000 </r>
       <r>  -11.0653    1.0000 </r>
       <r>  -11.0653    1.0000 </r>
       <r>  -11.0653    1.0000 </r>
       <r>   -4.4864    1.0000 </r>
       <r>    3.3310    1.0000 </r>
       <r>    3.3310    1.0000 </r>
       <r>    3.3310    1.0000 </r>
       <r>    3.6215    1.0000 </r>
       <r>    3.6215    1.0000 </r>
       <r>    4.9413    1.0000 </r>
       <r>    6.2819    1.0000 </r>
       <r>    6.2819    1.0000 </r>
       <r>    6.2819    1.0000 </r>
       <r>    7.4636    0.0000 </r>
       <r>    7.4636    0.0000 </r>
       <r>    7.4636    0.0000 </r>
       <r>    8.1475    0.0000 </r>
       <r>    8.8707    0.0000 </r>
      </set>
      <set comment="kpoint 2">
       <r>  -33.2212    1.0000 </r>
       <r>  -15.6110    1.0000 </r>
       <r>  -15.6110    1.0000 </r>
       <r>  -15.5846    1.0000 </r>
       <r>  -15.5844    1.0000 </r>
       <r>  -15.5844    1.0000 </r>
       <r>  -11.0742    1.0000 </r>
       <r>  -11.0644    1.0000 </r>
       <r>  -11.0644    1.0000 </r>
       <r>   -4.4439    1.0000 </r>
       <r>    3.1863    1.0000 </r>
       <r>    3.2547    1.0000 </r>
       <r>    3.2547    1.0000 </r>
       <r>    3.6935    1.0000 </r>
       <r>    3.6935    1.0000 </r>
       <r>    4.8462    1.0000 </r>
       <r>    6.2043    1.0000 </r>
       <r>    6.2043    1.0000 </r>
       <r>    6.3193    1.0000 </r>
       <r>    7.5399    0.0000 </r>
       <r>    7.5480    0.0000 </r>
       <r>    7.5480    0.0000 </r>
       <r>    8.3190    0.0000 </r>
       <r>    8.8803    0.0000 </r>
      </set>
      <set comment="kpoint 3">
       <r>  -33.2208    1.0000 </r>
       <r>  -15.6121    1.0000 </r>
       <r>  -15.6121    1.0000 </r>
       <r>  -15.5848    1.0000 </r>
       <r>  -15.5841    1.0000 </r>
       <r>  -15.5841    1.0000 </r>
       <r>  -11.0982    1.0000 </r>
       <r>  -11.0618    1.0000 </r>
       <r>  -11.0618    1.0000 </r>
       <r>   -4.3256    1.0000 </r>
       <r>    2.8447    1.0000 </r>
       <r>    3.1319    1.0000 </r>
       <r>    3.1319    1.0000 </r>
       <r>    3.7959    1.0000 </r>
       <r>    3.7959    1.0000 </r>
       <r>    4.5933    1.0000 </r>
       <r>    6.0397    1.0000 </r>
       <r>    6.0397    1.0000 </r>
       <r>    6.3900    1.0000 </r>
       <r>    7.7462    0.0000 </r>
       <r>    7.7462    0.0000 </r>
       <r>    7.8655    0.0000 </r>
       <r>    8.6126    0.0000 </r>
       <r>    8.9029    0.0000 </r>
      </set>
      <set comment="kpoint 4">
       <r>  -33.2202    1.0000 </r>
       <r>  -15.6137    1.0000 </r>
       <r>  -15.6137    1.0000 </r>
       <r>  -15.5851    1.0000 </r>
       <r>  -15.5838    1.0000 </r>
       <r>  -15.5838    1.0000 </r>
       <r>  -11.1308    1.0000 </r>
       <r>  -11.0580    1.0000 </r>
       <r>  -11.0580    1.0000 </r>
       <r>   -4.1571    1.0000 </r>
       <r>    2.4511    1.0000 </r>
       <r>    3.0329    1.0000 </r>
       <r>    3.0329    1.0000 </r>
       <r>    3.8436    1.0000 </r>
       <r>    3.8436    1.0000 </r>
       <r>    4.2909    1.0000 </r>
       <r>    5.8868    1.0000 </r>
       <r>    5.8868    1.0000 </r>
       <r>    6.4774    1.0000 </r>
       <r>    7.9818    0.0000 </r>
       <r>    7.9818    0.0000 </r>
       <r>    8.3467    0.0000 </r>
       <r>    8.8262    0.0000 </r>
       <r>    8.9078    0.0000 </r>
      </set>
      <set comment="kpoint 5">
       <r>  -33.2196    1.0000 </r>
       <r>  -15.6153    1.0000 </r>
       <r>  -15.6153    1.0000 </r>
       <r>  -15.5854    1.0000 </r>
       <r>  -15.5834    1.0000 </r>
       <r>  -15.5834    1.0000 </r>
       <r>  -11.1640    1.0000 </r>
       <r>  -11.0541    1.0000 </r>
       <r>  -11.0541    1.0000 </r>
       <r>   -3.9759    1.0000 </r>
       <r>    2.0978    1.0000 </r>
       <r>    2.9737    1.0000 </r>
       <r>    2.9737    1.0000 </r>
       <r>    3.8194    1.0000 </r>
       <r>    3.8194    1.0000 </r>
       <r>    4.0348    1.0000 </r>
       <r>    5.7917    1.0000 </r>
       <r>    5.7917    1.0000 </r>
       <r>    6.5985    1.0000 </r>
       <r>    8.2030    0.0000 </r>
       <r>    8.2030    0.0000 </r>
       <r>    8.7484    0.0000 </r>
       <r>    8.8732    0.0000 </r>
       <r>    8.8739    0.0000 </r>
      </set>
      <set comment="kpoint 6">
       <r>  -33.2191    1.0000 </r>
       <r>  -15.6167    1.0000 </r>
       <r>  -15.6167    1.0000 </r>
       <r>  -15.5858    1.0000 </r>
       <r>  -15.5830    1.0000 </r>
       <r>  -15.5830    1.0000 </r>
       <r>  -11.1904    1.0000 </r>
       <r>  -11.0509    1.0000 </r>
       <r>  -11.0509    1.0000 </r>
       <r>   -3.8237    1.0000 </r>
       <r>    1.8372    1.0000 </r>
       <r>    2.9516    1.0000 </r>
       <r>    2.9516    1.0000 </r>
       <r>    3.7526    1.0000 </r>
       <r>    3.7526    1.0000 </r>
       <r>    3.8644    1.0000 </r>
       <r>    5.7508    1.0000 </r>
       <r>    5.7508    1.0000 </r>
       <r>    6.7494    1.0000 </r>
       <r>    8.3673    0.0000 </r>
       <r>    8.3673    0.0000 </r>
       <r>    8.8377    0.0000 </r>
       <r>    8.8377    0.0000 </r>
       <r>    8.8852    0.0000 </r>
      </set>
      <set comment="kpoint 7">
       <r>  -33.2188    1.0000 </r>
       <r>  -15.6175    1.0000 </r>
       <r>  -15.6175    1.0000 </r>
       <r>  -15.5859    1.0000 </r>
       <r>  -15.5828    1.0000 </r>
       <r>  -15.5828    1.0000 </r>
       <r>  -11.2049    1.0000 </r>
       <r>  -11.0491    1.0000 </r>
       <r>  -11.0491    1.0000 </r>
       <r>   -3.7369    1.0000 </r>
       <r>    1.6997    1.0000 </r>
       <r>    2.9501    1.0000 </r>
       <r>    2.9501    1.0000 </r>
       <r>    3.6974    1.0000 </r>
       <r>    3.6974    1.0000 </r>
       <r>    3.7827    1.0000 </r>
       <r>    5.7393    1.0000 </r>
       <r>    5.7393    1.0000 </r>
       <r>    6.8753    1.0000 </r>
       <r>    8.4523    0.0000 </r>
       <r>    8.4523    0.0000 </r>
       <r>    8.8152    0.0000 </r>
       <r>    8.8152    0.0000 </r>
       <r>    8.8312    0.0000 </r>
      </set>
      <set comment="kpoint 8">
       <r>  -33.2212    1.0000 </r>
       <r>  -15.6117    1.0000 </r>
       <r>  -15.6105    1.0000 </r>
       <r>  -15.5847    1.0000 </r>
       <r>  -15.5843    1.0000 </r>
       <r>  -15.5843    1.0000 </r>
       <r>  -11.0719    1.0000 </r>
       <r>  -11.0667    1.0000 </r>
       <r>  -11.0667    1.0000 </r>
       <r>   -4.4309    1.0000 </r>
       <r>    2.9991    1.0000 </r>
       <r>    3.3451    1.0000 </r>
       <r>    3.3451    1.0000 </r>
       <r>    3.6369    1.0000 </r>
       <r>    3.7139    1.0000 </r>
       <r>    4.8441    1.0000 </r>
       <r>    6.0983    1.0000 </r>
       <r>    6.0983    1.0000 </r>
       <r>    6.5179    1.0000 </r>
       <r>    7.3011    0.0000 </r>
       <r>    7.6876    0.0000 </r>
       <r>    7.6876    0.0000 </r>
       <r>    8.3495    0.0000 </r>
       <r>    8.8659    0.0000 </r>
      </set>
      <set comment="kpoint 9">
       <r>  -33.2208    1.0000 </r>
       <r>  -15.6130    1.0000 </r>
       <r>  -15.6108    1.0000 </r>
       <r>  -15.5849    1.0000 </r>
       <r>  -15.5841    1.0000 </r>
       <r>  -15.5841    1.0000 </r>
       <r>  -11.0898    1.0000 </r>
       <r>  -11.0670    1.0000 </r>
       <r>  -11.0635    1.0000 </r>
       <r>   -4.3412    1.0000 </r>
       <r>    2.7273    1.0000 </r>
       <r>    3.2472    1.0000 </r>
       <r>    3.2924    1.0000 </r>
       <r>    3.7050    1.0000 </r>
       <r>    3.7874    1.0000 </r>
       <r>    4.6899    1.0000 </r>
       <r>    5.9158    1.0000 </r>
       <r>    5.9393    1.0000 </r>
       <r>    6.6959    1.0000 </r>
       <r>    7.3169    0.0000 </r>
       <r>    7.8907    0.0000 </r>
       <r>    7.9346    0.0000 </r>
       <r>    8.5689    0.0000 </r>
       <r>    8.8702    0.0000 </r>
      </set>
      <set comment="kpoint 10">
       <r>  -33.2203    1.0000 </r>
       <r>  -15.6144    1.0000 </r>
       <r>  -15.6118    1.0000 </r>
       <r>  -15.5851    1.0000 </r>
       <r>  -15.5839    1.0000 </r>
       <r>  -15.5837    1.0000 </r>
       <r>  -11.1193    1.0000 </r>
       <r>  -11.0651    1.0000 </r>
       <r>  -11.0591    1.0000 </r>
       <r>   -4.1949    1.0000 </r>
       <r>    2.4324    1.0000 </r>
       <r>    3.0741    1.0000 </r>
       <r>    3.2010    1.0000 </r>
       <r>    3.7701    1.0000 </r>
       <r>    3.8639    1.0000 </r>
       <r>    4.4242    1.0000 </r>
       <r>    5.7394    1.0000 </r>
       <r>    5.8062    1.0000 </r>
       <r>    6.7659    1.0000 </r>
       <r>    7.6073    0.0000 </r>
       <r>    8.0957    0.0000 </r>
       <r>    8.2779    0.0000 </r>
       <r>    8.7833    0.0000 </r>
       <r>    8.8620    0.0000 </r>
      </set>
      <set comment="kpoint 11">
       <r>  -33.2197    1.0000 </r>
       <r>  -15.6158    1.0000 </r>
       <r>  -15.6133    1.0000 </r>
       <r>  -15.5853    1.0000 </r>
       <r>  -15.5835    1.0000 </r>
       <r>  -15.5833    1.0000 </r>
       <r>  -11.1518    1.0000 </r>
       <r>  -11.0616    1.0000 </r>
       <r>  -11.0555    1.0000 </r>
       <r>   -4.0249    1.0000 </r>
       <r>    2.1472    1.0000 </r>
       <r>    2.9506    1.0000 </r>
       <r>    3.1249    1.0000 </r>
       <r>    3.7690    1.0000 </r>
       <r>    3.8786    1.0000 </r>
       <r>    4.1509    1.0000 </r>
       <r>    5.6365    1.0000 </r>
       <r>    5.7328    1.0000 </r>
       <r>    6.7854    1.0000 </r>
       <r>    7.9796    0.0000 </r>
       <r>    8.2749    0.0000 </r>
       <r>    8.6319    0.0000 </r>
       <r>    8.8540    0.0000 </r>
       <r>    8.8818    0.0000 </r>
      </set>
      <set comment="kpoint 12">
       <r>  -33.2192    1.0000 </r>
       <r>  -15.6168    1.0000 </r>
       <r>  -15.6150    1.0000 </r>
       <r>  -15.5856    1.0000 </r>
       <r>  -15.5832    1.0000 </r>
       <r>  -15.5829    1.0000 </r>
       <r>  -11.1799    1.0000 </r>
       <r>  -11.0573    1.0000 </r>
       <r>  -11.0535    1.0000 </r>
       <r>   -3.8703    1.0000 </r>
       <r>    1.9160    1.0000 </r>
       <r>    2.8996    1.0000 </r>
       <r>    3.0653    1.0000 </r>
       <r>    3.7258    1.0000 </r>
       <r>    3.8309    1.0000 </r>
       <r>    3.9427    1.0000 </r>
       <r>    5.5962    1.0000 </r>
       <r>    5.7085    1.0000 </r>
       <r>    6.8514    1.0000 </r>
       <r>    8.2549    0.0000 </r>
       <r>    8.4068    0.0000 </r>
       <r>    8.7911    0.0000 </r>
       <r>    8.8341    0.0000 </r>
       <r>    8.9074    0.0000 </r>
      </set>
      <set comment="kpoint 13">
       <r>  -33.2188    1.0000 </r>
       <r>  -15.6171    1.0000 </r>
       <r>  -15.6165    1.0000 </r>
       <r>  -15.5858    1.0000 </r>
       <r>  -15.5830    1.0000 </r>
       <r>  -15.5827    1.0000 </r>
       <r>  -11.1979    1.0000 </r>
       <r>  -11.0536    1.0000 </r>
       <r>  -11.0530    1.0000 </r>
       <r>   -3.7667    1.0000 </r>
       <r>    1.7723    1.0000 </r>
       <r>    2.9112    1.0000 </r>
       <r>    3.0065    1.0000 </r>
       <r>    3.6992    1.0000 </r>
       <r>    3.7612    1.0000 </r>
       <r>    3.8182    1.0000 </r>
       <r>    5.5877    1.0000 </r>
       <r>    5.7056    1.0000 </r>
       <r>    6.9528    1.0000 </r>
       <r>    8.3866    0.0000 </r>
       <r>    8.4778    0.0000 </r>
       <r>    8.7847    0.0000 </r>
       <r>    8.8098    0.0000 </r>
       <r>    8.8957    0.0000 </r>
      </set>
      <set comment="kpoint 14">
       <r>  -33.2187    1.0000 </r>
       <r>  -15.6174    1.0000 </r>
       <r>  -15.6168    1.0000 </r>
       <r>  -15.5858    1.0000 </r>
       <r>  -15.5829    1.0000 </r>
       <r>  -15.5827    1.0000 </r>
       <r>  -11.2025    1.0000 </r>
       <r>  -11.0557    1.0000 </r>
       <r>  -11.0499    1.0000 </r>
       <r>   -3.7383    1.0000 </r>
       <r>    1.7345    1.0000 </r>
       <r>    2.9408    1.0000 </r>
       <r>    2.9638    1.0000 </r>
       <r>    3.7044    1.0000 </r>
       <r>    3.7281    1.0000 </r>
       <r>    3.7874    1.0000 </r>
       <r>    5.5806    1.0000 </r>
       <r>    5.7091    1.0000 </r>
       <r>    6.9995    1.0000 </r>
       <r>    8.4165    0.0000 </r>
       <r>    8.4761    0.0000 </r>
       <r>    8.7899    0.0000 </r>
       <r>    8.7989    0.0000 </r>
       <r>    8.8701    0.0000 </r>
      </set>
      <set comment="kpoint 15">
       <r>  -33.2189    1.0000 </r>
       <r>  -15.6175    1.0000 </r>
       <r>  -15.6158    1.0000 </r>
       <r>  -15.5857    1.0000 </r>
       <r>  -15.5830    1.0000 </r>
       <r>  -15.5829    1.0000 </r>
       <r>  -11.1930    1.0000 </r>
       <r>  -11.0592    1.0000 </r>
       <r>  -11.0485    1.0000 </r>
       <r>   -3.7919    1.0000 </r>
       <r>    1.8085    1.0000 </r>
       <r>    2.8852    1.0000 </r>
       <r>    3.0333    1.0000 </r>
       <r>    3.6906    1.0000 </r>
       <r>    3.8029    1.0000 </r>
       <r>    3.8489    1.0000 </r>
       <r>    5.5580    1.0000 </r>
       <r>    5.7245    1.0000 </r>
       <r>    6.9372    1.0000 </r>
       <r>    8.3867    0.0000 </r>
       <r>    8.4223    0.0000 </r>
       <r>    8.8003    0.0000 </r>
       <r>    8.8092    0.0000 </r>
       <r>    8.9105    0.0000 </r>
      </set>
      <set comment="kpoint 16">
       <r>  -33.2193    1.0000 </r>
       <r>  -15.6168    1.0000 </r>
       <r>  -15.6144    1.0000 </r>
       <r>  -15.5855    1.0000 </r>
       <r>  -15.5833    1.0000 </r>
       <r>  -15.5832    1.0000 </r>
       <r>  -11.1712    1.0000 </r>
       <r>  -11.0633    1.0000 </r>
       <r>  -11.0493    1.0000 </r>
       <r>   -3.9150    1.0000 </r>
       <r>    1.9898    1.0000 </r>
       <r>    2.8641    1.0000 </r>
       <r>    3.1092    1.0000 </r>
       <r>    3.7213    1.0000 </r>
       <r>    3.8826    1.0000 </r>
       <r>    3.9980    1.0000 </r>
       <r>    5.5255    1.0000 </r>
       <r>    5.7730    1.0000 </r>
       <r>    6.8462    1.0000 </r>
       <r>    8.2088    0.0000 </r>
       <r>    8.3361    0.0000 </r>
       <r>    8.7793    0.0000 </r>
       <r>    8.8319    0.0000 </r>
       <r>    8.9123    0.0000 </r>
      </set>
      <set comment="kpoint 17">
       <r>  -33.2199    1.0000 </r>
       <r>  -15.6155    1.0000 </r>
       <r>  -15.6129    1.0000 </r>
       <r>  -15.5852    1.0000 </r>
       <r>  -15.5837    1.0000 </r>
       <r>  -15.5835    1.0000 </r>
       <r>  -11.1412    1.0000 </r>
       <r>  -11.0670    1.0000 </r>
       <r>  -11.0520    1.0000 </r>
       <r>   -4.0790    1.0000 </r>
       <r>    2.2619    1.0000 </r>
       <r>    2.8932    1.0000 </r>
       <r>    3.1983    1.0000 </r>
       <r>    3.7482    1.0000 </r>
       <r>    3.9211    1.0000 </r>
       <r>    4.2311    1.0000 </r>
       <r>    5.5217    1.0000 </r>
       <r>    5.8771    1.0000 </r>
       <r>    6.7874    1.0000 </r>
       <r>    7.9702    0.0000 </r>
       <r>    8.1055    0.0000 </r>
       <r>    8.5443    0.0000 </r>
       <r>    8.8546    0.0000 </r>
       <r>    8.8818    0.0000 </r>
      </set>
      <set comment="kpoint 18">
       <r>  -33.2205    1.0000 </r>
       <r>  -15.6138    1.0000 </r>
       <r>  -15.6117    1.0000 </r>
       <r>  -15.5849    1.0000 </r>
       <r>  -15.5840    1.0000 </r>
       <r>  -15.5839    1.0000 </r>
       <r>  -11.1097    1.0000 </r>
       <r>  -11.0691    1.0000 </r>
       <r>  -11.0561    1.0000 </r>
       <r>   -4.2459    1.0000 </r>
       <r>    2.5923    1.0000 </r>
       <r>    2.9764    1.0000 </r>
       <r>    3.3012    1.0000 </r>
       <r>    3.7205    1.0000 </r>
       <r>    3.8929    1.0000 </r>
       <r>    4.5062    1.0000 </r>
       <r>    5.6187    1.0000 </r>
       <r>    6.0313    1.0000 </r>
       <r>    6.7289    1.0000 </r>
       <r>    7.7290    0.0000 </r>
       <r>    7.7414    0.0000 </r>
       <r>    8.2384    0.0000 </r>
       <r>    8.7233    0.0000 </r>
       <r>    8.8781    0.0000 </r>
      </set>
      <set comment="kpoint 19">
       <r>  -33.2210    1.0000 </r>
       <r>  -15.6122    1.0000 </r>
       <r>  -15.6110    1.0000 </r>
       <r>  -15.5847    1.0000 </r>
       <r>  -15.5843    1.0000 </r>
       <r>  -15.5842    1.0000 </r>
       <r>  -11.0851    1.0000 </r>
       <r>  -11.0682    1.0000 </r>
       <r>  -11.0606    1.0000 </r>
       <r>   -4.3773    1.0000 </r>
       <r>    2.9283    1.0000 </r>
       <r>    3.1056    1.0000 </r>
       <r>    3.3571    1.0000 </r>
       <r>    3.6699    1.0000 </r>
       <r>    3.8053    1.0000 </r>
       <r>    4.7297    1.0000 </r>
       <r>    5.8793    1.0000 </r>
       <r>    6.1740    1.0000 </r>
       <r>    6.5475    1.0000 </r>
       <r>    7.5114    0.0000 </r>
       <r>    7.5613    0.0000 </r>
       <r>    7.9136    0.0000 </r>
       <r>    8.4976    0.0000 </r>
       <r>    8.8852    0.0000 </r>
      </set>
      <set comment="kpoint 20">
       <r>  -33.2206    1.0000 </r>
       <r>  -15.6140    1.0000 </r>
       <r>  -15.6101    1.0000 </r>
       <r>  -15.5852    1.0000 </r>
       <r>  -15.5839    1.0000 </r>
       <r>  -15.5839    1.0000 </r>
       <r>  -11.0900    1.0000 </r>
       <r>  -11.0705    1.0000 </r>
       <r>  -11.0705    1.0000 </r>
       <r>   -4.2894    1.0000 </r>
       <r>    2.4747    1.0000 </r>
       <r>    3.3769    1.0000 </r>
       <r>    3.3769    1.0000 </r>
       <r>    3.6802    1.0000 </r>
       <r>    3.7188    1.0000 </r>
       <r>    4.6954    1.0000 </r>
       <r>    5.8000    1.0000 </r>
       <r>    5.8000    1.0000 </r>
       <r>    6.8341    1.0000 </r>
       <r>    7.1878    0.4541 </r>
       <r>    8.0746    0.0000 </r>
       <r>    8.0746    0.0000 </r>
       <r>    8.6480    0.0000 </r>
       <r>    8.8477    0.0000 </r>
      </set>
      <set comment="kpoint 21">
       <r>  -33.2202    1.0000 </r>
       <r>  -15.6151    1.0000 </r>
       <r>  -15.6103    1.0000 </r>
       <r>  -15.5854    1.0000 </r>
       <r>  -15.5836    1.0000 </r>
       <r>  -15.5835    1.0000 </r>
       <r>  -11.1109    1.0000 </r>
       <r>  -11.0716    1.0000 </r>
       <r>  -11.0684    1.0000 </r>
       <r>   -4.1834    1.0000 </r>
       <r>    2.2513    1.0000 </r>
       <r>    3.2718    1.0000 </r>
       <r>    3.3455    1.0000 </r>
       <r>    3.7281    1.0000 </r>
       <r>    3.7640    1.0000 </r>
       <r>    4.5578    1.0000 </r>
       <r>    5.6031    1.0000 </r>
       <r>    5.6897    1.0000 </r>
       <r>    7.0251    1.0000 </r>
       <r>    7.2635    0.0000 </r>
       <r>    8.2399    0.0000 </r>
       <r>    8.2949    0.0000 </r>
       <r>    8.7905    0.0000 </r>
       <r>    8.8354    0.0000 </r>
      </set>
      <set comment="kpoint 22">
       <r>  -33.2197    1.0000 </r>
       <r>  -15.6158    1.0000 </r>
       <r>  -15.6113    1.0000 </r>
       <r>  -15.5856    1.0000 </r>
       <r>  -15.5833    1.0000 </r>
       <r>  -15.5831    1.0000 </r>
       <r>  -11.1393    1.0000 </r>
       <r>  -11.0700    1.0000 </r>
       <r>  -11.0653    1.0000 </r>
       <r>   -4.0489    1.0000 </r>
       <r>    2.0836    1.0000 </r>
       <r>    3.0896    1.0000 </r>
       <r>    3.2772    1.0000 </r>
       <r>    3.7484    1.0000 </r>
       <r>    3.8325    1.0000 </r>
       <r>    4.3303    1.0000 </r>
       <r>    5.4104    1.0000 </r>
       <r>    5.6380    1.0000 </r>
       <r>    7.0620    1.0000 </r>
       <r>    7.6741    0.0000 </r>
       <r>    8.3724    0.0000 </r>
       <r>    8.5447    0.0000 </r>
       <r>    8.8243    0.0000 </r>
       <r>    8.8803    0.0000 </r>
      </set>
      <set comment="kpoint 23">
       <r>  -33.2191    1.0000 </r>
       <r>  -15.6161    1.0000 </r>
       <r>  -15.6129    1.0000 </r>
       <r>  -15.5857    1.0000 </r>
       <r>  -15.5832    1.0000 </r>
       <r>  -15.5827    1.0000 </r>
       <r>  -11.1656    1.0000 </r>
       <r>  -11.0661    1.0000 </r>
       <r>  -11.0648    1.0000 </r>
       <r>   -3.9175    1.0000 </r>
       <r>    1.9744    1.0000 </r>
       <r>    2.9562    1.0000 </r>
       <r>    3.1965    1.0000 </r>
       <r>    3.7335    1.0000 </r>
       <r>    3.8454    1.0000 </r>
       <r>    4.0982    1.0000 </r>
       <r>    5.3117    1.0000 </r>
       <r>    5.6296    1.0000 </r>
       <r>    7.0487    1.0000 </r>
       <r>    8.1138    0.0000 </r>
       <r>    8.4703    0.0000 </r>
       <r>    8.7232    0.0000 </r>
       <r>    8.8120    0.0000 </r>
       <r>    8.9218    0.0000 </r>
      </set>
      <set comment="kpoint 24">
       <r>  -33.2187    1.0000 </r>
       <r>  -15.6159    1.0000 </r>
       <r>  -15.6147    1.0000 </r>
       <r>  -15.5857    1.0000 </r>
       <r>  -15.5832    1.0000 </r>
       <r>  -15.5825    1.0000 </r>
       <r>  -11.1841    1.0000 </r>
       <r>  -11.0672    1.0000 </r>
       <r>  -11.0608    1.0000 </r>
       <r>   -3.8181    1.0000 </r>
       <r>    1.9116    1.0000 </r>
       <r>    2.9071    1.0000 </r>
       <r>    3.0950    1.0000 </r>
       <r>    3.7353    1.0000 </r>
       <r>    3.8039    1.0000 </r>
       <r>    3.9327    1.0000 </r>
       <r>    5.2773    1.0000 </r>
       <r>    5.6323    1.0000 </r>
       <r>    7.0984    1.0000 </r>
       <r>    8.3092    0.0000 </r>
       <r>    8.5304    0.0000 </r>
       <r>    8.7560    0.0000 </r>
       <r>    8.7945    0.0000 </r>
       <r>    8.9314    0.0000 </r>
      </set>
      <set comment="kpoint 25">
       <r>  -33.2186    1.0000 </r>
       <r>  -15.6162    1.0000 </r>
       <r>  -15.6153    1.0000 </r>
       <r>  -15.5856    1.0000 </r>
       <r>  -15.5832    1.0000 </r>
       <r>  -15.5825    1.0000 </r>
       <r>  -11.1914    1.0000 </r>
       <r>  -11.0717    1.0000 </r>
       <r>  -11.0552    1.0000 </r>
       <r>   -3.7711    1.0000 </r>
       <r>    1.8825    1.0000 </r>
       <r>    2.9422    1.0000 </r>
       <r>    2.9795    1.0000 </r>
       <r>    3.7425    1.0000 </r>
       <r>    3.7834    1.0000 </r>
       <r>    3.8635    1.0000 </r>
       <r>    5.2573    1.0000 </r>
       <r>    5.6326    1.0000 </r>
       <r>    7.1785    0.8864 </r>
       <r>    8.3067    0.0000 </r>
       <r>    8.5391    0.0000 </r>
       <r>    8.7779    0.0000 </r>
       <r>    8.7890    0.0000 </r>
       <r>    8.9104    0.0000 </r>
      </set>
      <set comment="kpoint 26">
       <r>  -33.2187    1.0000 </r>
       <r>  -15.6172    1.0000 </r>
       <r>  -15.6143    1.0000 </r>
       <r>  -15.5854    1.0000 </r>
       <r>  -15.5832    1.0000 </r>
       <r>  -15.5827    1.0000 </r>
       <r>  -11.1866    1.0000 </r>
       <r>  -11.0770    1.0000 </r>
       <r>  -11.0507    1.0000 </r>
       <r>   -3.7860    1.0000 </r>
       <r>    1.8894    1.0000 </r>
       <r>    2.8774    1.0000 </r>
       <r>    3.0397    1.0000 </r>
       <r>    3.6943    1.0000 </r>
       <r>    3.8644    1.0000 </r>
       <r>    3.8986    1.0000 </r>
       <r>    5.2143    1.0000 </r>
       <r>    5.6416    1.0000 </r>
       <r>    7.2053    0.0049 </r>
       <r>    8.3343    0.0000 </r>
       <r>    8.4665    0.0000 </r>
       <r>    8.7789    0.0000 </r>
       <r>    8.8018    0.0000 </r>
       <r>    8.9170    0.0000 </r>
      </set>
      <set comment="kpoint 27">
       <r>  -33.2190    1.0000 </r>
       <r>  -15.6174    1.0000 </r>
       <r>  -15.6133    1.0000 </r>
       <r>  -15.5853    1.0000 </r>
       <r>  -15.5833    1.0000 </r>
       <r>  -15.5830    1.0000 </r>
       <r>  -11.1712    1.0000 </r>
       <r>  -11.0812    1.0000 </r>
       <r>  -11.0482    1.0000 </r>
       <r>   -3.8611    1.0000 </r>
       <r>    1.9510    1.0000 </r>
       <r>    2.8147    1.0000 </r>
       <r>    3.1710    1.0000 </r>
       <r>    3.6750    1.0000 </r>
       <r>    3.9428    1.0000 </r>
       <r>    4.0306    1.0000 </r>
       <r>    5.1439    1.0000 </r>
       <r>    5.6846    1.0000 </r>
       <r>    7.1893    0.3706 </r>
       <r>    8.3037    0.0000 </r>
       <r>    8.3438    0.0000 </r>
       <r>    8.7864    0.0000 </r>
       <r>    8.7961    0.0000 </r>
       <r>    8.9384    0.0000 </r>
      </set>
      <set comment="kpoint 28">
       <r>  -33.2195    1.0000 </r>
       <r>  -15.6168    1.0000 </r>
       <r>  -15.6123    1.0000 </r>
       <r>  -15.5851    1.0000 </r>
       <r>  -15.5834    1.0000 </r>
       <r>  -15.5834    1.0000 </r>
       <r>  -11.1491    1.0000 </r>
       <r>  -11.0823    1.0000 </r>
       <r>  -11.0485    1.0000 </r>
       <r>   -3.9818    1.0000 </r>
       <r>    2.0888    1.0000 </r>
       <r>    2.8079    1.0000 </r>
       <r>    3.3028    1.0000 </r>
       <r>    3.6722    1.0000 </r>
       <r>    3.9817    1.0000 </r>
       <r>    4.2298    1.0000 </r>
       <r>    5.1021    1.0000 </r>
       <r>    5.7816    1.0000 </r>
       <r>    7.1757    0.9453 </r>
       <r>    8.0810    0.0000 </r>
       <r>    8.1703    0.0000 </r>
       <r>    8.6948    0.0000 </r>
       <r>    8.8189    0.0000 </r>
       <r>    8.9743    0.0000 </r>
      </set>
      <set comment="kpoint 29">
       <r>  -33.2200    1.0000 </r>
       <r>  -15.6155    1.0000 </r>
       <r>  -15.6117    1.0000 </r>
       <r>  -15.5850    1.0000 </r>
       <r>  -15.5838    1.0000 </r>
       <r>  -15.5836    1.0000 </r>
       <r>  -11.1266    1.0000 </r>
       <r>  -11.0782    1.0000 </r>
       <r>  -11.0513    1.0000 </r>
       <r>   -4.1211    1.0000 </r>
       <r>    2.3100    1.0000 </r>
       <r>    2.8630    1.0000 </r>
       <r>    3.3813    1.0000 </r>
       <r>    3.6678    1.0000 </r>
       <r>    3.9626    1.0000 </r>
       <r>    4.4086    1.0000 </r>
       <r>    5.2335    1.0000 </r>
       <r>    5.9187    1.0000 </r>
       <r>    7.0805    1.0000 </r>
       <r>    7.8590    0.0000 </r>
       <r>    7.8623    0.0000 </r>
       <r>    8.5143    0.0000 </r>
       <r>    8.8435    0.0000 </r>
       <r>    8.8521    0.0000 </r>
      </set>
      <set comment="kpoint 30">
       <r>  -33.2199    1.0000 </r>
       <r>  -15.6154    1.0000 </r>
       <r>  -15.6096    1.0000 </r>
       <r>  -15.5859    1.0000 </r>
       <r>  -15.5831    1.0000 </r>
       <r>  -15.5831    1.0000 </r>
       <r>  -11.1150    1.0000 </r>
       <r>  -11.0761    1.0000 </r>
       <r>  -11.0761    1.0000 </r>
       <r>   -4.1279    1.0000 </r>
       <r>    2.0950    1.0000 </r>
       <r>    3.4002    1.0000 </r>
       <r>    3.4002    1.0000 </r>
       <r>    3.6226    1.0000 </r>
       <r>    3.7433    1.0000 </r>
       <r>    4.5544    1.0000 </r>
       <r>    5.5988    1.0000 </r>
       <r>    5.5988    1.0000 </r>
       <r>    6.8296    1.0000 </r>
       <r>    7.4403    0.0000 </r>
       <r>    8.3629    0.0000 </r>
       <r>    8.3629    0.0000 </r>
       <r>    8.8080    0.0000 </r>
       <r>    8.8453    0.0000 </r>
      </set>
      <set comment="kpoint 31">
       <r>  -33.2194    1.0000 </r>
       <r>  -15.6153    1.0000 </r>
       <r>  -15.6097    1.0000 </r>
       <r>  -15.5861    1.0000 </r>
       <r>  -15.5828    1.0000 </r>
       <r>  -15.5827    1.0000 </r>
       <r>  -11.1338    1.0000 </r>
       <r>  -11.0774    1.0000 </r>
       <r>  -11.0767    1.0000 </r>
       <r>   -4.0447    1.0000 </r>
       <r>    2.0164    1.0000 </r>
       <r>    3.2660    1.0000 </r>
       <r>    3.3736    1.0000 </r>
       <r>    3.6746    1.0000 </r>
       <r>    3.7718    1.0000 </r>
       <r>    4.4312    1.0000 </r>
       <r>    5.4269    1.0000 </r>
       <r>    5.5642    1.0000 </r>
       <r>    6.9766    1.0000 </r>
       <r>    7.6130    0.0000 </r>
       <r>    8.4559    0.0000 </r>
       <r>    8.5003    0.0000 </r>
       <r>    8.7864    0.0000 </r>
       <r>    8.8641    0.0000 </r>
      </set>
      <set comment="kpoint 32">
       <r>  -33.2190    1.0000 </r>
       <r>  -15.6148    1.0000 </r>
       <r>  -15.6108    1.0000 </r>
       <r>  -15.5862    1.0000 </r>
       <r>  -15.5827    1.0000 </r>
       <r>  -15.5824    1.0000 </r>
       <r>  -11.1547    1.0000 </r>
       <r>  -11.0783    1.0000 </r>
       <r>  -11.0754    1.0000 </r>
       <r>   -3.9548    1.0000 </r>
       <r>    2.0194    1.0000 </r>
       <r>    3.0832    1.0000 </r>
       <r>    3.3020    1.0000 </r>
       <r>    3.7605    1.0000 </r>
       <r>    3.7791    1.0000 </r>
       <r>    4.2482    1.0000 </r>
       <r>    5.1971    1.0000 </r>
       <r>    5.5675    1.0000 </r>
       <r>    7.1009    1.0000 </r>
       <r>    7.9856    0.0000 </r>
       <r>    8.5261    0.0000 </r>
       <r>    8.6531    0.0000 </r>
       <r>    8.7805    0.0000 </r>
       <r>    8.8777    0.0000 </r>
      </set>
      <set comment="kpoint 33">
       <r>  -33.2186    1.0000 </r>
       <r>  -15.6141    1.0000 </r>
       <r>  -15.6125    1.0000 </r>
       <r>  -15.5860    1.0000 </r>
       <r>  -15.5828    1.0000 </r>
       <r>  -15.5821    1.0000 </r>
       <r>  -11.1697    1.0000 </r>
       <r>  -11.0836    1.0000 </r>
       <r>  -11.0705    1.0000 </r>
       <r>   -3.8772    1.0000 </r>
       <r>    2.0718    1.0000 </r>
       <r>    2.9618    1.0000 </r>
       <r>    3.1907    1.0000 </r>
       <r>    3.7896    1.0000 </r>
       <r>    3.7970    1.0000 </r>
       <r>    4.0752    1.0000 </r>
       <r>    5.0374    1.0000 </r>
       <r>    5.5699    1.0000 </r>
       <r>    7.1596    0.9999 </r>
       <r>    8.2651    0.0000 </r>
       <r>    8.5783    0.0000 </r>
       <r>    8.7220    0.0000 </r>
       <r>    8.7790    0.0000 </r>
       <r>    8.9596    0.0000 </r>
      </set>
      <set comment="kpoint 34">
       <r>  -33.2184    1.0000 </r>
       <r>  -15.6143    1.0000 </r>
       <r>  -15.6133    1.0000 </r>
       <r>  -15.5856    1.0000 </r>
       <r>  -15.5831    1.0000 </r>
       <r>  -15.5821    1.0000 </r>
       <r>  -11.1756    1.0000 </r>
       <r>  -11.0919    1.0000 </r>
       <r>  -11.0638    1.0000 </r>
       <r>   -3.8254    1.0000 </r>
       <r>    2.1093    1.0000 </r>
       <r>    2.9287    1.0000 </r>
       <r>    3.0549    1.0000 </r>
       <r>    3.7492    1.0000 </r>
       <r>    3.8482    1.0000 </r>
       <r>    3.9949    1.0000 </r>
       <r>    4.9447    1.0000 </r>
       <r>    5.5579    1.0000 </r>
       <r>    7.2606    0.0000 </r>
       <r>    8.2539    0.0000 </r>
       <r>    8.6052    0.0000 </r>
       <r>    8.7621    0.0000 </r>
       <r>    8.7668    0.0000 </r>
       <r>    8.9211    0.0000 </r>
      </set>
      <set comment="kpoint 35">
       <r>  -33.2184    1.0000 </r>
       <r>  -15.6160    1.0000 </r>
       <r>  -15.6126    1.0000 </r>
       <r>  -15.5851    1.0000 </r>
       <r>  -15.5835    1.0000 </r>
       <r>  -15.5823    1.0000 </r>
       <r>  -11.1726    1.0000 </r>
       <r>  -11.1000    1.0000 </r>
       <r>  -11.0569    1.0000 </r>
       <r>   -3.8079    1.0000 </r>
       <r>    2.0839    1.0000 </r>
       <r>    2.9252    1.0000 </r>
       <r>    2.9854    1.0000 </r>
       <r>    3.7032    1.0000 </r>
       <r>    3.9200    1.0000 </r>
       <r>    4.0162    1.0000 </r>
       <r>    4.8789    1.0000 </r>
       <r>    5.5505    1.0000 </r>
       <r>    7.3763    0.0000 </r>
       <r>    8.2152    0.0000 </r>
       <r>    8.5718    0.0000 </r>
       <r>    8.7566    0.0000 </r>
       <r>    8.7923    0.0000 </r>
       <r>    8.9117    0.0000 </r>
      </set>
      <set comment="kpoint 36">
       <r>  -33.2186    1.0000 </r>
       <r>  -15.6171    1.0000 </r>
       <r>  -15.6122    1.0000 </r>
       <r>  -15.5849    1.0000 </r>
       <r>  -15.5837    1.0000 </r>
       <r>  -15.5826    1.0000 </r>
       <r>  -11.1641    1.0000 </r>
       <r>  -11.1033    1.0000 </r>
       <r>  -11.0512    1.0000 </r>
       <r>   -3.8301    1.0000 </r>
       <r>    2.0263    1.0000 </r>
       <r>    2.8295    1.0000 </r>
       <r>    3.1036    1.0000 </r>
       <r>    3.6808    1.0000 </r>
       <r>    3.9822    1.0000 </r>
       <r>    4.1179    1.0000 </r>
       <r>    4.8215    1.0000 </r>
       <r>    5.5790    1.0000 </r>
       <r>    7.4280    0.0000 </r>
       <r>    8.2479    0.0000 </r>
       <r>    8.4481    0.0000 </r>
       <r>    8.7683    0.0000 </r>
       <r>    8.8089    0.0000 </r>
       <r>    8.9203    0.0000 </r>
      </set>
      <set comment="kpoint 37">
       <r>  -33.2190    1.0000 </r>
       <r>  -15.6174    1.0000 </r>
       <r>  -15.6121    1.0000 </r>
       <r>  -15.5850    1.0000 </r>
       <r>  -15.5836    1.0000 </r>
       <r>  -15.5830    1.0000 </r>
       <r>  -11.1557    1.0000 </r>
       <r>  -11.0970    1.0000 </r>
       <r>  -11.0482    1.0000 </r>
       <r>   -3.8916    1.0000 </r>
       <r>    2.0108    1.0000 </r>
       <r>    2.7870    1.0000 </r>
       <r>    3.2378    1.0000 </r>
       <r>    3.6671    1.0000 </r>
       <r>    4.0059    1.0000 </r>
       <r>    4.2204    1.0000 </r>
       <r>    4.8509    1.0000 </r>
       <r>    5.6624    1.0000 </r>
       <r>    7.3851    0.0000 </r>
       <r>    8.2318    0.0000 </r>
       <r>    8.2642    0.0000 </r>
       <r>    8.7832    0.0000 </r>
       <r>    8.7908    0.0000 </r>
       <r>    8.9382    0.0000 </r>
      </set>
      <set comment="kpoint 38">
       <r>  -33.2191    1.0000 </r>
       <r>  -15.6143    1.0000 </r>
       <r>  -15.6090    1.0000 </r>
       <r>  -15.5866    1.0000 </r>
       <r>  -15.5823    1.0000 </r>
       <r>  -15.5823    1.0000 </r>
       <r>  -11.1413    1.0000 </r>
       <r>  -11.0821    1.0000 </r>
       <r>  -11.0821    1.0000 </r>
       <r>   -4.0174    1.0000 </r>
       <r>    2.0179    1.0000 </r>
       <r>    3.3936    1.0000 </r>
       <r>    3.3936    1.0000 </r>
       <r>    3.4826    1.0000 </r>
       <r>    3.8133    1.0000 </r>
       <r>    4.3733    1.0000 </r>
       <r>    5.5450    1.0000 </r>
       <r>    5.5450    1.0000 </r>
       <r>    6.8317    1.0000 </r>
       <r>    7.7255    0.0000 </r>
       <r>    8.5183    0.0000 </r>
       <r>    8.5183    0.0000 </r>
       <r>    8.7425    0.0000 </r>
       <r>    8.8358    0.0000 </r>
      </set>
      <set comment="kpoint 39">
       <r>  -33.2187    1.0000 </r>
       <r>  -15.6131    1.0000 </r>
       <r>  -15.6092    1.0000 </r>
       <r>  -15.5868    1.0000 </r>
       <r>  -15.5821    1.0000 </r>
       <r>  -15.5820    1.0000 </r>
       <r>  -11.1547    1.0000 </r>
       <r>  -11.0855    1.0000 </r>
       <r>  -11.0831    1.0000 </r>
       <r>   -3.9764    1.0000 </r>
       <r>    2.1020    1.0000 </r>
       <r>    3.2208    1.0000 </r>
       <r>    3.3570    1.0000 </r>
       <r>    3.5780    1.0000 </r>
       <r>    3.8370    1.0000 </r>
       <r>    4.2353    1.0000 </r>
       <r>    5.3979    1.0000 </r>
       <r>    5.5616    1.0000 </r>
       <r>    6.9704    1.0000 </r>
       <r>    7.9394    0.0000 </r>
       <r>    8.5667    0.0000 </r>
       <r>    8.5968    0.0000 </r>
       <r>    8.7266    0.0000 </r>
       <r>    8.8062    0.0000 </r>
      </set>
      <set comment="kpoint 40">
       <r>  -33.2184    1.0000 </r>
       <r>  -15.6120    1.0000 </r>
       <r>  -15.6103    1.0000 </r>
       <r>  -15.5867    1.0000 </r>
       <r>  -15.5821    1.0000 </r>
       <r>  -15.5817    1.0000 </r>
       <r>  -11.1639    1.0000 </r>
       <r>  -11.0930    1.0000 </r>
       <r>  -11.0801    1.0000 </r>
       <r>   -3.9304    1.0000 </r>
       <r>    2.2396    1.0000 </r>
       <r>    3.0544    1.0000 </r>
       <r>    3.2715    1.0000 </r>
       <r>    3.6877    1.0000 </r>
       <r>    3.8588    1.0000 </r>
       <r>    4.0861    1.0000 </r>
       <r>    5.1091    1.0000 </r>
       <r>    5.5642    1.0000 </r>
       <r>    7.1033    1.0000 </r>
       <r>    8.2641    0.0000 </r>
       <r>    8.6075    0.0000 </r>
       <r>    8.6795    0.0000 </r>
       <r>    8.7486    0.0000 </r>
       <r>    8.8811    0.0000 </r>
      </set>
      <set comment="kpoint 41">
       <r>  -33.2182    1.0000 </r>
       <r>  -15.6121    1.0000 </r>
       <r>  -15.6113    1.0000 </r>
       <r>  -15.5863    1.0000 </r>
       <r>  -15.5825    1.0000 </r>
       <r>  -15.5817    1.0000 </r>
       <r>  -11.1645    1.0000 </r>
       <r>  -11.1057    1.0000 </r>
       <r>  -11.0738    1.0000 </r>
       <r>   -3.8860    1.0000 </r>
       <r>    2.3539    1.0000 </r>
       <r>    2.9543    1.0000 </r>
       <r>    3.1487    1.0000 </r>
       <r>    3.7172    1.0000 </r>
       <r>    3.8996    1.0000 </r>
       <r>    4.0289    1.0000 </r>
       <r>    4.8454    1.0000 </r>
       <r>    5.5350    1.0000 </r>
       <r>    7.2122    0.0002 </r>
       <r>    8.3052    0.0000 </r>
       <r>    8.6399    0.0000 </r>
       <r>    8.7135    0.0000 </r>
       <r>    8.7656    0.0000 </r>
       <r>    8.9156    0.0000 </r>
      </set>
      <set comment="kpoint 42">
       <r>  -33.2182    1.0000 </r>
       <r>  -15.6141    1.0000 </r>
       <r>  -15.6110    1.0000 </r>
       <r>  -15.5856    1.0000 </r>
       <r>  -15.5831    1.0000 </r>
       <r>  -15.5819    1.0000 </r>
       <r>  -11.1574    1.0000 </r>
       <r>  -11.1198    1.0000 </r>
       <r>  -11.0656    1.0000 </r>
       <r>   -3.8492    1.0000 </r>
       <r>    2.3374    1.0000 </r>
       <r>    2.9382    1.0000 </r>
       <r>    3.0157    1.0000 </r>
       <r>    3.6898    1.0000 </r>
       <r>    3.9503    1.0000 </r>
       <r>    4.0934    1.0000 </r>
       <r>    4.6745    1.0000 </r>
       <r>    5.5032    1.0000 </r>
       <r>    7.3598    0.0000 </r>
       <r>    8.2203    0.0000 </r>
       <r>    8.6484    0.0000 </r>
       <r>    8.7355    0.0000 </r>
       <r>    8.7536    0.0000 </r>
       <r>    8.9163    0.0000 </r>
      </set>
      <set comment="kpoint 43">
       <r>  -33.2183    1.0000 </r>
       <r>  -15.6160    1.0000 </r>
       <r>  -15.6114    1.0000 </r>
       <r>  -15.5849    1.0000 </r>
       <r>  -15.5837    1.0000 </r>
       <r>  -15.5822    1.0000 </r>
       <r>  -11.1549    1.0000 </r>
       <r>  -11.1215    1.0000 </r>
       <r>  -11.0575    1.0000 </r>
       <r>   -3.8276    1.0000 </r>
       <r>    2.1872    1.0000 </r>
       <r>    2.9016    1.0000 </r>
       <r>    3.0027    1.0000 </r>
       <r>    3.6843    1.0000 </r>
       <r>    3.9848    1.0000 </r>
       <r>    4.1601    1.0000 </r>
       <r>    4.6451    1.0000 </r>
       <r>    5.5112    1.0000 </r>
       <r>    7.4786    0.0000 </r>
       <r>    8.1873    0.0000 </r>
       <r>    8.5830    0.0000 </r>
       <r>    8.7495    0.0000 </r>
       <r>    8.7732    0.0000 </r>
       <r>    8.9089    0.0000 </r>
      </set>
      <set comment="kpoint 44">
       <r>  -33.2185    1.0000 </r>
       <r>  -15.6115    1.0000 </r>
       <r>  -15.6085    1.0000 </r>
       <r>  -15.5872    1.0000 </r>
       <r>  -15.5816    1.0000 </r>
       <r>  -15.5816    1.0000 </r>
       <r>  -11.1631    1.0000 </r>
       <r>  -11.0873    1.0000 </r>
       <r>  -11.0873    1.0000 </r>
       <r>   -3.9807    1.0000 </r>
       <r>    2.2428    1.0000 </r>
       <r>    3.3582    1.0000 </r>
       <r>    3.3640    1.0000 </r>
       <r>    3.3640    1.0000 </r>
       <r>    3.8739    1.0000 </r>
       <r>    4.1017    1.0000 </r>
       <r>    5.5991    1.0000 </r>
       <r>    5.5991    1.0000 </r>
       <r>    6.8986    1.0000 </r>
       <r>    7.9648    0.0000 </r>
       <r>    8.5973    0.0000 </r>
       <r>    8.5973    0.0000 </r>
       <r>    8.6706    0.0000 </r>
       <r>    8.7290    0.0000 </r>
      </set>
      <set comment="kpoint 45">
       <r>  -33.2182    1.0000 </r>
       <r>  -15.6103    1.0000 </r>
       <r>  -15.6088    1.0000 </r>
       <r>  -15.5873    1.0000 </r>
       <r>  -15.5815    1.0000 </r>
       <r>  -15.5814    1.0000 </r>
       <r>  -11.1694    1.0000 </r>
       <r>  -11.0920    1.0000 </r>
       <r>  -11.0872    1.0000 </r>
       <r>   -3.9677    1.0000 </r>
       <r>    2.4175    1.0000 </r>
       <r>    3.1696    1.0000 </r>
       <r>    3.3242    1.0000 </r>
       <r>    3.5115    1.0000 </r>
       <r>    3.8952    1.0000 </r>
       <r>    3.9425    1.0000 </r>
       <r>    5.4506    1.0000 </r>
       <r>    5.6173    1.0000 </r>
       <r>    7.0037    1.0000 </r>
       <r>    8.2083    0.0000 </r>
       <r>    8.6231    0.0000 </r>
       <r>    8.6357    0.0000 </r>
       <r>    8.6617    0.0000 </r>
       <r>    8.6811    0.0000 </r>
      </set>
      <set comment="kpoint 46">
       <r>  -33.2181    1.0000 </r>
       <r>  -15.6101    1.0000 </r>
       <r>  -15.6097    1.0000 </r>
       <r>  -15.5870    1.0000 </r>
       <r>  -15.5818    1.0000 </r>
       <r>  -15.5814    1.0000 </r>
       <r>  -11.1676    1.0000 </r>
       <r>  -11.1031    1.0000 </r>
       <r>  -11.0827    1.0000 </r>
       <r>   -3.9386    1.0000 </r>
       <r>    2.5515    1.0000 </r>
       <r>    3.0285    1.0000 </r>
       <r>    3.2401    1.0000 </r>
       <r>    3.6368    1.0000 </r>
       <r>    3.8637    1.0000 </r>
       <r>    3.9208    1.0000 </r>
       <r>    5.1034    1.0000 </r>
       <r>    5.5799    1.0000 </r>
       <r>    7.1080    1.0000 </r>
       <r>    8.4045    0.0000 </r>
       <r>    8.6453    0.0000 </r>
       <r>    8.6731    0.0000 </r>
       <r>    8.7400    0.0000 </r>
       <r>    8.8369    0.0000 </r>
      </set>
      <set comment="kpoint 47">
       <r>  -33.2181    1.0000 </r>
       <r>  -15.6120    1.0000 </r>
       <r>  -15.6100    1.0000 </r>
       <r>  -15.5863    1.0000 </r>
       <r>  -15.5824    1.0000 </r>
       <r>  -15.5816    1.0000 </r>
       <r>  -11.1586    1.0000 </r>
       <r>  -11.1179    1.0000 </r>
       <r>  -11.0750    1.0000 </r>
       <r>   -3.8966    1.0000 </r>
       <r>    2.5345    1.0000 </r>
       <r>    2.9445    1.0000 </r>
       <r>    3.1288    1.0000 </r>
       <r>    3.6654    1.0000 </r>
       <r>    3.9464    1.0000 </r>
       <r>    3.9855    1.0000 </r>
       <r>    4.7824    1.0000 </r>
       <r>    5.5221    1.0000 </r>
       <r>    7.2295    0.0000 </r>
       <r>    8.3182    0.0000 </r>
       <r>    8.6608    0.0000 </r>
       <r>    8.6939    0.0000 </r>
       <r>    8.7665    0.0000 </r>
       <r>    8.9056    0.0000 </r>
      </set>
      <set comment="kpoint 48">
       <r>  -33.2181    1.0000 </r>
       <r>  -15.6091    1.0000 </r>
       <r>  -15.6082    1.0000 </r>
       <r>  -15.5876    1.0000 </r>
       <r>  -15.5812    1.0000 </r>
       <r>  -15.5812    1.0000 </r>
       <r>  -11.1755    1.0000 </r>
       <r>  -11.0903    1.0000 </r>
       <r>  -11.0903    1.0000 </r>
       <r>   -3.9826    1.0000 </r>
       <r>    2.5767    1.0000 </r>
       <r>    3.2952    1.0000 </r>
       <r>    3.3390    1.0000 </r>
       <r>    3.3390    1.0000 </r>
       <r>    3.7903    1.0000 </r>
       <r>    3.9092    1.0000 </r>
       <r>    5.6673    1.0000 </r>
       <r>    5.6673    1.0000 </r>
       <r>    6.9740    1.0000 </r>
       <r>    8.1149    0.0000 </r>
       <r>    8.5621    0.0000 </r>
       <r>    8.6244    0.0000 </r>
       <r>    8.6344    0.0000 </r>
       <r>    8.6344    0.0000 </r>
      </set>
      <set comment="kpoint 49">
       <r>  -33.2181    1.0000 </r>
       <r>  -15.6089    1.0000 </r>
       <r>  -15.6087    1.0000 </r>
       <r>  -15.5875    1.0000 </r>
       <r>  -15.5813    1.0000 </r>
       <r>  -15.5812    1.0000 </r>
       <r>  -11.1747    1.0000 </r>
       <r>  -11.0944    1.0000 </r>
       <r>  -11.0887    1.0000 </r>
       <r>   -3.9725    1.0000 </r>
       <r>    2.6392    1.0000 </r>
       <r>    3.1502    1.0000 </r>
       <r>    3.3091    1.0000 </r>
       <r>    3.4954    1.0000 </r>
       <r>    3.7372    1.0000 </r>
       <r>    3.9180    1.0000 </r>
       <r>    5.4845    1.0000 </r>
       <r>    5.6488    1.0000 </r>
       <r>    7.0246    1.0000 </r>
       <r>    8.3748    0.0000 </r>
       <r>    8.4992    0.0000 </r>
       <r>    8.6390    0.0000 </r>
       <r>    8.6521    0.0000 </r>
       <r>    8.6683    0.0000 </r>
      </set>
      <set comment="kpoint 50">
       <r>  -33.2205    1.0000 </r>
       <r>  -15.6143    1.0000 </r>
       <r>  -15.6109    1.0000 </r>
       <r>  -15.5851    1.0000 </r>
       <r>  -15.5839    1.0000 </r>
       <r>  -15.5838    1.0000 </r>
       <r>  -11.1051    1.0000 </r>
       <r>  -11.0725    1.0000 </r>
       <r>  -11.0599    1.0000 </r>
       <r>   -4.2414    1.0000 </r>
       <r>    2.4606    1.0000 </r>
       <r>    3.1103    1.0000 </r>
       <r>    3.3819    1.0000 </r>
       <r>    3.6824    1.0000 </r>
       <r>    3.8548    1.0000 </r>
       <r>    4.5763    1.0000 </r>
       <r>    5.5573    1.0000 </r>
       <r>    5.9187    1.0000 </r>
       <r>    6.9777    1.0000 </r>
       <r>    7.3051    0.0000 </r>
       <r>    7.9896    0.0000 </r>
       <r>    8.2558    0.0000 </r>
       <r>    8.7224    0.0000 </r>
       <r>    8.8531    0.0000 </r>
      </set>
      <set comment="kpoint 51">
       <r>  -33.2199    1.0000 </r>
       <r>  -15.6156    1.0000 </r>
       <r>  -15.6116    1.0000 </r>
       <r>  -15.5853    1.0000 </r>
       <r>  -15.5836    1.0000 </r>
       <r>  -15.5835    1.0000 </r>
       <r>  -11.1307    1.0000 </r>
       <r>  -11.0748    1.0000 </r>
       <r>  -11.0555    1.0000 </r>
       <r>   -4.1015    1.0000 </r>
       <r>    2.2190    1.0000 </r>
       <r>    2.9707    1.0000 </r>
       <r>    3.3294    1.0000 </r>
       <r>    3.7049    1.0000 </r>
       <r>    3.9113    1.0000 </r>
       <r>    4.3757    1.0000 </r>
       <r>    5.3369    1.0000 </r>
       <r>    5.8163    1.0000 </r>
       <r>    7.0637    1.0000 </r>
       <r>    7.6414    0.0000 </r>
       <r>    8.1784    0.0000 </r>
       <r>    8.5070    0.0000 </r>
       <r>    8.8393    0.0000 </r>
       <r>    8.8613    0.0000 </r>
      </set>
      <set comment="kpoint 52">
       <r>  -33.2194    1.0000 </r>
       <r>  -15.6166    1.0000 </r>
       <r>  -15.6128    1.0000 </r>
       <r>  -15.5854    1.0000 </r>
       <r>  -15.5834    1.0000 </r>
       <r>  -15.5831    1.0000 </r>
       <r>  -11.1585    1.0000 </r>
       <r>  -11.0734    1.0000 </r>
       <r>  -11.0529    1.0000 </r>
       <r>   -3.9547    1.0000 </r>
       <r>    2.0286    1.0000 </r>
       <r>    2.8855    1.0000 </r>
       <r>    3.2278    1.0000 </r>
       <r>    3.7058    1.0000 </r>
       <r>    3.9110    1.0000 </r>
       <r>    4.1382    1.0000 </r>
       <r>    5.2890    1.0000 </r>
       <r>    5.7239    1.0000 </r>
       <r>    7.0497    1.0000 </r>
       <r>    8.0470    0.0000 </r>
[...]
       <r>    7.5767    0.0000 </r>
       <r>    8.0464    0.0000 </r>
       <r>    8.6334    0.0000 </r>
       <r>    8.6871    0.0000 </r>
       <r>    8.7735    0.0000 </r>
       <r>    8.8993    0.0000 </r>
      </set>
      <set comment="kpoint 81">
       <r>  -33.2182    1.0000 </r>
       <r>  -15.6149    1.0000 </r>
       <r>  -15.6104    1.0000 </r>
       <r>  -15.5851    1.0000 </r>
       <r>  -15.5839    1.0000 </r>
       <r>  -15.5817    1.0000 </r>
       <r>  -11.1539    1.0000 </r>
       <r>  -11.1170    1.0000 </r>
       <r>  -11.0697    1.0000 </r>
       <r>   -3.8541    1.0000 </r>
       <r>    2.3091    1.0000 </r>
       <r>    2.8331    1.0000 </r>
       <r>    3.1974    1.0000 </r>
       <r>    3.7465    1.0000 </r>
       <r>    3.9100    1.0000 </r>
       <r>    4.1146    1.0000 </r>
       <r>    4.4870    1.0000 </r>
       <r>    5.6338    1.0000 </r>
       <r>    7.5798    0.0000 </r>
       <r>    8.0441    0.0000 </r>
       <r>    8.6141    0.0000 </r>
       <r>    8.6923    0.0000 </r>
       <r>    8.7832    0.0000 </r>
       <r>    8.8975    0.0000 </r>
      </set>
      <set comment="kpoint 82">
       <r>  -33.2181    1.0000 </r>
       <r>  -15.6122    1.0000 </r>
       <r>  -15.6089    1.0000 </r>
       <r>  -15.5864    1.0000 </r>
       <r>  -15.5827    1.0000 </r>
       <r>  -15.5812    1.0000 </r>
       <r>  -11.1601    1.0000 </r>
       <r>  -11.1062    1.0000 </r>
       <r>  -11.0866    1.0000 </r>
       <r>   -3.9119    1.0000 </r>
       <r>    2.5646    1.0000 </r>
       <r>    2.8936    1.0000 </r>
       <r>    3.3151    1.0000 </r>
       <r>    3.7207    1.0000 </r>
       <r>    3.8615    1.0000 </r>
       <r>    3.9414    1.0000 </r>
       <r>    4.6291    1.0000 </r>
       <r>    5.7237    1.0000 </r>
       <r>    7.3379    0.0000 </r>
       <r>    8.2720    0.0000 </r>
       <r>    8.5649    0.0000 </r>
       <r>    8.6303    0.0000 </r>
       <r>    8.7238    0.0000 </r>
       <r>    8.8940    0.0000 </r>
      </set>
      <set comment="kpoint 83">
       <r>  -33.2181    1.0000 </r>
       <r>  -15.6133    1.0000 </r>
       <r>  -15.6089    1.0000 </r>
       <r>  -15.5858    1.0000 </r>
       <r>  -15.5833    1.0000 </r>
       <r>  -15.5812    1.0000 </r>
       <r>  -11.1520    1.0000 </r>
       <r>  -11.1169    1.0000 </r>
       <r>  -11.0840    1.0000 </r>
       <r>   -3.8890    1.0000 </r>
       <r>    2.5917    1.0000 </r>
       <r>    2.8303    1.0000 </r>
       <r>    3.2813    1.0000 </r>
       <r>    3.7384    1.0000 </r>
       <r>    3.9096    1.0000 </r>
       <r>    3.9972    1.0000 </r>
       <r>    4.3729    1.0000 </r>
       <r>    5.7185    1.0000 </r>
       <r>    7.4912    0.0000 </r>
       <r>    8.1630    0.0000 </r>
       <r>    8.6146    0.0000 </r>
       <r>    8.6273    0.0000 </r>
       <r>    8.7518    0.0000 </r>
       <r>    8.9117    0.0000 </r>
      </set>
      <set comment="kpoint 84">
       <r>  -33.2181    1.0000 </r>
       <r>  -15.6139    1.0000 </r>
       <r>  -15.6089    1.0000 </r>
       <r>  -15.5852    1.0000 </r>
       <r>  -15.5840    1.0000 </r>
       <r>  -15.5812    1.0000 </r>
       <r>  -11.1476    1.0000 </r>
       <r>  -11.1198    1.0000 </r>
       <r>  -11.0845    1.0000 </r>
       <r>   -3.8781    1.0000 </r>
       <r>    2.5719    1.0000 </r>
       <r>    2.8007    1.0000 </r>
       <r>    3.2929    1.0000 </r>
       <r>    3.7846    1.0000 </r>
       <r>    3.9323    1.0000 </r>
       <r>    4.0253    1.0000 </r>
       <r>    4.2112    1.0000 </r>
       <r>    5.7377    1.0000 </r>
       <r>    7.6688    0.0000 </r>
       <r>    8.0128    0.0000 </r>
       <r>    8.5961    0.0000 </r>
       <r>    8.6286    0.0000 </r>
       <r>    8.7748    0.0000 </r>
       <r>    8.8968    0.0000 </r>
      </set>
     </set>
    </set>
   </array>
  </eigenvalues>
  <separator name="orbital magnetization" >
   <v name="MAGDIPOLOUT">      0.00000000      0.00000000      0.00000000</v>
  </separator>
  <dos>
   <i name="efermi">      7.18700576 </i>
   <total>
    <array>
     <dimension dim="1">gridpoints</dimension>
     <dimension dim="2">spin</dimension>
     <field>energy</field>
     <field>total</field>
     <field>integrated</field>
     <set>
      <set comment="spin 1">
       <r>   -35.3311     0.0000     0.0000 </r>
       <r>   -35.1764     0.0000     0.0000 </r>
       <r>   -35.0217     0.0000     0.0000 </r>
       <r>   -34.8670     0.0000     0.0000 </r>
       <r>   -34.7123     0.0000     0.0000 </r>
       <r>   -34.5576     0.0000     0.0000 </r>
       <r>   -34.4028     0.0000     0.0000 </r>
       <r>   -34.2481     0.0000     0.0000 </r>
       <r>   -34.0934     0.0000     0.0000 </r>
       <r>   -33.9387     0.0000     0.0000 </r>
       <r>   -33.7840     0.0000     0.0000 </r>
       <r>   -33.6292     0.0000     0.0000 </r>
       <r>   -33.4745     0.0000     0.0000 </r>
       <r>   -33.3198     0.0000     0.0000 </r>
       <r>   -33.1651    12.9268     2.0000 </r>
       <r>   -33.0104     0.0000     2.0000 </r>
       <r>   -32.8557     0.0000     2.0000 </r>
       <r>   -32.7009     0.0000     2.0000 </r>
       <r>   -32.5462     0.0000     2.0000 </r>
       <r>   -32.3915     0.0000     2.0000 </r>
       <r>   -32.2368     0.0000     2.0000 </r>
       <r>   -32.0821     0.0000     2.0000 </r>
       <r>   -31.9274     0.0000     2.0000 </r>
       <r>   -31.7726     0.0000     2.0000 </r>
       <r>   -31.6179     0.0000     2.0000 </r>
       <r>   -31.4632     0.0000     2.0000 </r>
       <r>   -31.3085     0.0000     2.0000 </r>
       <r>   -31.1538     0.0000     2.0000 </r>
       <r>   -30.9991     0.0000     2.0000 </r>
       <r>   -30.8443     0.0000     2.0000 </r>
       <r>   -30.6896     0.0000     2.0000 </r>
       <r>   -30.5349     0.0000     2.0000 </r>
       <r>   -30.3802     0.0000     2.0000 </r>
       <r>   -30.2255     0.0000     2.0000 </r>
       <r>   -30.0707     0.0000     2.0000 </r>
       <r>   -29.9160     0.0000     2.0000 </r>
       <r>   -29.7613     0.0000     2.0000 </r>
       <r>   -29.6066     0.0000     2.0000 </r>
       <r>   -29.4519     0.0000     2.0000 </r>
       <r>   -29.2972     0.0000     2.0000 </r>
       <r>   -29.1424     0.0000     2.0000 </r>
       <r>   -28.9877     0.0000     2.0000 </r>
       <r>   -28.8330     0.0000     2.0000 </r>
       <r>   -28.6783     0.0000     2.0000 </r>
       <r>   -28.5236     0.0000     2.0000 </r>
       <r>   -28.3689     0.0000     2.0000 </r>
       <r>   -28.2141     0.0000     2.0000 </r>
       <r>   -28.0594     0.0000     2.0000 </r>
       <r>   -27.9047     0.0000     2.0000 </r>
       <r>   -27.7500     0.0000     2.0000 </r>
       <r>   -27.5953     0.0000     2.0000 </r>
       <r>   -27.4405     0.0000     2.0000 </r>
       <r>   -27.2858     0.0000     2.0000 </r>
       <r>   -27.1311     0.0000     2.0000 </r>
       <r>   -26.9764     0.0000     2.0000 </r>
       <r>   -26.8217     0.0000     2.0000 </r>
       <r>   -26.6670     0.0000     2.0000 </r>
       <r>   -26.5122     0.0000     2.0000 </r>
       <r>   -26.3575     0.0000     2.0000 </r>
       <r>   -26.2028     0.0000     2.0000 </r>
       <r>   -26.0481     0.0000     2.0000 </r>
       <r>   -25.8934     0.0000     2.0000 </r>
       <r>   -25.7387     0.0000     2.0000 </r>
       <r>   -25.5839     0.0000     2.0000 </r>
       <r>   -25.4292     0.0000     2.0000 </r>
       <r>   -25.2745     0.0000     2.0000 </r>
       <r>   -25.1198     0.0000     2.0000 </r>
       <r>   -24.9651     0.0000     2.0000 </r>
       <r>   -24.8104     0.0000     2.0000 </r>
       <r>   -24.6556     0.0000     2.0000 </r>
       <r>   -24.5009     0.0000     2.0000 </r>
       <r>   -24.3462     0.0000     2.0000 </r>
       <r>   -24.1915     0.0000     2.0000 </r>
       <r>   -24.0368     0.0000     2.0000 </r>
       <r>   -23.8820     0.0000     2.0000 </r>
       <r>   -23.7273     0.0000     2.0000 </r>
       <r>   -23.5726     0.0000     2.0000 </r>
       <r>   -23.4179     0.0000     2.0000 </r>
       <r>   -23.2632     0.0000     2.0000 </r>
       <r>   -23.1085     0.0000     2.0000 </r>
       <r>   -22.9537     0.0000     2.0000 </r>
       <r>   -22.7990     0.0000     2.0000 </r>
       <r>   -22.6443     0.0000     2.0000 </r>
       <r>   -22.4896     0.0000     2.0000 </r>
       <r>   -22.3349     0.0000     2.0000 </r>
       <r>   -22.1802     0.0000     2.0000 </r>
       <r>   -22.0254     0.0000     2.0000 </r>
       <r>   -21.8707     0.0000     2.0000 </r>
       <r>   -21.7160     0.0000     2.0000 </r>
       <r>   -21.5613     0.0000     2.0000 </r>
       <r>   -21.4066     0.0000     2.0000 </r>
       <r>   -21.2518     0.0000     2.0000 </r>
       <r>   -21.0971     0.0000     2.0000 </r>
       <r>   -20.9424     0.0000     2.0000 </r>
       <r>   -20.7877     0.0000     2.0000 </r>
       <r>   -20.6330     0.0000     2.0000 </r>
       <r>   -20.4783     0.0000     2.0000 </r>
       <r>   -20.3235     0.0000     2.0000 </r>
       <r>   -20.1688     0.0000     2.0000 </r>
       <r>   -20.0141     0.0000     2.0000 </r>
       <r>   -19.8594     0.0000     2.0000 </r>
       <r>   -19.7047     0.0000     2.0000 </r>
       <r>   -19.5500     0.0000     2.0000 </r>
       <r>   -19.3952     0.0000     2.0000 </r>
       <r>   -19.2405     0.0000     2.0000 </r>
       <r>   -19.0858     0.0000     2.0000 </r>
       <r>   -18.9311     0.0000     2.0000 </r>
       <r>   -18.7764     0.0000     2.0000 </r>
       <r>   -18.6217     0.0000     2.0000 </r>
       <r>   -18.4669     0.0000     2.0000 </r>
       <r>   -18.3122     0.0000     2.0000 </r>
       <r>   -18.1575     0.0000     2.0000 </r>
       <r>   -18.0028     0.0000     2.0000 </r>
       <r>   -17.8481     0.0000     2.0000 </r>
       <r>   -17.6933     0.0000     2.0000 </r>
       <r>   -17.5386     0.0000     2.0000 </r>
       <r>   -17.3839     0.0000     2.0000 </r>
       <r>   -17.2292     0.0000     2.0000 </r>
       <r>   -17.0745     0.0000     2.0000 </r>
       <r>   -16.9198     0.0000     2.0000 </r>
       <r>   -16.7650     0.0000     2.0000 </r>
       <r>   -16.6103     0.0000     2.0000 </r>
       <r>   -16.4556     0.0000     2.0000 </r>
       <r>   -16.3009     0.0000     2.0000 </r>
       <r>   -16.1462     0.0000     2.0000 </r>
       <r>   -15.9915     0.0000     2.0000 </r>
       <r>   -15.8367     0.0000     2.0000 </r>
       <r>   -15.6820     0.0000     2.0000 </r>
       <r>   -15.5273    38.7804    12.0000 </r>
       <r>   -15.3726     0.0000    12.0000 </r>
       <r>   -15.2179     0.0000    12.0000 </r>
       <r>   -15.0632     0.0000    12.0000 </r>
       <r>   -14.9084     0.0000    12.0000 </r>
       <r>   -14.7537     0.0000    12.0000 </r>
       <r>   -14.5990     0.0000    12.0000 </r>
       <r>   -14.4443     0.0000    12.0000 </r>
       <r>   -14.2896     0.0000    12.0000 </r>
       <r>   -14.1348     0.0000    12.0000 </r>
       <r>   -13.9801     0.0000    12.0000 </r>
       <r>   -13.8254     0.0000    12.0000 </r>
       <r>   -13.6707     0.0000    12.0000 </r>
       <r>   -13.5160     0.0000    12.0000 </r>
       <r>   -13.3613     0.0000    12.0000 </r>
       <r>   -13.2065     0.0000    12.0000 </r>
       <r>   -13.0518     0.0000    12.0000 </r>
       <r>   -12.8971     0.0000    12.0000 </r>
       <r>   -12.7424     0.0000    12.0000 </r>
       <r>   -12.5877     0.0000    12.0000 </r>
       <r>   -12.4330     0.0000    12.0000 </r>
       <r>   -12.2782     0.0000    12.0000 </r>
       <r>   -12.1235     0.0000    12.0000 </r>
       <r>   -11.9688     0.0000    12.0000 </r>
       <r>   -11.8141     0.0000    12.0000 </r>
       <r>   -11.6594     0.0000    12.0000 </r>
       <r>   -11.5046     0.0000    12.0000 </r>
       <r>   -11.3499     0.0000    12.0000 </r>
       <r>   -11.1952     0.5171    12.0800 </r>
       <r>   -11.0405    26.3757    17.9615 </r>
       <r>   -10.8858     0.0000    18.0000 </r>
       <r>   -10.7311     0.0000    18.0000 </r>
       <r>   -10.5763     0.0000    18.0000 </r>
       <r>   -10.4216     0.0000    18.0000 </r>
       <r>   -10.2669     0.0000    18.0000 </r>
       <r>   -10.1122     0.0000    18.0000 </r>
       <r>    -9.9575     0.0000    18.0000 </r>
       <r>    -9.8028     0.0000    18.0000 </r>
       <r>    -9.6480     0.0000    18.0000 </r>
       <r>    -9.4933     0.0000    18.0000 </r>
       <r>    -9.3386     0.0000    18.0000 </r>
       <r>    -9.1839     0.0000    18.0000 </r>
       <r>    -9.0292     0.0000    18.0000 </r>
       <r>    -8.8745     0.0000    18.0000 </r>
       <r>    -8.7197     0.0000    18.0000 </r>
       <r>    -8.5650     0.0000    18.0000 </r>
       <r>    -8.4103     0.0000    18.0000 </r>
       <r>    -8.2556     0.0000    18.0000 </r>
       <r>    -8.1009     0.0000    18.0000 </r>
       <r>    -7.9461     0.0000    18.0000 </r>
       <r>    -7.7914     0.0000    18.0000 </r>
       <r>    -7.6367     0.0000    18.0000 </r>
       <r>    -7.4820     0.0000    18.0000 </r>
       <r>    -7.3273     0.0000    18.0000 </r>
       <r>    -7.1726     0.0000    18.0000 </r>
       <r>    -7.0178     0.0000    18.0000 </r>
       <r>    -6.8631     0.0000    18.0000 </r>
       <r>    -6.7084     0.0000    18.0000 </r>
       <r>    -6.5537     0.0000    18.0000 </r>
       <r>    -6.3990     0.0000    18.0000 </r>
       <r>    -6.2443     0.0000    18.0000 </r>
       <r>    -6.0895     0.0000    18.0000 </r>
       <r>    -5.9348     0.0000    18.0000 </r>
       <r>    -5.7801     0.0000    18.0000 </r>
       <r>    -5.6254     0.0000    18.0000 </r>
       <r>    -5.4707     0.0000    18.0000 </r>
       <r>    -5.3159     0.0000    18.0000 </r>
       <r>    -5.1612     0.0000    18.0000 </r>
       <r>    -5.0065     0.0000    18.0000 </r>
       <r>    -4.8518     0.0000    18.0000 </r>
       <r>    -4.6971     0.0000    18.0000 </r>
       <r>    -4.5424     0.0000    18.0000 </r>
       <r>    -4.3876     0.0875    18.0144 </r>
       <r>    -4.2329     0.2966    18.0996 </r>
       <r>    -4.0782     0.6414    18.2458 </r>
       <r>    -3.9235     2.6815    18.7435 </r>
       <r>    -3.7688     3.3508    19.9249 </r>
       <r>    -3.6141     0.0000    20.0000 </r>
       <r>    -3.4593     0.0000    20.0000 </r>
       <r>    -3.3046     0.0000    20.0000 </r>
       <r>    -3.1499     0.0000    20.0000 </r>
       <r>    -2.9952     0.0000    20.0000 </r>
       <r>    -2.8405     0.0000    20.0000 </r>
       <r>    -2.6858     0.0000    20.0000 </r>
       <r>    -2.5310     0.0000    20.0000 </r>
       <r>    -2.3763     0.0000    20.0000 </r>
       <r>    -2.2216     0.0000    20.0000 </r>
       <r>    -2.0669     0.0000    20.0000 </r>
       <r>    -1.9122     0.0000    20.0000 </r>
       <r>    -1.7574     0.0000    20.0000 </r>
       <r>    -1.6027     0.0000    20.0000 </r>
       <r>    -1.4480     0.0000    20.0000 </r>
       <r>    -1.2933     0.0000    20.0000 </r>
       <r>    -1.1386     0.0000    20.0000 </r>
       <r>    -0.9839     0.0000    20.0000 </r>
       <r>    -0.8291     0.0000    20.0000 </r>
       <r>    -0.6744     0.0000    20.0000 </r>
       <r>    -0.5197     0.0000    20.0000 </r>
       <r>    -0.3650     0.0000    20.0000 </r>
       <r>    -0.2103     0.0000    20.0000 </r>
       <r>    -0.0556     0.0000    20.0000 </r>
       <r>     0.0992     0.0000    20.0000 </r>
       <r>     0.2539     0.0000    20.0000 </r>
       <r>     0.4086     0.0000    20.0000 </r>
       <r>     0.5633     0.0000    20.0000 </r>
       <r>     0.7180     0.0000    20.0000 </r>
       <r>     0.8727     0.0000    20.0000 </r>
       <r>     1.0275     0.0000    20.0000 </r>
       <r>     1.1822     0.0000    20.0000 </r>
       <r>     1.3369     0.0000    20.0000 </r>
       <r>     1.4916     0.0000    20.0000 </r>
       <r>     1.6463     0.0000    20.0000 </r>
       <r>     1.8011     0.3032    20.0542 </r>
       <r>     1.9558     0.9539    20.2714 </r>
       <r>     2.1105     1.5774    20.9741 </r>
       <r>     2.2652     1.9639    21.3744 </r>
       <r>     2.4199     0.8170    21.5957 </r>
       <r>     2.5746     0.8283    21.8505 </r>
       <r>     2.7294     0.0866    21.9597 </r>
       <r>     2.8841     4.1888    22.6490 </r>
       <r>     3.0388     3.3328    23.8638 </r>
       <r>     3.1935     2.3250    24.7038 </r>
       <r>     3.3482     3.7436    25.8009 </r>
       <r>     3.5029     0.1117    26.0282 </r>
       <r>     3.6577     0.6590    26.1730 </r>
       <r>     3.8124     7.5950    28.4951 </r>
       <r>     3.9671     6.2427    30.3468 </r>
       <r>     4.1218     2.9830    31.2754 </r>
       <r>     4.2765     0.9191    31.6497 </r>
       <r>     4.4313     1.0012    31.9210 </r>
       <r>     4.5860     0.5949    32.1148 </r>
       <r>     4.7407     1.8394    32.4403 </r>
       <r>     4.8954     0.9882    32.6417 </r>
       <r>     5.0501     1.1889    33.0032 </r>
       <r>     5.2048     0.5583    33.1897 </r>
       <r>     5.3596     1.4108    33.5510 </r>
       <r>     5.5143     0.4304    33.6833 </r>
       <r>     5.6690     6.2866    35.1793 </r>
       <r>     5.8237     0.9223    35.7949 </r>
       <r>     5.9784     0.4942    35.9254 </r>
       <r>     6.1331     0.0706    35.9727 </r>
       <r>     6.2879     0.0141    36.0004 </r>
       <r>     6.4426     0.0471    36.0155 </r>
       <r>     6.5973     0.1262    36.0423 </r>
       <r>     6.7520     0.3162    36.0953 </r>
       <r>     6.9067     0.4663    36.2351 </r>
       <r>     7.0614     1.1707    36.5316 </r>
       <r>     7.2162     2.2439    37.1565 </r>
       <r>     7.3709     2.0560    37.6463 </r>
       <r>     7.5256     1.2880    38.0300 </r>
       <r>     7.6803     0.8240    38.2558 </r>
       <r>     7.8350     0.3772    38.3924 </r>
       <r>     7.9898     0.9217    38.6151 </r>
       <r>     8.1445     2.5048    39.1750 </r>
       <r>     8.2992     3.5999    40.1082 </r>
       <r>     8.4539     1.8926    40.7962 </r>
       <r>     8.6086     4.1265    41.9320 </r>
       <r>     8.7633     8.7568    44.2834 </r>
       <r>     8.9181     7.8911    47.2810 </r>
       <r>     9.0728     0.0000    48.0000 </r>
       <r>     9.2275     0.0000    48.0000 </r>
       <r>     9.3822     0.0000    48.0000 </r>
       <r>     9.5369     0.0000    48.0000 </r>
       <r>     9.6916     0.0000    48.0000 </r>
       <r>     9.8464     0.0000    48.0000 </r>
       <r>    10.0011     0.0000    48.0000 </r>
       <r>    10.1558     0.0000    48.0000 </r>
       <r>    10.3105     0.0000    48.0000 </r>
       <r>    10.4652     0.0000    48.0000 </r>
       <r>    10.6200     0.0000    48.0000 </r>
       <r>    10.7747     0.0000    48.0000 </r>
       <r>    10.9294     0.0000    48.0000 </r>
       <r>    11.0841     0.0000    48.0000 </r>
      </set>
     </set>
    </array>
   </total>
  </dos>
 </calculation>
 <structure name="finalpos" >
  <crystal>
   <varray name="basis" >
    <v>       0.00000000       3.55671203       3.55671203 </v>
    <v>       3.55671203       0.00000000       3.55671203 </v>
    <v>       3.55671203       3.55671203       0.00000000 </v>
   </varray>
   <i name="volume">     89.98624046 </i>
   <varray name="rec_basis" >
    <v>      -0.14057928       0.14057928       0.14057928 </v>
    <v>       0.14057928      -0.14057928       0.14057928 </v>
    <v>       0.14057928       0.14057928      -0.14057928 </v>
   </varray>
  </crystal>
  <varray name="positions" >
   <v>       0.25000000       0.25000000       0.25000000 </v>
   <v>       0.75000000       0.75000000       0.75000000 </v>
   <v>       0.00000000       0.00000000       0.00000000 </v>
  </varray>
 </structure>
</modeling>
