   2   2   1   0
  0.9122169E+01  0.2954933E-09  0.2954933E-09  0.2954933E-09  0.0000000E+00
   1.0000000000000000E-004
  CAR 
 unknown system                          
     40.87896537    -15.92135034  301      6.15629619      1.00000000
    -15.921  0.0000E+00  0.0000E+00  0.0000E+00  0.0000E+00
    -15.732  0.0000E+00  0.0000E+00  0.0000E+00  0.0000E+00
    -15.543  0.0000E+00  0.0000E+00  0.0000E+00  0.0000E+00
    -15.353  0.0000E+00  0.0000E+00  0.0000E+00  0.0000E+00
    -15.164  0.0000E+00  0.0000E+00  0.0000E+00  0.0000E+00
    -14.975  0.0000E+00  0.0000E+00  0.0000E+00  0.0000E+00
    -14.785  0.0000E+00  0.0000E+00  0.0000E+00  0.0000E+00
    -14.596  0.0000E+00  0.0000E+00  0.0000E+00  0.0000E+00
    -14.407  0.0000E+00  0.0000E+00  0.0000E+00  0.0000E+00
    -14.217  0.0000E+00  0.0000E+00  0.0000E+00  0.0000E+00
    -14.028  0.0000E+00  0.0000E+00  0.0000E+00  0.0000E+00
    -13.839  0.0000E+00  0.0000E+00  0.0000E+00  0.0000E+00
    -13.649  0.0000E+00  0.0000E+00  0.0000E+00  0.0000E+00
    -13.460  0.0000E+00  0.0000E+00  0.0000E+00  0.0000E+00
    -13.271  0.5437E-01  0.5446E-01  0.1967E-02  0.1975E-02
    -13.081  0.1472E+00  0.1473E+00  0.1897E-01  0.1898E-01
    -12.892  0.1880E+00  0.1880E+00  0.4789E-01  0.4792E-01
    -12.703  0.2590E+00  0.2591E+00  0.8955E-01  0.8959E-01
    -12.513  0.3625E+00  0.3627E+00  0.1476E+00  0.1477E+00
    -12.324  0.5387E+00  0.5534E+00  0.2303E+00  0.2304E+00
    -12.135  0.9133E+00  0.8993E+00  0.3595E+00  0.3596E+00
    -11.945  0.3494E+01  0.3495E+01  0.6489E+00  0.6494E+00
    -11.756  0.1340E+01  0.1340E+01  0.1000E+01  0.1000E+01
    -11.567  0.0000E+00  0.0000E+00  0.1000E+01  0.1000E+01
    -11.377  0.0000E+00  0.0000E+00  0.1000E+01  0.1000E+01
    -11.188  0.0000E+00  0.0000E+00  0.1000E+01  0.1000E+01
    -10.999  0.0000E+00  0.0000E+00  0.1000E+01  0.1000E+01
    -10.809  0.0000E+00  0.0000E+00  0.1000E+01  0.1000E+01
    -10.620  0.0000E+00  0.0000E+00  0.1000E+01  0.1000E+01
    -10.431  0.0000E+00  0.0000E+00  0.1000E+01  0.1000E+01
    -10.241  0.0000E+00  0.0000E+00  0.1000E+01  0.1000E+01
    -10.052  0.0000E+00  0.0000E+00  0.1000E+01  0.1000E+01
     -9.863  0.0000E+00  0.0000E+00  0.1000E+01  0.1000E+01
     -9.673  0.0000E+00  0.0000E+00  0.1000E+01  0.1000E+01
     -9.484  0.0000E+00  0.0000E+00  0.1000E+01  0.1000E+01
     -9.295  0.0000E+00  0.0000E+00  0.1000E+01  0.1000E+01
     -9.105  0.0000E+00  0.0000E+00  0.1000E+01  0.1000E+01
     -8.916  0.0000E+00  0.0000E+00  0.1000E+01  0.1000E+01
     -8.727  0.0000E+00  0.0000E+00  0.1000E+01  0.1000E+01
     -8.537  0.0000E+00  0.0000E+00  0.1000E+01  0.1000E+01
     -8.348  0.0000E+00  0.0000E+00  0.1000E+01  0.1000E+01
     -8.159  0.0000E+00  0.0000E+00  0.1000E+01  0.1000E+01
     -7.969  0.0000E+00  0.0000E+00  0.1000E+01  0.1000E+01
     -7.780  0.0000E+00  0.0000E+00  0.1000E+01  0.1000E+01
     -7.591  0.0000E+00  0.0000E+00  0.1000E+01  0.1000E+01
     -7.401  0.0000E+00  0.0000E+00  0.1000E+01  0.1000E+01
     -7.212  0.0000E+00  0.0000E+00  0.1000E+01  0.1000E+01
     -7.023  0.0000E+00  0.0000E+00  0.1000E+01  0.1000E+01
     -6.833  0.0000E+00  0.0000E+00  0.1000E+01  0.1000E+01
     -6.644  0.0000E+00  0.0000E+00  0.1000E+01  0.1000E+01
     -6.455  0.0000E+00  0.0000E+00  0.1000E+01  0.1000E+01
     -6.265  0.0000E+00  0.0000E+00  0.1000E+01  0.1000E+01
     -6.076  0.0000E+00  0.0000E+00  0.1000E+01  0.1000E+01
     -5.887  0.0000E+00  0.0000E+00  0.1000E+01  0.1000E+01
     -5.697  0.0000E+00  0.0000E+00  0.1000E+01  0.1000E+01
     -5.508  0.0000E+00  0.0000E+00  0.1000E+01  0.1000E+01
     -5.319  0.0000E+00  0.0000E+00  0.1000E+01  0.1000E+01
     -5.129  0.0000E+00  0.0000E+00  0.1000E+01  0.1000E+01
     -4.940  0.0000E+00  0.0000E+00  0.1000E+01  0.1000E+01
     -4.751  0.0000E+00  0.0000E+00  0.1000E+01  0.1000E+01
     -4.561  0.0000E+00  0.0000E+00  0.1000E+01  0.1000E+01
     -4.372  0.0000E+00  0.0000E+00  0.1000E+01  0.1000E+01
     -4.183  0.0000E+00  0.0000E+00  0.1000E+01  0.1000E+01
     -3.993  0.0000E+00  0.0000E+00  0.1000E+01  0.1000E+01
     -3.804  0.0000E+00  0.0000E+00  0.1000E+01  0.1000E+01
     -3.615  0.0000E+00  0.0000E+00  0.1000E+01  0.1000E+01
     -3.425  0.0000E+00  0.0000E+00  0.1000E+01  0.1000E+01
     -3.236  0.0000E+00  0.0000E+00  0.1000E+01  0.1000E+01
     -3.047  0.0000E+00  0.0000E+00  0.1000E+01  0.1000E+01
     -2.857  0.0000E+00  0.0000E+00  0.1000E+01  0.1000E+01
     -2.668  0.0000E+00  0.0000E+00  0.1000E+01  0.1000E+01
     -2.479  0.0000E+00  0.0000E+00  0.1000E+01  0.1000E+01
     -2.289  0.0000E+00  0.0000E+00  0.1000E+01  0.1000E+01
     -2.100  0.0000E+00  0.0000E+00  0.1000E+01  0.1000E+01
     -1.911  0.0000E+00  0.0000E+00  0.1000E+01  0.1000E+01
     -1.721  0.0000E+00  0.0000E+00  0.1000E+01  0.1000E+01
     -1.532  0.0000E+00  0.0000E+00  0.1000E+01  0.1000E+01
     -1.343  0.1907E-01  0.1918E-01  0.1000E+01  0.1000E+01
     -1.153  0.1551E+00  0.1552E+00  0.1018E+01  0.1018E+01
     -0.964  0.2146E+00  0.2147E+00  0.1051E+01  0.1051E+01
     -0.775  0.3031E+00  0.3031E+00  0.1100E+01  0.1100E+01
     -0.585  0.4202E+00  0.4203E+00  0.1168E+01  0.1168E+01
     -0.396  0.7514E+00  0.7511E+00  0.1273E+01  0.1274E+01
     -0.207  0.8471E+00  0.8475E+00  0.1422E+01  0.1422E+01
     -0.017  0.1108E+01  0.1108E+01  0.1615E+01  0.1615E+01
      0.172  0.8582E+00  0.8580E+00  0.1771E+01  0.1771E+01
      0.361  0.3246E+00  0.3247E+00  0.1868E+01  0.1868E+01
      0.551  0.2491E+00  0.2493E+00  0.1910E+01  0.1910E+01
      0.740  0.1040E+01  0.1041E+01  0.2009E+01  0.2009E+01
      0.929  0.2003E+01  0.1997E+01  0.2260E+01  0.2261E+01
      1.119  0.3042E+01  0.3042E+01  0.2585E+01  0.2586E+01
      1.308  0.2177E+01  0.2176E+01  0.3017E+01  0.3017E+01
      1.497  0.1175E+01  0.1174E+01  0.3273E+01  0.3274E+01
      1.687  0.9630E+00  0.9626E+00  0.3473E+01  0.3473E+01
      1.876  0.7634E+00  0.7631E+00  0.3635E+01  0.3635E+01
      2.065  0.6473E+00  0.6471E+00  0.3766E+01  0.3766E+01
      2.255  0.4620E+00  0.4618E+00  0.3871E+01  0.3871E+01
      2.444  0.2796E+00  0.2794E+00  0.3943E+01  0.3943E+01
      2.633  0.1848E+00  0.1848E+00  0.3983E+01  0.3983E+01
      2.823  0.4038E+00  0.4040E+00  0.4034E+01  0.4034E+01
      3.012  0.1046E+01  0.1046E+01  0.4154E+01  0.4154E+01
      3.201  0.1443E+01  0.1444E+01  0.4357E+01  0.4358E+01
      3.391  0.2313E+01  0.2314E+01  0.4663E+01  0.4663E+01
      3.580  0.6027E+01  0.6086E+01  0.5173E+01  0.5173E+01
      3.769  0.4362E+01  0.4368E+01  0.5991E+01  0.5991E+01
      3.959  0.2135E+01  0.2129E+01  0.6181E+01  0.6181E+01
      4.148  0.4579E+01  0.4573E+01  0.6787E+01  0.6788E+01
      4.337  0.1020E+01  0.1021E+01  0.7039E+01  0.7039E+01
      4.527  0.8940E+00  0.8955E+00  0.7185E+01  0.7186E+01
      4.716  0.1230E+01  0.1231E+01  0.7383E+01  0.7384E+01
      4.905  0.8125E+00  0.8119E+00  0.7566E+01  0.7566E+01
      5.095  0.7401E+00  0.7402E+00  0.7709E+01  0.7709E+01
      5.284  0.7410E+00  0.7410E+00  0.7850E+01  0.7850E+01
      5.473  0.8081E+00  0.8081E+00  0.7994E+01  0.7995E+01
      5.663  0.7659E+00  0.7657E+00  0.8142E+01  0.8143E+01
      5.852  0.7333E+00  0.7332E+00  0.8283E+01  0.8283E+01
      6.041  0.7037E+00  0.7037E+00  0.8419E+01  0.8419E+01
      6.231  0.7001E+00  0.7001E+00  0.8552E+01  0.8553E+01
      6.420  0.6758E+00  0.6759E+00  0.8682E+01  0.8683E+01
      6.609  0.6816E+00  0.6813E+00  0.8814E+01  0.8815E+01
      6.799  0.7593E+00  0.7584E+00  0.8945E+01  0.8945E+01
      6.988  0.8694E-01  0.8694E-01  0.9000E+01  0.9000E+01
      7.177  0.0000E+00  0.0000E+00  0.9000E+01  0.9000E+01
      7.367  0.0000E+00  0.0000E+00  0.9000E+01  0.9000E+01
      7.556  0.0000E+00  0.0000E+00  0.9000E+01  0.9000E+01
      7.745  0.0000E+00  0.0000E+00  0.9000E+01  0.9000E+01
      7.935  0.0000E+00  0.0000E+00  0.9000E+01  0.9000E+01
      8.124  0.0000E+00  0.0000E+00  0.9000E+01  0.9000E+01
      8.313  0.0000E+00  0.0000E+00  0.9000E+01  0.9000E+01
      8.503  0.1774E-02  0.1777E-02  0.9000E+01  0.9000E+01
      8.692  0.6237E-02  0.6238E-02  0.9001E+01  0.9001E+01
      8.881  0.9117E-02  0.9118E-02  0.9002E+01  0.9002E+01
      9.071  0.1227E-01  0.1227E-01  0.9004E+01  0.9004E+01
      9.260  0.1490E-01  0.1490E-01  0.9007E+01  0.9007E+01
      9.449  0.1791E-01  0.1791E-01  0.9010E+01  0.9010E+01
      9.639  0.2111E-01  0.2111E-01  0.9014E+01  0.9014E+01
      9.828  0.2459E-01  0.2460E-01  0.9018E+01  0.9018E+01
     10.017  0.2829E-01  0.2829E-01  0.9023E+01  0.9023E+01
     10.207  0.3218E-01  0.3218E-01  0.9029E+01  0.9029E+01
     10.396  0.3656E-01  0.3656E-01  0.9035E+01  0.9035E+01
     10.585  0.4146E-01  0.4146E-01  0.9043E+01  0.9043E+01
     10.775  0.4672E-01  0.4672E-01  0.9051E+01  0.9051E+01
     10.964  0.5232E-01  0.5232E-01  0.9060E+01  0.9060E+01
     11.153  0.5890E-01  0.5890E-01  0.9071E+01  0.9071E+01
     11.343  0.6636E-01  0.6637E-01  0.9083E+01  0.9083E+01
     11.532  0.7466E-01  0.7467E-01  0.9096E+01  0.9096E+01
     11.721  0.8382E-01  0.8382E-01  0.9111E+01  0.9111E+01
     11.911  0.9526E-01  0.9527E-01  0.9128E+01  0.9128E+01
     12.100  0.1093E+00  0.1093E+00  0.9147E+01  0.9147E+01
     12.289  0.1258E+00  0.1259E+00  0.9170E+01  0.9170E+01
     12.479  0.1523E+00  0.1523E+00  0.9196E+01  0.9196E+01
     12.668  0.2044E+00  0.2044E+00  0.9229E+01  0.9229E+01
     12.857  0.2558E+00  0.2559E+00  0.9271E+01  0.9271E+01
     13.047  0.3299E+00  0.3299E+00  0.9325E+01  0.9325E+01
     13.236  0.3415E+00  0.3415E+00  0.9389E+01  0.9389E+01
     13.425  0.3259E+00  0.3259E+00  0.9452E+01  0.9452E+01
     13.615  0.3248E+00  0.3248E+00  0.9514E+01  0.9514E+01
     13.804  0.3102E+00  0.3102E+00  0.9574E+01  0.9574E+01
     13.993  0.3000E+00  0.3000E+00  0.9632E+01  0.9632E+01
     14.183  0.2873E+00  0.2873E+00  0.9687E+01  0.9687E+01
     14.372  0.2755E+00  0.2755E+00  0.9741E+01  0.9741E+01
     14.561  0.2623E+00  0.2623E+00  0.9792E+01  0.9792E+01
     14.751  0.2505E+00  0.2505E+00  0.9840E+01  0.9840E+01
     14.940  0.2546E+00  0.2546E+00  0.9887E+01  0.9887E+01
     15.129  0.2831E+00  0.2831E+00  0.9939E+01  0.9939E+01
     15.319  0.2388E+00  0.2388E+00  0.9987E+01  0.9987E+01
     15.508  0.7245E-02  0.7245E-02  0.1000E+02  0.1000E+02
     15.697  0.0000E+00  0.0000E+00  0.1000E+02  0.1000E+02
     15.887  0.2871E+00  0.2870E+00  0.1001E+02  0.1001E+02
     16.076  0.3285E+00  0.3285E+00  0.1007E+02  0.1007E+02
     16.265  0.3600E+00  0.3600E+00  0.1013E+02  0.1013E+02
     16.455  0.4256E+00  0.4256E+00  0.1021E+02  0.1021E+02
     16.644  0.4758E+00  0.4757E+00  0.1030E+02  0.1030E+02
     16.833  0.4053E+00  0.4053E+00  0.1037E+02  0.1037E+02
     17.023  0.3888E+00  0.3888E+00  0.1045E+02  0.1045E+02
     17.212  0.4785E+00  0.4785E+00  0.1053E+02  0.1053E+02
     17.402  0.6070E+00  0.6072E+00  0.1062E+02  0.1062E+02
     17.591  0.9480E+00  0.9480E+00  0.1078E+02  0.1078E+02
     17.780  0.6549E+00  0.6549E+00  0.1090E+02  0.1090E+02
     17.970  0.5906E+00  0.5905E+00  0.1102E+02  0.1102E+02
     18.159  0.5778E+00  0.5778E+00  0.1113E+02  0.1113E+02
     18.348  0.5282E+00  0.5281E+00  0.1123E+02  0.1123E+02
     18.538  0.4167E+00  0.4167E+00  0.1132E+02  0.1132E+02
     18.727  0.3550E+00  0.3550E+00  0.1139E+02  0.1139E+02
     18.916  0.3109E+00  0.3109E+00  0.1146E+02  0.1146E+02
     19.106  0.2731E+00  0.2731E+00  0.1151E+02  0.1151E+02
     19.295  0.2464E+00  0.2463E+00  0.1156E+02  0.1156E+02
     19.484  0.2246E+00  0.2246E+00  0.1161E+02  0.1161E+02
     19.674  0.2064E+00  0.2064E+00  0.1165E+02  0.1165E+02
     19.863  0.1850E+00  0.1850E+00  0.1168E+02  0.1168E+02
     20.052  0.1726E+00  0.1726E+00  0.1172E+02  0.1172E+02
     20.242  0.1611E+00  0.1611E+00  0.1175E+02  0.1175E+02
     20.431  0.1702E+00  0.1702E+00  0.1178E+02  0.1178E+02
     20.620  0.1744E+00  0.1744E+00  0.1181E+02  0.1181E+02
     20.810  0.1726E+00  0.1726E+00  0.1185E+02  0.1185E+02
     20.999  0.2728E+00  0.2728E+00  0.1189E+02  0.1189E+02
     21.188  0.3417E+00  0.3417E+00  0.1194E+02  0.1194E+02
     21.378  0.4866E+00  0.4866E+00  0.1202E+02  0.1202E+02
     21.567  0.6726E+00  0.6726E+00  0.1214E+02  0.1214E+02
     21.756  0.6468E+00  0.6468E+00  0.1226E+02  0.1226E+02
     21.946  0.6211E+00  0.6210E+00  0.1238E+02  0.1238E+02
     22.135  0.4783E+00  0.4783E+00  0.1248E+02  0.1248E+02
     22.324  0.4122E+00  0.4122E+00  0.1256E+02  0.1256E+02
     22.514  0.3809E+00  0.3809E+00  0.1264E+02  0.1264E+02
     22.703  0.3500E+00  0.3499E+00  0.1271E+02  0.1271E+02
     22.892  0.3411E+00  0.3411E+00  0.1277E+02  0.1277E+02
     23.082  0.3337E+00  0.3337E+00  0.1284E+02  0.1284E+02
     23.271  0.2148E+00  0.2148E+00  0.1288E+02  0.1288E+02
     23.460  0.1943E+00  0.1943E+00  0.1292E+02  0.1292E+02
     23.650  0.1890E+00  0.1890E+00  0.1296E+02  0.1296E+02
     23.839  0.1925E+00  0.1925E+00  0.1299E+02  0.1299E+02
     24.028  0.1826E+00  0.1826E+00  0.1303E+02  0.1303E+02
     24.218  0.1777E+00  0.1777E+00  0.1306E+02  0.1306E+02
     24.407  0.1827E+00  0.1827E+00  0.1310E+02  0.1310E+02
     24.596  0.1829E+00  0.1829E+00  0.1313E+02  0.1313E+02
     24.786  0.1862E+00  0.1862E+00  0.1316E+02  0.1316E+02
     24.975  0.1933E+00  0.1933E+00  0.1320E+02  0.1320E+02
     25.164  0.1565E+00  0.1565E+00  0.1323E+02  0.1323E+02
     25.354  0.1623E+00  0.1623E+00  0.1326E+02  0.1326E+02
     25.543  0.1836E+00  0.1836E+00  0.1330E+02  0.1330E+02
     25.732  0.1853E+00  0.1853E+00  0.1333E+02  0.1333E+02
     25.922  0.1938E+00  0.1938E+00  0.1337E+02  0.1337E+02
     26.111  0.2019E+00  0.2019E+00  0.1340E+02  0.1340E+02
     26.300  0.2070E+00  0.2070E+00  0.1344E+02  0.1344E+02
     26.490  0.2237E+00  0.2237E+00  0.1348E+02  0.1348E+02
     26.679  0.2274E+00  0.2274E+00  0.1353E+02  0.1353E+02
     26.868  0.2106E+00  0.2106E+00  0.1357E+02  0.1357E+02
     27.058  0.2162E+00  0.2162E+00  0.1361E+02  0.1361E+02
     27.247  0.2229E+00  0.2229E+00  0.1365E+02  0.1365E+02
     27.436  0.2543E+00  0.2543E+00  0.1369E+02  0.1369E+02
     27.626  0.2931E+00  0.2931E+00  0.1375E+02  0.1375E+02
     27.815  0.3174E+00  0.3174E+00  0.1380E+02  0.1380E+02
     28.004  0.3130E+00  0.3130E+00  0.1386E+02  0.1386E+02
     28.194  0.2817E+00  0.2817E+00  0.1392E+02  0.1392E+02
     28.383  0.2327E+00  0.2327E+00  0.1397E+02  0.1397E+02
     28.572  0.2110E+00  0.2110E+00  0.1401E+02  0.1401E+02
     28.762  0.1843E+00  0.1843E+00  0.1405E+02  0.1405E+02
     28.951  0.2143E+00  0.2143E+00  0.1409E+02  0.1409E+02
     29.140  0.2278E+00  0.2278E+00  0.1413E+02  0.1413E+02
     29.330  0.2633E+00  0.2633E+00  0.1417E+02  0.1417E+02
     29.519  0.2991E+00  0.2992E+00  0.1423E+02  0.1423E+02
     29.708  0.3251E+00  0.3251E+00  0.1429E+02  0.1429E+02
     29.898  0.3630E+00  0.3630E+00  0.1435E+02  0.1435E+02
     30.087  0.3817E+00  0.3817E+00  0.1443E+02  0.1443E+02
     30.276  0.3873E+00  0.3873E+00  0.1450E+02  0.1450E+02
     30.466  0.3361E+00  0.3361E+00  0.1457E+02  0.1457E+02
     30.655  0.3439E+00  0.3439E+00  0.1463E+02  0.1463E+02
     30.844  0.3441E+00  0.3441E+00  0.1469E+02  0.1470E+02
     31.034  0.3263E+00  0.3263E+00  0.1476E+02  0.1476E+02
     31.223  0.3144E+00  0.3144E+00  0.1482E+02  0.1482E+02
     31.412  0.3189E+00  0.3189E+00  0.1488E+02  0.1488E+02
     31.602  0.3207E+00  0.3207E+00  0.1494E+02  0.1494E+02
     31.791  0.3145E+00  0.3144E+00  0.1500E+02  0.1500E+02
     31.980  0.2671E+00  0.2671E+00  0.1505E+02  0.1505E+02
     32.170  0.2514E+00  0.2514E+00  0.1510E+02  0.1510E+02
     32.359  0.2291E+00  0.2291E+00  0.1515E+02  0.1515E+02
     32.548  0.2179E+00  0.2179E+00  0.1519E+02  0.1519E+02
     32.738  0.2100E+00  0.2100E+00  0.1523E+02  0.1523E+02
     32.927  0.2025E+00  0.2025E+00  0.1527E+02  0.1527E+02
     33.116  0.1934E+00  0.1934E+00  0.1531E+02  0.1531E+02
     33.306  0.1848E+00  0.1848E+00  0.1534E+02  0.1534E+02
     33.495  0.1769E+00  0.1769E+00  0.1538E+02  0.1538E+02
     33.684  0.1667E+00  0.1667E+00  0.1541E+02  0.1541E+02
     33.874  0.1579E+00  0.1579E+00  0.1544E+02  0.1544E+02
     34.063  0.1515E+00  0.1515E+00  0.1547E+02  0.1547E+02
     34.252  0.1474E+00  0.1474E+00  0.1550E+02  0.1550E+02
     34.442  0.1459E+00  0.1459E+00  0.1553E+02  0.1553E+02
     34.631  0.1435E+00  0.1435E+00  0.1555E+02  0.1555E+02
     34.820  0.1837E+00  0.1838E+00  0.1558E+02  0.1558E+02
     35.010  0.2215E+00  0.2214E+00  0.1562E+02  0.1562E+02
     35.199  0.1014E+00  0.1015E+00  0.1565E+02  0.1565E+02
     35.388  0.1141E+00  0.1143E+00  0.1567E+02  0.1567E+02
     35.578  0.3357E+00  0.3362E+00  0.1571E+02  0.1571E+02
     35.767  0.3539E+00  0.3541E+00  0.1578E+02  0.1578E+02
     35.956  0.2647E+00  0.2651E+00  0.1584E+02  0.1584E+02
     36.146  0.2093E+00  0.2103E+00  0.1589E+02  0.1589E+02
     36.335  0.2117E+00  0.2126E+00  0.1592E+02  0.1592E+02
     36.524  0.2038E+00  0.2051E+00  0.1596E+02  0.1597E+02
     36.714  0.6625E-01  0.6945E-01  0.1599E+02  0.1599E+02
     36.903  0.1583E-01  0.7699E-02  0.1600E+02  0.1600E+02
     37.092  0.5912E-02  0.5903E-02  0.1600E+02  0.1600E+02
     37.282  0.4173E-02  0.4173E-02  0.1600E+02  0.1600E+02
     37.471  0.2762E-02  0.2761E-02  0.1600E+02  0.1600E+02
     37.660  0.1641E-02  0.1640E-02  0.1600E+02  0.1600E+02
     37.850  0.8103E-03  0.8095E-03  0.1600E+02  0.1600E+02
     38.039  0.2697E-03  0.2691E-03  0.1600E+02  0.1600E+02
     38.228  0.1918E-04  0.1898E-04  0.1600E+02  0.1600E+02
     38.418  0.0000E+00  0.0000E+00  0.1600E+02  0.1600E+02
     38.607  0.0000E+00  0.0000E+00  0.1600E+02  0.1600E+02
     38.796  0.0000E+00  0.0000E+00  0.1600E+02  0.1600E+02
     38.986  0.0000E+00  0.0000E+00  0.1600E+02  0.1600E+02
     39.175  0.0000E+00  0.0000E+00  0.1600E+02  0.1600E+02
     39.364  0.0000E+00  0.0000E+00  0.1600E+02  0.1600E+02
     39.554  0.0000E+00  0.0000E+00  0.1600E+02  0.1600E+02
     39.743  0.0000E+00  0.0000E+00  0.1600E+02  0.1600E+02
     39.932  0.0000E+00  0.0000E+00  0.1600E+02  0.1600E+02
     40.122  0.0000E+00  0.0000E+00  0.1600E+02  0.1600E+02
     40.311  0.0000E+00  0.0000E+00  0.1600E+02  0.1600E+02
     40.500  0.0000E+00  0.0000E+00  0.1600E+02  0.1600E+02
     40.690  0.0000E+00  0.0000E+00  0.1600E+02  0.1600E+02
     40.879  0.0000E+00  0.0000E+00  0.1600E+02  0.1600E+02
     40.87896537    -15.92135034  301      6.15629619      1.00000000
    -15.921  0.0000E+00  0.0000E+00  0.0000E+00  0.0000E+00  0.0000E+00  0.0000E+00  0.0000E+00  0.0000E+00  0.0000E+00  0.0000E+00  0.0000E+00  0.0000E+00  0.0000E+00  0.0000E+00  0.0000E+00  0.0000E+00  0.0000E+00  0.0000E+00
    -15.732  0.0000E+00  0.0000E+00  0.0000E+00  0.0000E+00  0.0000E+00  0.0000E+00  0.0000E+00  0.0000E+00  0.0000E+00  0.0000E+00  0.0000E+00  0.0000E+00  0.0000E+00  0.0000E+00  0.0000E+00  0.0000E+00  0.0000E+00  0.0000E+00
    -15.543  0.0000E+00  0.0000E+00  0.0000E+00  0.0000E+00  0.0000E+00  0.0000E+00  0.0000E+00  0.0000E+00  0.0000E+00  0.0000E+00  0.0000E+00  0.0000E+00  0.0000E+00  0.0000E+00  0.0000E+00  0.0000E+00  0.0000E+00  0.0000E+00
    -15.353  0.0000E+00  0.0000E+00  0.0000E+00  0.0000E+00  0.0000E+00  0.0000E+00  0.0000E+00  0.0000E+00  0.0000E+00  0.0000E+00  0.0000E+00  0.0000E+00  0.0000E+00  0.0000E+00  0.0000E+00  0.0000E+00  0.0000E+00  0.0000E+00
    -15.164  0.0000E+00  0.0000E+00  0.0000E+00  0.0000E+00  0.0000E+00  0.0000E+00  0.0000E+00  0.0000E+00  0.0000E+00  0.0000E+00  0.0000E+00  0.0000E+00  0.0000E+00  0.0000E+00  0.0000E+00  0.0000E+00  0.0000E+00  0.0000E+00
    -14.975  0.0000E+00  0.0000E+00  0.0000E+00  0.0000E+00  0.0000E+00  0.0000E+00  0.0000E+00  0.0000E+00  0.0000E+00  0.0000E+00  0.0000E+00  0.0000E+00  0.0000E+00  0.0000E+00  0.0000E+00  0.0000E+00  0.0000E+00  0.0000E+00
    -14.785  0.0000E+00  0.0000E+00  0.0000E+00  0.0000E+00  0.0000E+00  0.0000E+00  0.0000E+00  0.0000E+00  0.0000E+00  0.0000E+00  0.0000E+00  0.0000E+00  0.0000E+00  0.0000E+00  0.0000E+00  0.0000E+00  0.0000E+00  0.0000E+00
    -14.596  0.0000E+00  0.0000E+00  0.0000E+00  0.0000E+00  0.0000E+00  0.0000E+00  0.0000E+00  0.0000E+00  0.0000E+00  0.0000E+00  0.0000E+00  0.0000E+00  0.0000E+00  0.0000E+00  0.0000E+00  0.0000E+00  0.0000E+00  0.0000E+00
    -14.407  0.0000E+00  0.0000E+00  0.0000E+00  0.0000E+00  0.0000E+00  0.0000E+00  0.0000E+00  0.0000E+00  0.0000E+00  0.0000E+00  0.0000E+00  0.0000E+00  0.0000E+00  0.0000E+00  0.0000E+00  0.0000E+00  0.0000E+00  0.0000E+00
    -14.217  0.0000E+00  0.0000E+00  0.0000E+00  0.0000E+00  0.0000E+00  0.0000E+00  0.0000E+00  0.0000E+00  0.0000E+00  0.0000E+00  0.0000E+00  0.0000E+00  0.0000E+00  0.0000E+00  0.0000E+00  0.0000E+00  0.0000E+00  0.0000E+00
    -14.028  0.0000E+00  0.0000E+00  0.0000E+00  0.0000E+00  0.0000E+00  0.0000E+00  0.0000E+00  0.0000E+00  0.0000E+00  0.0000E+00  0.0000E+00  0.0000E+00  0.0000E+00  0.0000E+00  0.0000E+00  0.0000E+00  0.0000E+00  0.0000E+00
    -13.839  0.0000E+00  0.0000E+00  0.0000E+00  0.0000E+00  0.0000E+00  0.0000E+00  0.0000E+00  0.0000E+00  0.0000E+00  0.0000E+00  0.0000E+00  0.0000E+00  0.0000E+00  0.0000E+00  0.0000E+00  0.0000E+00  0.0000E+00  0.0000E+00
    -13.649  0.0000E+00  0.0000E+00  0.0000E+00  0.0000E+00  0.0000E+00  0.0000E+00  0.0000E+00  0.0000E+00  0.0000E+00  0.0000E+00  0.0000E+00  0.0000E+00  0.0000E+00  0.0000E+00  0.0000E+00  0.0000E+00  0.0000E+00  0.0000E+00
    -13.460  0.0000E+00  0.0000E+00  0.0000E+00  0.0000E+00  0.0000E+00  0.0000E+00  0.0000E+00  0.0000E+00  0.0000E+00  0.0000E+00  0.0000E+00  0.0000E+00  0.0000E+00  0.0000E+00  0.0000E+00  0.0000E+00  0.0000E+00  0.0000E+00
    -13.271  0.4941E-02  0.4948E-02  0.4381E-04  0.4393E-04  0.4381E-04  0.4393E-04  0.4381E-04  0.4393E-04  0.1680E-07  0.1686E-07  0.1680E-07  0.1686E-07  0.1067E-05  0.1071E-05  0.1680E-07  0.1686E-07  0.1067E-05  0.1071E-05
    -13.081  0.1177E-01  0.1177E-01  0.3805E-03  0.3808E-03  0.3805E-03  0.3808E-03  0.3805E-03  0.3808E-03  0.3813E-06  0.3818E-06  0.3813E-06  0.3818E-06  0.2805E-04  0.2810E-04  0.3813E-06  0.3818E-06  0.2805E-04  0.2810E-04
    -12.892  0.1251E-01  0.1252E-01  0.8517E-03  0.8522E-03  0.8517E-03  0.8522E-03  0.8517E-03  0.8522E-03  0.1294E-05  0.1295E-05  0.1294E-05  0.1295E-05  0.1257E-03  0.1258E-03  0.1294E-05  0.1295E-05  0.1257E-03  0.1258E-03
    -12.703  0.1402E-01  0.1402E-01  0.1583E-02  0.1584E-02  0.1583E-02  0.1584E-02  0.1583E-02  0.1584E-02  0.2987E-05  0.2989E-05  0.2987E-05  0.2989E-05  0.3718E-03  0.3721E-03  0.2987E-05  0.2989E-05  0.3718E-03  0.3721E-03
    -12.513  0.1508E-01  0.1508E-01  0.2690E-02  0.2691E-02  0.2690E-02  0.2691E-02  0.2690E-02  0.2691E-02  0.5569E-05  0.5571E-05  0.5569E-05  0.5571E-05  0.9524E-03  0.9531E-03  0.5569E-05  0.5571E-05  0.9524E-03  0.9531E-03
    -12.324  0.1572E-01  0.1623E-01  0.4486E-02  0.4590E-02  0.4486E-02  0.4590E-02  0.4486E-02  0.4590E-02  0.9048E-05  0.9220E-05  0.9048E-05  0.9220E-05  0.2380E-02  0.2455E-02  0.9048E-05  0.9220E-05  0.2380E-02  0.2455E-02
    -12.135  0.1542E-01  0.1508E-01  0.7994E-02  0.7881E-02  0.7994E-02  0.7881E-02  0.7994E-02  0.7881E-02  0.1333E-04  0.1312E-04  0.1333E-04  0.1312E-04  0.6355E-02  0.6268E-02  0.1333E-04  0.1312E-04  0.6355E-02  0.6268E-02
    -11.945  0.1848E-01  0.1849E-01  0.2990E-01  0.2987E-01  0.2990E-01  0.2987E-01  0.2990E-01  0.2987E-01  0.2763E-04  0.2762E-04  0.2763E-04  0.2762E-04  0.3620E-01  0.3628E-01  0.2763E-04  0.2762E-04  0.3620E-01  0.3628E-01
    -11.756  0.3043E-02  0.3043E-02  0.7955E-02  0.7955E-02  0.7955E-02  0.7955E-02  0.7955E-02  0.7955E-02  0.5701E-05  0.5701E-05  0.5701E-05  0.5701E-05  0.2141E-01  0.2141E-01  0.5701E-05  0.5701E-05  0.2141E-01  0.2141E-01
    -11.567  0.0000E+00  0.0000E+00  0.0000E+00  0.0000E+00  0.0000E+00  0.0000E+00  0.0000E+00  0.0000E+00  0.0000E+00  0.0000E+00  0.0000E+00  0.0000E+00  0.0000E+00  0.0000E+00  0.0000E+00  0.0000E+00  0.0000E+00  0.0000E+00
    -11.377  0.0000E+00  0.0000E+00  0.0000E+00  0.0000E+00  0.0000E+00  0.0000E+00  0.0000E+00  0.0000E+00  0.0000E+00  0.0000E+00  0.0000E+00  0.0000E+00  0.0000E+00  0.0000E+00  0.0000E+00  0.0000E+00  0.0000E+00  0.0000E+00
    -11.188  0.0000E+00  0.0000E+00  0.0000E+00  0.0000E+00  0.0000E+00  0.0000E+00  0.0000E+00  0.0000E+00  0.0000E+00  0.0000E+00  0.0000E+00  0.0000E+00  0.0000E+00  0.0000E+00  0.0000E+00  0.0000E+00  0.0000E+00  0.0000E+00
    -10.999  0.0000E+00  0.0000E+00  0.0000E+00  0.0000E+00  0.0000E+00  0.0000E+00  0.0000E+00  0.0000E+00  0.0000E+00  0.0000E+00  0.0000E+00  0.0000E+00  0.0000E+00  0.0000E+00  0.0000E+00  0.0000E+00  0.0000E+00  0.0000E+00
    -10.809  0.0000E+00  0.0000E+00  0.0000E+00  0.0000E+00  0.0000E+00  0.0000E+00  0.0000E+00  0.0000E+00  0.0000E+00  0.0000E+00  0.0000E+00  0.0000E+00  0.0000E+00  0.0000E+00  0.0000E+00  0.0000E+00  0.0000E+00  0.0000E+00
    -10.620  0.0000E+00  0.0000E+00  0.0000E+00  0.0000E+00  0.0000E+00  0.0000E+00  0.0000E+00  0.0000E+00  0.0000E+00  0.0000E+00  0.0000E+00  0.0000E+00  0.0000E+00  0.0000E+00  0.0000E+00  0.0000E+00  0.0000E+00  0.0000E+00
    -10.431  0.0000E+00  0.0000E+00  0.0000E+00  0.0000E+00  0.0000E+00  0.0000E+00  0.0000E+00  0.0000E+00  0.0000E+00  0.0000E+00  0.0000E+00  0.0000E+00  0.0000E+00  0.0000E+00  0.0000E+00  0.0000E+00  0.0000E+00  0.0000E+00
    -10.241  0.0000E+00  0.0000E+00  0.0000E+00  0.0000E+00  0.0000E+00  0.0000E+00  0.0000E+00  0.0000E+00  0.0000E+00  0.0000E+00  0.0000E+00  0.0000E+00  0.0000E+00  0.0000E+00  0.0000E+00  0.0000E+00  0.0000E+00  0.0000E+00
    -10.052  0.0000E+00  0.0000E+00  0.0000E+00  0.0000E+00  0.0000E+00  0.0000E+00  0.0000E+00  0.0000E+00  0.0000E+00  0.0000E+00  0.0000E+00  0.0000E+00  0.0000E+00  0.0000E+00  0.0000E+00  0.0000E+00  0.0000E+00  0.0000E+00
     -9.863  0.0000E+00  0.0000E+00  0.0000E+00  0.0000E+00  0.0000E+00  0.0000E+00  0.0000E+00  0.0000E+00  0.0000E+00  0.0000E+00  0.0000E+00  0.0000E+00  0.0000E+00  0.0000E+00  0.0000E+00  0.0000E+00  0.0000E+00  0.0000E+00
     -9.673  0.0000E+00  0.0000E+00  0.0000E+00  0.0000E+00  0.0000E+00  0.0000E+00  0.0000E+00  0.0000E+00  0.0000E+00  0.0000E+00  0.0000E+00  0.0000E+00  0.0000E+00  0.0000E+00  0.0000E+00  0.0000E+00  0.0000E+00  0.0000E+00
     -9.484  0.0000E+00  0.0000E+00  0.0000E+00  0.0000E+00  0.0000E+00  0.0000E+00  0.0000E+00  0.0000E+00  0.0000E+00  0.0000E+00  0.0000E+00  0.0000E+00  0.0000E+00  0.0000E+00  0.0000E+00  0.0000E+00  0.0000E+00  0.0000E+00
     -9.295  0.0000E+00  0.0000E+00  0.0000E+00  0.0000E+00  0.0000E+00  0.0000E+00  0.0000E+00  0.0000E+00  0.0000E+00  0.0000E+00  0.0000E+00  0.0000E+00  0.0000E+00  0.0000E+00  0.0000E+00  0.0000E+00  0.0000E+00  0.0000E+00
     -9.105  0.0000E+00  0.0000E+00  0.0000E+00  0.0000E+00  0.0000E+00  0.0000E+00  0.0000E+00  0.0000E+00  0.0000E+00  0.0000E+00  0.0000E+00  0.0000E+00  0.0000E+00  0.0000E+00  0.0000E+00  0.0000E+00  0.0000E+00  0.0000E+00
     -8.916  0.0000E+00  0.0000E+00  0.0000E+00  0.0000E+00  0.0000E+00  0.0000E+00  0.0000E+00  0.0000E+00  0.0000E+00  0.0000E+00  0.0000E+00  0.0000E+00  0.0000E+00  0.0000E+00  0.0000E+00  0.0000E+00  0.0000E+00  0.0000E+00
     -8.727  0.0000E+00  0.0000E+00  0.0000E+00  0.0000E+00  0.0000E+00  0.0000E+00  0.0000E+00  0.0000E+00  0.0000E+00  0.0000E+00  0.0000E+00  0.0000E+00  0.0000E+00  0.0000E+00  0.0000E+00  0.0000E+00  0.0000E+00  0.0000E+00
     -8.537  0.0000E+00  0.0000E+00  0.0000E+00  0.0000E+00  0.0000E+00  0.0000E+00  0.0000E+00  0.0000E+00  0.0000E+00  0.0000E+00  0.0000E+00  0.0000E+00  0.0000E+00  0.0000E+00  0.0000E+00  0.0000E+00  0.0000E+00  0.0000E+00
     -8.348  0.0000E+00  0.0000E+00  0.0000E+00  0.0000E+00  0.0000E+00  0.0000E+00  0.0000E+00  0.0000E+00  0.0000E+00  0.0000E+00  0.0000E+00  0.0000E+00  0.0000E+00  0.0000E+00  0.0000E+00  0.0000E+00  0.0000E+00  0.0000E+00
     -8.159  0.0000E+00  0.0000E+00  0.0000E+00  0.0000E+00  0.0000E+00  0.0000E+00  0.0000E+00  0.0000E+00  0.0000E+00  0.0000E+00  0.0000E+00  0.0000E+00  0.0000E+00  0.0000E+00  0.0000E+00  0.0000E+00  0.0000E+00  0.0000E+00
     -7.969  0.0000E+00  0.0000E+00  0.0000E+00  0.0000E+00  0.0000E+00  0.0000E+00  0.0000E+00  0.0000E+00  0.0000E+00  0.0000E+00  0.0000E+00  0.0000E+00  0.0000E+00  0.0000E+00  0.0000E+00  0.0000E+00  0.0000E+00  0.0000E+00
     -7.780  0.0000E+00  0.0000E+00  0.0000E+00  0.0000E+00  0.0000E+00  0.0000E+00  0.0000E+00  0.0000E+00  0.0000E+00  0.0000E+00  0.0000E+00  0.0000E+00  0.0000E+00  0.0000E+00  0.0000E+00  0.0000E+00  0.0000E+00  0.0000E+00
     -7.591  0.0000E+00  0.0000E+00  0.0000E+00  0.0000E+00  0.0000E+00  0.0000E+00  0.0000E+00  0.0000E+00  0.0000E+00  0.0000E+00  0.0000E+00  0.0000E+00  0.0000E+00  0.0000E+00  0.0000E+00  0.0000E+00  0.0000E+00  0.0000E+00
     -7.401  0.0000E+00  0.0000E+00  0.0000E+00  0.0000E+00  0.0000E+00  0.0000E+00  0.0000E+00  0.0000E+00  0.0000E+00  0.0000E+00  0.0000E+00  0.0000E+00  0.0000E+00  0.0000E+00  0.0000E+00  0.0000E+00  0.0000E+00  0.0000E+00
     -7.212  0.0000E+00  0.0000E+00  0.0000E+00  0.0000E+00  0.0000E+00  0.0000E+00  0.0000E+00  0.0000E+00  0.0000E+00  0.0000E+00  0.0000E+00  0.0000E+00  0.0000E+00  0.0000E+00  0.0000E+00  0.0000E+00  0.0000E+00  0.0000E+00
     -7.023  0.0000E+00  0.0000E+00  0.0000E+00  0.0000E+00  0.0000E+00  0.0000E+00  0.0000E+00  0.0000E+00  0.0000E+00  0.0000E+00  0.0000E+00  0.0000E+00  0.0000E+00  0.0000E+00  0.0000E+00  0.0000E+00  0.0000E+00  0.0000E+00
     -6.833  0.0000E+00  0.0000E+00  0.0000E+00  0.0000E+00  0.0000E+00  0.0000E+00  0.0000E+00  0.0000E+00  0.0000E+00  0.0000E+00  0.0000E+00  0.0000E+00  0.0000E+00  0.0000E+00  0.0000E+00  0.0000E+00  0.0000E+00  0.0000E+00
     -6.644  0.0000E+00  0.0000E+00  0.0000E+00  0.0000E+00  0.0000E+00  0.0000E+00  0.0000E+00  0.0000E+00  0.0000E+00  0.0000E+00  0.0000E+00  0.0000E+00  0.0000E+00  0.0000E+00  0.0000E+00  0.0000E+00  0.0000E+00  0.0000E+00
     -6.455  0.0000E+00  0.0000E+00  0.0000E+00  0.0000E+00  0.0000E+00  0.0000E+00  0.0000E+00  0.0000E+00  0.0000E+00  0.0000E+00  0.0000E+00  0.0000E+00  0.0000E+00  0.0000E+00  0.0000E+00  0.0000E+00  0.0000E+00  0.0000E+00