   2   2   0   0
  0.3391189E+02  0.4577542E-09  0.4577542E-09  0.4577542E-09  0.0000000E+00
  1.000000000000000E-004
  CAR 
 unknown system                          
     11.94273647     -7.36187279  301      3.45273019      1.00000000
     -7.362  0.0000E+00  0.0000E+00
     -7.298  0.0000E+00  0.0000E+00
     -7.233  0.0000E+00  0.0000E+00
     -7.169  0.0000E+00  0.0000E+00
     -7.104  0.0000E+00  0.0000E+00
     -7.040  0.0000E+00  0.0000E+00
     -6.976  0.0000E+00  0.0000E+00
     -6.911  0.0000E+00  0.0000E+00
     -6.847  0.0000E+00  0.0000E+00
     -6.783  0.0000E+00  0.0000E+00
     -6.718  0.0000E+00  0.0000E+00
     -6.654  0.0000E+00  0.0000E+00
     -6.590  0.0000E+00  0.0000E+00
     -6.525  0.0000E+00  0.0000E+00
     -6.461  0.1114E+00  0.8692E-03
     -6.397  0.2313E+00  0.1182E-01
     -6.332  0.3134E+00  0.2902E-01
     -6.268  0.3784E+00  0.5138E-01
     -6.204  0.4521E+00  0.7808E-01
     -6.139  0.5100E+00  0.1090E+00
     -6.075  0.5769E+00  0.1439E+00
     -6.011  0.6396E+00  0.1830E+00
     -5.946  0.7080E+00  0.2264E+00
     -5.882  0.7815E+00  0.2743E+00
     -5.818  0.8615E+00  0.3271E+00
     -5.753  0.9499E+00  0.3853E+00
     -5.689  0.1054E+01  0.4497E+00
     -5.624  0.1181E+01  0.5215E+00
     -5.560  0.1331E+01  0.6022E+00
     -5.496  0.1557E+01  0.6944E+00
     -5.431  0.1955E+01  0.8058E+00
     -5.367  0.2347E+01  0.9496E+00
     -5.303  0.2312E+01  0.1100E+01
     -5.238  0.2325E+01  0.1248E+01
     -5.174  0.2366E+01  0.1399E+01
     -5.110  0.2449E+01  0.1553E+01
     -5.045  0.2630E+01  0.1715E+01
     -4.981  0.3289E+01  0.1899E+01
     -4.917  0.0000E+00  0.2000E+01
     -4.852  0.0000E+00  0.2000E+01
     -4.788  0.0000E+00  0.2000E+01
     -4.724  0.0000E+00  0.2000E+01
     -4.659  0.0000E+00  0.2000E+01
     -4.595  0.0000E+00  0.2000E+01
     -4.531  0.0000E+00  0.2000E+01
     -4.466  0.0000E+00  0.2000E+01
     -4.402  0.0000E+00  0.2000E+01
     -4.337  0.0000E+00  0.2000E+01
     -4.273  0.0000E+00  0.2000E+01
     -4.209  0.0000E+00  0.2000E+01
     -4.144  0.0000E+00  0.2000E+01
     -4.080  0.0000E+00  0.2000E+01
     -4.016  0.0000E+00  0.2000E+01
     -3.951  0.0000E+00  0.2000E+01
     -3.887  0.0000E+00  0.2000E+01
     -3.823  0.0000E+00  0.2000E+01
     -3.758  0.0000E+00  0.2000E+01
     -3.694  0.0000E+00  0.2000E+01
     -3.630  0.0000E+00  0.2000E+01
     -3.565  0.0000E+00  0.2000E+01
     -3.501  0.0000E+00  0.2000E+01
     -3.437  0.0000E+00  0.2000E+01
     -3.372  0.0000E+00  0.2000E+01
     -3.308  0.0000E+00  0.2000E+01
     -3.244  0.0000E+00  0.2000E+01
     -3.179  0.0000E+00  0.2000E+01
     -3.115  0.0000E+00  0.2000E+01
     -3.051  0.0000E+00  0.2000E+01
     -2.986  0.0000E+00  0.2000E+01
     -2.922  0.0000E+00  0.2000E+01
     -2.857  0.0000E+00  0.2000E+01
     -2.793  0.0000E+00  0.2000E+01
     -2.729  0.0000E+00  0.2000E+01
     -2.664  0.0000E+00  0.2000E+01
     -2.600  0.0000E+00  0.2000E+01
     -2.536  0.0000E+00  0.2000E+01
     -2.471  0.0000E+00  0.2000E+01
     -2.407  0.0000E+00  0.2000E+01
     -2.343  0.0000E+00  0.2000E+01
     -2.278  0.0000E+00  0.2000E+01
     -2.214  0.0000E+00  0.2000E+01
     -2.150  0.0000E+00  0.2000E+01
     -2.085  0.0000E+00  0.2000E+01
     -2.021  0.0000E+00  0.2000E+01
     -1.957  0.0000E+00  0.2000E+01
     -1.892  0.0000E+00  0.2000E+01
     -1.828  0.0000E+00  0.2000E+01
     -1.764  0.0000E+00  0.2000E+01
     -1.699  0.0000E+00  0.2000E+01
     -1.635  0.0000E+00  0.2000E+01
     -1.570  0.2656E+00  0.2003E+01
     -1.506  0.1017E+01  0.2041E+01
     -1.442  0.2168E+01  0.2130E+01
     -1.377  0.2954E+01  0.2292E+01
     -1.313  0.4378E+01  0.2577E+01
     -1.249  0.2395E+01  0.2773E+01
     -1.184  0.1775E+01  0.2905E+01
     -1.120  0.1421E+01  0.3006E+01
     -1.056  0.1221E+01  0.3091E+01
     -0.991  0.1047E+01  0.3164E+01
     -0.927  0.9134E+00  0.3226E+01
     -0.863  0.8314E+00  0.3283E+01
     -0.798  0.7545E+00  0.3334E+01
     -0.734  0.6840E+00  0.3380E+01
     -0.670  0.6135E+00  0.3422E+01
     -0.605  0.5716E+00  0.3460E+01
     -0.541  0.5340E+00  0.3495E+01
     -0.477  0.4978E+00  0.3528E+01
     -0.412  0.4608E+00  0.3559E+01
     -0.348  0.4237E+00  0.3588E+01
     -0.284  0.3931E+00  0.3614E+01
     -0.219  0.3730E+00  0.3638E+01
     -0.155  0.3530E+00  0.3662E+01
     -0.090  0.3319E+00  0.3684E+01
     -0.026  0.3108E+00  0.3705E+01
      0.038  0.2902E+00  0.3724E+01
      0.103  0.2672E+00  0.3742E+01
      0.167  0.2543E+00  0.3758E+01
      0.231  0.2421E+00  0.3774E+01
      0.296  0.2299E+00  0.3790E+01
      0.360  0.2178E+00  0.3804E+01
      0.424  0.2050E+00  0.3818E+01
      0.489  0.1904E+00  0.3830E+01
      0.553  0.1774E+00  0.3842E+01
      0.617  0.1657E+00  0.3853E+01
      0.682  0.5227E+00  0.3867E+01
      0.746  0.1096E+01  0.3919E+01
      0.810  0.2013E+01  0.4013E+01
      0.875  0.1986E+01  0.4144E+01
      0.939  0.1729E+01  0.4263E+01
      1.003  0.1579E+01  0.4368E+01
      1.068  0.1508E+01  0.4469E+01
      1.132  0.1450E+01  0.4564E+01
      1.197  0.1378E+01  0.4655E+01
      1.261  0.1514E+01  0.4747E+01
      1.325  0.1548E+01  0.4847E+01
      1.390  0.1653E+01  0.4950E+01
      1.454  0.1724E+01  0.5059E+01
      1.518  0.1968E+01  0.5179E+01
      1.583  0.2549E+01  0.5316E+01
      1.647  0.2274E+01  0.5467E+01
      1.711  0.2246E+01  0.5612E+01
      1.776  0.2225E+01  0.5755E+01
      1.840  0.2172E+01  0.5897E+01
      1.904  0.2133E+01  0.6035E+01
      1.969  0.2136E+01  0.6173E+01
      2.033  0.2087E+01  0.6309E+01
      2.097  0.2049E+01  0.6442E+01
      2.162  0.2027E+01  0.6573E+01
      2.226  0.1984E+01  0.6702E+01
      2.290  0.1965E+01  0.6829E+01
      2.355  0.1948E+01  0.6955E+01
      2.419  0.1939E+01  0.7080E+01
      2.483  0.1910E+01  0.7204E+01
      2.548  0.1884E+01  0.7326E+01
      2.612  0.1830E+01  0.7447E+01
      2.677  0.1393E+01  0.7549E+01
      2.741  0.1152E+01  0.7631E+01
      2.805  0.9927E+00  0.7700E+01
      2.870  0.8565E+00  0.7759E+01
      2.934  0.7501E+00  0.7811E+01
      2.998  0.6565E+00  0.7856E+01
      3.063  0.5573E+00  0.7895E+01
      3.127  0.4752E+00  0.7928E+01
      3.191  0.3986E+00  0.7956E+01
      3.256  0.2969E+00  0.7979E+01
      3.320  0.1652E+00  0.7993E+01
      3.384  0.5513E-02  0.8000E+01
      3.449  0.0000E+00  0.8000E+01
      3.513  0.0000E+00  0.8000E+01
      3.577  0.0000E+00  0.8000E+01
      3.642  0.0000E+00  0.8000E+01
      3.706  0.0000E+00  0.8000E+01
      3.770  0.0000E+00  0.8000E+01
      3.835  0.0000E+00  0.8000E+01
      3.899  0.7594E-04  0.8000E+01
      3.963  0.4237E-03  0.8000E+01
      4.028  0.1053E-02  0.8000E+01
      4.092  0.1965E-02  0.8000E+01
      4.157  0.3158E-02  0.8000E+01
      4.221  0.4633E-02  0.8001E+01
      4.285  0.6389E-02  0.8001E+01
      4.350  0.1294E-01  0.8001E+01
      4.414  0.4634E-01  0.8003E+01
      4.478  0.9457E-01  0.8008E+01
      4.543  0.1538E+00  0.8016E+01
      4.607  0.2033E+00  0.8028E+01
      4.671  0.2422E+00  0.8042E+01
      4.736  0.2949E+00  0.8059E+01
      4.800  0.3876E+00  0.8080E+01
      4.864  0.6348E+00  0.8113E+01
      4.929  0.8288E+00  0.8161E+01
      4.993  0.9853E+00  0.8219E+01
      5.057  0.1156E+01  0.8288E+01
      5.122  0.1314E+01  0.8367E+01
      5.186  0.1462E+01  0.8457E+01
      5.250  0.1646E+01  0.8556E+01
      5.315  0.1882E+01  0.8669E+01
      5.379  0.2249E+01  0.8800E+01
      5.444  0.2924E+01  0.8967E+01
      5.508  0.2758E+01  0.9154E+01
      5.572  0.2211E+01  0.9313E+01
      5.637  0.1962E+01  0.9447E+01
      5.701  0.1691E+01  0.9565E+01
      5.765  0.1446E+01  0.9666E+01
      5.830  0.1263E+01  0.9751E+01
      5.894  0.1163E+01  0.9830E+01
      5.958  0.1065E+01  0.9902E+01
      6.023  0.9195E+00  0.9965E+01
      6.087  0.1050E+01  0.1003E+02
      6.151  0.1296E+01  0.1010E+02
      6.216  0.1350E+01  0.1019E+02
      6.280  0.1202E+01  0.1028E+02
      6.344  0.1136E+01  0.1035E+02
      6.409  0.1157E+01  0.1042E+02
      6.473  0.1259E+01  0.1050E+02
      6.537  0.1184E+01  0.1058E+02
      6.602  0.1206E+01  0.1066E+02
      6.666  0.1205E+01  0.1073E+02
      6.730  0.1230E+01  0.1081E+02
      6.795  0.1452E+01  0.1090E+02
      6.859  0.2166E+01  0.1101E+02
      6.924  0.3206E+01  0.1119E+02
      6.988  0.2797E+01  0.1137E+02
      7.052  0.2709E+01  0.1155E+02
      7.117  0.1871E+01  0.1169E+02
      7.181  0.1844E+01  0.1181E+02
      7.245  0.1698E+01  0.1193E+02
      7.310  0.1589E+01  0.1203E+02
      7.374  0.1481E+01  0.1213E+02
      7.438  0.1339E+01  0.1222E+02
      7.503  0.1276E+01  0.1231E+02
      7.567  0.1316E+01  0.1239E+02
      7.631  0.1595E+01  0.1248E+02
      7.696  0.2027E+01  0.1260E+02
      7.760  0.2253E+01  0.1274E+02
      7.824  0.2250E+01  0.1288E+02
      7.889  0.2205E+01  0.1303E+02
      7.953  0.2095E+01  0.1317E+02
      8.017  0.1870E+01  0.1330E+02
      8.082  0.1839E+01  0.1342E+02
      8.146  0.1766E+01  0.1354E+02
      8.211  0.1884E+01  0.1365E+02
      8.275  0.1680E+01  0.1377E+02
      8.339  0.1598E+01  0.1387E+02
      8.404  0.1434E+01  0.1397E+02
      8.468  0.1341E+01  0.1405E+02
      8.532  0.1286E+01  0.1414E+02
      8.597  0.1361E+01  0.1422E+02
      8.661  0.1258E+01  0.1431E+02
      8.725  0.1128E+01  0.1439E+02
      8.790  0.1124E+01  0.1446E+02
      8.854  0.1138E+01  0.1453E+02
      8.918  0.1183E+01  0.1461E+02
      8.983  0.1342E+01  0.1469E+02
      9.047  0.1653E+01  0.1479E+02
      9.111  0.1997E+01  0.1490E+02
      9.176  0.1584E+01  0.1502E+02
      9.240  0.1304E+01  0.1511E+02
      9.304  0.1126E+01  0.1519E+02
      9.369  0.1041E+01  0.1526E+02
      9.433  0.9854E+00  0.1533E+02
      9.497  0.9318E+00  0.1539E+02
      9.562  0.8828E+00  0.1545E+02
      9.626  0.8425E+00  0.1550E+02
      9.691  0.7737E+00  0.1555E+02
      9.755  0.7339E+00  0.1560E+02
      9.819  0.7019E+00  0.1565E+02
      9.884  0.7515E+00  0.1569E+02
      9.948  0.1112E+01  0.1575E+02
     10.012  0.3808E+00  0.1580E+02
     10.077  0.3471E+00  0.1582E+02
     10.141  0.3168E+00  0.1584E+02
     10.205  0.2984E+00  0.1586E+02
     10.270  0.2780E+00  0.1588E+02
     10.334  0.2598E+00  0.1590E+02
     10.398  0.2398E+00  0.1591E+02
     10.463  0.2218E+00  0.1593E+02
     10.527  0.2024E+00  0.1594E+02
     10.591  0.1834E+00  0.1595E+02
     10.656  0.1629E+00  0.1596E+02
     10.720  0.1326E+00  0.1597E+02
     10.784  0.1054E+00  0.1598E+02
     10.849  0.8308E-01  0.1599E+02
     10.913  0.6555E-01  0.1599E+02
     10.978  0.6100E-01  0.1600E+02
     11.042  0.5057E-01  0.1600E+02
     11.106  0.0000E+00  0.1600E+02
     11.171  0.0000E+00  0.1600E+02
     11.235  0.0000E+00  0.1600E+02
     11.299  0.0000E+00  0.1600E+02
     11.364  0.0000E+00  0.1600E+02
     11.428  0.0000E+00  0.1600E+02
     11.492  0.0000E+00  0.1600E+02
     11.557  0.0000E+00  0.1600E+02
     11.621  0.0000E+00  0.1600E+02
     11.685  0.0000E+00  0.1600E+02
     11.750  0.0000E+00  0.1600E+02
     11.814  0.0000E+00  0.1600E+02
     11.878  0.0000E+00  0.1600E+02
     11.943  0.0000E+00  0.1600E+02
