    2    2    1    1
  0.3391189E+02  0.4577542E-09  0.4577542E-09  0.4577542E-09  0.0000000E+00
  1.000000000000000E-004
  CAR 
 unknown system                          
      8    165      8
 
  0.0000000E+00  0.0000000E+00  0.0000000E+00  0.2035416E-03
    1       -6.484391   1.000000
    2        3.393988   1.000000
    3        3.393988   1.000000
    4        3.393989   1.000000
    5        3.851906   0.000000
    6        6.388568   0.000000
    7        6.388568   0.000000
    8        6.388569   0.000000
 
  0.5882353E-01  0.0000000E+00  0.0000000E+00  0.1628333E-02
    1       -6.458191   1.000000
    2        2.803707   1.000000
    3        3.356215   1.000000
    4        3.356215   1.000000
    5        4.327096   0.000000
    6        6.446492   0.000000
    7        6.448772   0.000000
    8        6.448773   0.000000
 
  0.1176471E+00  0.0000000E+00  0.0000000E+00  0.1628333E-02
    1       -6.380703   1.000000
    2        2.009177   1.000000
    3        3.255745   1.000000
    4        3.255745   1.000000
    5        4.712571   0.000000
    6        6.607064   0.000000
    7        6.607064   0.000000
    8        6.720653   0.000000
 
  0.1764706E+00  0.0000000E+00  0.0000000E+00  0.1628333E-02
    1       -6.255728   1.000000
    2        1.222652   1.000000
    3        3.120723   1.000000
    4        3.120723   1.000000
    5        4.791857   0.000000
    6        6.806536   0.000000
    7        6.806536   0.000000
    8        7.287899   0.000000
 
  0.2352941E+00  0.0000000E+00  0.0000000E+00  0.1628333E-02
    1       -6.090615   1.000000
    2        0.482422   1.000000
    3        2.978407   1.000000
    4        2.978407   1.000000
    5        4.706676   0.000000
    6        6.978225   0.000000
    7        6.978225   0.000000
    8        8.030277   0.000000
 
  0.2941176E+00  0.0000000E+00  0.0000000E+00  0.1628333E-02
    1       -5.898132   1.000000
    2       -0.183096   1.000000
    3        2.848419   1.000000
    4        2.848419   1.000000
    5        4.579141   0.000000
    6        7.074696   0.000000
    7        7.074696   0.000000
    8        8.832371   0.000000
 
  0.3529412E+00  0.0000000E+00  0.0000000E+00  0.1628333E-02
    1       -5.699569   1.000000
    2       -0.743107   1.000000
    3        2.743082   1.000000
    4        2.743082   1.000000
    5        4.462083   0.000000
    6        7.098227   0.000000
    7        7.098227   0.000000
    8        9.561789   0.000000
 
  0.4117647E+00  0.0000000E+00  0.0000000E+00  0.1628333E-02
    1       -5.527749   1.000000
    2       -1.158787   1.000000
    3        2.669644   1.000000
    4        2.669644   1.000000
    5        4.376940   0.000000
    6        7.084873   0.000000
    7        7.084873   0.000000
    8        9.869757   0.000000
 
  0.4705882E+00  0.0000000E+00  0.0000000E+00  0.1628333E-02
    1       -5.424878   1.000000
    2       -1.384420   1.000000
    3        2.632062   1.000000
    4        2.632062   1.000000
    5        4.332694   0.000000
    6        7.069232   0.000000
    7        7.069232   0.000000
    8        9.886268   0.000000
 
  0.5882353E-01  0.5882353E-01  0.0000000E+00  0.1221250E-02
    1       -6.449424   1.000000
    2        2.752500   1.000000
    3        3.278800   1.000000
    4        3.278800   1.000000
    5        4.487728   0.000000
    6        6.274499   0.000000
    7        6.557271   0.000000
    8        6.557271   0.000000
 
  0.1176471E+00  0.5882353E-01  0.0000000E+00  0.4884999E-02
    1       -6.388945   1.000000
    2        2.153358   1.000000
    3        3.149523   1.000000
    4        3.199626   1.000000
    5        4.867912   0.000000
    6        6.249868   0.000000
    7        6.756617   0.000000
    8        6.800249   0.000000
 
  0.1764706E+00  0.5882353E-01  0.0000000E+00  0.4884999E-02
    1       -6.279606   1.000000
    2        1.419859   1.000000
    3        2.999306   1.000000
    4        3.088454   1.000000
    5        5.032199   0.000000
    6        6.397208   0.000000
    7        6.989097   0.000000
    8        7.235229   0.000000
 
  0.2352941E+00  0.5882353E-01  0.0000000E+00  0.4884999E-02
    1       -6.127401   1.000000
    2        0.691080   1.000000
    3        2.853695   1.000000
    4        2.938177   1.000000
    5        4.991664   0.000000
    6        6.630555   0.000000
    7        7.186257   0.000000
    8        7.811405   0.000000
 
  0.2941176E+00  0.5882353E-01  0.0000000E+00  0.4884999E-02
    1       -5.943045   1.000000
    2        0.015156   1.000000
    3        2.729743   1.000000
    4        2.777629   1.000000
    5        4.877172   0.000000
    6        6.821850   0.000000
    7        7.294735   0.000000
    8        8.437102   0.000000
 
  0.3529412E+00  0.5882353E-01  0.0000000E+00  0.4884999E-02
    1       -5.744570   1.000000
    2       -0.572641   1.000000
    3        2.629090   1.000000
    4        2.637705   1.000000
    5        4.758409   0.000000
    6        6.922945   0.000000
    7        7.309114   0.000000
    8        9.065802   0.000000
 
  0.4117647E+00  0.5882353E-01  0.0000000E+00  0.4884999E-02
    1       -5.560623   1.000000
    2       -1.034079   1.000000
    3        2.506528   1.000000
    4        2.583123   1.000000
    5        4.663721   0.000000
    6        6.962109   0.000000
    7        7.266045   0.000000
    8        9.626415   0.000000
 
  0.4705882E+00  0.5882353E-01  0.0000000E+00  0.4884999E-02
    1       -5.431040   1.000000
    2       -1.323840   1.000000
    3        2.418340   1.000000
    4        2.568385   1.000000
    5        4.605155   0.000000
    6        6.985430   0.000000
    7        7.206827   0.000000
    8        9.912844   0.000000
 
 -0.4705882E+00  0.5882353E-01  0.0000000E+00  0.4884999E-02
    1       -5.395067   1.000000
    2       -1.399882   1.000000
    3        2.369575   1.000000
    4        2.593537   1.000000
    5        4.587776   0.000000
    6        7.021261   0.000000
    7        7.156694   0.000000
    8        9.970049   0.000000
 
 -0.4117647E+00  0.5882353E-01  0.0000000E+00  0.4884999E-02
    1       -5.465736   1.000000
    2       -1.248564   1.000000
    3        2.363142   1.000000
    4        2.656721   1.000000
    5        4.612818   0.000000
    6        7.076398   0.000000
    7        7.122340   0.000000
    8        9.917817   0.000000
 
 -0.3529412E+00  0.5882353E-01  0.0000000E+00  0.4884999E-02
    1       -5.618387   1.000000
    2       -0.895980   1.000000
    3        2.400303   1.000000
    4        2.754044   1.000000
    5        4.678200   0.000000
    6        7.092568   0.000000
    7        7.137051   0.000000
    8        9.580712   0.000000
 
 -0.2941176E+00  0.5882353E-01  0.0000000E+00  0.4884999E-02
    1       -5.811155   1.000000
    2       -0.387832   1.000000
    3        2.480729   1.000000
    4        2.879032   1.000000
    5        4.777028   0.000000
    6        7.039413   0.000000
    7        7.165038   0.000000
    8        8.939749   0.000000
 
 -0.2352941E+00  0.5882353E-01  0.0000000E+00  0.4884999E-02
    1       -6.007491   1.000000
    2        0.232122   1.000000
    3        2.602178   1.000000
    4        3.021467   1.000000
    5        4.892373   0.000000
    6        6.930688   0.000000
    7        7.096404   0.000000
    8        8.257839   0.000000
 
 -0.1764706E+00  0.5882353E-01  0.0000000E+00  0.4884999E-02
    1       -6.182632   1.000000
    2        0.926098   1.000000
    3        2.759996   1.000000
    4        3.165428   1.000000
    5        4.982473   0.000000
    6        6.763400   0.000000
    7        6.879484   0.000000
    8        7.649534   0.000000
 
 -0.1176471E+00  0.5882353E-01  0.0000000E+00  0.4884999E-02
    1       -6.321397   1.000000
    2        1.653014   1.000000
    3        2.947302   1.000000
    4        3.287530   1.000000
    5        4.949336   0.000000
    6        6.583976   0.000000
    7        6.590641   0.000000
    8        7.149773   0.000000
 
 -0.5882353E-01  0.5882353E-01  0.0000000E+00  0.2442499E-02
    1       -6.414842   1.000000
    2        2.339830   1.000000
    3        3.159329   1.000000
    4        3.358831   1.000000
    5        4.675201   0.000000
    6        6.434044   0.000000
    7        6.461602   0.000000
    8        6.747129   0.000000
 
  0.1176471E+00  0.1176471E+00  0.0000000E+00  0.1221250E-02
    1       -6.345742   1.000000
    2        1.949529   1.000000
    3        2.998217   1.000000
    4        2.998217   1.000000
    5        5.213587   0.000000
    6        6.039306   0.000000
    7        6.996969   0.000000
    8        6.996969   0.000000
 
  0.1764706E+00  0.1176471E+00  0.0000000E+00  0.4884999E-02
    1       -6.253072   1.000000
    2        1.429775   1.000000
    3        2.834006   1.000000
    4        2.852927   1.000000
    5        5.420146   0.000000
    6        6.036972   0.000000
    7        7.271525   0.000000
    8        7.340420   0.000000
 
  0.2352941E+00  0.1176471E+00  0.0000000E+00  0.4884999E-02
    1       -6.115850   1.000000
    2        0.797562   1.000000
    3        2.681557   1.000000
    4        2.685232   1.000000
    5        5.449796   0.000000
    6        6.208669   0.000000
    7        7.512559   0.000000
    8        7.721153   0.000000
 
  0.2941176E+00  0.1176471E+00  0.0000000E+00  0.4884999E-02
    1       -5.943022   1.000000
    2        0.163310   1.000000
    3        2.489246   1.000000
    4        2.556868   1.000000
    5        5.372718   0.000000
    6        6.479209   0.000000
    7        7.658179   0.000000
    8        8.002984   0.000000
 
  0.3529412E+00  0.1176471E+00  0.0000000E+00  0.4884999E-02
    1       -5.749845   1.000000
    2       -0.416453   1.000000
    3        2.293257   1.000000
    4        2.469435   1.000000
    5        5.265179   0.000000
    6        6.709962   0.000000
    7        7.688520   0.000000
    8        8.317752   0.000000
 
  0.4117647E+00  0.1176471E+00  0.0000000E+00  0.4884999E-02
    1       -5.560899   1.000000
    2       -0.896910   1.000000
    3        2.119632   1.000000
    4        2.424273   1.000000
    5        5.167998   0.000000
    6        6.831910   0.000000
    7        7.635758   0.000000
    8        8.802188   0.000000
 
  0.4705882E+00  0.1176471E+00  0.0000000E+00  0.4884999E-02
    1       -5.412118   1.000000
    2       -1.231236   1.000000
    3        1.982039   1.000000
    4        2.423254   1.000000
    5        5.099791   0.000000
    6        6.891484   0.000000
    7        7.547180   0.000000
    8        9.403314   0.000000
 
 -0.4705882E+00  0.1176471E+00  0.0000000E+00  0.4884999E-02
    1       -5.344070   1.000000
    2       -1.373285   1.000000
    3        1.888836   1.000000
    4        2.465759   1.000000
    5        5.068703   0.000000
    6        6.946310   0.000000
    7        7.455634   0.000000
    8        9.923165   0.000000
 
 -0.4117647E+00  0.1176471E+00  0.0000000E+00  0.4884999E-02
    1       -5.380142   1.000000
    2       -1.297842   1.000000
    3        1.845666   1.000000
    4        2.548883   1.000000
    5        5.077109   0.000000
    6        7.021057   0.000000
    7        7.373936   0.000000
    8        9.979919   0.000000
 
 -0.3529412E+00  0.1176471E+00  0.0000000E+00  0.4884999E-02
    1       -5.507466   1.000000
    2       -1.019554   1.000000
    3        1.856976   1.000000
    4        2.667187   1.000000
    5        5.122865   0.000000
    6        7.112269   0.000000
    7        7.295961   0.000000
    8        9.486859   0.000000
 
 -0.2941176E+00  0.1176471E+00  0.0000000E+00  0.4884999E-02
    1       -5.687961   1.000000
    2       -0.582533   1.000000
    3        1.927144   1.000000
    4        2.811915   1.000000
    5        5.197994   0.000000
    6        7.183583   0.000000
    7        7.198450   0.000000
    8        8.836808   0.000000
 
 -0.2352941E+00  0.1176471E+00  0.0000000E+00  0.4884999E-02
    1       -5.882893   1.000000
    2       -0.038332   1.000000
    3        2.061990   1.000000
    4        2.969643   1.000000
    5        5.282629   0.000000
    6        7.054009   0.000000
    7        7.141282   0.000000
    8        8.286122   0.000000
 
 -0.1764706E+00  0.1176471E+00  0.0000000E+00  0.4884999E-02
    1       -6.064144   1.000000
    2        0.560082   1.000000
    3        2.271154   1.000000
    4        3.120312   1.000000
    5        5.327347   0.000000
    6        6.865579   0.000000
    7        6.902757   0.000000
    8        7.928012   0.000000
 
 -0.1176471E+00  0.1176471E+00  0.0000000E+00  0.2442499E-02
    1       -6.213856   1.000000
    2        1.149296   1.000000
    3        2.568799   1.000000
    4        3.236366   1.000000
    5        5.230749   0.000000
    6        6.652571   0.000000
    7        6.685490   0.000000
    8        7.593935   0.000000
 
  0.1764706E+00  0.1764706E+00  0.0000000E+00  0.1221250E-02
    1       -6.177372   1.000000
    2        1.171536   1.000000
    3        2.658331   1.000000
    4        2.658331   1.000000
    5        5.449902   0.000000
    6        6.073808   0.000000
    7        7.597904   0.000000
    8        7.597904   0.000000
 
  0.2352941E+00  0.1764706E+00  0.0000000E+00  0.4884999E-02
    1       -6.056438   1.000000
    2        0.716699   1.000000
    3        2.476340   1.000000
    4        2.497232   1.000000
    5        5.431484   0.000000
    6        6.162775   0.000000
    7        7.879981   0.000000
    8        7.901350   0.000000
 
  0.2941176E+00  0.1764706E+00  0.0000000E+00  0.4884999E-02
    1       -5.897798   1.000000
    2        0.188688   1.000000
    3        2.251046   1.000000
    4        2.366833   1.000000
    5        5.484986   0.000000
    6        6.282570   0.000000
    7        7.929456   0.000000
    8        8.111051   0.000000
 
  0.3529412E+00  0.1764706E+00  0.0000000E+00  0.4884999E-02
    1       -5.714466   1.000000
    2       -0.332723   1.000000
    3        2.003707   1.000000
    4        2.276763   1.000000
    5        5.483075   0.000000
    6        6.562212   0.000000
    7        7.910617   0.000000
    8        8.186519   0.000000
 
  0.4117647E+00  0.1764706E+00  0.0000000E+00  0.4884999E-02
    1       -5.527428   1.000000
    2       -0.792185   1.000000
    3        1.770307   1.000000
    4        2.232201   1.000000
    5        5.433979   0.000000
    6        6.876989   0.000000
    7        8.056611   0.000000
    8        8.148030   0.000000
 
  0.4705882E+00  0.1764706E+00  0.0000000E+00  0.4884999E-02
    1       -5.368216   1.000000
    2       -1.139267   1.000000
    3        1.574615   1.000000
    4        2.235129   1.000000
    5        5.390961   0.000000
    6        7.045527   0.000000
    7        8.047536   0.000000
    8        8.511462   0.000000
 
 -0.4705882E+00  0.1764706E+00  0.0000000E+00  0.4884999E-02
    1       -5.275488   1.000000
    2       -1.325084   1.000000
    3        1.430543   1.000000
    4        2.284938   1.000000
    5        5.378156   0.000000
    6        7.113707   0.000000
    7        7.926621   0.000000
    8        9.178802   0.000000
 
 -0.4117647E+00  0.1764706E+00  0.0000000E+00  0.4884999E-02
    1       -5.278710   1.000000
    2       -1.316464   1.000000
    3        1.347567   1.000000
    4        2.378531   1.000000
    5        5.401567   0.000000
    6        7.173562   0.000000
    7        7.803955   0.000000
    8        9.777334   0.000000
 
 -0.3529412E+00  0.1764706E+00  0.0000000E+00  0.4884999E-02
    1       -5.376606   1.000000
    2       -1.117209   1.000000
    3        1.334482   1.000000
    4        2.509872   1.000000
    5        5.456898   0.000000
    6        7.255080   0.000000
    7        7.675989   0.000000
    8        9.390362   0.000000
 
 -0.2941176E+00  0.1764706E+00  0.0000000E+00  0.4884999E-02
    1       -5.538328   1.000000
    2       -0.768493   1.000000
    3        1.402604   1.000000
    4        2.669038   1.000000
    5        5.529626   0.000000
    6        7.342415   0.000000
    7        7.520211   0.000000
    8        8.692527   0.000000
 
 -0.2352941E+00  0.1764706E+00  0.0000000E+00  0.4884999E-02
    1       -5.725539   1.000000
    2       -0.330327   1.000000
    3        1.568900   1.000000
    4        2.840555   1.000000
    5        5.585988   0.000000
    6        7.313584   0.000000
    7        7.331543   0.000000
    8        8.167681   0.000000
 
 -0.1764706E+00  0.1764706E+00  0.0000000E+00  0.2442499E-02
    1       -5.907578   1.000000
    2        0.131771   1.000000
    3        1.855562   1.000000
    4        3.001325   1.000000
    5        5.550452   0.000000
    6        7.073212   0.000000
    7        7.091837   0.000000
    8        8.007270   0.000000
 
  0.2352941E+00  0.2352941E+00  0.0000000E+00  0.1221250E-02
    1       -5.952262   1.000000
    2        0.436059   1.000000
    3        2.327032   1.000000
    4        2.327032   1.000000
    5        5.220234   0.000000
    6        6.183448   0.000000
    7        8.287129   0.000000
    8        8.287131   0.000000
 
  0.2941176E+00  0.2352941E+00  0.0000000E+00  0.4884999E-02
    1       -5.809796   1.000000
    2        0.040581   1.000000
    3        2.132772   1.000000
    4        2.188041   1.000000
    5        5.199838   0.000000
    6        6.134516   0.000000
    7        8.416258   0.000000
    8        8.592130   0.000000
 
  0.3529412E+00  0.2352941E+00  0.0000000E+00  0.4884999E-02
    1       -5.640232   1.000000
    2       -0.384972   1.000000
    3        1.865993   1.000000
    4        2.090589   1.000000
    5        5.297239   0.000000
    6        6.216570   0.000000
    7        8.302963   0.000000
    8        8.749790   0.000000
 
  0.4117647E+00  0.2352941E+00  0.0000000E+00  0.4884999E-02
    1       -5.461731   1.000000
    2       -0.781798   1.000000
    3        1.575746   1.000000
    4        2.040384   1.000000
    5        5.345254   0.000000
    6        6.568985   0.000000
    7        8.180406   0.000000
    8        8.755972   0.000000
 
  0.4705882E+00  0.2352941E+00  0.0000000E+00  0.4884999E-02
    1       -5.301591   1.000000
    2       -1.100781   1.000000
    3        1.311339   1.000000
    4        2.039855   1.000000
    5        5.349944   0.000000
    6        7.100470   0.000000
    7        8.139645   0.000000
    8        8.663418   0.000000
 
 -0.4705882E+00  0.2352941E+00  0.0000000E+00  0.4884999E-02
    1       -5.194653   1.000000
    2       -1.295296   1.000000
    3        1.103037   1.000000
    4        2.088756   1.000000
    5        5.369517   0.000000
    6        7.532886   0.000000
    7        8.376477   0.000000
    8        8.524764   0.000000
 
 -0.4117647E+00  0.2352941E+00  0.0000000E+00  0.4884999E-02
    1       -5.171674   1.000000
    2       -1.330733   1.000000
    3        0.969847   1.000000
    4        2.184255   1.000000
    5        5.424513   0.000000
    6        7.672322   0.000000
    7        8.365002   0.000000
    8        9.014537   0.000000
 
 -0.3529412E+00  0.2352941E+00  0.0000000E+00  0.4884999E-02
    1       -5.239848   1.000000
    2       -1.204819   1.000000
    3        0.928425   1.000000
    4        2.320441   1.000000
    5        5.512228   0.000000
    6        7.734592   0.000000
    7        8.179557   0.000000
    8        9.274735   0.000000
 
 -0.2941176E+00  0.2352941E+00  0.0000000E+00  0.4884999E-02
    1       -5.377428   1.000000
    2       -0.955562   1.000000
    3        0.999246   1.000000
    4        2.487279   1.000000
    5        5.611460   0.000000
    6        7.806395   0.000000
    7        7.941571   0.000000
    8        8.574404   0.000000
 
 -0.2352941E+00  0.2352941E+00  0.0000000E+00  0.2442499E-02
    1       -5.549667   1.000000
    2       -0.644959   1.000000
    3        1.207449   1.000000
    4        2.668752   1.000000
    5        5.670431   0.000000
    6        7.637492   0.000000
    7        7.734721   0.000000
    8        8.088643   0.000000
 
  0.2941176E+00  0.2941176E+00  0.0000000E+00  0.1221250E-02
    1       -5.684604   1.000000
    2       -0.241156   1.000000
    3        2.039167   1.000000
    4        2.039167   1.000000
    5        4.991579   0.000000
    6        5.938439   0.000000
    7        9.023532   0.000000
    8        9.023541   0.000000
 
  0.3529412E+00  0.2941176E+00  0.0000000E+00  0.4884999E-02
    1       -5.532186   1.000000
    2       -0.574728   1.000000
    3        1.849686   1.000000
    4        1.931655   1.000000
    5        5.005378   0.000000
    6        5.826794   0.000000
    7        9.095098   0.000000
    8        9.312696   0.000000
 
  0.4117647E+00  0.2941176E+00  0.0000000E+00  0.4884999E-02
    1       -5.368648   1.000000
    2       -0.896469   1.000000
    3        1.562100   1.000000
    4        1.871985   1.000000
    5        5.122441   0.000000
    6        5.950730   0.000000
    7        8.961623   0.000000
    8        9.409330   0.000000
 
  0.4705882E+00  0.2941176E+00  0.0000000E+00  0.4884999E-02
    1       -5.217698   1.000000
    2       -1.160274   1.000000
    3        1.248440   1.000000
    4        1.863192   1.000000
    5        5.180134   0.000000
    6        6.403420   0.000000
    7        8.822822   0.000000
    8        9.352072   0.000000
 
 -0.4705882E+00  0.2941176E+00  0.0000000E+00  0.4884999E-02
    1       -5.109578   1.000000
    2       -1.328082   1.000000
    3        0.972688   1.000000
    4        1.905561   1.000000
    5        5.220921   0.000000
    6        7.069791   0.000000
    7        8.719548   0.000000
    8        9.206916   0.000000
 
 -0.4117647E+00  0.2941176E+00  0.0000000E+00  0.4884999E-02
    1       -5.072186   1.000000
    2       -1.374013   1.000000
    3        0.777640   1.000000
    4        1.996771   1.000000
    5        5.292934   0.000000
    6        7.816791   0.000000
    7        8.694771   0.000000
    8        9.006361   0.000000
 
 -0.3529412E+00  0.2941176E+00  0.0000000E+00  0.4884999E-02
    1       -5.116047   1.000000
    2       -1.300054   1.000000
    3        0.696698   1.000000
    4        2.131452   1.000000
    5        5.401903   0.000000
    6        8.340242   0.000000
    7        8.739221   0.000000
    8        8.910735   0.000000
 
 -0.2941176E+00  0.2941176E+00  0.0000000E+00  0.2442499E-02
    1       -5.227185   1.000000
    2       -1.143243   1.000000
    3        0.762334   1.000000
    4        2.300106   1.000000
    5        5.527561   0.000000
    6        8.376453   0.000000
    7        8.421563   0.000000
    8        8.555888   0.000000
 
  0.3529412E+00  0.3529412E+00  0.0000000E+00  0.1221250E-02
    1       -5.399618   1.000000
    2       -0.834431   1.000000
    3        1.812813   1.000000
    4        1.812813   1.000000
    5        4.836428   0.000000
    6        5.564302   0.000000
    7        9.778051   0.000000
    8        9.778058   0.000000
 
  0.4117647E+00  0.3529412E+00  0.0000000E+00  0.4884999E-02
    1       -5.257256   1.000000
    2       -1.093111   1.000000
    3        1.640698   1.000000
    4        1.741543   1.000000
    5        4.890056   0.000000
    6        5.475299   0.000000
    7        9.851695   0.000000
    8       10.034839   0.000000
 
  0.4705882E+00  0.3529412E+00  0.0000000E+00  0.4884999E-02
    1       -5.126172   1.000000
    2       -1.301006   1.000000
    3        1.354113   1.000000
    4        1.721603   1.000000
    5        5.005180   0.000000
    6        5.699086   0.000000
    7        9.723033   0.000000
    8       10.060052   0.000000
 
 -0.4705882E+00  0.3529412E+00  0.0000000E+00  0.4884999E-02
    1       -5.031804   1.000000
    2       -1.425291   1.000000
    3        1.044855   1.000000
    4        1.753906   1.000000
    5        5.064687   0.000000
    6        6.260542   0.000000
    7        9.580439   0.000000
    8        9.921831   0.000000
 
 -0.4117647E+00  0.3529412E+00  0.0000000E+00  0.4884999E-02
    1       -4.996321   1.000000
    2       -1.452031   1.000000
    3        0.792975   1.000000
    4        1.836742   1.000000
    5        5.142136   0.000000
    6        7.006649   0.000000
    7        9.445900   0.000000
    8        9.661329   0.000000
 
 -0.3529412E+00  0.3529412E+00  0.0000000E+00  0.2442499E-02
    1       -5.027783   1.000000
    2       -1.396079   1.000000
    3        0.660016   1.000000
    4        1.965456   1.000000
    5        5.259785   0.000000
    6        7.839602   0.000000
    7        9.222932   0.000000
    8        9.263054   0.000000
 
  0.4117647E+00  0.4117647E+00  0.0000000E+00  0.1221250E-02
    1       -5.141752   1.000000
    2       -1.298648   1.000000
    3        1.657699   1.000000
    4        1.657699   1.000000
    5        4.774547   0.000000
    6        5.221218   0.000000
    7       10.506733   0.000000
    8       10.506999   0.000000
 
  0.4705882E+00  0.4117647E+00  0.0000000E+00  0.4884999E-02
    1       -5.041199   1.000000
    2       -1.456292   1.000000
    3        1.512959   1.000000
    4        1.625034   1.000000
    5        4.864305   0.000000
    6        5.193378   0.000000
    7       10.580458   0.000000
    8       10.690758   0.000000
 
 -0.4705882E+00  0.4117647E+00  0.0000000E+00  0.4884999E-02
    1       -4.976028   1.000000
    2       -1.533069   1.000000
    3        1.248818   1.000000
    4        1.645154   1.000000
    5        4.949744   0.000000
    6        5.555522   0.000000
    7       10.427339   0.000000
    8       10.580802   0.000000
 
 -0.4117647E+00  0.4117647E+00  0.0000000E+00  0.2442499E-02
    1       -4.960588   1.000000
    2       -1.522747   1.000000
    3        0.975964   1.000000
    4        1.717014   1.000000
    5        5.023983   0.000000
    6        6.208647   0.000000
    7       10.117737   0.000000
    8       10.223276   0.000000
 
  0.4705882E+00  0.4705882E+00  0.0000000E+00  0.1221250E-02
    1       -4.979766   1.000000
    2       -1.564174   1.000000
    3        1.578996   1.000000
    4        1.578997   1.000000
    5        4.815426   0.000000
    6        4.966815   0.000000
    7       11.065254   0.000000
    8       11.065254   0.000000
 
 -0.4705882E+00  0.4705882E+00  0.0000000E+00  0.2442499E-02
    1       -4.956348   1.000000
    2       -1.590361   1.000000
    3        1.470019   1.000000
    4        1.585820   1.000000
    5        4.892641   0.000000
    6        5.059004   0.000000
    7       10.980545   0.000000
    8       11.019921   0.000000
 
  0.1764706E+00  0.1176471E+00  0.5882353E-01  0.4884999E-02
    1       -6.312416   1.000000
    2        1.674276   1.000000
    3        2.870956   1.000000
    4        3.156772   1.000000
    5        5.171358   0.000000
    6        6.201269   0.000000
    7        6.902005   0.000000
    8        7.195595   0.000000
 
  0.2352941E+00  0.1176471E+00  0.5882353E-01  0.9769998E-02
    1       -6.189047   1.000000
    2        1.051212   1.000000
    3        2.612785   1.000000
    4        3.068625   1.000000
    5        5.310217   0.000000
    6        6.331635   0.000000
    7        7.129500   0.000000
    8        7.610986   0.000000
 
  0.2941176E+00  0.1176471E+00  0.5882353E-01  0.9769998E-02
    1       -6.026246   1.000000
    2        0.398802   1.000000
    3        2.406953   1.000000
    4        2.934977   1.000000
    5        5.273975   0.000000
    6        6.580491   0.000000
    7        7.350423   0.000000
    8        7.988041   0.000000
 
  0.3529412E+00  0.1176471E+00  0.5882353E-01  0.9769998E-02
    1       -5.836774   1.000000
    2       -0.215447   1.000000
    3        2.248681   1.000000
    4        2.789382   1.000000
    5        5.173863   0.000000
    6        6.793137   0.000000
    7        7.450852   0.000000
    8        8.411523   0.000000
 
  0.4117647E+00  0.1176471E+00  0.5882353E-01  0.9769998E-02
    1       -5.641723   1.000000
    2       -0.743772   1.000000
    3        2.134832   1.000000
    4        2.658571   1.000000
    5        5.073191   0.000000
    6        6.898309   0.000000
    7        7.447080   0.000000
    8        8.948138   0.000000
 
  0.4705882E+00  0.1176471E+00  0.5882353E-01  0.9769998E-02
    1       -5.473400   1.000000
    2       -1.140104   1.000000
    3        2.062244   1.000000
    4        2.561007   1.000000
    5        4.997545   0.000000
    6        6.927245   0.000000
    7        7.408143   0.000000
    8        9.537962   0.000000
 
 -0.4705882E+00  0.1176471E+00  0.5882353E-01  0.9769998E-02
    1       -5.372859   1.000000
    2       -1.356209   1.000000
    3        2.027291   1.000000
    4        2.508954   1.000000
    5        4.957667   0.000000
    6        6.929337   0.000000
    7        7.378607   0.000000
    8        9.963715   0.000000
 
  0.2352941E+00  0.1764706E+00  0.5882353E-01  0.4884999E-02
    1       -6.146282   1.000000
    2        0.986018   1.000000
    3        2.525405   1.000000
    4        2.794115   1.000000
    5        5.553200   0.000000
    6        6.065187   0.000000
    7        7.522734   0.000000
    8        7.667353   0.000000
 
  0.2941176E+00  0.1764706E+00  0.5882353E-01  0.9769998E-02
    1       -5.998159   1.000000
    2        0.446123   1.000000
    3        2.254211   1.000000
    4        2.687712   1.000000
    5        5.617059   0.000000
    6        6.211440   0.000000
    7        7.775549   0.000000
    8        7.832341   0.000000
 
  0.3529412E+00  0.1764706E+00  0.5882353E-01  0.9769998E-02
    1       -5.819484   1.000000
    2       -0.108549   1.000000
    3        2.033145   1.000000
    4        2.553883   1.000000
    5        5.580344   0.000000
    6        6.488500   0.000000
    7        7.839309   0.000000
    8        8.003967   0.000000
 