       N       E                     dE             d eps       ncg     rms          rms(c)
DAV:   1     0.125291653184E+02    0.12529E+02   -0.27912E+03  2640   0.728E+02
DAV:   2    -0.762480457938E+01   -0.20154E+02   -0.19921E+02  3584   0.802E+01
DAV:   3    -0.814950072983E+01   -0.52470E+00   -0.52287E+00  3600   0.143E+01
DAV:   4    -0.815270616644E+01   -0.32054E-02   -0.32054E-02  3840   0.133E+00
DAV:   5    -0.815272309926E+01   -0.16933E-04   -0.16933E-04  3608   0.857E-02    0.193E+00
RMM:   6    -0.810125481223E+01    0.51468E-01   -0.54051E-02  2640   0.126E+00    0.116E+00
RMM:   7    -0.808932721257E+01    0.11928E-01   -0.48404E-02  2697   0.132E+00    0.264E-01
RMM:   8    -0.808993631146E+01   -0.60910E-03   -0.41953E-03  2686   0.462E-01    0.457E-02
RMM:   9    -0.809038427614E+01   -0.44796E-03   -0.66579E-04  2771   0.179E-01    0.133E-02
RMM:  10    -0.809040516519E+01   -0.20889E-04   -0.58923E-05  3012   0.576E-02    0.377E-03
RMM:  11    -0.809040888786E+01   -0.37227E-05   -0.86340E-06  2983   0.236E-02    0.132E-03
RMM:  12    -0.809040934895E+01   -0.46109E-06   -0.56203E-07  2290   0.715E-03
   1 F= -.80904093E+01 E0= -.80904093E+01  d E =0.000000E+00
