   2   2   0   0
  0.2422278E+02  0.4091881E-09  0.4091881E-09  0.4091881E-09  0.0000000E+00
  1.000000000000000E-004
  CAR 
 unknown system                          
     17.43874369     -6.24753062  301      6.71083529      1.00000000
     -6.248  0.0000E+00  0.0000E+00
     -6.169  0.0000E+00  0.0000E+00
     -6.090  0.0000E+00  0.0000E+00
     -6.011  0.0000E+00  0.0000E+00
     -5.932  0.0000E+00  0.0000E+00
     -5.853  0.0000E+00  0.0000E+00
     -5.774  0.0000E+00  0.0000E+00
     -5.695  0.0000E+00  0.0000E+00
     -5.616  0.0000E+00  0.0000E+00
     -5.537  0.0000E+00  0.0000E+00
     -5.458  0.0000E+00  0.0000E+00
     -5.379  0.0000E+00  0.0000E+00
     -5.300  0.0000E+00  0.0000E+00
     -5.221  0.0000E+00  0.0000E+00
     -5.142  0.6826E-01  0.6533E-03
     -5.063  0.1362E+00  0.8634E-02
     -4.984  0.1832E+00  0.2100E-01
     -4.905  0.2175E+00  0.3689E-01
     -4.826  0.2571E+00  0.5562E-01
     -4.747  0.2844E+00  0.7694E-01
     -4.668  0.3167E+00  0.1006E+00
     -4.589  0.3439E+00  0.1268E+00
     -4.511  0.3721E+00  0.1550E+00
     -4.432  0.4023E+00  0.1856E+00
     -4.353  0.4286E+00  0.2184E+00
     -4.274  0.4572E+00  0.2533E+00
     -4.195  0.4877E+00  0.2906E+00
     -4.116  0.5177E+00  0.3303E+00
     -4.037  0.5498E+00  0.3724E+00
     -3.958  0.5845E+00  0.4172E+00
     -3.879  0.6220E+00  0.4648E+00
     -3.800  0.6639E+00  0.5155E+00
     -3.721  0.7105E+00  0.5698E+00
     -3.642  0.7632E+00  0.6279E+00
     -3.563  0.8311E+00  0.6907E+00
     -3.484  0.9183E+00  0.7596E+00
     -3.405  0.1047E+01  0.8367E+00
     -3.326  0.1247E+01  0.9291E+00
     -3.247  0.1289E+01  0.1032E+01
     -3.168  0.1246E+01  0.1132E+01
     -3.089  0.1248E+01  0.1230E+01
     -3.010  0.1235E+01  0.1328E+01
     -2.931  0.1218E+01  0.1425E+01
     -2.852  0.1233E+01  0.1522E+01
     -2.774  0.1242E+01  0.1620E+01
     -2.695  0.1281E+01  0.1719E+01
     -2.616  0.1394E+01  0.1824E+01
     -2.537  0.2108E+01  0.1950E+01
     -2.458  0.0000E+00  0.2000E+01
     -2.379  0.0000E+00  0.2000E+01
     -2.300  0.0000E+00  0.2000E+01
     -2.221  0.0000E+00  0.2000E+01
     -2.142  0.0000E+00  0.2000E+01
     -2.063  0.0000E+00  0.2000E+01
     -1.984  0.0000E+00  0.2000E+01
     -1.905  0.0000E+00  0.2000E+01
     -1.826  0.0000E+00  0.2000E+01
     -1.747  0.0000E+00  0.2000E+01
     -1.668  0.0000E+00  0.2000E+01
     -1.589  0.0000E+00  0.2000E+01
     -1.510  0.0000E+00  0.2000E+01
     -1.431  0.0000E+00  0.2000E+01
     -1.352  0.0000E+00  0.2000E+01
     -1.273  0.0000E+00  0.2000E+01
     -1.194  0.0000E+00  0.2000E+01
     -1.116  0.0000E+00  0.2000E+01
     -1.037  0.0000E+00  0.2000E+01
     -0.958  0.0000E+00  0.2000E+01
     -0.879  0.0000E+00  0.2000E+01
     -0.800  0.0000E+00  0.2000E+01
     -0.721  0.0000E+00  0.2000E+01
     -0.642  0.0000E+00  0.2000E+01
     -0.563  0.0000E+00  0.2000E+01
     -0.484  0.0000E+00  0.2000E+01
     -0.405  0.0000E+00  0.2000E+01
     -0.326  0.0000E+00  0.2000E+01
     -0.247  0.0000E+00  0.2000E+01
     -0.168  0.0000E+00  0.2000E+01
     -0.089  0.0000E+00  0.2000E+01
     -0.010  0.0000E+00  0.2000E+01
      0.069  0.0000E+00  0.2000E+01
      0.148  0.0000E+00  0.2000E+01
      0.227  0.0000E+00  0.2000E+01
      0.306  0.0000E+00  0.2000E+01
      0.385  0.2417E-02  0.2000E+01
      0.464  0.4268E+00  0.2017E+01
      0.543  0.7051E+00  0.2062E+01
      0.621  0.1071E+01  0.2133E+01
      0.700  0.1568E+01  0.2234E+01
      0.779  0.3153E+01  0.2402E+01
      0.858  0.2195E+01  0.2654E+01
      0.937  0.1506E+01  0.2796E+01
      1.016  0.1155E+01  0.2899E+01
      1.095  0.9906E+00  0.2983E+01
      1.174  0.8327E+00  0.3056E+01
      1.253  0.7502E+00  0.3118E+01
      1.332  0.6838E+00  0.3174E+01
      1.411  0.6170E+00  0.3226E+01
      1.490  0.5554E+00  0.3271E+01
      1.569  0.5221E+00  0.3314E+01
      1.648  0.4884E+00  0.3354E+01
      1.727  0.4551E+00  0.3391E+01
      1.806  0.4151E+00  0.3426E+01
      1.885  0.3916E+00  0.3457E+01
      1.964  0.3731E+00  0.3487E+01
      2.043  0.3548E+00  0.3516E+01
      2.122  0.3330E+00  0.3543E+01
      2.201  0.3120E+00  0.3569E+01
      2.280  0.2900E+00  0.3592E+01
      2.358  0.2787E+00  0.3615E+01
      2.437  0.2673E+00  0.3636E+01
      2.516  0.4517E+00  0.3659E+01
      2.595  0.7511E+00  0.3704E+01
      2.674  0.9042E+00  0.3768E+01
      2.753  0.1289E+01  0.3857E+01
      2.832  0.1202E+01  0.3956E+01
      2.911  0.1111E+01  0.4048E+01
      2.990  0.1062E+01  0.4134E+01
      3.069  0.1018E+01  0.4216E+01
      3.148  0.1021E+01  0.4296E+01
      3.227  0.9899E+00  0.4376E+01
      3.306  0.9610E+00  0.4454E+01
      3.385  0.1009E+01  0.4534E+01
      3.464  0.1050E+01  0.4616E+01
      3.543  0.1119E+01  0.4701E+01
      3.622  0.1147E+01  0.4791E+01
      3.701  0.1184E+01  0.4884E+01
      3.780  0.1242E+01  0.4979E+01
      3.859  0.1312E+01  0.5079E+01
      3.938  0.1467E+01  0.5189E+01
      4.017  0.1609E+01  0.5313E+01
      4.095  0.1565E+01  0.5439E+01
      4.174  0.1557E+01  0.5563E+01
      4.253  0.1526E+01  0.5685E+01
      4.332  0.1511E+01  0.5804E+01
      4.411  0.1495E+01  0.5923E+01
      4.490  0.1462E+01  0.6040E+01
      4.569  0.1428E+01  0.6154E+01
      4.648  0.1417E+01  0.6266E+01
      4.727  0.1402E+01  0.6377E+01
      4.806  0.1380E+01  0.6487E+01
      4.885  0.1361E+01  0.6595E+01
      4.964  0.1349E+01  0.6702E+01
      5.043  0.1318E+01  0.6807E+01
      5.122  0.1299E+01  0.6911E+01
      5.201  0.1297E+01  0.7013E+01
      5.280  0.1279E+01  0.7115E+01
      5.359  0.1274E+01  0.7215E+01
      5.438  0.1258E+01  0.7316E+01
      5.517  0.1238E+01  0.7414E+01
      5.596  0.1031E+01  0.7506E+01
      5.675  0.8589E+00  0.7579E+01
      5.754  0.7534E+00  0.7642E+01
      5.832  0.6644E+00  0.7698E+01
      5.911  0.5948E+00  0.7748E+01
      5.990  0.5353E+00  0.7792E+01
      6.069  0.4800E+00  0.7832E+01
      6.148  0.4273E+00  0.7868E+01
      6.227  0.3770E+00  0.7900E+01
      6.306  0.3248E+00  0.7928E+01
      6.385  0.2956E+00  0.7952E+01
      6.464  0.2332E+00  0.7973E+01
      6.543  0.1690E+00  0.7989E+01
      6.622  0.8703E-01  0.7999E+01
      6.701  0.0000E+00  0.8000E+01
      6.780  0.0000E+00  0.8000E+01
      6.859  0.0000E+00  0.8000E+01
      6.938  0.0000E+00  0.8000E+01
      7.017  0.0000E+00  0.8000E+01
      7.096  0.0000E+00  0.8000E+01
      7.175  0.0000E+00  0.8000E+01
      7.254  0.0000E+00  0.8000E+01
      7.333  0.0000E+00  0.8000E+01
      7.412  0.0000E+00  0.8000E+01
      7.491  0.0000E+00  0.8000E+01
      7.569  0.5700E-01  0.8002E+01
      7.648  0.1230E+00  0.8009E+01
      7.727  0.1731E+00  0.8021E+01
      7.806  0.2232E+00  0.8036E+01
      7.885  0.2800E+00  0.8056E+01
      7.964  0.3239E+00  0.8080E+01
      8.043  0.3956E+00  0.8108E+01
      8.122  0.4666E+00  0.8143E+01
      8.201  0.5059E+00  0.8181E+01
      8.280  0.5530E+00  0.8223E+01
      8.359  0.6001E+00  0.8268E+01
      8.438  0.6517E+00  0.8318E+01
      8.517  0.7040E+00  0.8371E+01
      8.596  0.7612E+00  0.8429E+01
      8.675  0.8443E+00  0.8492E+01
      8.754  0.9513E+00  0.8563E+01
      8.833  0.1042E+01  0.8642E+01
      8.912  0.1139E+01  0.8728E+01
      8.991  0.1246E+01  0.8822E+01
      9.070  0.1418E+01  0.8927E+01
      9.149  0.1700E+01  0.9049E+01
      9.228  0.1786E+01  0.9187E+01
      9.306  0.1754E+01  0.9327E+01
      9.385  0.1721E+01  0.9465E+01
      9.464  0.1638E+01  0.9597E+01
      9.543  0.1650E+01  0.9727E+01
      9.622  0.1594E+01  0.9855E+01
      9.701  0.1356E+01  0.9972E+01
      9.780  0.1232E+01  0.1008E+02
      9.859  0.1124E+01  0.1017E+02
      9.938  0.7146E+00  0.1024E+02
     10.017  0.6139E+00  0.1029E+02
     10.096  0.6630E+00  0.1035E+02
     10.175  0.9081E+00  0.1040E+02
     10.254  0.1741E+01  0.1051E+02
     10.333  0.2040E+01  0.1066E+02
     10.412  0.2167E+01  0.1084E+02
     10.491  0.2325E+01  0.1102E+02
     10.570  0.2301E+01  0.1120E+02
     10.649  0.1869E+01  0.1137E+02
     10.728  0.1633E+01  0.1151E+02
     10.807  0.1524E+01  0.1163E+02
     10.886  0.1386E+01  0.1175E+02
     10.964  0.1319E+01  0.1185E+02
     11.043  0.1226E+01  0.1195E+02
     11.122  0.1247E+01  0.1205E+02
     11.201  0.1360E+01  0.1215E+02
     11.280  0.1599E+01  0.1227E+02
     11.359  0.1490E+01  0.1238E+02
     11.438  0.1605E+01  0.1251E+02
     11.517  0.1302E+01  0.1262E+02
     11.596  0.1246E+01  0.1272E+02
     11.675  0.1245E+01  0.1282E+02
     11.754  0.1323E+01  0.1292E+02
     11.833  0.1431E+01  0.1303E+02
     11.912  0.1487E+01  0.1315E+02
     11.991  0.1346E+01  0.1326E+02
     12.070  0.1270E+01  0.1336E+02
     12.149  0.1260E+01  0.1346E+02
     12.228  0.1191E+01  0.1356E+02
     12.307  0.1224E+01  0.1366E+02
     12.386  0.1152E+01  0.1375E+02
     12.465  0.1144E+01  0.1384E+02
     12.544  0.1198E+01  0.1393E+02
     12.623  0.1164E+01  0.1403E+02
     12.701  0.1141E+01  0.1412E+02
     12.780  0.1128E+01  0.1421E+02
     12.859  0.1028E+01  0.1429E+02
     12.938  0.9547E+00  0.1437E+02
     13.017  0.9997E+00  0.1445E+02
     13.096  0.9644E+00  0.1453E+02
     13.175  0.9499E+00  0.1460E+02
     13.254  0.9857E+00  0.1468E+02
     13.333  0.1178E+01  0.1476E+02
     13.412  0.1447E+01  0.1487E+02
     13.491  0.1391E+01  0.1498E+02
     13.570  0.1114E+01  0.1508E+02
     13.649  0.1072E+01  0.1516E+02
     13.728  0.9381E+00  0.1524E+02
     13.807  0.8576E+00  0.1531E+02
     13.886  0.7830E+00  0.1538E+02
     13.965  0.6774E+00  0.1544E+02
     14.044  0.6117E+00  0.1549E+02
     14.123  0.5449E+00  0.1553E+02
     14.202  0.4753E+00  0.1557E+02
     14.281  0.4220E+00  0.1561E+02
     14.360  0.3791E+00  0.1564E+02
     14.438  0.3578E+00  0.1567E+02
     14.517  0.3380E+00  0.1570E+02
     14.596  0.3164E+00  0.1572E+02
     14.675  0.2983E+00  0.1575E+02
     14.754  0.2911E+00  0.1577E+02
     14.833  0.2978E+00  0.1579E+02
     14.912  0.2921E+00  0.1582E+02
     14.991  0.2527E+00  0.1584E+02
     15.070  0.2183E+00  0.1586E+02
     15.149  0.1961E+00  0.1587E+02
     15.228  0.1793E+00  0.1589E+02
     15.307  0.1659E+00  0.1590E+02
     15.386  0.1581E+00  0.1591E+02
     15.465  0.1473E+00  0.1593E+02
     15.544  0.1358E+00  0.1594E+02
     15.623  0.1261E+00  0.1595E+02
     15.702  0.1226E+00  0.1596E+02
     15.781  0.1017E+00  0.1597E+02
     15.860  0.8797E-01  0.1597E+02
     15.939  0.7261E-01  0.1598E+02
     16.018  0.5909E-01  0.1599E+02
     16.097  0.4743E-01  0.1599E+02
     16.175  0.3761E-01  0.1599E+02
     16.254  0.2965E-01  0.1600E+02
     16.333  0.4873E-01  0.1600E+02
     16.412  0.0000E+00  0.1600E+02
     16.491  0.0000E+00  0.1600E+02
     16.570  0.0000E+00  0.1600E+02
     16.649  0.0000E+00  0.1600E+02
     16.728  0.0000E+00  0.1600E+02
     16.807  0.0000E+00  0.1600E+02
     16.886  0.0000E+00  0.1600E+02
     16.965  0.0000E+00  0.1600E+02
     17.044  0.0000E+00  0.1600E+02
     17.123  0.0000E+00  0.1600E+02
     17.202  0.0000E+00  0.1600E+02
     17.281  0.0000E+00  0.1600E+02
     17.360  0.0000E+00  0.1600E+02
     17.439  0.0000E+00  0.1600E+02
