    2    2    1    1
  0.2422278E+02  0.4091881E-09  0.4091881E-09  0.4091881E-09  0.0000000E+00
  1.000000000000000E-004
  CAR 
 unknown system                          
      8    220      8
 
  0.0000000E+00  0.0000000E+00  0.0000000E+00  0.1457938E-03
    1       -5.170882   1.000000
    2        6.675868   1.000000
    3        6.675868   1.000000
    4        6.675868   1.000000
    5        9.810069   0.000000
    6        9.873431   0.000000
    7        9.873431   0.000000
    8        9.873431   0.000000
 
  0.5263158E-01  0.0000000E+00  0.0000000E+00  0.1166351E-02
    1       -5.139245   1.000000
    2        6.312824   1.000000
    3        6.627976   1.000000
    4        6.627976   1.000000
    5        9.766654   0.000000
    6        9.944820   0.000000
    7        9.944821   0.000000
    8       10.207683   0.000000
 
  0.1052632E+00  0.0000000E+00  0.0000000E+00  0.1166351E-02
    1       -5.044862   1.000000
    2        5.513566   1.000000
    3        6.500525   1.000000
    4        6.500526   1.000000
    5        9.598897   0.000000
    6       10.131740   0.000000
    7       10.131740   0.000000
    8       10.985245   0.000000
 
  0.1578947E+00  0.0000000E+00  0.0000000E+00  0.1166351E-02
    1       -4.889864   1.000000
    2        4.586758   1.000000
    3        6.328335   1.000000
    4        6.328335   1.000000
    5        9.384422   0.000000
    6       10.363662   0.000000
    7       10.363662   0.000000
    8       11.873066   0.000000
 
  0.2105263E+00  0.0000000E+00  0.0000000E+00  0.1166351E-02
    1       -4.678349   1.000000
    2        3.652087   1.000000
    3        6.143926   1.000000
    4        6.143927   1.000000
    5        9.167705   0.000000
    6       10.549746   0.000000
    7       10.549747   0.000000
    8       12.745361   0.000000
 
  0.2631579E+00  0.0000000E+00  0.0000000E+00  0.1166351E-02
    1       -4.417715   1.000000
    2        2.760754   1.000000
    3        5.969818   1.000000
    4        5.969818   1.000000
    5        8.972895   0.000000
    6       10.622566   0.000000
    7       10.622566   0.000000
    8       13.450209   0.000000
 
  0.3157895E+00  0.0000000E+00  0.0000000E+00  0.1166351E-02
    1       -4.121354   1.000000
    2        1.946204   1.000000
    3        5.819941   1.000000
    4        5.819941   1.000000
    5        8.811613   0.000000
    6       10.589104   0.000000
    7       10.589104   0.000000
    8       13.575153   0.000000
 
  0.3684211E+00  0.0000000E+00  0.0000000E+00  0.1166351E-02
    1       -3.813758   1.000000
    2        1.243481   1.000000
    3        5.702498   1.000000
    4        5.702499   1.000000
    5        8.688961   0.000000
    6       10.507017   0.000000
    7       10.507017   0.000000
    8       13.418455   0.000000
 
  0.4210526E+00  0.0000000E+00  0.0000000E+00  0.1166351E-02
    1       -3.539385   1.000000
    2        0.703008   1.000000
    3        5.622173   1.000000
    4        5.622173   1.000000
    5        8.606827   0.000000
    6       10.428214   0.000000
    7       10.428214   0.000000
    8       13.274985   0.000000
 
  0.4736842E+00  0.0000000E+00  0.0000000E+00  0.1166351E-02
    1       -3.368287   1.000000
    2        0.398108   1.000000
    3        5.581462   1.000000
    4        5.581462   1.000000
    5        8.565754   0.000000
    6       10.382497   0.000000
    7       10.382497   0.000000
    8       13.197210   0.000000
 
  0.5263158E-01  0.5263158E-01  0.0000000E+00  0.8747631E-03
    1       -5.128666   1.000000
    2        6.372983   1.000000
    3        6.517430   1.000000
    4        6.517431   1.000000
    5        9.706197   0.000000
    6       10.086653   0.000000
    7       10.086653   0.000000
    8       10.139586   0.000000
 
  0.1052632E+00  0.5263158E-01  0.0000000E+00  0.3499052E-02
    1       -5.055126   1.000000
    2        5.744925   1.000000
    3        6.344838   1.000000
    4        6.463583   1.000000
    5        9.641885   0.000000
    6       10.031367   0.000000
    7       10.331096   0.000000
    8       10.814124   0.000000
 
  0.1578947E+00  0.5263158E-01  0.0000000E+00  0.3499052E-02
    1       -4.920210   1.000000
    2        4.871194   1.000000
    3        6.147571   1.000000
    4        6.349926   1.000000
    5        9.580661   0.000000
    6       10.054712   0.000000
    7       10.609485   0.000000
    8       11.604876   0.000000
 
  0.2105263E+00  0.5263158E-01  0.0000000E+00  0.3499052E-02
    1       -4.727236   1.000000
    2        3.950349   1.000000
    3        5.954635   1.000000
    4        6.177158   1.000000
    5        9.422051   0.000000
    6       10.214120   0.000000
    7       10.835757   0.000000
    8       12.228987   0.000000
 
  0.2631579E+00  0.5263158E-01  0.0000000E+00  0.3499052E-02
    1       -4.482328   1.000000
    2        3.052419   1.000000
    3        5.784746   1.000000
    4        5.982459   1.000000
    5        9.241284   0.000000
    6       10.346999   0.000000
    7       10.934806   0.000000
    8       12.607737   0.000000
 
  0.3157895E+00  0.5263158E-01  0.0000000E+00  0.3499052E-02
    1       -4.196490   1.000000
    2        2.216704   1.000000
    3        5.649047   1.000000
    4        5.791972   1.000000
    5        9.078187   0.000000
    6       10.376686   0.000000
    7       10.899156   0.000000
    8       13.000329   0.000000
 
  0.3684211E+00  0.5263158E-01  0.0000000E+00  0.3499052E-02
    1       -3.889702   1.000000
    2        1.477659   1.000000
    3        5.553797   1.000000
    4        5.621789   1.000000
    5        8.946880   0.000000
    6       10.338244   0.000000
    7       10.786038   0.000000
    8       13.369229   0.000000
 
  0.4210526E+00  0.5263158E-01  0.0000000E+00  0.3499052E-02
    1       -3.598645   1.000000
    2        0.879969   1.000000
    3        5.481775   1.000000
    4        5.502094   1.000000
    5        8.853023   0.000000
    6       10.291849   0.000000
    7       10.656381   0.000000
    8       13.447275   0.000000
 
  0.4736842E+00  0.5263158E-01  0.0000000E+00  0.3499052E-02
    1       -3.385139   1.000000
    2        0.489932   1.000000
    3        5.378282   1.000000
    4        5.494862   1.000000
    5        8.798870   0.000000
    6       10.275291   0.000000
    7       10.548252   0.000000
    8       13.408428   0.000000
 
 -0.4736842E+00  0.5263158E-01  0.0000000E+00  0.3499052E-02
    1       -3.323944   1.000000
    2        0.384579   1.000000
    3        5.315552   1.000000
    4        5.531407   1.000000
    5        8.785151   0.000000
    6       10.305342   0.000000
    7       10.480324   0.000000
    8       13.398771   0.000000
 
 -0.4210526E+00  0.5263158E-01  0.0000000E+00  0.3499052E-02
    1       -3.443081   1.000000
    2        0.592413   1.000000
    3        5.296427   1.000000
    4        5.609654   1.000000
    5        8.811969   0.000000
    6       10.385072   0.000000
    7       10.457824   0.000000
    8       13.443120   0.000000
 
 -0.3684211E+00  0.5263158E-01  0.0000000E+00  0.3499052E-02
    1       -3.690971   1.000000
    2        1.060757   1.000000
    3        5.322588   1.000000
    4        5.726089   1.000000
    5        8.879153   0.000000
    6       10.473899   0.000000
    7       10.505901   0.000000
    8       13.520676   0.000000
 
 -0.3157895E+00  0.5263158E-01  0.0000000E+00  0.3499052E-02
    1       -3.992787   1.000000
    2        1.711776   1.000000
    3        5.394519   1.000000
    4        5.875486   1.000000
    5        8.986064   0.000000
    6       10.506185   0.000000
    7       10.643665   0.000000
    8       13.522490   0.000000
 
 -0.2631579E+00  0.5263158E-01  0.0000000E+00  0.3499052E-02
    1       -4.295620   1.000000
    2        2.486822   1.000000
    3        5.511268   1.000000
    4        6.049983   1.000000
    5        9.130984   0.000000
    6       10.511474   0.000000
    7       10.748416   0.000000
    8       13.231273   0.000000
 
 -0.2105263E+00  0.5263158E-01  0.0000000E+00  0.3499052E-02
    1       -4.569427   1.000000
    2        3.345515   1.000000
    3        5.669976   1.000000
    4        6.237505   1.000000
    5        9.309508   0.000000
    6       10.436321   0.000000
    7       10.740036   0.000000
    8       12.746568   0.000000
 
 -0.1578947E+00  0.5263158E-01  0.0000000E+00  0.3499052E-02
    1       -4.797879   1.000000
    2        4.251490   1.000000
    3        5.865433   1.000000
    4        6.419187   1.000000
    5        9.511409   0.000000
    6       10.268902   0.000000
    7       10.560751   0.000000
    8       12.156153   0.000000
 
 -0.1052632E+00  0.5263158E-01  0.0000000E+00  0.3499052E-02
    1       -4.971972   1.000000
    2        5.151372   1.000000
    3        6.091323   1.000000
    4        6.566837   1.000000
    5        9.712569   0.000000
    6       10.073857   0.000000
    7       10.262376   0.000000
    8       11.433403   0.000000
 
 -0.5263158E-01  0.5263158E-01  0.0000000E+00  0.1749526E-02
    1       -5.086635   1.000000
    2        5.917344   1.000000
    3        6.356439   1.000000
    4        6.645354   1.000000
    5        9.824729   0.000000
    6        9.944228   0.000000
    7       10.012544   0.000000
    8       10.693508   0.000000
 
  0.1052632E+00  0.1052632E+00  0.0000000E+00  0.8747631E-03
    1       -5.002561   1.000000
    2        5.684892   1.000000
    3        6.138936   1.000000
    4        6.138936   1.000000
    5        9.363915   0.000000
    6       10.627557   0.000000
    7       10.627557   0.000000
    8       10.742153   0.000000
 
  0.1578947E+00  0.1052632E+00  0.0000000E+00  0.3499052E-02
    1       -4.888239   1.000000
    2        5.035223   1.000000
    3        5.920399   1.000000
    4        6.019147   1.000000
    5        9.272026   0.000000
    6       10.544227   0.000000
    7       10.957283   0.000000
    8       11.347207   0.000000
 
  0.2105263E+00  0.1052632E+00  0.0000000E+00  0.3499052E-02
    1       -4.714890   1.000000
    2        4.193623   1.000000
    3        5.715913   1.000000
    4        5.874498   1.000000
    5        9.326071   0.000000
    6       10.443410   0.000000
    7       11.240157   0.000000
    8       11.625336   0.000000
 
  0.2631579E+00  0.1052632E+00  0.0000000E+00  0.3499052E-02
    1       -4.487586   1.000000
    2        3.328203   1.000000
    3        5.542296   1.000000
    4        5.670583   1.000000
    5        9.368718   0.000000
    6       10.431927   0.000000
    7       11.392451   0.000000
    8       11.695213   0.000000
 
  0.3157895E+00  0.1052632E+00  0.0000000E+00  0.3499052E-02
    1       -4.215466   1.000000
    2        2.498110   1.000000
    3        5.409620   1.000000
    4        5.445124   1.000000
    5        9.324529   0.000000
    6       10.439947   0.000000
    7       11.383941   0.000000
    8       11.937592   0.000000
 
  0.3684211E+00  0.1052632E+00  0.0000000E+00  0.3499052E-02
    1       -3.914929   1.000000
    2        1.743685   1.000000
    3        5.226712   1.000000
    4        5.323540   1.000000
    5        9.241069   0.000000
    6       10.392453   0.000000
    7       11.264302   0.000000
    8       12.433058   0.000000
 
  0.4210526E+00  0.1052632E+00  0.0000000E+00  0.3499052E-02
    1       -3.616076   1.000000
    2        1.107862   1.000000
    3        5.032842   1.000000
    4        5.286783   1.000000
    5        9.168149   0.000000
    6       10.327345   0.000000
    7       11.103367   0.000000
    8       13.063637   0.000000
 
  0.4736842E+00  0.1052632E+00  0.0000000E+00  0.3499052E-02
    1       -3.371486   1.000000
    2        0.650451   1.000000
    3        4.874379   1.000000
    4        5.299884   1.000000
    5        9.128401   0.000000
    6       10.286761   0.000000
    7       10.948588   0.000000
    8       13.616656   0.000000
 
 -0.4736842E+00  0.1052632E+00  0.0000000E+00  0.3499052E-02
    1       -3.254780   1.000000
    2        0.448858   1.000000
    3        4.758595   1.000000
    4        5.361603   1.000000
    5        9.129301   0.000000
    6       10.290992   0.000000
    7       10.824718   0.000000
    8       13.859850   0.000000
 
 -0.4210526E+00  0.1052632E+00  0.0000000E+00  0.3499052E-02
    1       -3.316073   1.000000
    2        0.554397   1.000000
    3        4.690707   1.000000
    4        5.468893   1.000000
    5        9.171092   0.000000
    6       10.348278   0.000000
    7       10.741313   0.000000
    8       13.926564   0.000000
 
 -0.3684211E+00  0.1052632E+00  0.0000000E+00  0.3499052E-02
    1       -3.527494   1.000000
    2        0.938320   1.000000
    3        4.674699   1.000000
    4        5.616730   1.000000
    5        9.250835   0.000000
    6       10.457982   0.000000
    7       10.695718   0.000000
    8       13.872419   0.000000
 
 -0.3157895E+00  0.1052632E+00  0.0000000E+00  0.3499052E-02
    1       -3.815722   1.000000
    2        1.523497   1.000000
    3        4.713871   1.000000
    4        5.797505   1.000000
    5        9.364659   0.000000
    6       10.606194   0.000000
    7       10.670655   0.000000
    8       13.533913   0.000000
 
 -0.2631579E+00  0.1052632E+00  0.0000000E+00  0.3499052E-02
    1       -4.119790   1.000000
    2        2.241117   1.000000
    3        4.811700   1.000000
    4        5.999886   1.000000
    5        9.508265   0.000000
    6       10.628810   0.000000
    7       10.750704   0.000000
    8       12.981124   0.000000
 
 -0.2105263E+00  0.1052632E+00  0.0000000E+00  0.3499052E-02
    1       -4.403343   1.000000
    2        3.038529   1.000000
    3        4.974061   1.000000
    4        6.207003   1.000000
    5        9.674748   0.000000
    6       10.521723   0.000000
    7       10.789430   0.000000
    8       12.495482   0.000000
 
 -0.1578947E+00  0.1052632E+00  0.0000000E+00  0.3499052E-02
    1       -4.646441   1.000000
    2        3.859264   1.000000
    3        5.216424   1.000000
    4        6.393751   1.000000
    5        9.845612   0.000000
    6       10.342348   0.000000
    7       10.597804   0.000000
    8       12.212563   0.000000
 
 -0.1052632E+00  0.1052632E+00  0.0000000E+00  0.1749526E-02
    1       -4.838023   1.000000
    2        4.605713   1.000000
    3        5.581784   1.000000
    4        6.525721   1.000000
    5        9.928643   0.000000
    6       10.161839   0.000000
    7       10.304011   0.000000
    8       11.932036   0.000000
 
  0.1578947E+00  0.1578947E+00  0.0000000E+00  0.8747631E-03
    1       -4.794613   1.000000
    2        4.860698   1.000000
    3        5.685084   1.000000
    4        5.685084   1.000000
    5        8.947871   0.000000
    6       10.926601   0.000000
    7       11.346404   0.000000
    8       11.346404   0.000000
 
  0.2105263E+00  0.1578947E+00  0.0000000E+00  0.3499052E-02
    1       -4.641513   1.000000
    2        4.263002   1.000000
    3        5.467984   1.000000
    4        5.501159   1.000000
    5        8.859351   0.000000
    6       10.712205   0.000000
    7       11.593052   0.000000
    8       11.702609   0.000000
 
  0.2631579E+00  0.1578947E+00  0.0000000E+00  0.3499052E-02
    1       -4.433168   1.000000
    2        3.509399   1.000000
    3        5.285592   1.000000
    4        5.289244   1.000000
    5        8.941584   0.000000
    6       10.603646   0.000000
    7       11.533489   0.000000
    8       11.935838   0.000000
 
  0.3157895E+00  0.1578947E+00  0.0000000E+00  0.3499052E-02
    1       -4.177301   1.000000
    2        2.734873   1.000000
    3        5.030629   1.000000
    4        5.147869   1.000000
    5        9.026284   0.000000
    6       10.745946   0.000000
    7       11.398112   0.000000
    8       11.986858   0.000000
 
  0.3684211E+00  0.1578947E+00  0.0000000E+00  0.3499052E-02
    1       -3.887534   1.000000
    2        2.000770   1.000000
    3        4.762645   1.000000
    4        5.060549   1.000000
    5        9.031808   0.000000
    6       11.017488   0.000000
    7       11.426343   0.000000
    8       11.887403   0.000000
 
  0.4210526E+00  0.1578947E+00  0.0000000E+00  0.3499052E-02
    1       -3.588698   1.000000
    2        1.355677   1.000000
    3        4.513447   1.000000
    4        5.026524   1.000000
    5        9.006637   0.000000
    6       10.982745   0.000000
    7       11.715733   0.000000
    8       11.992334   0.000000
 
  0.4736842E+00  0.1578947E+00  0.0000000E+00  0.3499052E-02
    1       -3.324733   1.000000
    2        0.856767   1.000000
    3        4.300022   1.000000
    4        5.046525   1.000000
    5        9.003687   0.000000
    6       10.891468   0.000000
    7       11.531617   0.000000
    8       12.770241   0.000000
 
 -0.4736842E+00  0.1578947E+00  0.0000000E+00  0.3499052E-02
    1       -3.162964   1.000000
    2        0.578350   1.000000
    3        4.133044   1.000000
    4        5.119406   1.000000
    5        9.046369   0.000000
    6       10.828410   0.000000
    7       11.367151   0.000000
    8       13.609055   0.000000
 
 -0.4210526E+00  0.1578947E+00  0.0000000E+00  0.3499052E-02
    1       -3.166070   1.000000
    2        0.585945   1.000000
    3        4.020122   1.000000
    4        5.242069   1.000000
    5        9.140855   0.000000
    6       10.807041   0.000000
    7       11.235783   0.000000
    8       14.326991   0.000000
 
 -0.3684211E+00  0.1578947E+00  0.0000000E+00  0.3499052E-02
    1       -3.332447   1.000000
    2        0.876839   1.000000
    3        3.967833   1.000000
    4        5.409069   1.000000
    5        9.284035   0.000000
    6       10.832291   0.000000
    7       11.137096   0.000000
    8       14.200045   0.000000
 
 -0.3157895E+00  0.1578947E+00  0.0000000E+00  0.3499052E-02
    1       -3.598169   1.000000
    2        1.380926   1.000000
    3        3.983738   1.000000
    4        5.611782   1.000000
    5        9.466131   0.000000
    6       10.902124   0.000000
    7       11.054775   0.000000
    8       13.517959   0.000000
 
 -0.2631579E+00  0.1578947E+00  0.0000000E+00  0.3499052E-02
    1       -3.896807   1.000000
    2        2.016591   1.000000
    3        4.080245   1.000000
    4        5.836867   1.000000
    5        9.670527   0.000000
    6       10.950418   0.000000
    7       10.992725   0.000000
    8       12.802503   0.000000
 
 -0.2105263E+00  0.1578947E+00  0.0000000E+00  0.3499052E-02
    1       -4.185418   1.000000
    2        2.705566   1.000000
    3        4.284028   1.000000
    4        6.063946   1.000000
    5        9.869253   0.000000
    6       10.776536   0.000000
    7       11.002553   0.000000
    8       12.265725   0.000000
 
 -0.1578947E+00  0.1578947E+00  0.0000000E+00  0.1749526E-02
    1       -4.439749   1.000000
    2        3.350149   1.000000
    3        4.650066   1.000000
    4        6.262830   1.000000
    5        9.992319   0.000000
    6       10.543164   0.000000
    7       10.778431   0.000000
    8       12.124169   0.000000
 
  0.2105263E+00  0.2105263E+00  0.0000000E+00  0.8747631E-03
    1       -4.508777   1.000000
    2        3.998505   1.000000
    3        5.238447   1.000000
    4        5.238447   1.000000
    5        8.539853   0.000000
    6       10.362838   0.000000
    7       12.154018   0.000000
    8       12.154019   0.000000
 
  0.2631579E+00  0.2105263E+00  0.0000000E+00  0.3499052E-02
    1       -4.320309   1.000000
    2        3.461677   1.000000
    3        5.013566   1.000000
    4        5.044610   1.000000
    5        8.473745   0.000000
    6       10.076960   0.000000
    7       12.347583   0.000000
    8       12.502159   0.000000
 
  0.3157895E+00  0.2105263E+00  0.0000000E+00  0.3499052E-02
    1       -4.082671   1.000000
    2        2.820180   1.000000
    3        4.723955   1.000000
    4        4.896976   1.000000
    5        8.572062   0.000000
    6       10.013474   0.000000
    7       12.276168   0.000000
    8       12.654772   0.000000
 
  0.3684211E+00  0.2105263E+00  0.0000000E+00  0.3499052E-02
    1       -3.807512   1.000000
    2        2.166639   1.000000
    3        4.395710   1.000000
    4        4.801716   1.000000
    5        8.650348   0.000000
    6       10.281423   0.000000
    7       12.131662   0.000000
    8       12.608573   0.000000
 
  0.4210526E+00  0.2105263E+00  0.0000000E+00  0.3499052E-02
    1       -3.515618   1.000000
    2        1.560757   1.000000
    3        4.075779   1.000000
    4        4.762109   1.000000
    5        8.664316   0.000000
    6       10.847827   0.000000
    7       11.985108   0.000000
    8       12.447544   0.000000
 
  0.4736842E+00  0.2105263E+00  0.0000000E+00  0.3499052E-02
    1       -3.243749   1.000000
    2        1.061486   1.000000
    3        3.793508   1.000000
    4        4.779269   1.000000
    5        8.678835   0.000000
    6       11.544612   0.000000
    7       11.916765   0.000000
    8       12.249612   0.000000
 
 -0.4736842E+00  0.2105263E+00  0.0000000E+00  0.3499052E-02
    1       -3.050712   1.000000
    2        0.740372   1.000000
    3        3.565242   1.000000
    4        4.852381   1.000000
    5        8.735298   0.000000
    6       11.681077   0.000000
    7       12.057604   0.000000
    8       12.555028   0.000000
 
 -0.4210526E+00  0.2105263E+00  0.0000000E+00  0.3499052E-02
    1       -3.002292   1.000000
    2        0.668836   1.000000
    3        3.401837   1.000000
    4        4.978679   1.000000
    5        8.847757   0.000000
    6       11.623889   0.000000
    7       11.889355   0.000000
    8       13.496427   0.000000
 
 -0.3684211E+00  0.2105263E+00  0.0000000E+00  0.3499052E-02
    1       -3.118894   1.000000
    2        0.865527   1.000000
    3        3.313842   1.000000
    4        5.152938   1.000000
    5        9.017399   0.000000
    6       11.594460   0.000000
    7       11.744512   0.000000
    8       14.353187   0.000000
 
 -0.3157895E+00  0.2105263E+00  0.0000000E+00  0.3499052E-02
    1       -3.352967   1.000000
    2        1.270472   1.000000
    3        3.317259   1.000000
    4        5.366555   1.000000
    5        9.237341   0.000000
    6       11.599626   0.000000
    7       11.600917   0.000000
    8       13.494375   0.000000
 
 -0.2631579E+00  0.2105263E+00  0.0000000E+00  0.3499052E-02
    1       -3.637821   1.000000
    2        1.783869   1.000000
    3        3.443827   1.000000
    4        5.605790   1.000000
    5        9.490599   0.000000
    6       11.405614   0.000000
    7       11.611023   0.000000
    8       12.704227   0.000000
 
 -0.2105263E+00  0.2105263E+00  0.0000000E+00  0.1749526E-02
    1       -3.924832   1.000000
    2        2.291569   1.000000
    3        3.751921   1.000000
    4        5.849116   1.000000
    5        9.737880   0.000000
    6       11.111723   0.000000
    7       11.441381   0.000000
    8       12.229933   0.000000
 
  0.2631579E+00  0.2631579E+00  0.0000000E+00  0.8747631E-03
    1       -4.152050   1.000000
    2        3.137262   1.000000
    3        4.838254   1.000000
    4        4.838254   1.000000
    5        8.180409   0.000000
    6        9.645805   0.000000
    7       13.005434   0.000000
    8       13.005434   0.000000
 
  0.3157895E+00  0.2631579E+00  0.0000000E+00  0.3499052E-02
    1       -3.934200   1.000000
    2        2.657100   1.000000
    3        4.596451   1.000000
    4        4.678060   1.000000
    5        8.145548   0.000000
    6        9.403765   0.000000
    7       13.211391   0.000000
    8       13.323213   0.000000
 
  0.3684211E+00  0.2631579E+00  0.0000000E+00  0.3499052E-02
    1       -3.677024   1.000000
    2        2.130047   1.000000
    3        4.243417   1.000000
    4        4.570929   1.000000
    5        8.252929   0.000000
    6        9.444474   0.000000
    7       13.152379   0.000000
    8       13.384135   0.000000
 
  0.4210526E+00  0.2631579E+00  0.0000000E+00  0.3499052E-02
    1       -3.398500   1.000000
    2        1.618592   1.000000
    3        3.847615   1.000000
    4        4.520663   1.000000
    5        8.318915   0.000000
    6        9.851034   0.000000
    7       13.013968   0.000000
    8       13.262616   0.000000
 
  0.4736842E+00  0.2631579E+00  0.0000000E+00  0.3499052E-02
    1       -3.130018   1.000000
    2        1.176152   1.000000
    3        3.474292   1.000000
    4        4.528805   1.000000
    5        8.351112   0.000000
    6       10.531838   0.000000
    7       12.865945   0.000000
    8       13.066557   0.000000
 
 -0.4736842E+00  0.2631579E+00  0.0000000E+00  0.3499052E-02
    1       -2.922026   1.000000
    2        0.866153   1.000000
    3        3.160816   1.000000
    4        4.594987   1.000000
    5        8.412276   0.000000
    6       11.366901   0.000000
    7       12.741457   0.000000
    8       12.857440   0.000000
 
 -0.4210526E+00  0.2631579E+00  0.0000000E+00  0.3499052E-02
    1       -2.836295   1.000000
    2        0.755707   1.000000
    3        2.928953   1.000000
    4        4.716882   1.000000
    5        8.527878   0.000000
    6       12.229580   0.000000
    7       12.658975   0.000000
    8       12.720245   0.000000
 
 -0.3684211E+00  0.2631579E+00  0.0000000E+00  0.3499052E-02
    1       -2.905518   1.000000
    2        0.871629   1.000000
    3        2.799030   1.000000
    4        4.889761   1.000000
    5        8.703469   0.000000
    6       12.465727   0.000000
    7       12.466484   0.000000
    8       13.419606   0.000000
 
 -0.3157895E+00  0.2631579E+00  0.0000000E+00  0.3499052E-02
    1       -3.100753   1.000000
    2        1.157896   1.000000
    3        2.804513   1.000000
    4        5.105578   1.000000
    5        8.935126   0.000000
    6       12.235315   0.000000
    7       12.432972   0.000000
    8       13.508956   0.000000
 
 -0.2631579E+00  0.2631579E+00  0.0000000E+00  0.1749526E-02
    1       -3.361720   1.000000
    2        1.496279   1.000000
    3        3.004004   1.000000
    4        5.351236   1.000000
    5        9.209250   0.000000
    6       11.879355   0.000000
    7       12.252482   0.000000
    8       12.816049   0.000000
 
  0.3157895E+00  0.3157895E+00  0.0000000E+00  0.8747631E-03
    1       -3.737190   1.000000
    2        2.303542   1.000000
    3        4.504134   1.000000
    4        4.504135   1.000000
    5        7.890236   0.000000
    6        9.008012   0.000000
    7       13.877800   0.000000
    8       13.877800   0.000000
 
  0.3684211E+00  0.3157895E+00  0.0000000E+00  0.3499052E-02
    1       -3.501124   1.000000
    2        1.880835   1.000000
    3        4.265153   1.000000
    4        4.382987   1.000000
    5        7.890086   0.000000
    6        8.843162   0.000000
    7       14.097850   0.000000
    8       14.150542   0.000000
 
  0.4210526E+00  0.3157895E+00  0.0000000E+00  0.3499052E-02
    1       -3.242456   1.000000
    2        1.465896   1.000000
    3        3.877005   1.000000
    4        4.319084   1.000000
    5        8.000366   0.000000
    6        9.009290   0.000000
    7       14.050708   0.000000
    8       14.125541   0.000000
 
  0.4736842E+00  0.3157895E+00  0.0000000E+00  0.3499052E-02
    1       -2.989211   1.000000
    2        1.109237   1.000000
    3        3.437942   1.000000
    4        4.314475   1.000000
    5        8.064809   0.000000
    6        9.547250   0.000000
    7       13.916444   0.000000
    8       13.953654   0.000000
 
 -0.4736842E+00  0.3157895E+00  0.0000000E+00  0.3499052E-02
    1       -2.785166   1.000000
    2        0.859902   1.000000
    3        3.030794   1.000000
    4        4.369266   1.000000
    5        8.131053   0.000000
    6       10.321160   0.000000
    7       13.737045   0.000000
    8       13.767020   0.000000
 
 -0.4210526E+00  0.3157895E+00  0.0000000E+00  0.3499052E-02
    1       -2.684021   1.000000
    2        0.765332   1.000000
    3        2.709834   1.000000
    4        4.481624   1.000000
    5        8.245115   0.000000
    6       11.230536   0.000000
    7       13.508772   0.000000
    8       13.630664   0.000000
 
 -0.3684211E+00  0.3157895E+00  0.0000000E+00  0.3499052E-02
    1       -2.718989   1.000000
    2        0.835709   1.000000
    3        2.522639   1.000000
    4        4.647422   1.000000
    5        8.419362   0.000000
    6       12.215849   0.000000
    7       13.244277   0.000000
    8       13.517628   0.000000
 
 -0.3157895E+00  0.3157895E+00  0.0000000E+00  0.1749526E-02
    1       -2.873946   1.000000
    2        1.002549   1.000000
    3        2.533185   1.000000
    4        4.859407   1.000000
    5        8.652831   0.000000
    6       12.835177   0.000000
    7       13.007142   0.000000
    8       13.513142   0.000000
 
  0.3684211E+00  0.3684211E+00  0.0000000E+00  0.8747631E-03
    1       -3.289225   1.000000
    2        1.531687   1.000000
    3        4.246830   1.000000
    4        4.246830   1.000000
    5        7.680157   0.000000
    6        8.502768   0.000000
    7       14.757863   0.000000
    8       14.757864   0.000000
 
  0.4210526E+00  0.3684211E+00  0.0000000E+00  0.3499052E-02
    1       -3.057692   1.000000
    2        1.181825   1.000000
    3        4.025940   1.000000
    4        4.167666   1.000000
    5        7.714349   0.000000
    6        8.426024   0.000000
    7       14.975388   0.000000
    8       14.985218   0.000000
 
  0.4736842E+00  0.3684211E+00  0.0000000E+00  0.3499052E-02
    1       -2.833399   1.000000
    2        0.892819   1.000000
    3        3.633314   1.000000
    4        4.148125   1.000000
    5        7.825031   0.000000
    6        8.721387   0.000000
    7       14.878658   0.000000
    8       14.943166   0.000000
 