 running on   48 total cores
 distrk:  each k-point on   12 cores,    4 groups
 distr:  one band on   12 cores,    1 groups
 using from now: INCAR     
 vasp.5.4.4.18Apr17-6-g9f103f2a35 (build Nov 04 2020 14:40:39) complex          
  
 POSCAR found type information on POSCAR  Al Sb
 POSCAR found :  2 types and       2 ions
 scaLAPACK will be used

 ----------------------------------------------------------------------------- 
|                                                                             |
|           W    W    AA    RRRRR   N    N  II  N    N   GGGG   !!!           |
|           W    W   A  A   R    R  NN   N  II  NN   N  G    G  !!!           |
|           W    W  A    A  R    R  N N  N  II  N N  N  G       !!!           |
|           W WW W  AAAAAA  RRRRR   N  N N  II  N  N N  G  GGG   !            |
|           WW  WW  A    A  R   R   N   NN  II  N   NN  G    G                |
|           W    W  A    A  R    R  N    N  II  N    N   GGGG   !!!           |
|                                                                             |
|      You have enabled k-point parallelism (KPAR>1).                         |
|      This developmental code was originally  written by Paul Kent at ORNL,  |
|      and carefully double checked in Vienna.                                |
|      GW as well as linear response parallelism added by Martijn Marsman     |
|      and Georg Kresse.                                                      |
|      Carefully verify results versus KPAR=1.                                |
|      Report problems to Paul Kent and Vienna.                               |
|                                                                             |
 ----------------------------------------------------------------------------- 

 LDA part: xc-table for Pade appr. of Perdew
 POSCAR found type information on POSCAR  Al Sb
 POSCAR found :  2 types and       2 ions
 generate k-points for:   19   19   19
 POSCAR, INCAR and KPOINTS ok, starting setup
 FFT: planning ...
 WAVECAR not read
 entering main loop
       N       E                     dE             d eps       ncg     rms          rms(c)
DAV:   1     0.156250554037E+02    0.15625E+02   -0.29529E+03  3520   0.751E+02
DAV:   2    -0.727519299598E+01   -0.22900E+02   -0.22560E+02  4856   0.889E+01
DAV:   3    -0.776818672471E+01   -0.49299E+00   -0.49040E+00  4544   0.144E+01
DAV:   4    -0.777128094758E+01   -0.30942E-02   -0.30942E-02  5384   0.139E+00
DAV:   5    -0.777129321179E+01   -0.12264E-04   -0.12264E-04  4712   0.640E-02    0.237E+00
RMM:   6    -0.767337119768E+01    0.97922E-01   -0.61221E-02  3525   0.149E+00    0.140E+00
RMM:   7    -0.763777724145E+01    0.35594E-01   -0.99540E-02  3591   0.198E+00    0.177E-01
RMM:   8    -0.763863185036E+01   -0.85461E-03   -0.27674E-03  3841   0.402E-01    0.536E-02
RMM:   9    -0.763886223934E+01   -0.23039E-03   -0.45874E-04  3829   0.154E-01    0.144E-02
RMM:  10    -0.763886011910E+01    0.21202E-05   -0.44608E-05  4175   0.485E-02    0.534E-03
RMM:  11    -0.763886053203E+01   -0.41294E-06   -0.62942E-06  3847   0.202E-02
   1 F= -.76388605E+01 E0= -.76388605E+01  d E =0.000000E+00
