   2   2   0   0
  0.3027847E+02  0.4407845E-09  0.4407845E-09  0.4407845E-09  0.1000000E-15
  1.000000000000000E-004
  CAR 
 unknown system                          
     13.85145196     -7.07498160  301      4.78360323      1.00000000
     -7.075  0.0000E+00  0.0000E+00
     -7.005  0.0000E+00  0.0000E+00
     -6.935  0.0000E+00  0.0000E+00
     -6.866  0.0000E+00  0.0000E+00
     -6.796  0.0000E+00  0.0000E+00
     -6.726  0.0000E+00  0.0000E+00
     -6.656  0.9097E-20  0.6346E-21
     -6.587  0.2940E-16  0.2051E-17
     -6.517  0.3095E-13  0.2161E-14
     -6.447  0.1314E-10  0.9184E-12
     -6.377  0.2273E-08  0.1595E-09
     -6.308  0.1628E-06  0.1151E-07
     -6.238  0.4936E-05  0.3558E-06
     -6.168  0.6607E-04  0.4965E-05
     -6.098  0.4171E-03  0.3406E-04
     -6.029  0.1374E-02  0.1299E-03
     -5.959  0.2748E-02  0.3216E-03
     -5.889  0.4026E-02  0.6025E-03
     -5.819  0.5046E-02  0.9545E-03
     -5.750  0.5973E-02  0.1371E-02
     -5.680  0.6737E-02  0.1841E-02
     -5.610  0.7608E-02  0.2372E-02
     -5.540  0.8393E-02  0.2957E-02
     -5.471  0.9056E-02  0.3589E-02
     -5.401  0.1015E-01  0.4297E-02
     -5.331  0.1083E-01  0.5053E-02
     -5.261  0.1164E-01  0.5865E-02
     -5.192  0.1311E-01  0.6779E-02
     -5.122  0.1387E-01  0.7747E-02
     -5.052  0.1508E-01  0.8799E-02
     -4.982  0.1728E-01  0.1000E-01
     -4.913  0.1880E-01  0.1132E-01
     -4.843  0.2179E-01  0.1284E-01
     -4.773  0.2606E-01  0.1465E-01
     -4.703  0.2872E-01  0.1666E-01
     -4.634  0.3035E-01  0.1877E-01
     -4.564  0.3062E-01  0.2091E-01
     -4.494  0.3058E-01  0.2304E-01
     -4.424  0.3106E-01  0.2521E-01
     -4.355  0.3198E-01  0.2744E-01
     -4.285  0.3274E-01  0.2972E-01
     -4.215  0.2880E-01  0.3173E-01
     -4.145  0.1684E-01  0.3291E-01
     -4.076  0.5272E-02  0.3328E-01
     -4.006  0.7788E-03  0.3333E-01
     -3.936  0.5064E-04  0.3333E-01
     -3.866  0.1392E-05  0.3333E-01
     -3.797  0.1578E-07  0.3333E-01
     -3.727  0.7265E-10  0.3333E-01
     -3.657  0.1342E-12  0.3333E-01
     -3.587  0.9800E-16  0.3333E-01
     -3.517  0.0000E+00  0.3333E-01
     -3.448  0.0000E+00  0.3333E-01
     -3.378  0.0000E+00  0.3333E-01
     -3.308  0.0000E+00  0.3333E-01
     -3.238  0.0000E+00  0.3333E-01
     -3.169  0.0000E+00  0.3333E-01
     -3.099  0.0000E+00  0.3333E-01
     -3.029  0.0000E+00  0.3333E-01
     -2.959  0.0000E+00  0.3333E-01
     -2.890  0.0000E+00  0.3333E-01
     -2.820  0.0000E+00  0.3333E-01
     -2.750  0.0000E+00  0.3333E-01
     -2.680  0.0000E+00  0.3333E-01
     -2.611  0.0000E+00  0.3333E-01
     -2.541  0.0000E+00  0.3333E-01
     -2.471  0.0000E+00  0.3333E-01
     -2.401  0.0000E+00  0.3333E-01
     -2.332  0.0000E+00  0.3333E-01
     -2.262  0.0000E+00  0.3333E-01
     -2.192  0.0000E+00  0.3333E-01
     -2.122  0.0000E+00  0.3333E-01
     -2.053  0.0000E+00  0.3333E-01
     -1.983  0.0000E+00  0.3333E-01
     -1.913  0.0000E+00  0.3333E-01
     -1.843  0.0000E+00  0.3333E-01
     -1.774  0.0000E+00  0.3333E-01
     -1.704  0.0000E+00  0.3333E-01
     -1.634  0.0000E+00  0.3333E-01
     -1.564  0.4094E-19  0.3333E-01
     -1.495  0.1299E-15  0.3333E-01
     -1.425  0.1258E-12  0.3333E-01
     -1.355  0.4900E-10  0.3333E-01
     -1.285  0.7825E-08  0.3333E-01
     -1.216  0.5251E-06  0.3333E-01
     -1.146  0.1530E-04  0.3333E-01
     -1.076  0.2032E-03  0.3335E-01
     -1.006  0.1332E-02  0.3344E-01
     -0.937  0.4973E-02  0.3379E-01
     -0.867  0.1303E-01  0.3470E-01
     -0.797  0.2713E-01  0.3659E-01
     -0.727  0.4345E-01  0.3962E-01
     -0.658  0.5045E-01  0.4314E-01
     -0.588  0.4249E-01  0.4610E-01
     -0.518  0.3059E-01  0.4824E-01
     -0.448  0.2373E-01  0.4989E-01
     -0.379  0.1965E-01  0.5126E-01
     -0.309  0.1640E-01  0.5241E-01
     -0.239  0.1431E-01  0.5341E-01
     -0.169  0.1320E-01  0.5433E-01
     -0.100  0.1223E-01  0.5518E-01
     -0.030  0.1086E-01  0.5594E-01
      0.040  0.8951E-02  0.5656E-01
      0.110  0.9149E-02  0.5720E-01
      0.180  0.9187E-02  0.5784E-01
      0.249  0.7625E-02  0.5837E-01
      0.319  0.7369E-02  0.5889E-01
      0.389  0.6860E-02  0.5936E-01
      0.459  0.5677E-02  0.5976E-01
      0.528  0.5900E-02  0.6017E-01
      0.598  0.6266E-02  0.6061E-01
      0.668  0.5815E-02  0.6101E-01
      0.738  0.5064E-02  0.6137E-01
      0.807  0.4079E-02  0.6165E-01
      0.877  0.3811E-02  0.6192E-01
      0.947  0.4398E-02  0.6222E-01
      1.017  0.4166E-02  0.6252E-01
      1.086  0.4157E-02  0.6281E-01
      1.156  0.5304E-02  0.6318E-01
      1.226  0.8021E-02  0.6373E-01
      1.296  0.1268E-01  0.6462E-01
      1.365  0.1847E-01  0.6591E-01
      1.435  0.2422E-01  0.6760E-01
      1.505  0.2657E-01  0.6945E-01
      1.575  0.2388E-01  0.7112E-01
      1.644  0.2285E-01  0.7271E-01
      1.714  0.2370E-01  0.7436E-01
      1.784  0.2050E-01  0.7579E-01
      1.854  0.1882E-01  0.7711E-01
      1.923  0.2231E-01  0.7866E-01
      1.993  0.2425E-01  0.8035E-01
      2.063  0.2353E-01  0.8200E-01
      2.133  0.2519E-01  0.8375E-01
      2.202  0.2842E-01  0.8574E-01
      2.272  0.2895E-01  0.8776E-01
      2.342  0.2906E-01  0.8978E-01
      2.412  0.3243E-01  0.9204E-01
      2.481  0.3569E-01  0.9453E-01
      2.551  0.3424E-01  0.9692E-01
      2.621  0.2885E-01  0.9893E-01
      2.691  0.2773E-01  0.1009E+00
      2.760  0.3269E-01  0.1031E+00
      2.830  0.3292E-01  0.1054E+00
      2.900  0.2962E-01  0.1075E+00
      2.970  0.2944E-01  0.1096E+00
      3.039  0.2859E-01  0.1116E+00
      3.109  0.2743E-01  0.1135E+00
      3.179  0.2762E-01  0.1154E+00
      3.249  0.2821E-01  0.1174E+00
      3.318  0.2802E-01  0.1193E+00
      3.388  0.2694E-01  0.1212E+00
      3.458  0.2594E-01  0.1230E+00
      3.528  0.2442E-01  0.1247E+00
      3.597  0.2096E-01  0.1262E+00
      3.667  0.1730E-01  0.1274E+00
      3.737  0.1472E-01  0.1284E+00
      3.807  0.1313E-01  0.1293E+00
      3.877  0.1166E-01  0.1301E+00
      3.946  0.1032E-01  0.1309E+00
      4.016  0.8845E-02  0.1315E+00
      4.086  0.7663E-02  0.1320E+00
      4.156  0.6819E-02  0.1325E+00
      4.225  0.5191E-02  0.1328E+00
      4.295  0.3538E-02  0.1331E+00
      4.365  0.2177E-02  0.1332E+00
      4.435  0.9682E-03  0.1333E+00
      4.504  0.2430E-03  0.1333E+00
      4.574  0.2914E-04  0.1333E+00
      4.644  0.1540E-05  0.1333E+00
      4.714  0.3463E-07  0.1333E+00
      4.783  0.3259E-09  0.1333E+00
      4.853  0.1265E-11  0.1333E+00
      4.923  0.1993E-14  0.1333E+00
      4.993  0.1201E-17  0.1333E+00
      5.062  0.4744E-17  0.1333E+00
      5.132  0.6581E-14  0.1333E+00
      5.202  0.3585E-11  0.1333E+00
      5.272  0.7774E-09  0.1333E+00
      5.341  0.6821E-07  0.1333E+00
      5.411  0.2477E-05  0.1333E+00
      5.481  0.3854E-04  0.1333E+00
      5.551  0.2738E-03  0.1334E+00
      5.620  0.1000E-02  0.1334E+00
      5.690  0.2286E-02  0.1336E+00
      5.760  0.4190E-02  0.1339E+00
      5.830  0.7079E-02  0.1344E+00
      5.899  0.1002E-01  0.1351E+00
      5.969  0.1210E-01  0.1359E+00
      6.039  0.1347E-01  0.1369E+00
      6.109  0.1421E-01  0.1378E+00
      6.178  0.1668E-01  0.1390E+00
      6.248  0.2019E-01  0.1404E+00
      6.318  0.2207E-01  0.1420E+00
      6.388  0.2435E-01  0.1437E+00
      6.457  0.2741E-01  0.1456E+00
      6.527  0.3103E-01  0.1477E+00
      6.597  0.3618E-01  0.1503E+00
      6.667  0.3998E-01  0.1530E+00
      6.736  0.3793E-01  0.1557E+00
      6.806  0.3079E-01  0.1578E+00
      6.876  0.2501E-01  0.1596E+00
      6.946  0.2409E-01  0.1613E+00
      7.015  0.2448E-01  0.1630E+00
      7.085  0.2170E-01  0.1645E+00
      7.155  0.1780E-01  0.1657E+00
      7.225  0.1625E-01  0.1669E+00
      7.295  0.1733E-01  0.1681E+00
      7.364  0.1942E-01  0.1694E+00
      7.434  0.2061E-01  0.1709E+00
      7.504  0.2141E-01  0.1724E+00
      7.574  0.2191E-01  0.1739E+00
      7.643  0.2141E-01  0.1754E+00
      7.713  0.2003E-01  0.1768E+00
      7.783  0.2030E-01  0.1782E+00
      7.853  0.2757E-01  0.1801E+00
      7.922  0.3774E-01  0.1827E+00
      7.992  0.4137E-01  0.1856E+00
      8.062  0.3904E-01  0.1884E+00
      8.132  0.3829E-01  0.1910E+00
      8.201  0.3873E-01  0.1937E+00
      8.271  0.3370E-01  0.1961E+00
      8.341  0.2521E-01  0.1978E+00
      8.411  0.2094E-01  0.1993E+00
      8.480  0.2034E-01  0.2007E+00
      8.550  0.1977E-01  0.2021E+00
      8.620  0.1904E-01  0.2034E+00
      8.690  0.2115E-01  0.2049E+00
      8.759  0.2815E-01  0.2069E+00
      8.829  0.3711E-01  0.2094E+00
      8.899  0.4013E-01  0.2122E+00
      8.969  0.3458E-01  0.2147E+00
      9.038  0.2742E-01  0.2166E+00
      9.108  0.2394E-01  0.2182E+00
      9.178  0.2607E-01  0.2201E+00
      9.248  0.2914E-01  0.2221E+00
      9.317  0.2797E-01  0.2240E+00
      9.387  0.2716E-01  0.2259E+00
      9.457  0.2669E-01  0.2278E+00
      9.527  0.2428E-01  0.2295E+00
      9.596  0.2132E-01  0.2310E+00
      9.666  0.1997E-01  0.2324E+00
      9.736  0.2060E-01  0.2338E+00
      9.806  0.2166E-01  0.2353E+00
      9.875  0.2349E-01  0.2370E+00
      9.945  0.2182E-01  0.2385E+00
     10.015  0.1729E-01  0.2397E+00
     10.085  0.1605E-01  0.2408E+00
     10.154  0.1800E-01  0.2421E+00
     10.224  0.2097E-01  0.2435E+00
     10.294  0.2380E-01  0.2452E+00
     10.364  0.2496E-01  0.2469E+00
     10.433  0.2069E-01  0.2484E+00
     10.503  0.1580E-01  0.2495E+00
     10.573  0.1640E-01  0.2506E+00
     10.643  0.1641E-01  0.2518E+00
     10.712  0.1331E-01  0.2527E+00
     10.782  0.1265E-01  0.2536E+00
     10.852  0.1420E-01  0.2546E+00
     10.922  0.1506E-01  0.2556E+00
     10.992  0.1655E-01  0.2568E+00
     11.061  0.1884E-01  0.2581E+00
     11.131  0.1937E-01  0.2594E+00
     11.201  0.1691E-01  0.2606E+00
     11.271  0.1288E-01  0.2615E+00
     11.340  0.8935E-02  0.2621E+00
     11.410  0.5494E-02  0.2625E+00
     11.480  0.2615E-02  0.2627E+00
     11.550  0.1762E-02  0.2628E+00
     11.619  0.3373E-02  0.2631E+00
     11.689  0.6311E-02  0.2635E+00
     11.759  0.8273E-02  0.2641E+00
     11.829  0.7405E-02  0.2646E+00
     11.898  0.5622E-02  0.2650E+00
     11.968  0.4168E-02  0.2653E+00
     12.038  0.2330E-02  0.2654E+00
     12.108  0.1221E-02  0.2655E+00
     12.177  0.1115E-02  0.2656E+00
     12.247  0.1717E-02  0.2657E+00
     12.317  0.2560E-02  0.2659E+00
     12.387  0.2413E-02  0.2661E+00
     12.456  0.2020E-02  0.2662E+00
     12.526  0.2076E-02  0.2664E+00
     12.596  0.2124E-02  0.2665E+00
     12.666  0.1385E-02  0.2666E+00
     12.735  0.4595E-03  0.2666E+00
     12.805  0.1623E-03  0.2666E+00
     12.875  0.1873E-03  0.2667E+00
     12.945  0.1360E-03  0.2667E+00
     13.014  0.4088E-04  0.2667E+00
     13.084  0.4965E-05  0.2667E+00
     13.154  0.2408E-06  0.2667E+00
     13.224  0.4612E-08  0.2667E+00
     13.293  0.3456E-10  0.2667E+00
     13.363  0.1005E-12  0.2667E+00
     13.433  0.1128E-15  0.2667E+00
     13.503  0.5458E-19  0.2667E+00
     13.572  0.0000E+00  0.2667E+00
     13.642  0.0000E+00  0.2667E+00
     13.712  0.0000E+00  0.2667E+00
     13.782  0.0000E+00  0.2667E+00
     13.851  0.0000E+00  0.2667E+00
