    2    2   60    1
  0.3027847E+02  0.4407845E-09  0.4407845E-09  0.4407845E-09  0.1000000E-15
  1.000000000000000E-004
  CAR 
 unknown system                          
      8    195      8
 
  0.0000000E+00  0.0000000E+00  0.0000000E+00  0.1714678E-03
    1       -6.074982   1.000000
    2        4.374563   1.000000
    3        4.374563   1.000000
    4        4.374563   1.000000
    5        5.652712   0.000000
    6        7.445509   0.000000
    7        7.445509   0.000000
    8        7.445509   0.000000
 
  0.5555556E-01  0.0000000E+00  0.0000000E+00  0.1371742E-02
    1       -6.047814   1.000000
    2        3.933601   1.000000
    3        4.335054   1.000000
    4        4.335054   1.000000
    5        5.960756   0.000000
    6        7.507061   0.000000
    7        7.507061   0.000000
    8        7.518272   0.000000
 
  0.1111111E+00  0.0000000E+00  0.0000000E+00  0.1371742E-02
    1       -5.967134   1.000000
    2        3.145432   1.000000
    3        4.229424   1.000000
    4        4.229425   1.000000
    5        6.244467   0.000000
    6        7.669476   0.000000
    7        7.669476   0.000000
    8        7.874492   0.000000
 
  0.1666667E+00  0.0000000E+00  0.0000000E+00  0.1371742E-02
    1       -5.835904   1.000000
    2        2.316184   1.000000
    3        4.086182   1.000000
    4        4.086183   1.000000
    5        6.230002   0.000000
    6        7.875509   0.000000
    7        7.875509   0.000000
    8        8.546725   0.000000
 
  0.2222222E+00  0.0000000E+00  0.0000000E+00  0.1371742E-02
    1       -5.659777   1.000000
    2        1.515477   1.000000
    3        3.933017   1.000000
    4        3.933017   1.000000
    5        6.091127   0.000000
    6        8.053470   0.000000
    7        8.053470   0.000000
    8        9.347996   0.000000
 
  0.2777778E+00  0.0000000E+00  0.0000000E+00  0.1371742E-02
    1       -5.448739   1.000000
    2        0.776722   1.000000
    3        3.789887   1.000000
    4        3.789887   1.000000
    5        5.932918   0.000000
    6        8.150107   0.000000
    7        8.150107   0.000000
    8       10.166644   0.000000
 
  0.3333333E+00  0.0000000E+00  0.0000000E+00  0.1371742E-02
    1       -5.219966   1.000000
    2        0.128983   1.000000
    3        3.669453   1.000000
    4        3.669453   1.000000
    5        5.793652   0.000000
    6        8.164223   0.000000
    7        8.164223   0.000000
    8       10.836524   0.000000
 
  0.3888889E+00  0.0000000E+00  0.0000000E+00  0.1371742E-02
    1       -5.001936   1.000000
    2       -0.392295   1.000000
    3        3.579320   1.000000
    4        3.579320   1.000000
    5        5.688373   0.000000
    6        8.134508   0.000000
    7        8.134508   0.000000
    8       10.998437   0.000000
 
  0.4444444E+00  0.0000000E+00  0.0000000E+00  0.1371742E-02
    1       -4.837517   1.000000
    2       -0.740099   1.000000
    3        3.523794   1.000000
    4        3.523794   1.000000
    5        5.623468   0.000000
    6        8.100866   0.000000
    7        8.100866   0.000000
    8       10.953930   0.000000
 
  0.5000000E+00  0.0000000E+00  0.0000000E+00  0.6858711E-03
    1       -4.774968   1.000000
    2       -0.864033   1.000000
    3        3.505061   1.000000
    4        3.505061   1.000000
    5        5.601591   0.000000
    6        8.087152   0.000000
    7        8.087152   0.000000
    8       10.929149   0.000000
 
  0.5555556E-01  0.5555556E-01  0.0000000E+00  0.1028807E-02
    1       -6.038730   1.000000
    2        3.922680   1.000000
    3        4.250779   1.000000
    4        4.250779   1.000000
    5        6.094913   0.000000
    6        7.332535   0.000000
    7        7.621577   0.000000
    8        7.621577   0.000000
 
  0.1111111E+00  0.5555556E-01  0.0000000E+00  0.4115226E-02
    1       -5.975803   1.000000
    2        3.318941   1.000000
    3        4.112391   1.000000
    4        4.179275   1.000000
    5        6.415018   0.000000
    6        7.315471   0.000000
    7        7.828652   0.000000
    8        7.902892   0.000000
 
  0.1666667E+00  0.5555556E-01  0.0000000E+00  0.4115226E-02
    1       -5.861263   1.000000
    2        2.540929   1.000000
    3        3.951109   1.000000
    4        4.071627   1.000000
    5        6.483016   0.000000
    6        7.474006   0.000000
    7        8.070769   0.000000
    8        8.433520   0.000000
 
  0.2222222E+00  0.5555556E-01  0.0000000E+00  0.4115226E-02
    1       -5.699720   1.000000
    2        1.752194   1.000000
    3        3.792626   1.000000
    4        3.918967   1.000000
    5        6.373555   0.000000
    6        7.702540   0.000000
    7        8.277923   0.000000
    8        9.079568   0.000000
 
  0.2777778E+00  0.5555556E-01  0.0000000E+00  0.4115226E-02
    1       -5.499516   1.000000
    2        1.005163   1.000000
    3        3.654207   1.000000
    4        3.751242   1.000000
    5        6.221397   0.000000
    6        7.884334   0.000000
    7        8.391426   0.000000
    8        9.703349   0.000000
 
  0.3333333E+00  0.5555556E-01  0.0000000E+00  0.4115226E-02
    1       -5.275014   1.000000
    2        0.333658   1.000000
    3        3.546351   1.000000
    4        3.591242   1.000000
    5        6.077933   0.000000
    6        7.972581   0.000000
    7        8.400911   0.000000
    8       10.278477   0.000000
 
  0.3888889E+00  0.5555556E-01  0.0000000E+00  0.4115226E-02
    1       -5.050355   1.000000
    2       -0.227659   1.000000
    3        3.453322   1.000000
    4        3.474951   1.000000
    5        5.962771   0.000000
    6        7.993518   0.000000
    7        8.344226   0.000000
    8       10.781688   0.000000
 
  0.4444444E+00  0.5555556E-01  0.0000000E+00  0.4115226E-02
    1       -4.863585   1.000000
    2       -0.634769   1.000000
    3        3.346278   1.000000
    4        3.442824   1.000000
    5        5.884484   0.000000
    6        7.996415   0.000000
    7        8.267668   0.000000
    8       11.019260   0.000000
 
  0.5000000E+00  0.5555556E-01  0.0000000E+00  0.4115226E-02
    1       -4.763161   1.000000
    2       -0.835868   1.000000
    3        3.275590   1.000000
    4        3.450649   1.000000
    5        5.846960   0.000000
    6        8.014750   0.000000
    7        8.202199   0.000000
    8       11.058059   0.000000
 
 -0.4444444E+00  0.5555556E-01  0.0000000E+00  0.4115226E-02
    1       -4.784305   1.000000
    2       -0.794345   1.000000
    3        3.244667   1.000000
    4        3.497408   1.000000
    5        5.851711   0.000000
    6        8.062063   0.000000
    7        8.161391   0.000000
    8       11.070730   0.000000
 
 -0.3888889E+00  0.5555556E-01  0.0000000E+00  0.4115226E-02
    1       -4.918992   1.000000
    2       -0.518603   1.000000
    3        3.255477   1.000000
    4        3.580503   1.000000
    5        5.898605   0.000000
    6        8.135403   0.000000
    7        8.143537   0.000000
    8       11.052787   0.000000
 
 -0.3333333E+00  0.5555556E-01  0.0000000E+00  0.4115226E-02
    1       -5.123561   1.000000
    2       -0.054303   1.000000
    3        3.308684   1.000000
    4        3.695574   1.000000
    5        5.985698   0.000000
    6        8.131197   0.000000
    7        8.214440   0.000000
    8       10.804351   0.000000
 
 -0.2777778E+00  0.5555556E-01  0.0000000E+00  0.4115226E-02
    1       -5.351645   1.000000
    2        0.547753   1.000000
    3        3.403519   1.000000
    4        3.835751   1.000000
    5        6.107953   0.000000
    6        8.090885   0.000000
    7        8.255553   0.000000
    8       10.224020   0.000000
 
 -0.2222222E+00  0.5555556E-01  0.0000000E+00  0.4115226E-02
    1       -5.570120   1.000000
    2        1.246628   1.000000
    3        3.537379   1.000000
    4        3.990378   1.000000
    5        6.253450   0.000000
    6        7.986876   0.000000
    7        8.192421   0.000000
    8        9.557616   0.000000
 
 -0.1666667E+00  0.5555556E-01  0.0000000E+00  0.4115226E-02
    1       -5.758599   1.000000
    2        2.007395   1.000000
    3        3.705383   1.000000
    4        4.143037   1.000000
    5        6.392142   0.000000
    6        7.818297   0.000000
    7        7.979599   0.000000
    8        8.908606   0.000000
 
 -0.1111111E+00  0.5555556E-01  0.0000000E+00  0.4115226E-02
    1       -5.905124   1.000000
    2        2.787443   1.000000
    3        3.900978   1.000000
    4        4.269799   1.000000
    5        6.441031   0.000000
    6        7.637202   0.000000
    7        7.682870   0.000000
    8        8.320591   0.000000
 
 -0.5555556E-01  0.5555556E-01  0.0000000E+00  0.2057613E-02
    1       -6.002756   1.000000
    2        3.498126   1.000000
    3        4.123352   1.000000
    4        4.341410   1.000000
    5        6.249730   0.000000
    6        7.505333   0.000000
    7        7.515907   0.000000
    8        7.843714   0.000000
 
  0.1111111E+00  0.1111111E+00  0.0000000E+00  0.1028807E-02
    1       -5.930836   1.000000
    2        3.151818   1.000000
    3        3.949077   1.000000
    4        3.949077   1.000000
    5        6.702285   0.000000
    6        7.165270   0.000000
    7        8.078749   0.000000
    8        8.078749   0.000000
 
  0.1666667E+00  0.1111111E+00  0.0000000E+00  0.4115226E-02
    1       -5.833763   1.000000
    2        2.595846   1.000000
    3        3.771789   1.000000
    4        3.809789   1.000000
    5        6.758450   0.000000
    6        7.260285   0.000000
    7        8.364111   0.000000
    8        8.469743   0.000000
 
  0.2222222E+00  0.1111111E+00  0.0000000E+00  0.4115226E-02
    1       -5.688360   1.000000
    2        1.900125   1.000000
    3        3.605019   1.000000
    4        3.653278   1.000000
    5        6.745816   0.000000
    6        7.395918   0.000000
    7        8.616997   0.000000
    8        8.889476   0.000000
 
  0.2777778E+00  0.1111111E+00  0.0000000E+00  0.4115226E-02
    1       -5.501595   1.000000
    2        1.192761   1.000000
    3        3.460573   1.000000
    4        3.464754   1.000000
    5        6.662264   0.000000
    6        7.609522   0.000000
    7        8.771484   0.000000
    8        9.147042   0.000000
 
  0.3333333E+00  0.1111111E+00  0.0000000E+00  0.4115226E-02
    1       -5.285533   1.000000
    2        0.530036   1.000000
    3        3.259636   1.000000
    4        3.360655   1.000000
    5        6.544769   0.000000
    6        7.796693   0.000000
    7        8.801644   0.000000
    8        9.428383   0.000000
 
  0.3888889E+00  0.1111111E+00  0.0000000E+00  0.4115226E-02
    1       -5.060532   1.000000
    2       -0.046700   1.000000
    3        3.073754   1.000000
    4        3.298069   1.000000
    5        6.434591   0.000000
    6        7.882137   0.000000
    7        8.738953   0.000000
    8        9.891308   0.000000
 
  0.4444444E+00  0.1111111E+00  0.0000000E+00  0.4115226E-02
    1       -4.859489   1.000000
    2       -0.493290   1.000000
    3        2.917445   1.000000
    4        3.279377   1.000000
    5        6.351992   0.000000
    6        7.909450   0.000000
    7        8.635279   0.000000
    8       10.486845   0.000000
 
  0.5000000E+00  0.1111111E+00  0.0000000E+00  0.4115226E-02
    1       -4.727916   1.000000
    2       -0.757968   1.000000
    3        2.799652   1.000000
    4        3.304717   1.000000
    5        6.305996   0.000000
    6        7.936358   0.000000
    7        8.529298   0.000000
    8       11.048397   0.000000
 
 -0.4444444E+00  0.1111111E+00  0.0000000E+00  0.4115226E-02
    1       -4.708113   1.000000
    2       -0.795684   1.000000
    3        2.726320   1.000000
    4        3.372297   1.000000
    5        6.300039   0.000000
    6        7.990908   0.000000
    7        8.440546   0.000000
    8       11.314821   0.000000
 
 -0.3888889E+00  0.1111111E+00  0.0000000E+00  0.4115226E-02
    1       -4.807458   1.000000
    2       -0.598926   1.000000
    3        2.701784   1.000000
    4        3.478329   1.000000
    5        6.334241   0.000000
    6        8.078877   0.000000
    7        8.372077   0.000000
    8       11.195716   0.000000
 
 -0.3333333E+00  0.1111111E+00  0.0000000E+00  0.4115226E-02
    1       -4.991538   1.000000
    2       -0.204939   1.000000
    3        2.729693   1.000000
    4        3.616653   1.000000
    5        6.406020   0.000000
    6        8.187073   0.000000
    7        8.310952   0.000000
    8       10.694858   0.000000
 
 -0.2777778E+00  0.1111111E+00  0.0000000E+00  0.4115226E-02
    1       -5.213035   1.000000
    2        0.332095   1.000000
    3        2.813906   1.000000
    4        3.777858   1.000000
    5        6.508958   0.000000
    6        8.228171   0.000000
    7        8.272256   0.000000
    8       10.068706   0.000000
 
 -0.2222222E+00  0.1111111E+00  0.0000000E+00  0.4115226E-02
    1       -5.434591   1.000000
    2        0.960956   1.000000
    3        2.960163   1.000000
    4        3.947791   1.000000
    5        6.627940   0.000000
    6        8.092304   0.000000
    7        8.236160   0.000000
    8        9.540886   0.000000
 
 -0.1666667E+00  0.1111111E+00  0.0000000E+00  0.4115226E-02
    1       -5.632348   1.000000
    2        1.629496   1.000000
    3        3.179849   1.000000
    4        4.105608   1.000000
    5        6.722332   0.000000
    6        7.907643   0.000000
    7        7.997704   0.000000
    8        9.181716   0.000000
 
 -0.1111111E+00  0.1111111E+00  0.0000000E+00  0.2057613E-02
    1       -5.791956   1.000000
    2        2.267554   1.000000
    3        3.494046   1.000000
    4        4.223020   1.000000
    5        6.684998   0.000000
    6        7.731652   0.000000
    7        7.738412   0.000000
    8        8.814653   0.000000
 
  0.1666667E+00  0.1666667E+00  0.0000000E+00  0.1028807E-02
    1       -5.754334   1.000000
    2        2.352757   1.000000
    3        3.581648   1.000000
    4        3.581648   1.000000
    5        6.574466   0.000000
    6        7.507782   0.000000
    7        8.701142   0.000000
    8        8.701143   0.000000
 
  0.2222222E+00  0.1666667E+00  0.0000000E+00  0.4115226E-02
    1       -5.626026   1.000000
    2        1.857293   1.000000
    3        3.398533   1.000000
    4        3.405275   1.000000
    5        6.513900   0.000000
    6        7.566411   0.000000
    7        8.986295   0.000000
    8        9.016441   0.000000
 
  0.2777778E+00  0.1666667E+00  0.0000000E+00  0.4115226E-02
    1       -5.454674   1.000000
    2        1.261944   1.000000
    3        3.180219   1.000000
    4        3.258585   1.000000
    5        6.578061   0.000000
    6        7.610752   0.000000
    7        9.005493   0.000000
    8        9.237272   0.000000
 
  0.3333333E+00  0.1666667E+00  0.0000000E+00  0.4115226E-02
    1       -5.250535   1.000000
    2        0.659424   1.000000
    3        2.934226   1.000000
    4        3.151240   1.000000
    5        6.614176   0.000000
    6        7.810251   0.000000
    7        8.953103   0.000000
    8        9.316858   0.000000
 
  0.3888889E+00  0.1666667E+00  0.0000000E+00  0.4115226E-02
    1       -5.030850   1.000000
    2        0.106162   1.000000
    3        2.693378   1.000000
    4        3.088692   1.000000
    5        6.584250   0.000000
    6        8.068298   0.000000
    7        9.073233   0.000000
    8        9.272491   0.000000
 
  0.4444444E+00  0.1666667E+00  0.0000000E+00  0.4115226E-02
    1       -4.823746   1.000000
    2       -0.348764   1.000000
    3        2.481200   1.000000
    4        3.073449   1.000000
    5        6.543135   0.000000
    6        8.176429   0.000000
    7        9.160094   0.000000
    8        9.531129   0.000000
 
  0.5000000E+00  0.1666667E+00  0.0000000E+00  0.4115226E-02
    1       -4.670092   1.000000
    2       -0.652786   1.000000
    3        2.311707   1.000000
    4        3.105725   1.000000
    5        6.526858   0.000000
    6        8.191868   0.000000
    7        9.027641   0.000000
    8       10.216995   0.000000
 
 -0.4444444E+00  0.1666667E+00  0.0000000E+00  0.4115226E-02
    1       -4.614132   1.000000
    2       -0.756037   1.000000
    3        2.193928   1.000000
    4        3.183656   1.000000
    5        6.548182   0.000000
    6        8.209008   0.000000
    7        8.901281   0.000000
    8       10.968443   0.000000
 
 -0.3888889E+00  0.1666667E+00  0.0000000E+00  0.4115226E-02
    1       -4.675758   1.000000
    2       -0.637812   1.000000
    3        2.135108   1.000000
    4        3.303115   1.000000
    5        6.608083   0.000000
    6        8.258807   0.000000
    7        8.787644   0.000000
    8       11.256804   0.000000
 
 -0.3333333E+00  0.1666667E+00  0.0000000E+00  0.4115226E-02
    1       -4.832930   1.000000
    2       -0.324857   1.000000
    3        2.143157   1.000000
    4        3.457167   1.000000
    5        6.700367   0.000000
    6        8.343344   0.000000
    7        8.675136   0.000000
    8       10.599142   0.000000
 
 -0.2777778E+00  0.1666667E+00  0.0000000E+00  0.4115226E-02
    1       -5.041111   1.000000
    2        0.125747   1.000000
    3        2.229604   1.000000
    4        3.634903   1.000000
    5        6.811032   0.000000
    6        8.433692   0.000000
    7        8.534715   0.000000
    8        9.897778   0.000000
 
 -0.2222222E+00  0.1666667E+00  0.0000000E+00  0.4115226E-02
    1       -5.260217   1.000000
    2        0.647929   1.000000
    3        2.414120   1.000000
    4        3.819714   1.000000
    5        6.909517   0.000000
    6        8.338749   0.000000
    7        8.415994   0.000000
    8        9.393806   0.000000
 
 -0.1666667E+00  0.1666667E+00  0.0000000E+00  0.2057613E-02
    1       -5.462883   1.000000
    2        1.170198   1.000000
    3        2.726175   1.000000
    4        3.987281   1.000000
    5        6.919678   0.000000
    6        8.105896   0.000000
    7        8.175700   0.000000
    8        9.246662   0.000000
 
  0.2222222E+00  0.2222222E+00  0.0000000E+00  0.1028807E-02
    1       -5.515093   1.000000
    2        1.573866   1.000000
    3        3.219171   1.000000
    4        3.219171   1.000000
    5        6.258338   0.000000
    6        7.540567   0.000000
    7        9.413212   0.000000
    8        9.413221   0.000000
 
  0.2777778E+00  0.2222222E+00  0.0000000E+00  0.4115226E-02
    1       -5.360543   1.000000
    2        1.135239   1.000000
    3        3.016686   1.000000
    4        3.063451   1.000000
    5        6.217877   0.000000
    6        7.424893   0.000000
    7        9.549538   0.000000
    8        9.730058   0.000000
 
  0.3333333E+00  0.2222222E+00  0.0000000E+00  0.4115226E-02
    1       -5.171235   1.000000
    2        0.642217   1.000000
    3        2.746453   1.000000
    4        2.948364   1.000000
    5        6.316678   0.000000
    6        7.444776   0.000000
    7        9.435112   0.000000
    8        9.895482   0.000000
 
  0.3888889E+00  0.2222222E+00  0.0000000E+00  0.4115226E-02
    1       -4.962006   1.000000
    2        0.160179   1.000000
    3        2.447980   1.000000
    4        2.879825   1.000000
    5        6.386127   0.000000
    6        7.738872   0.000000
    7        9.292055   0.000000
    8        9.900157   0.000000
 
  0.4444444E+00  0.2222222E+00  0.0000000E+00  0.4115226E-02
    1       -4.756984   1.000000
    2       -0.259501   1.000000
    3        2.166966   1.000000
    4        2.860717   1.000000
    5        6.398829   0.000000
    6        8.260776   0.000000
    7        9.198205   0.000000
    8        9.799786   0.000000
 
  0.5000000E+00  0.2222222E+00  0.0000000E+00  0.4115226E-02
    1       -4.591915   1.000000
    2       -0.565124   1.000000
    3        1.931566   1.000000
    4        2.891600   1.000000
    5        6.414996   0.000000
    6        8.731320   0.000000
    7        9.351641   0.000000
    8        9.654733   0.000000
 
 -0.4444444E+00  0.2222222E+00  0.0000000E+00  0.4115226E-02
    1       -4.508967   1.000000
    2       -0.706224   1.000000
    3        1.758280   1.000000
    4        2.970889   1.000000
    5        6.466591   0.000000
    6        8.822850   0.000000
    7        9.499809   0.000000
    8       10.023848   0.000000
 
 -0.3888889E+00  0.2222222E+00  0.0000000E+00  0.4115226E-02
    1       -4.535293   1.000000
    2       -0.654747   1.000000
    3        1.659714   1.000000
    4        3.094655   1.000000
    5        6.560826   0.000000
    6        8.833917   0.000000
    7        9.344110   0.000000
    8       10.843516   0.000000
 
 -0.3333333E+00  0.2222222E+00  0.0000000E+00  0.4115226E-02
    1       -4.661235   1.000000
    2       -0.428713   1.000000
    3        1.650755   1.000000
    4        3.255974   1.000000
    5        6.691045   0.000000
    6        8.868734   0.000000
    7        9.172335   0.000000
    8       10.531527   0.000000
 
 -0.2777778E+00  0.2222222E+00  0.0000000E+00  0.4115226E-02
    1       -4.849098   1.000000
    2       -0.087524   1.000000
    3        1.754205   1.000000
    4        3.443641   1.000000
    5        6.836058   0.000000
    6        8.923699   0.000000
    7        8.948608   0.000000
    8        9.769257   0.000000
 
 -0.2222222E+00  0.2222222E+00  0.0000000E+00  0.2057613E-02
    1       -5.058660   1.000000
    2        0.292364   1.000000
    3        2.001848   1.000000
    4        3.640206   1.000000
    5        6.945835   0.000000
    6        8.654023   0.000000
    7        8.806600   0.000000
    8        9.321762   0.000000
 
  0.2777778E+00  0.2777778E+00  0.0000000E+00  0.1028807E-02
    1       -5.223513   1.000000
    2        0.835003   1.000000
    3        2.897576   1.000000
    4        2.897576   1.000000
    5        5.982027   0.000000
    6        7.159523   0.000000
    7       10.174291   0.000000
    8       10.174323   0.000000
 
  0.3333333E+00  0.2777778E+00  0.0000000E+00  0.4115226E-02
    1       -5.051429   1.000000
    2        0.452697   1.000000
    3        2.693816   1.000000
    4        2.772207   1.000000
    5        5.975586   0.000000
    6        6.998474   0.000000
    7       10.280668   0.000000
    8       10.475207   0.000000
 
  0.3888889E+00  0.2777778E+00  0.0000000E+00  0.4115226E-02
    1       -4.857468   1.000000
    2        0.060945   1.000000
    3        2.390771   1.000000
    4        2.693975   1.000000
    5        6.092741   0.000000
    6        7.069198   0.000000
    7       10.157847   0.000000
    8       10.575874   0.000000
 
  0.4444444E+00  0.2777778E+00  0.0000000E+00  0.4115226E-02
    1       -4.662709   1.000000
    2       -0.290336   1.000000
    3        2.054142   1.000000
    4        2.666317   1.000000
    5        6.162951   0.000000
    6        7.469681   0.000000
    7       10.008813   0.000000
    8       10.516475   0.000000
 
  0.5000000E+00  0.2777778E+00  0.0000000E+00  0.4115226E-02
    1       -4.498213   1.000000
    2       -0.556821   1.000000
    3        1.744772   1.000000
    4        2.690238   1.000000
    5        6.201422   0.000000
    6        8.115176   0.000000
    7        9.879569   0.000000
    8       10.373916   0.000000
 
 -0.4444444E+00  0.2777778E+00  0.0000000E+00  0.4115226E-02
    1       -4.401602   1.000000
    2       -0.696350   1.000000
    3        1.501200   1.000000
    4        2.764602   1.000000
    5        6.265828   0.000000
    6        8.888525   0.000000
    7        9.799658   0.000000
    8       10.196340   0.000000
 
 -0.3888889E+00  0.2777778E+00  0.0000000E+00  0.4115226E-02
    1       -4.401140   1.000000
    2       -0.684717   1.000000
    3        1.350689   1.000000
    4        2.885912   1.000000
    5        6.374763   0.000000
    6        9.529629   0.000000
    7        9.978721   0.000000
    8        9.993135   0.000000
 
 -0.3333333E+00  0.2777778E+00  0.0000000E+00  0.4115226E-02
    1       -4.496003   1.000000
    2       -0.539085   1.000000
    3        1.321181   1.000000
    4        3.047718   1.000000
    5        6.525439   0.000000
    6        9.614084   0.000000
    7        9.735754   0.000000
    8       10.462695   0.000000
 
 -0.2777778E+00  0.2777778E+00  0.0000000E+00  0.2057613E-02
    1       -4.657449   1.000000
    2       -0.318290   1.000000
    3        1.446919   1.000000
    4        3.239300   1.000000
    5        6.697482   0.000000
    6        9.380313   0.000000
    7        9.568267   0.000000
    8        9.768716   0.000000
 
  0.3333333E+00  0.3333333E+00  0.0000000E+00  0.1028807E-02
    1       -4.898380   1.000000
    2        0.158192   1.000000
    3        2.635381   1.000000
    4        2.635381   1.000000
    5        5.778458   0.000000
    6        6.691043   0.000000
    7       10.960381   0.000000
    8       10.960407   0.000000
 
  0.3888889E+00  0.3333333E+00  0.0000000E+00  0.4115226E-02
    1       -4.724322   1.000000
    2       -0.159665   1.000000
    3        2.443929   1.000000
    4        2.545394   1.000000
    5        5.810220   0.000000
    6        6.565219   0.000000
    7       11.077495   0.000000
    8       11.232940   0.000000
 
  0.4444444E+00  0.3333333E+00  0.0000000E+00  0.4115226E-02
    1       -4.548365   1.000000
    2       -0.444344   1.000000
    3        2.130338   1.000000
    4        2.506363   1.000000
    5        5.931214   0.000000
    6        6.735143   0.000000
    7       10.964040   0.000000
    8       11.266962   0.000000
 
  0.5000000E+00  0.3333333E+00  0.0000000E+00  0.4115226E-02
    1       -4.397830   1.000000
    2       -0.655113   1.000000
    3        1.781184   1.000000
    4        2.519836   1.000000
    5        5.997268   0.000000
    6        7.252542   0.000000
    7       10.819354   0.000000
    8       11.149063   0.000000
 
 -0.4444444E+00  0.3333333E+00  0.0000000E+00  0.4115226E-02
    1       -4.304545   1.000000
    2       -0.761486   1.000000
    3        1.472488   1.000000
    4        2.585189   1.000000
    5        6.066896   0.000000
    6        7.983263   0.000000
    7       10.687429   0.000000
    8       10.949863   0.000000
 
 -0.3888889E+00  0.3333333E+00  0.0000000E+00  0.4115226E-02
    1       -4.292552   1.000000
    2       -0.754030   1.000000
    3        1.260141   1.000000
    4        2.699477   1.000000
    5        6.179394   0.000000
    6        8.835371   0.000000
    7       10.578543   0.000000
    8       10.673333   0.000000
 
 -0.3333333E+00  0.3333333E+00  0.0000000E+00  0.2057613E-02
    1       -4.363329   1.000000
    2       -0.660825   1.000000
    3        1.194630   1.000000
    4        2.856933   1.000000
    5        6.337894   0.000000
    6        9.734179   0.000000
    7       10.269294   0.000000
    8       10.410137   0.000000
 
  0.3888889E+00  0.3888889E+00  0.0000000E+00  0.1028807E-02
    1       -4.574570   1.000000
    2       -0.419320   1.000000
    3        2.442688   1.000000
    4        2.442688   1.000000
    5        5.662085   0.000000
    6        6.280218   0.000000
    7       11.747915   0.000000
    8       11.747924   0.000000
 
  0.4444444E+00  0.3888889E+00  0.0000000E+00  0.4115226E-02
    1       -4.426555   1.000000
    2       -0.650427   1.000000
    3        2.274274   1.000000
    4        2.390732   1.000000
    5        5.730810   0.000000
    6        6.219287   0.000000
    7       11.875553   0.000000
    8       11.974471   0.000000
 
  0.5000000E+00  0.3888889E+00  0.0000000E+00  0.4115226E-02
    1       -4.304661   1.000000
    2       -0.808508   1.000000
    3        1.972384   1.000000
    4        2.391681   1.000000
    5        5.837015   0.000000
    6        6.516716   0.000000
    7       11.767709   0.000000
    8       11.925809   0.000000
 
 -0.4444444E+00  0.3888889E+00  0.0000000E+00  0.4115226E-02
    1       -4.234330   1.000000
    2       -0.869052   1.000000
    3        1.642497   1.000000
    4        2.445458   1.000000
    5        5.910016   0.000000
    6        7.139374   0.000000
    7       11.601408   0.000000
    8       11.695036   0.000000
 
 -0.3888889E+00  0.3888889E+00  0.0000000E+00  0.2057613E-02
    1       -4.231185   1.000000
    2       -0.836474   1.000000
    3        1.378581   1.000000
    4        2.549734   1.000000
    5        6.019964   0.000000
    6        7.936492   0.000000
    7       11.280116   0.000000
    8       11.310672   0.000000
 
  0.4444444E+00  0.4444444E+00  0.0000000E+00  0.1028807E-02
    1       -4.315521   1.000000
    2       -0.831806   1.000000
    3        2.325157   1.000000
    4        2.325157   1.000000
    5        5.638564   0.000000
    6        5.975063   0.000000
    7       12.473242   0.000000
    8       12.473246   0.000000
 
  0.5000000E+00  0.4444444E+00  0.0000000E+00  0.4115226E-02
    1       -4.236910   1.000000
    2       -0.937524   1.000000
    3        2.188627   1.000000
    4        2.312456   1.000000
    5        5.727559   0.000000
    6        6.004355   0.000000
    7       12.549036   0.000000
    8       12.578587   0.000000
 
 -0.4444444E+00  0.4444444E+00  0.0000000E+00  0.2057613E-02
    1       -4.208358   1.000000
    2       -0.945494   1.000000
    3        1.919526   1.000000
    4        2.353123   1.000000
    5        5.806676   0.000000
    6        6.440992   0.000000
    7       12.281658   0.000000
    8       12.294094   0.000000
 
  0.5000000E+00  0.5000000E+00  0.0000000E+00  0.5144033E-03
    1       -4.211856   1.000000
    2       -0.986851   1.000000
    3        2.285683   1.000000
    4        2.285683   1.000000
    5        5.671449   0.000000
    6        5.830997   0.000000
    7       12.851432   0.000000
    8       12.851452   0.000000
 