       N       E                     dE             d eps       ncg     rms          rms(c)
DAV:   1     0.131306236227E+02    0.13131E+02   -0.27865E+03  3128   0.728E+02
DAV:   2    -0.776838364946E+01   -0.20899E+02   -0.20166E+02  4216   0.826E+01
DAV:   3    -0.827259269568E+01   -0.50421E+00   -0.49721E+00  4328   0.142E+01
DAV:   4    -0.827526738622E+01   -0.26747E-02   -0.26747E-02  4416   0.126E+00
DAV:   5    -0.827528375033E+01   -0.16364E-04   -0.16364E-04  4456   0.839E-02    0.206E+00
RMM:   6    -0.821562340521E+01    0.59660E-01   -0.52485E-02  3120   0.129E+00    0.124E+00
RMM:   7    -0.819774026891E+01    0.17883E-01   -0.63261E-02  3120   0.153E+00    0.220E-01
RMM:   8    -0.819840608256E+01   -0.66581E-03   -0.36800E-03  3122   0.434E-01    0.501E-02
RMM:   9    -0.819879093283E+01   -0.38485E-03   -0.62158E-04  3120   0.173E-01    0.152E-02
RMM:  10    -0.819879672816E+01   -0.57953E-05   -0.52044E-05  3120   0.531E-02    0.455E-03
RMM:  11    -0.819879983278E+01   -0.31046E-05   -0.10287E-05  3120   0.246E-02    0.197E-03
RMM:  12    -0.819880024622E+01   -0.41344E-06   -0.53355E-07  2187   0.671E-03
   1 F= -.81988002E+01 E0= -.81988002E+01  d E =-.819880E+01
