 running on   48 total cores
 distrk:  each k-point on   12 cores,    4 groups
 distr:  one band on   12 cores,    1 groups
 using from now: INCAR     
 vasp.5.4.4.18Apr17-6-g9f103f2a35 (build Nov 04 2020 14:40:39) complex          
  
 POSCAR found type information on POSCAR  Al Sb
 POSCAR found :  2 types and       2 ions
 scaLAPACK will be used

 ----------------------------------------------------------------------------- 
|                                                                             |
|           W    W    AA    RRRRR   N    N  II  N    N   GGGG   !!!           |
|           W    W   A  A   R    R  NN   N  II  NN   N  G    G  !!!           |
|           W    W  A    A  R    R  N N  N  II  N N  N  G       !!!           |
|           W WW W  AAAAAA  RRRRR   N  N N  II  N  N N  G  GGG   !            |
|           WW  WW  A    A  R   R   N   NN  II  N   NN  G    G                |
|           W    W  A    A  R    R  N    N  II  N    N   GGGG   !!!           |
|                                                                             |
|      You have enabled k-point parallelism (KPAR>1).                         |
|      This developmental code was originally  written by Paul Kent at ORNL,  |
|      and carefully double checked in Vienna.                                |
|      GW as well as linear response parallelism added by Martijn Marsman     |
|      and Georg Kresse.                                                      |
|      Carefully verify results versus KPAR=1.                                |
|      Report problems to Paul Kent and Vienna.                               |
|                                                                             |
 ----------------------------------------------------------------------------- 

 LDA part: xc-table for Pade appr. of Perdew
 POSCAR found type information on POSCAR  Al Sb
 POSCAR found :  2 types and       2 ions
 generate k-points for:   18   18   18
 POSCAR, INCAR and KPOINTS ok, starting setup
 FFT: planning ...
 WAVECAR not read
 entering main loop
       N       E                     dE             d eps       ncg     rms          rms(c)
DAV:   1     0.131306236227E+02    0.13131E+02   -0.27865E+03  3128   0.728E+02
DAV:   2    -0.776838364946E+01   -0.20899E+02   -0.20166E+02  4216   0.826E+01
DAV:   3    -0.827259269568E+01   -0.50421E+00   -0.49721E+00  4328   0.142E+01
DAV:   4    -0.827526738622E+01   -0.26747E-02   -0.26747E-02  4416   0.126E+00
DAV:   5    -0.827528375033E+01   -0.16364E-04   -0.16364E-04  4456   0.839E-02    0.206E+00
RMM:   6    -0.821562340521E+01    0.59660E-01   -0.52485E-02  3120   0.129E+00    0.124E+00
RMM:   7    -0.819774026891E+01    0.17883E-01   -0.63261E-02  3120   0.153E+00    0.220E-01
RMM:   8    -0.819840608256E+01   -0.66581E-03   -0.36800E-03  3122   0.434E-01    0.501E-02
RMM:   9    -0.819879093283E+01   -0.38485E-03   -0.62158E-04  3120   0.173E-01    0.152E-02
RMM:  10    -0.819879672816E+01   -0.57953E-05   -0.52044E-05  3120   0.531E-02    0.455E-03
RMM:  11    -0.819879983278E+01   -0.31046E-05   -0.10287E-05  3120   0.246E-02    0.197E-03
RMM:  12    -0.819880024622E+01   -0.41344E-06   -0.53355E-07  2187   0.671E-03
   1 F= -.81988002E+01 E0= -.81988002E+01  d E =-.819880E+01
 summed vel is now  0.000000000000000E+000  0.000000000000000E+000
  0.000000000000000E+000
quench:  g(F)=  0.108E-47 g(S)=  0.525E-06 dE (1.order)=-0.105E-05
 reached required accuracy - stopping structural energy minimisation
