unknown system                          
           1
     0.000000    3.116817    3.116817
     3.116817    0.000000    3.116817
     3.116817    3.116817    0.000000
   Al   Sb
   1   1
Direct configuration=     1
   0.75000000  0.75000000  0.75000000
   0.00000000  0.00000000  0.00000000
