   2   2   0   0
  0.2071929E+02  0.3884245E-09  0.3884245E-09  0.3884245E-09  0.0000000E+00
  1.000000000000000E-004
  CAR 
 unknown system                          
     16.90571205     -8.85908276  301      4.72111117      1.00000000
     -8.859  0.0000E+00  0.0000E+00
     -8.773  0.0000E+00  0.0000E+00
     -8.687  0.0000E+00  0.0000E+00
     -8.601  0.0000E+00  0.0000E+00
     -8.516  0.0000E+00  0.0000E+00
     -8.430  0.0000E+00  0.0000E+00
     -8.344  0.0000E+00  0.0000E+00
     -8.258  0.0000E+00  0.0000E+00
     -8.172  0.0000E+00  0.0000E+00
     -8.086  0.0000E+00  0.0000E+00
     -8.000  0.0000E+00  0.0000E+00
     -7.914  0.0000E+00  0.0000E+00
     -7.828  0.0000E+00  0.0000E+00
     -7.743  0.0000E+00  0.0000E+00
     -7.657  0.7203E-01  0.1011E-02
     -7.571  0.1441E+00  0.1052E-01
     -7.485  0.2003E+00  0.2557E-01
     -7.399  0.2472E+00  0.4467E-01
     -7.313  0.2843E+00  0.6751E-01
     -7.227  0.3254E+00  0.9368E-01
     -7.141  0.3602E+00  0.1231E+00
     -7.056  0.3990E+00  0.1557E+00
     -6.970  0.4354E+00  0.1915E+00
     -6.884  0.4748E+00  0.2306E+00
     -6.798  0.5161E+00  0.2731E+00
     -6.712  0.5599E+00  0.3193E+00
     -6.626  0.6074E+00  0.3694E+00
     -6.540  0.6617E+00  0.4238E+00
     -6.454  0.7226E+00  0.4832E+00
     -6.368  0.7922E+00  0.5482E+00
     -6.283  0.8838E+00  0.6200E+00
     -6.197  0.9978E+00  0.7006E+00
     -6.111  0.1169E+01  0.7928E+00
     -6.025  0.1542E+01  0.9096E+00
     -5.939  0.1546E+01  0.1041E+01
     -5.853  0.1549E+01  0.1174E+01
     -5.767  0.1548E+01  0.1306E+01
     -5.681  0.1578E+01  0.1441E+01
     -5.596  0.1635E+01  0.1578E+01
     -5.510  0.1755E+01  0.1722E+01
     -5.424  0.2195E+01  0.1886E+01
     -5.338  0.0000E+00  0.2000E+01
     -5.252  0.0000E+00  0.2000E+01
     -5.166  0.0000E+00  0.2000E+01
     -5.080  0.0000E+00  0.2000E+01
     -4.994  0.0000E+00  0.2000E+01
     -4.908  0.0000E+00  0.2000E+01
     -4.823  0.0000E+00  0.2000E+01
     -4.737  0.0000E+00  0.2000E+01
     -4.651  0.0000E+00  0.2000E+01
     -4.565  0.0000E+00  0.2000E+01
     -4.479  0.0000E+00  0.2000E+01
     -4.393  0.0000E+00  0.2000E+01
     -4.307  0.0000E+00  0.2000E+01
     -4.221  0.0000E+00  0.2000E+01
     -4.136  0.0000E+00  0.2000E+01
     -4.050  0.0000E+00  0.2000E+01
     -3.964  0.0000E+00  0.2000E+01
     -3.878  0.0000E+00  0.2000E+01
     -3.792  0.0000E+00  0.2000E+01
     -3.706  0.0000E+00  0.2000E+01
     -3.620  0.0000E+00  0.2000E+01
     -3.534  0.0000E+00  0.2000E+01
     -3.448  0.0000E+00  0.2000E+01
     -3.363  0.0000E+00  0.2000E+01
     -3.277  0.0000E+00  0.2000E+01
     -3.191  0.0000E+00  0.2000E+01
     -3.105  0.0000E+00  0.2000E+01
     -3.019  0.0000E+00  0.2000E+01
     -2.933  0.0000E+00  0.2000E+01
     -2.847  0.0000E+00  0.2000E+01
     -2.761  0.0000E+00  0.2000E+01
     -2.676  0.0000E+00  0.2000E+01
     -2.590  0.0000E+00  0.2000E+01
     -2.504  0.0000E+00  0.2000E+01
     -2.418  0.0000E+00  0.2000E+01
     -2.332  0.0000E+00  0.2000E+01
     -2.246  0.0000E+00  0.2000E+01
     -2.160  0.0000E+00  0.2000E+01
     -2.074  0.0000E+00  0.2000E+01
     -1.988  0.0000E+00  0.2000E+01
     -1.903  0.0000E+00  0.2000E+01
     -1.817  0.0000E+00  0.2000E+01
     -1.731  0.0000E+00  0.2000E+01
     -1.645  0.0000E+00  0.2000E+01
     -1.559  0.0000E+00  0.2000E+01
     -1.473  0.0000E+00  0.2000E+01
     -1.387  0.0000E+00  0.2000E+01
     -1.301  0.0000E+00  0.2000E+01
     -1.216  0.2296E+00  0.2011E+01
     -1.130  0.3962E+00  0.2038E+01
     -1.044  0.5574E+00  0.2076E+01
     -0.958  0.9855E+00  0.2143E+01
     -0.872  0.1339E+01  0.2240E+01
     -0.786  0.2035E+01  0.2381E+01
     -0.700  0.3248E+01  0.2625E+01
     -0.614  0.1914E+01  0.2883E+01
     -0.528  0.1242E+01  0.3014E+01
     -0.443  0.9892E+00  0.3108E+01
     -0.357  0.7962E+00  0.3185E+01
     -0.271  0.7081E+00  0.3249E+01
     -0.185  0.6261E+00  0.3306E+01
     -0.099  0.5449E+00  0.3356E+01
     -0.013  0.5054E+00  0.3402E+01
      0.073  0.4648E+00  0.3443E+01
      0.159  0.4195E+00  0.3481E+01
      0.244  0.3834E+00  0.3516E+01
      0.330  0.3612E+00  0.3548E+01
      0.416  0.3395E+00  0.3578E+01
      0.502  0.3138E+00  0.3606E+01
      0.588  0.2855E+00  0.3632E+01
      0.674  0.2700E+00  0.3655E+01
      0.760  0.2569E+00  0.3678E+01
      0.846  0.5271E+00  0.3706E+01
      0.932  0.7248E+00  0.3758E+01
      1.017  0.9919E+00  0.3830E+01
      1.103  0.1260E+01  0.3932E+01
      1.189  0.1099E+01  0.4030E+01
      1.275  0.1065E+01  0.4123E+01
      1.361  0.1012E+01  0.4211E+01
      1.447  0.9817E+00  0.4297E+01
      1.533  0.9589E+00  0.4380E+01
      1.619  0.9710E+00  0.4463E+01
      1.704  0.1018E+01  0.4548E+01
      1.790  0.1049E+01  0.4637E+01
      1.876  0.1083E+01  0.4729E+01
      1.962  0.1133E+01  0.4825E+01
      2.048  0.1217E+01  0.4925E+01
      2.134  0.1248E+01  0.5031E+01
      2.220  0.1366E+01  0.5143E+01
      2.306  0.1552E+01  0.5269E+01
      2.392  0.1618E+01  0.5409E+01
      2.477  0.1597E+01  0.5548E+01
      2.563  0.1583E+01  0.5684E+01
      2.649  0.1554E+01  0.5819E+01
      2.735  0.1530E+01  0.5951E+01
      2.821  0.1528E+01  0.6083E+01
      2.907  0.1498E+01  0.6213E+01
      2.993  0.1478E+01  0.6340E+01
      3.079  0.1465E+01  0.6467E+01
      3.164  0.1449E+01  0.6592E+01
      3.250  0.1439E+01  0.6716E+01
      3.336  0.1426E+01  0.6839E+01
      3.422  0.1405E+01  0.6961E+01
      3.508  0.1397E+01  0.7081E+01
      3.594  0.1397E+01  0.7201E+01
      3.680  0.1401E+01  0.7321E+01
      3.766  0.1383E+01  0.7441E+01
      3.852  0.1063E+01  0.7546E+01
      3.937  0.8916E+00  0.7629E+01
      4.023  0.7804E+00  0.7701E+01
      4.109  0.6813E+00  0.7763E+01
      4.195  0.5978E+00  0.7818E+01
      4.281  0.5252E+00  0.7866E+01
      4.367  0.4515E+00  0.7908E+01
      4.453  0.3693E+00  0.7944E+01
      4.539  0.3030E+00  0.7973E+01
      4.624  0.1615E+00  0.7994E+01
      4.710  0.0000E+00  0.8000E+01
      4.796  0.0000E+00  0.8000E+01
      4.882  0.0000E+00  0.8000E+01
      4.968  0.0000E+00  0.8000E+01
      5.054  0.0000E+00  0.8000E+01
      5.140  0.0000E+00  0.8000E+01
      5.226  0.0000E+00  0.8000E+01
      5.312  0.0000E+00  0.8000E+01
      5.397  0.0000E+00  0.8000E+01
      5.483  0.0000E+00  0.8000E+01
      5.569  0.0000E+00  0.8000E+01
      5.655  0.0000E+00  0.8000E+01
      5.741  0.0000E+00  0.8000E+01
      5.827  0.0000E+00  0.8000E+01
      5.913  0.0000E+00  0.8000E+01
      5.999  0.8264E-02  0.8000E+01
      6.084  0.5614E-01  0.8003E+01
      6.170  0.8907E-01  0.8009E+01
      6.256  0.1128E+00  0.8018E+01
      6.342  0.1439E+00  0.8029E+01
      6.428  0.1794E+00  0.8043E+01
      6.514  0.2075E+00  0.8059E+01
      6.600  0.2419E+00  0.8079E+01
      6.686  0.2791E+00  0.8101E+01
      6.772  0.3143E+00  0.8126E+01
      6.857  0.3464E+00  0.8155E+01
      6.943  0.3796E+00  0.8186E+01
      7.029  0.4275E+00  0.8220E+01
      7.115  0.5093E+00  0.8261E+01
      7.201  0.5528E+00  0.8306E+01
      7.287  0.6335E+00  0.8357E+01
      7.373  0.7492E+00  0.8416E+01
      7.459  0.8376E+00  0.8485E+01
      7.545  0.9234E+00  0.8560E+01
      7.630  0.1016E+01  0.8643E+01
      7.716  0.1126E+01  0.8735E+01
      7.802  0.1270E+01  0.8838E+01
      7.888  0.1565E+01  0.8959E+01
      7.974  0.1673E+01  0.9099E+01
      8.060  0.1630E+01  0.9242E+01
      8.146  0.1642E+01  0.9382E+01
      8.232  0.1615E+01  0.9522E+01
      8.317  0.1639E+01  0.9661E+01
      8.403  0.1531E+01  0.9800E+01
      8.489  0.1471E+01  0.9929E+01
      8.575  0.1317E+01  0.1004E+02
      8.661  0.1031E+01  0.1014E+02
      8.747  0.8599E+00  0.1022E+02
      8.833  0.5682E+00  0.1028E+02
      8.919  0.4487E+00  0.1033E+02
      9.005  0.5694E+00  0.1037E+02
      9.090  0.7975E+00  0.1043E+02
      9.176  0.1359E+01  0.1052E+02
      9.262  0.1757E+01  0.1066E+02
      9.348  0.2146E+01  0.1083E+02
      9.434  0.2710E+01  0.1105E+02
      9.520  0.1842E+01  0.1122E+02
      9.606  0.1765E+01  0.1138E+02
      9.692  0.1572E+01  0.1152E+02
      9.777  0.1312E+01  0.1165E+02
      9.863  0.1329E+01  0.1176E+02
      9.949  0.1307E+01  0.1187E+02
     10.035  0.1255E+01  0.1199E+02
     10.121  0.1292E+01  0.1209E+02
     10.207  0.1300E+01  0.1221E+02
     10.293  0.1414E+01  0.1232E+02
     10.379  0.1427E+01  0.1244E+02
     10.465  0.1590E+01  0.1258E+02
     10.550  0.1313E+01  0.1270E+02
     10.636  0.1257E+01  0.1281E+02
     10.722  0.1343E+01  0.1292E+02
     10.808  0.1441E+01  0.1304E+02
     10.894  0.1280E+01  0.1317E+02
     10.980  0.1186E+01  0.1327E+02
     11.066  0.1137E+01  0.1337E+02
     11.152  0.1103E+01  0.1347E+02
     11.237  0.1138E+01  0.1356E+02
     11.323  0.1134E+01  0.1366E+02
     11.409  0.1104E+01  0.1376E+02
     11.495  0.1075E+01  0.1385E+02
     11.581  0.1093E+01  0.1394E+02
     11.667  0.1043E+01  0.1404E+02
     11.753  0.1018E+01  0.1412E+02
     11.839  0.1043E+01  0.1421E+02
     11.925  0.9720E+00  0.1430E+02
     12.010  0.9190E+00  0.1438E+02
     12.096  0.8469E+00  0.1446E+02
     12.182  0.8477E+00  0.1453E+02
     12.268  0.8609E+00  0.1461E+02
     12.354  0.9424E+00  0.1468E+02
     12.440  0.1077E+01  0.1477E+02
     12.526  0.1245E+01  0.1487E+02
     12.612  0.1166E+01  0.1498E+02
     12.697  0.1117E+01  0.1507E+02
     12.783  0.9416E+00  0.1516E+02
     12.869  0.8788E+00  0.1524E+02
     12.955  0.7873E+00  0.1531E+02
     13.041  0.7232E+00  0.1538E+02
     13.127  0.6835E+00  0.1544E+02
     13.213  0.6051E+00  0.1550E+02
     13.299  0.4284E+00  0.1554E+02
     13.385  0.3911E+00  0.1558E+02
     13.470  0.3660E+00  0.1561E+02
     13.556  0.3498E+00  0.1564E+02
     13.642  0.3485E+00  0.1567E+02
     13.728  0.3371E+00  0.1570E+02
     13.814  0.2998E+00  0.1573E+02
     13.900  0.2744E+00  0.1575E+02
     13.986  0.2531E+00  0.1577E+02
     14.072  0.2376E+00  0.1580E+02
     14.157  0.2235E+00  0.1582E+02
     14.243  0.2137E+00  0.1583E+02
     14.329  0.2019E+00  0.1585E+02
     14.415  0.1906E+00  0.1587E+02
     14.501  0.1794E+00  0.1588E+02
     14.587  0.1728E+00  0.1590E+02
     14.673  0.1599E+00  0.1591E+02
     14.759  0.1461E+00  0.1593E+02
     14.845  0.1275E+00  0.1594E+02
     14.930  0.1111E+00  0.1595E+02
     15.016  0.9703E-01  0.1596E+02
     15.102  0.8524E-01  0.1597E+02
     15.188  0.7658E-01  0.1597E+02
     15.274  0.7340E-01  0.1598E+02
     15.360  0.7731E-01  0.1599E+02
     15.446  0.6663E-01  0.1599E+02
     15.532  0.3805E-01  0.1600E+02
     15.617  0.1593E-01  0.1600E+02
     15.703  0.1307E-02  0.1600E+02
     15.789  0.0000E+00  0.1600E+02
     15.875  0.0000E+00  0.1600E+02
     15.961  0.0000E+00  0.1600E+02
     16.047  0.0000E+00  0.1600E+02
     16.133  0.0000E+00  0.1600E+02
     16.219  0.0000E+00  0.1600E+02
     16.305  0.0000E+00  0.1600E+02
     16.390  0.0000E+00  0.1600E+02
     16.476  0.0000E+00  0.1600E+02
     16.562  0.0000E+00  0.1600E+02
     16.648  0.0000E+00  0.1600E+02
     16.734  0.0000E+00  0.1600E+02
     16.820  0.0000E+00  0.1600E+02
     16.906  0.0000E+00  0.1600E+02
