    2    2    1    1
  0.2071929E+02  0.3884245E-09  0.3884245E-09  0.3884245E-09  0.0000000E+00
  1.000000000000000E-004
  CAR 
 unknown system                          
      8    256      8
 
  0.0000000E+00  0.0000000E+00  0.0000000E+00  0.1250000E-03
    1       -7.687956   1.000000
    2        4.696405   1.000000
    3        4.696405   1.000000
    4        4.696405   1.000000
    5        7.520840   0.000000
    6        9.134856   0.000000
    7        9.134856   0.000000
    8        9.134856   0.000000
 
  0.5000000E-01  0.0000000E+00  0.0000000E+00  0.1000000E-02
    1       -7.660163   1.000000
    2        4.380055   1.000000
    3        4.665080   1.000000
    4        4.665080   1.000000
    5        7.740147   0.000000
    6        9.176144   0.000000
    7        9.191710   0.000000
    8        9.191710   0.000000
 
  0.1000000E+00  0.0000000E+00  0.0000000E+00  0.1000000E-02
    1       -7.577451   1.000000
    2        3.668056   1.000000
    3        4.578614   1.000000
    4        4.578614   1.000000
    5        8.032005   0.000000
    6        9.344438   0.000000
    7        9.344438   0.000000
    8        9.450820   0.000000
 
  0.1500000E+00  0.0000000E+00  0.0000000E+00  0.1000000E-02
    1       -7.442216   1.000000
    2        2.826515   1.000000
    3        4.455167   1.000000
    4        4.455167   1.000000
    5        8.041261   0.000000
    6        9.541397   0.000000
    7        9.541397   0.000000
    8       10.094006   0.000000
 
  0.2000000E+00  0.0000000E+00  0.0000000E+00  0.1000000E-02
    1       -7.258827   1.000000
    2        1.966727   1.000000
    3        4.315257   1.000000
    4        4.315258   1.000000
    5        7.892310   0.000000
    6        9.705672   0.000000
    7        9.705672   0.000000
    8       10.908214   0.000000
 
  0.2500000E+00  0.0000000E+00  0.0000000E+00  0.1000000E-02
    1       -7.034780   1.000000
    2        1.138976   1.000000
    3        4.176184   1.000000
    4        4.176184   1.000000
    5        7.707566   0.000000
    6        9.769452   0.000000
    7        9.769452   0.000000
    8       11.722208   0.000000
 
  0.3000000E+00  0.0000000E+00  0.0000000E+00  0.1000000E-02
    1       -6.782242   1.000000
    2        0.376187   1.000000
    3        4.050478   1.000000
    4        4.050479   1.000000
    5        7.533424   0.000000
    6        9.727221   0.000000
    7        9.727221   0.000000
    8       12.369889   0.000000
 
  0.3500000E+00  0.0000000E+00  0.0000000E+00  0.1000000E-02
    1       -6.520906   1.000000
    2       -0.290484   1.000000
    3        3.946442   1.000000
    4        3.946442   1.000000
    5        7.388682   0.000000
    6        9.628737   0.000000
    7        9.628737   0.000000
    8       12.654915   0.000000
 
  0.4000000E+00  0.0000000E+00  0.0000000E+00  0.1000000E-02
    1       -6.281480   1.000000
    2       -0.823427   1.000000
    3        3.869235   1.000000
    4        3.869236   1.000000
    5        7.281786   0.000000
    6        9.526647   0.000000
    7        9.526647   0.000000
    8       12.669249   0.000000
 
  0.4500000E+00  0.0000000E+00  0.0000000E+00  0.1000000E-02
    1       -6.106828   1.000000
    2       -1.175656   1.000000
    3        3.821889   1.000000
    4        3.821889   1.000000
    5        7.216558   0.000000
    6        9.454392   0.000000
    7        9.454392   0.000000
    8       12.622458   0.000000
 
  0.5000000E+00  0.0000000E+00  0.0000000E+00  0.5000000E-03
    1       -6.041758   1.000000
    2       -1.300155   1.000000
    3        3.805951   1.000000
    4        3.805951   1.000000
    5        7.194680   0.000000
    6        9.428658   0.000000
    7        9.428658   0.000000
    8       12.600471   0.000000
 
  0.5000000E-01  0.5000000E-01  0.0000000E+00  0.7500000E-03
    1       -7.650882   1.000000
    2        4.399552   1.000000
    3        4.590176   1.000000
    4        4.590176   1.000000
    5        7.837679   0.000000
    6        9.003028   0.000000
    7        9.295231   0.000000
    8        9.295231   0.000000
 
  0.1000000E+00  0.5000000E-01  0.0000000E+00  0.3000000E-02
    1       -7.586432   1.000000
    2        3.854177   1.000000
    3        4.467828   1.000000
    4        4.544767   1.000000
    5        8.161394   0.000000
    6        8.947013   0.000000
    7        9.491291   0.000000
    8        9.539850   0.000000
 
  0.1500000E+00  0.5000000E-01  0.0000000E+00  0.3000000E-02
    1       -7.468630   1.000000
    2        3.072128   1.000000
    3        4.319935   1.000000
    4        4.467787   1.000000
    5        8.261054   0.000000
    6        9.097570   0.000000
    7        9.728982   0.000000
    8       10.021517   0.000000
 
  0.2000000E+00  0.5000000E-01  0.0000000E+00  0.3000000E-02
    1       -7.301080   1.000000
    2        2.232945   1.000000
    3        4.167290   1.000000
    4        4.344359   1.000000
    5        8.135816   0.000000
    6        9.337050   0.000000
    7        9.934449   0.000000
    8       10.651937   0.000000
 
  0.2500000E+00  0.5000000E-01  0.0000000E+00  0.3000000E-02
    1       -7.090155   1.000000
    2        1.404737   1.000000
    3        4.025940   1.000000
    4        4.196267   1.000000
    5        7.955163   0.000000
    6        9.496860   0.000000
    7       10.033981   0.000000
    8       11.258929   0.000000
 
  0.3000000E+00  0.5000000E-01  0.0000000E+00  0.3000000E-02
    1       -6.846191   1.000000
    2        0.626729   1.000000
    3        3.906905   1.000000
    4        4.043198   1.000000
    5        7.778273   0.000000
    6        9.524093   0.000000
    7       10.005911   0.000000
    8       11.815604   0.000000
 
  0.3500000E+00  0.5000000E-01  0.0000000E+00  0.3000000E-02
    1       -6.586034   1.000000
    2       -0.068786   1.000000
    3        3.817093   1.000000
    4        3.899597   1.000000
    5        7.626708   0.000000
    6        9.463688   0.000000
    7        9.893338   0.000000
    8       12.337024   0.000000
 
  0.4000000E+00  0.5000000E-01  0.0000000E+00  0.3000000E-02
    1       -6.336265   1.000000
    2       -0.646077   1.000000
    3        3.760350   1.000000
    4        3.775355   1.000000
    5        7.510172   0.000000
    6        9.384932   0.000000
    7        9.754852   0.000000
    8       12.670978   0.000000
 
  0.4500000E+00  0.5000000E-01  0.0000000E+00  0.3000000E-02
    1       -6.135863   1.000000
    2       -1.060740   1.000000
    3        3.677153   1.000000
    4        3.738342   1.000000
    5        7.433319   0.000000
    6        9.332144   0.000000
    7        9.632009   0.000000
    8       12.761604   0.000000
 
  0.5000000E+00  0.5000000E-01  0.0000000E+00  0.3000000E-02
    1       -6.030870   1.000000
    2       -1.263638   1.000000
    3        3.609558   1.000000
    4        3.751079   1.000000
    5        7.398299   0.000000
    6        9.326451   0.000000
    7        9.547945   0.000000
    8       12.769824   0.000000
 
 -0.4500000E+00  0.5000000E-01  0.0000000E+00  0.3000000E-02
    1       -6.052775   1.000000
    2       -1.221981   1.000000
    3        3.575713   1.000000
    4        3.797286   1.000000
    5        7.405889   0.000000
    6        9.374820   0.000000
    7        9.512883   0.000000
    8       12.778784   0.000000
 
 -0.4000000E+00  0.5000000E-01  0.0000000E+00  0.3000000E-02
    1       -6.194526   1.000000
    2       -0.943127   1.000000
    3        3.577634   1.000000
    4        3.874528   1.000000
    5        7.455933   0.000000
    6        9.474181   0.000000
    7        9.527038   0.000000
    8       12.784020   0.000000
 
 -0.3500000E+00  0.5000000E-01  0.0000000E+00  0.3000000E-02
    1       -6.416463   1.000000
    2       -0.468617   1.000000
    3        3.616270   1.000000
    4        3.979088   1.000000
    5        7.547269   0.000000
    6        9.579827   0.000000
    7        9.610772   0.000000
    8       12.696862   0.000000
 
 -0.3000000E+00  0.5000000E-01  0.0000000E+00  0.3000000E-02
    1       -6.673417   1.000000
    2        0.152418   1.000000
    3        3.691327   1.000000
    4        4.105654   1.000000
    5        7.677100   0.000000
    6        9.645383   0.000000
    7        9.754550   0.000000
    8       12.359627   0.000000
 
 -0.2500000E+00  0.5000000E-01  0.0000000E+00  0.3000000E-02
    1       -6.930542   1.000000
    2        0.878398   1.000000
    3        3.800902   1.000000
    4        4.246600   1.000000
    5        7.839227   0.000000
    6        9.677865   0.000000
    7        9.848584   0.000000
    8       11.788500   0.000000
 
 -0.2000000E+00  0.5000000E-01  0.0000000E+00  0.3000000E-02
    1       -7.164956   1.000000
    2        1.674833   1.000000
    3        3.940983   1.000000
    4        4.391011   1.000000
    5        8.019868   0.000000
    6        9.625846   0.000000
    7        9.808040   0.000000
    8       11.138747   0.000000
 
 -0.1500000E+00  0.5000000E-01  0.0000000E+00  0.3000000E-02
    1       -7.362288   1.000000
    2        2.506569   1.000000
    3        4.105026   1.000000
    4        4.523794   1.000000
    5        8.184519   0.000000
    6        9.484457   0.000000
    7        9.579783   0.000000
    8       10.499185   0.000000
 
 -0.1000000E+00  0.5000000E-01  0.0000000E+00  0.3000000E-02
    1       -7.513762   1.000000
    2        3.322084   1.000000
    3        4.285029   1.000000
    4        4.625838   1.000000
    5        8.232183   0.000000
    6        9.266275   0.000000
    7        9.317319   0.000000
    8        9.933749   0.000000
 
 -0.5000000E-01  0.5000000E-01  0.0000000E+00  0.1500000E-02
    1       -7.614031   1.000000
    2        4.012086   1.000000
    3        4.480928   1.000000
    4        4.677309   1.000000
    5        8.005180   0.000000
    6        9.133717   0.000000
    7        9.203095   0.000000
    8        9.492446   0.000000
 
  0.1000000E+00  0.1000000E+00  0.0000000E+00  0.7500000E-03
    1       -7.540464   1.000000
    2        3.743538   1.000000
    3        4.314708   1.000000
    4        4.314709   1.000000
    5        8.515567   0.000000
    6        8.666501   0.000000
    7        9.731726   0.000000
    8        9.731727   0.000000
 
  0.1500000E+00  0.1000000E+00  0.0000000E+00  0.3000000E-02
    1       -7.440783   1.000000
    2        3.176744   1.000000
    3        4.143744   1.000000
    4        4.211356   1.000000
    5        8.514582   0.000000
    6        8.816681   0.000000
    7       10.016746   0.000000
    8       10.101203   0.000000
 
  0.2000000E+00  0.1000000E+00  0.0000000E+00  0.3000000E-02
    1       -7.290395   1.000000
    2        2.427314   1.000000
    3        3.975940   1.000000
    4        4.103698   1.000000
    5        8.410532   0.000000
    6        9.037267   0.000000
    7       10.276753   0.000000
    8       10.478841   0.000000
 
  0.2500000E+00  0.1000000E+00  0.0000000E+00  0.3000000E-02
    1       -7.094707   1.000000
    2        1.641322   1.000000
    3        3.826715   1.000000
    4        3.949180   1.000000
    5        8.280756   0.000000
    6        9.263374   0.000000
    7       10.433107   0.000000
    8       10.653494   0.000000
 
  0.3000000E+00  0.1000000E+00  0.0000000E+00  0.3000000E-02
    1       -6.862565   1.000000
    2        0.877863   1.000000
    3        3.706367   1.000000
    4        3.767732   1.000000
    5        8.135190   0.000000
    6        9.393419   0.000000
    7       10.444207   0.000000
    8       10.889024   0.000000
 
  0.3500000E+00  0.1000000E+00  0.0000000E+00  0.3000000E-02
    1       -6.608386   1.000000
    2        0.176209   1.000000
    3        3.582178   1.000000
    4        3.621271   1.000000
    5        7.999603   0.000000
    6        9.372327   0.000000
    7       10.339904   0.000000
    8       11.367907   0.000000
 
  0.4000000E+00  0.1000000E+00  0.0000000E+00  0.3000000E-02
    1       -6.355017   1.000000
    2       -0.426597   1.000000
    3        3.409383   1.000000
    4        3.574863   1.000000
    5        7.891403   0.000000
    6        9.292020   0.000000
    7       10.182721   0.000000
    8       12.000757   0.000000
 
  0.4500000E+00  0.1000000E+00  0.0000000E+00  0.3000000E-02
    1       -6.136911   1.000000
    2       -0.887698   1.000000
    3        3.260856   1.000000
    4        3.568378   1.000000
    5        7.820130   0.000000
    6        9.225888   0.000000
    7       10.022975   0.000000
    8       12.625362   0.000000
 
  0.5000000E+00  0.1000000E+00  0.0000000E+00  0.3000000E-02
    1       -5.998278   1.000000
    2       -1.157984   1.000000
    3        3.144531   1.000000
    4        3.601257   1.000000
    5        7.789982   0.000000
    6        9.204615   0.000000
    7        9.890606   0.000000
    8       13.023585   0.000000
 
 -0.4500000E+00  0.1000000E+00  0.0000000E+00  0.3000000E-02
    1       -5.977452   1.000000
    2       -1.196846   1.000000
    3        3.066068   1.000000
    4        3.671355   1.000000
    5        7.801731   0.000000
    6        9.239480   0.000000
    7        9.800719   0.000000
    8       13.149149   0.000000
 
 -0.4000000E+00  0.1000000E+00  0.0000000E+00  0.3000000E-02
    1       -6.081014   1.000000
    2       -0.997545   1.000000
    3        3.029688   1.000000
    4        3.774975   1.000000
    5        7.854071   0.000000
    6        9.331821   0.000000
    7        9.757838   0.000000
    8       13.092056   0.000000
 
 -0.3500000E+00  0.1000000E+00  0.0000000E+00  0.3000000E-02
    1       -6.278341   1.000000
    2       -0.592803   1.000000
    3        3.038633   1.000000
    4        3.906634   1.000000
    5        7.944588   0.000000
    6        9.473525   0.000000
    7        9.756200   0.000000
    8       12.800759   0.000000
 
 -0.3000000E+00  0.1000000E+00  0.0000000E+00  0.3000000E-02
    1       -6.524562   1.000000
    2       -0.032468   1.000000
    3        3.095558   1.000000
    4        4.058672   1.000000
    5        8.069862   0.000000
    6        9.640673   0.000000
    7        9.775817   0.000000
    8       12.263545   0.000000
 
 -0.2500000E+00  0.1000000E+00  0.0000000E+00  0.3000000E-02
    1       -6.781423   1.000000
    2        0.635846   1.000000
    3        3.203123   1.000000
    4        4.220522   1.000000
    5        8.224204   0.000000
    6        9.774468   0.000000
    7        9.776419   0.000000
    8       11.650833   0.000000
 
 -0.2000000E+00  0.1000000E+00  0.0000000E+00  0.3000000E-02
    1       -7.022592   1.000000
    2        1.368307   1.000000
    3        3.365420   1.000000
    4        4.377795   1.000000
    5        8.395107   0.000000
    6        9.707457   0.000000
    7        9.749061   0.000000
    8       11.149838   0.000000
 
 -0.1500000E+00  0.1000000E+00  0.0000000E+00  0.3000000E-02
    1       -7.231295   1.000000
    2        2.114154   1.000000
    3        3.591695   1.000000
    4        4.511790   1.000000
    5        8.544029   0.000000
    6        9.479002   0.000000
    7        9.561644   0.000000
    8       10.817028   0.000000
 
 -0.1000000E+00  0.1000000E+00  0.0000000E+00  0.1500000E-02
    1       -7.397141   1.000000
    2        2.796754   1.000000
    3        3.900827   1.000000
    4        4.600882   1.000000
    5        8.520934   0.000000
    6        9.229000   0.000000
    7        9.404869   0.000000
    8       10.443155   0.000000
 
  0.1500000E+00  0.1500000E+00  0.0000000E+00  0.7500000E-03
    1       -7.359430   1.000000
    2        2.978196   1.000000
    3        3.953268   1.000000
    4        3.953269   1.000000
    5        8.219843   0.000000
    6        9.130845   0.000000
    7       10.357088   0.000000
    8       10.357088   0.000000
 
  0.2000000E+00  0.1500000E+00  0.0000000E+00  0.3000000E-02
    1       -7.227037   1.000000
    2        2.449692   1.000000
    3        3.770134   1.000000
    4        3.798158   1.000000
    5        8.076194   0.000000
    6        9.224800   0.000000
    7       10.607895   0.000000
    8       10.685093   0.000000
 
  0.2500000E+00  0.1500000E+00  0.0000000E+00  0.3000000E-02
    1       -7.048172   1.000000
    2        1.778515   1.000000
    3        3.609780   1.000000
    4        3.630346   1.000000
    5        8.052496   0.000000
    6        9.291857   0.000000
    7       10.522956   0.000000
    8       10.919512   0.000000
 
  0.3000000E+00  0.1500000E+00  0.0000000E+00  0.3000000E-02
    1       -6.830504   1.000000
    2        1.077928   1.000000
    3        3.419965   1.000000
    4        3.482434   1.000000
    5        8.028552   0.000000
    6        9.498800   0.000000
    7       10.368680   0.000000
    8       10.997119   0.000000
 
  0.3500000E+00  0.1500000E+00  0.0000000E+00  0.3000000E-02
    1       -6.586453   1.000000
    2        0.405808   1.000000
    3        3.189609   1.000000
    4        3.394420   1.000000
    5        7.963419   0.000000
    6        9.715544   0.000000
    7       10.438502   0.000000
    8       10.926306   0.000000
 
  0.4000000E+00  0.1500000E+00  0.0000000E+00  0.3000000E-02
    1       -6.335683   1.000000
    2       -0.194179   1.000000
    3        2.964493   1.000000
    4        3.349222   1.000000
    5        7.893767   0.000000
    6        9.692236   0.000000
    7       10.770091   0.000000
    8       10.953574   0.000000
 
  0.4500000E+00  0.1500000E+00  0.0000000E+00  0.3000000E-02
    1       -6.108169   1.000000
    2       -0.677932   1.000000
    3        2.762606   1.000000
    4        3.348156   1.000000
    5        7.854002   0.000000
    6        9.598395   0.000000
    7       10.588968   0.000000
    8       11.690447   0.000000
 
  0.5000000E+00  0.1500000E+00  0.0000000E+00  0.3000000E-02
    1       -5.944411   1.000000
    2       -0.996688   1.000000
    3        2.595923   1.000000
    4        3.390703   1.000000
    5        7.860708   0.000000
    6        9.525657   0.000000
    7       10.421013   0.000000
    8       12.493550   0.000000
 
 -0.4500000E+00  0.1500000E+00  0.0000000E+00  0.3000000E-02
    1       -5.885194   1.000000
    2       -1.105462   1.000000
    3        2.472845   1.000000
    4        3.474626   1.000000
    5        7.918898   0.000000
    6        9.495119   0.000000
    7       10.286350   0.000000
    8       13.186283   0.000000
 
 -0.4000000E+00  0.1500000E+00  0.0000000E+00  0.3000000E-02
    1       -5.948343   1.000000
    2       -0.985688   1.000000
    3        2.399935   1.000000
    4        3.595847   1.000000
    5        8.026398   0.000000
    6        9.514229   0.000000
    7       10.192834   0.000000
    8       13.337781   0.000000
 
 -0.3500000E+00  0.1500000E+00  0.0000000E+00  0.3000000E-02
    1       -6.114750   1.000000
    2       -0.659400   1.000000
    3        2.383347   1.000000
    4        3.748067   1.000000
    5        8.175895   0.000000
    6        9.584322   0.000000
    7       10.137439   0.000000
    8       12.867686   0.000000
 
 -0.3000000E+00  0.1500000E+00  0.0000000E+00  0.3000000E-02
    1       -6.343338   1.000000
    2       -0.175709   1.000000
    3        2.430480   1.000000
    4        3.922202   1.000000
    5        8.355906   0.000000
    6        9.695381   0.000000
    7       10.102477   0.000000
    8       12.171265   0.000000
 
 -0.2500000E+00  0.1500000E+00  0.0000000E+00  0.3000000E-02
    1       -6.594004   1.000000
    2        0.408630   1.000000
    3        2.552818   1.000000
    4        4.105426   1.000000
    5        8.550495   0.000000
    6        9.802792   0.000000
    7       10.048346   0.000000
    8       11.486769   0.000000
 
 -0.2000000E+00  0.1500000E+00  0.0000000E+00  0.3000000E-02
    1       -6.837255   1.000000
    2        1.031898   1.000000
    3        2.770891   1.000000
    4        4.280172   1.000000
    5        8.731018   0.000000
    6        9.768863   0.000000
    7        9.924803   0.000000
    8       11.020501   0.000000
 
 -0.1500000E+00  0.1500000E+00  0.0000000E+00  0.1500000E-02
    1       -7.053760   1.000000
    2        1.621293   1.000000
    3        3.115362   1.000000
    4        4.423949   1.000000
    5        8.798585   0.000000
    6        9.531267   0.000000
    7        9.735540   0.000000
    8       10.896099   0.000000
 
  0.2000000E+00  0.2000000E+00  0.0000000E+00  0.7500000E-03
    1       -7.112922   1.000000
    2        2.194917   1.000000
    3        3.572749   1.000000
    4        3.572749   1.000000
    5        7.749260   0.000000
    6        9.142552   0.000000
    7       11.098941   0.000000
    8       11.098942   0.000000
 
  0.2500000E+00  0.2000000E+00  0.0000000E+00  0.3000000E-02
    1       -6.951973   1.000000
    2        1.716468   1.000000
    3        3.383781   1.000000
    4        3.399860   1.000000
    5        7.613567   0.000000
    6        8.976060   0.000000
    7       11.198380   0.000000
    8       11.437405   0.000000
 
  0.3000000E+00  0.2000000E+00  0.0000000E+00  0.3000000E-02
    1       -6.750932   1.000000
    2        1.141438   1.000000
    3        3.148211   1.000000
    4        3.262078   1.000000
    5        7.611333   0.000000
    6        8.954120   0.000000
    7       11.050690   0.000000
    8       11.615953   0.000000
 
  0.3500000E+00  0.2000000E+00  0.0000000E+00  0.3000000E-02
    1       -6.520628   1.000000
    2        0.550573   1.000000
    3        2.868507   1.000000
    4        3.166031   1.000000
    5        7.611792   0.000000
    6        9.199991   0.000000
    7       10.883228   0.000000
    8       11.610664   0.000000
 
  0.4000000E+00  0.2000000E+00  0.0000000E+00  0.3000000E-02
    1       -6.278148   1.000000
    2       -0.003199   1.000000
    3        2.579874   1.000000
    4        3.115487   1.000000
    5        7.580509   0.000000
    6        9.678736   0.000000
    7       10.764102   0.000000
    8       11.478274   0.000000
 
  0.4500000E+00  0.2000000E+00  0.0000000E+00  0.3000000E-02
    1       -6.049481   1.000000
    2       -0.472769   1.000000
    3        2.311994   1.000000
    4        3.112045   1.000000
    5        7.561174   0.000000
    6       10.139611   0.000000
    7       10.874190   0.000000
    8       11.291764   0.000000
 
  0.5000000E+00  0.2000000E+00  0.0000000E+00  0.3000000E-02
    1       -5.870592   1.000000
    2       -0.809153   1.000000
    3        2.083958   1.000000
    4        3.155483   1.000000
    5        7.586133   0.000000
    6       10.231302   0.000000
    7       11.100450   0.000000
    8       11.504930   0.000000
 
 -0.4500000E+00  0.2000000E+00  0.0000000E+00  0.3000000E-02
    1       -5.781097   1.000000
    2       -0.965640   1.000000
    3        1.908201   1.000000
    4        3.243850   1.000000
    5        7.668303   0.000000
    6       10.197753   0.000000
    7       10.930639   0.000000
    8       12.357109   0.000000
 
 -0.4000000E+00  0.2000000E+00  0.0000000E+00  0.3000000E-02
    1       -5.805785   1.000000
    2       -0.915904   1.000000
    3        1.794561   1.000000
    4        3.373254   1.000000
    5        7.809908   0.000000
    6       10.172592   0.000000
    7       10.792846   0.000000
    8       13.105999   0.000000
 
 -0.3500000E+00  0.2000000E+00  0.0000000E+00  0.3000000E-02
    1       -5.937105   1.000000
    2       -0.672518   1.000000
    3        1.753818   1.000000
    4        3.537405   1.000000
    5        8.006342   0.000000
    6       10.178299   0.000000
    7       10.683929   0.000000
    8       12.863437   0.000000
 
 -0.3000000E+00  0.2000000E+00  0.0000000E+00  0.3000000E-02
    1       -6.141169   1.000000
    2       -0.284387   1.000000
    3        1.802074   1.000000
    4        3.726830   1.000000
    5        8.245796   0.000000
    6       10.212600   0.000000
    7       10.581878   0.000000
    8       12.101825   0.000000
 
 -0.2500000E+00  0.2000000E+00  0.0000000E+00  0.3000000E-02
    1       -6.378617   1.000000
    2        0.178164   1.000000
    3        1.966615   1.000000
    4        3.927723   1.000000
    5        8.503906   0.000000
    6       10.232373   0.000000
    7       10.437188   0.000000
    8       11.379974   0.000000
 
 -0.2000000E+00  0.2000000E+00  0.0000000E+00  0.1500000E-02
    1       -6.617905   1.000000
    2        0.635763   1.000000
    3        2.285010   1.000000
    4        4.120650   1.000000
    5        8.722195   0.000000
    6       10.061529   0.000000
    7       10.203322   0.000000
    8       10.989556   0.000000
 
  0.2500000E+00  0.2500000E+00  0.0000000E+00  0.7500000E-03
    1       -6.809514   1.000000
    2        1.427530   1.000000
    3        3.214224   1.000000
    4        3.214224   1.000000
    5        7.291971   0.000000
    6        8.623543   0.000000
    7       11.910736   0.000000
    8       11.910767   0.000000
 
  0.3000000E+00  0.2500000E+00  0.0000000E+00  0.3000000E-02
    1       -6.626768   1.000000
    2        1.000771   1.000000
    3        3.008028   1.000000
    4        3.064246   1.000000
    5        7.173181   0.000000
    6        8.408917   0.000000
    7       12.013289   0.000000
    8       12.238025   0.000000
 
  0.3500000E+00  0.2500000E+00  0.0000000E+00  0.3000000E-02
    1       -6.413408   1.000000
    2        0.526923   1.000000
    3        2.712534   1.000000
    4        2.957094   1.000000
    5        7.184568   0.000000
    6        8.436374   0.000000
    7       11.885835   0.000000
    8       12.347222   0.000000
 
  0.4000000E+00  0.2500000E+00  0.0000000E+00  0.3000000E-02
    1       -6.184562   1.000000
    2        0.063518   1.000000
    3        2.363647   1.000000
    4        2.896970   1.000000
    5        7.198357   0.000000
    6        8.776457   0.000000
    7       11.729972   0.000000
    8       12.271383   0.000000
 
  0.4500000E+00  0.2500000E+00  0.0000000E+00  0.3000000E-02
    1       -5.962922   1.000000
    2       -0.344704   1.000000
    3        2.015046   1.000000
    4        2.885873   1.000000
    5        7.202710   0.000000
    6        9.366816   0.000000
    7       11.593219   0.000000
    8       12.098506   0.000000
 
  0.5000000E+00  0.2500000E+00  0.0000000E+00  0.3000000E-02
    1       -5.779905   1.000000
    2       -0.653194   1.000000
    3        1.705089   1.000000
    4        2.923982   1.000000
    5        7.238730   0.000000
    6       10.085081   0.000000
    7       11.522254   0.000000
    8       11.895634   0.000000
 
 -0.4500000E+00  0.2500000E+00  0.0000000E+00  0.3000000E-02
    1       -5.671551   1.000000
    2       -0.818798   1.000000
    3        1.457544   1.000000
    4        3.009755   1.000000
    5        7.329102   0.000000
    6       10.715062   0.000000
    7       11.679002   0.000000
    8       11.698062   0.000000
 
 -0.4000000E+00  0.2500000E+00  0.0000000E+00  0.3000000E-02
    1       -5.664717   1.000000
    2       -0.814599   1.000000
    3        1.290051   1.000000
    4        3.139736   1.000000
    5        7.480768   0.000000
    6       10.939008   0.000000
    7       11.518190   0.000000
    8       12.316412   0.000000
 
 -0.3500000E+00  0.2500000E+00  0.0000000E+00  0.3000000E-02
    1       -5.760699   1.000000
    2       -0.650386   1.000000
    3        1.223018   1.000000
    4        3.308075   1.000000
    5        7.692132   0.000000
    6       10.968530   0.000000
    7       11.347165   0.000000
    8       12.746314   0.000000
 
 -0.3000000E+00  0.2500000E+00  0.0000000E+00  0.3000000E-02
    1       -5.934564   1.000000
    2       -0.379954   1.000000
    3        1.288640   1.000000
    4        3.505674   1.000000
    5        7.954129   0.000000
    6       10.955518   0.000000
    7       11.144281   0.000000
    8       12.087343   0.000000
 
 -0.2500000E+00  0.2500000E+00  0.0000000E+00  0.1500000E-02
    1       -6.151060   1.000000
    2       -0.084144   1.000000
    3        1.530353   1.000000
    4        3.718842   1.000000
    5        8.244649   0.000000
    6       10.779886   0.000000
    7       10.840170   0.000000
    8       11.480845   0.000000
 
  0.3000000E+00  0.3000000E+00  0.0000000E+00  0.7500000E-03
    1       -6.463452   1.000000
    2        0.697203   1.000000
    3        2.901410   1.000000
    4        2.901410   1.000000
    5        6.870074   0.000000
    6        8.041314   0.000000
    7       12.764207   0.000000
    8       12.764229   0.000000
 
  0.3500000E+00  0.3000000E+00  0.0000000E+00  0.3000000E-02
    1       -6.269890   1.000000
    2        0.325511   1.000000
    3        2.691943   1.000000
    4        2.781500   1.000000
    5        6.775417   0.000000
    6        7.883524   0.000000
    7       12.902029   0.000000
    8       13.066838   0.000000
 
  0.4000000E+00  0.3000000E+00  0.0000000E+00  0.3000000E-02
    1       -6.059826   1.000000
    2       -0.045229   1.000000
    3        2.354471   1.000000
    4        2.709270   1.000000
    5        6.808025   0.000000
    6        8.007548   0.000000
    7       12.795103   0.000000
    8       13.107133   0.000000
 
  0.4500000E+00  0.3000000E+00  0.0000000E+00  0.3000000E-02
    1       -5.853465   1.000000
    2       -0.369917   1.000000
    3        1.952547   1.000000
    4        2.687177   1.000000
    5        6.851730   0.000000
    6        8.449043   0.000000
    7       12.645868   0.000000
    8       12.978029   0.000000
 
  0.5000000E+00  0.3000000E+00  0.0000000E+00  0.3000000E-02
    1       -5.678194   1.000000
    2       -0.612012   1.000000
    3        1.556812   1.000000
    4        2.715845   1.000000
    5        6.906615   0.000000
    6        9.126750   0.000000
    7       12.504718   0.000000
    8       12.777586   0.000000
 