       N       E                     dE             d eps       ncg     rms          rms(c)
DAV:   1     0.148430142020E+02    0.14843E+02   -0.31935E+03  4128   0.760E+02
DAV:   2    -0.892630097472E+01   -0.23769E+02   -0.23394E+02  5528   0.924E+01
DAV:   3    -0.944097499135E+01   -0.51467E+00   -0.51467E+00  4992   0.182E+01
DAV:   4    -0.944312961885E+01   -0.21546E-02   -0.21546E-02  6576   0.131E+00
DAV:   5    -0.944313404763E+01   -0.44288E-05   -0.44288E-05  5136   0.484E-02    0.287E+00
RMM:   6    -0.923504431658E+01    0.20809E+00   -0.21163E-01  4117   0.252E+00    0.159E+00
RMM:   7    -0.919151993092E+01    0.43524E-01   -0.14617E-01  4284   0.221E+00    0.423E-01
RMM:   8    -0.919169587839E+01   -0.17595E-03   -0.56052E-03  4496   0.601E-01    0.524E-02
RMM:   9    -0.919191555200E+01   -0.21967E-03   -0.25432E-04  4828   0.131E-01    0.186E-02
RMM:  10    -0.919192873389E+01   -0.13182E-04   -0.35851E-05  4862   0.447E-02    0.427E-03
RMM:  11    -0.919193027189E+01   -0.15380E-05   -0.44403E-06  4573   0.179E-02    0.115E-03
RMM:  12    -0.919193019108E+01    0.80804E-07   -0.27887E-07  3541   0.392E-03
   1 F= -.91919302E+01 E0= -.91919302E+01  d E =0.000000E+00
