   2   2   0   0
  0.2638571E+02  0.4210218E-09  0.4210218E-09  0.4210218E-09  0.0000000E+00
  1.000000000000000E-004
  CAR 
 unknown system                          
     12.79622837     -9.38861219  301      2.74834433      1.00000000
     -9.389  0.0000E+00  0.0000E+00
     -9.315  0.0000E+00  0.0000E+00
     -9.241  0.0000E+00  0.0000E+00
     -9.167  0.0000E+00  0.0000E+00
     -9.093  0.0000E+00  0.0000E+00
     -9.019  0.0000E+00  0.0000E+00
     -8.945  0.0000E+00  0.0000E+00
     -8.871  0.0000E+00  0.0000E+00
     -8.797  0.0000E+00  0.0000E+00
     -8.723  0.0000E+00  0.0000E+00
     -8.649  0.0000E+00  0.0000E+00
     -8.575  0.0000E+00  0.0000E+00
     -8.501  0.0000E+00  0.0000E+00
     -8.427  0.0000E+00  0.0000E+00
     -8.353  0.1008E+00  0.1357E-02
     -8.279  0.2202E+00  0.1375E-01
     -8.205  0.3066E+00  0.3359E-01
     -8.131  0.3842E+00  0.5915E-01
     -8.058  0.4506E+00  0.8992E-01
     -7.984  0.5203E+00  0.1259E+00
     -7.910  0.5915E+00  0.1670E+00
     -7.836  0.6673E+00  0.2135E+00
     -7.762  0.7491E+00  0.2658E+00
     -7.688  0.8418E+00  0.3245E+00
     -7.614  0.9490E+00  0.3907E+00
     -7.540  0.1076E+01  0.4653E+00
     -7.466  0.1242E+01  0.5508E+00
     -7.392  0.1458E+01  0.6501E+00
     -7.318  0.1847E+01  0.7708E+00
     -7.244  0.2432E+01  0.9342E+00
     -7.170  0.2420E+01  0.1114E+01
     -7.096  0.2500E+01  0.1295E+01
     -7.022  0.2597E+01  0.1483E+01
     -6.948  0.2839E+01  0.1683E+01
     -6.874  0.4055E+01  0.1919E+01
     -6.800  0.0000E+00  0.2000E+01
     -6.726  0.0000E+00  0.2000E+01
     -6.652  0.0000E+00  0.2000E+01
     -6.579  0.0000E+00  0.2000E+01
     -6.505  0.0000E+00  0.2000E+01
     -6.431  0.0000E+00  0.2000E+01
     -6.357  0.0000E+00  0.2000E+01
     -6.283  0.0000E+00  0.2000E+01
     -6.209  0.0000E+00  0.2000E+01
     -6.135  0.0000E+00  0.2000E+01
     -6.061  0.0000E+00  0.2000E+01
     -5.987  0.0000E+00  0.2000E+01
     -5.913  0.0000E+00  0.2000E+01
     -5.839  0.0000E+00  0.2000E+01
     -5.765  0.0000E+00  0.2000E+01
     -5.691  0.0000E+00  0.2000E+01
     -5.617  0.0000E+00  0.2000E+01
     -5.543  0.0000E+00  0.2000E+01
     -5.469  0.0000E+00  0.2000E+01
     -5.395  0.0000E+00  0.2000E+01
     -5.321  0.0000E+00  0.2000E+01
     -5.247  0.0000E+00  0.2000E+01
     -5.173  0.0000E+00  0.2000E+01
     -5.100  0.0000E+00  0.2000E+01
     -5.026  0.0000E+00  0.2000E+01
     -4.952  0.0000E+00  0.2000E+01
     -4.878  0.0000E+00  0.2000E+01
     -4.804  0.0000E+00  0.2000E+01
     -4.730  0.0000E+00  0.2000E+01
     -4.656  0.0000E+00  0.2000E+01
     -4.582  0.0000E+00  0.2000E+01
     -4.508  0.0000E+00  0.2000E+01
     -4.434  0.0000E+00  0.2000E+01
     -4.360  0.0000E+00  0.2000E+01
     -4.286  0.0000E+00  0.2000E+01
     -4.212  0.0000E+00  0.2000E+01
     -4.138  0.0000E+00  0.2000E+01
     -4.064  0.0000E+00  0.2000E+01
     -3.990  0.0000E+00  0.2000E+01
     -3.916  0.0000E+00  0.2000E+01
     -3.842  0.0000E+00  0.2000E+01
     -3.768  0.0000E+00  0.2000E+01
     -3.695  0.0000E+00  0.2000E+01
     -3.621  0.0000E+00  0.2000E+01
     -3.547  0.0000E+00  0.2000E+01
     -3.473  0.0000E+00  0.2000E+01
     -3.399  0.0000E+00  0.2000E+01
     -3.325  0.0000E+00  0.2000E+01
     -3.251  0.0000E+00  0.2000E+01
     -3.177  0.0000E+00  0.2000E+01
     -3.103  0.0000E+00  0.2000E+01
     -3.029  0.0000E+00  0.2000E+01
     -2.955  0.0000E+00  0.2000E+01
     -2.881  0.0000E+00  0.2000E+01
     -2.807  0.0000E+00  0.2000E+01
     -2.733  0.0000E+00  0.2000E+01
     -2.659  0.0000E+00  0.2000E+01
     -2.585  0.0000E+00  0.2000E+01
     -2.511  0.0000E+00  0.2000E+01
     -2.437  0.0000E+00  0.2000E+01
     -2.363  0.0000E+00  0.2000E+01
     -2.289  0.0000E+00  0.2000E+01
     -2.216  0.5924E+00  0.2012E+01
     -2.142  0.1436E+01  0.2089E+01
     -2.068  0.2693E+01  0.2235E+01
     -1.994  0.6440E+01  0.2581E+01
     -1.920  0.2386E+01  0.2848E+01
     -1.846  0.1684E+01  0.2994E+01
     -1.772  0.1291E+01  0.3102E+01
     -1.698  0.1074E+01  0.3189E+01
     -1.624  0.8942E+00  0.3261E+01
     -1.550  0.7960E+00  0.3324E+01
     -1.476  0.7056E+00  0.3379E+01
     -1.402  0.6136E+00  0.3428E+01
     -1.328  0.5657E+00  0.3471E+01
     -1.254  0.5190E+00  0.3512E+01
     -1.180  0.4704E+00  0.3548E+01
     -1.106  0.4224E+00  0.3581E+01
     -1.032  0.3958E+00  0.3611E+01
     -0.958  0.3691E+00  0.3640E+01
     -0.884  0.3431E+00  0.3666E+01
     -0.810  0.3140E+00  0.3690E+01
     -0.737  0.2869E+00  0.3712E+01
     -0.663  0.2716E+00  0.3733E+01
     -0.589  0.2562E+00  0.3753E+01
     -0.515  0.2401E+00  0.3771E+01
     -0.441  0.2228E+00  0.3788E+01
     -0.367  0.2052E+00  0.3804E+01
     -0.293  0.1902E+00  0.3818E+01
     -0.219  0.4219E+00  0.3833E+01
     -0.145  0.9084E+00  0.3882E+01
     -0.071  0.1318E+01  0.3962E+01
      0.003  0.1654E+01  0.4086E+01
      0.077  0.1507E+01  0.4203E+01
      0.151  0.1361E+01  0.4308E+01
      0.225  0.1311E+01  0.4406E+01
      0.299  0.1289E+01  0.4502E+01
      0.373  0.1221E+01  0.4595E+01
      0.447  0.1281E+01  0.4688E+01
      0.521  0.1356E+01  0.4786E+01
      0.595  0.1449E+01  0.4892E+01
      0.669  0.1516E+01  0.5002E+01
      0.742  0.1624E+01  0.5117E+01
      0.816  0.1879E+01  0.5248E+01
      0.890  0.2169E+01  0.5402E+01
      0.964  0.2064E+01  0.5555E+01
      1.038  0.2029E+01  0.5707E+01
      1.112  0.1992E+01  0.5855E+01
      1.186  0.1994E+01  0.6003E+01
      1.260  0.1950E+01  0.6149E+01
      1.334  0.1927E+01  0.6292E+01
      1.408  0.1912E+01  0.6434E+01
      1.482  0.1898E+01  0.6575E+01
      1.556  0.1878E+01  0.6715E+01
      1.630  0.1849E+01  0.6853E+01
      1.704  0.1828E+01  0.6989E+01
      1.778  0.1846E+01  0.7124E+01
      1.852  0.1843E+01  0.7261E+01
      1.926  0.1827E+01  0.7396E+01
      2.000  0.1452E+01  0.7522E+01
      2.074  0.1177E+01  0.7618E+01
      2.148  0.1004E+01  0.7699E+01
      2.221  0.8592E+00  0.7768E+01
      2.295  0.7381E+00  0.7827E+01
      2.369  0.6367E+00  0.7877E+01
      2.443  0.5257E+00  0.7921E+01
      2.517  0.4456E+00  0.7956E+01
      2.591  0.3023E+00  0.7984E+01
      2.665  0.1459E+00  0.7999E+01
      2.739  0.0000E+00  0.8000E+01
      2.813  0.0000E+00  0.8000E+01
      2.887  0.0000E+00  0.8000E+01
      2.961  0.0000E+00  0.8000E+01
      3.035  0.0000E+00  0.8000E+01
      3.109  0.0000E+00  0.8000E+01
      3.183  0.0000E+00  0.8000E+01
      3.257  0.0000E+00  0.8000E+01
      3.331  0.0000E+00  0.8000E+01
      3.405  0.0000E+00  0.8000E+01
      3.479  0.0000E+00  0.8000E+01
      3.553  0.0000E+00  0.8000E+01
      3.626  0.0000E+00  0.8000E+01
      3.700  0.2453E-03  0.8000E+01
      3.774  0.1062E-02  0.8000E+01
      3.848  0.2451E-02  0.8000E+01
      3.922  0.4414E-02  0.8000E+01
      3.996  0.6949E-02  0.8001E+01
      4.070  0.1000E-01  0.8001E+01
      4.144  0.1273E-01  0.8002E+01
      4.218  0.1552E-01  0.8003E+01
      4.292  0.1851E-01  0.8005E+01
      4.366  0.4366E-01  0.8007E+01
      4.440  0.1720E+00  0.8014E+01
      4.514  0.3099E+00  0.8032E+01
      4.588  0.3908E+00  0.8058E+01
      4.662  0.4878E+00  0.8090E+01
      4.736  0.6039E+00  0.8130E+01
      4.810  0.7537E+00  0.8181E+01
      4.884  0.8730E+00  0.8241E+01
      4.958  0.9379E+00  0.8308E+01
      5.032  0.1089E+01  0.8383E+01
      5.105  0.1234E+01  0.8469E+01
      5.179  0.1357E+01  0.8564E+01
      5.253  0.1519E+01  0.8670E+01
      5.327  0.1814E+01  0.8791E+01
      5.401  0.2186E+01  0.8943E+01
      5.475  0.2124E+01  0.9104E+01
      5.549  0.1995E+01  0.9255E+01
      5.623  0.1982E+01  0.9402E+01
      5.697  0.1634E+01  0.9540E+01
      5.771  0.1516E+01  0.9657E+01
      5.845  0.1312E+01  0.9762E+01
      5.919  0.1094E+01  0.9852E+01
      5.993  0.1127E+01  0.9935E+01
      6.067  0.1205E+01  0.1002E+02
      6.141  0.1147E+01  0.1010E+02
      6.215  0.9926E+00  0.1019E+02
      6.289  0.9452E+00  0.1026E+02
      6.363  0.8829E+00  0.1033E+02
      6.437  0.8597E+00  0.1039E+02
      6.511  0.9012E+00  0.1046E+02
      6.584  0.8767E+00  0.1052E+02
      6.658  0.9201E+00  0.1059E+02
      6.732  0.9437E+00  0.1066E+02
      6.806  0.9519E+00  0.1073E+02
      6.880  0.1533E+01  0.1082E+02
      6.954  0.2773E+01  0.1097E+02
      7.028  0.2674E+01  0.1118E+02
      7.102  0.2248E+01  0.1136E+02
      7.176  0.2026E+01  0.1152E+02
      7.250  0.1731E+01  0.1166E+02
      7.324  0.1510E+01  0.1178E+02
      7.398  0.1520E+01  0.1189E+02
      7.472  0.1492E+01  0.1200E+02
      7.546  0.1321E+01  0.1211E+02
      7.620  0.1165E+01  0.1220E+02
      7.694  0.1213E+01  0.1229E+02
      7.768  0.1374E+01  0.1238E+02
      7.842  0.1599E+01  0.1249E+02
      7.916  0.1885E+01  0.1262E+02
      7.990  0.2176E+01  0.1277E+02
      8.063  0.2298E+01  0.1294E+02
      8.137  0.1991E+01  0.1310E+02
      8.211  0.1921E+01  0.1324E+02
      8.285  0.1680E+01  0.1337E+02
      8.359  0.1468E+01  0.1349E+02
      8.433  0.1411E+01  0.1360E+02
      8.507  0.1394E+01  0.1370E+02
      8.581  0.1368E+01  0.1380E+02
      8.655  0.1400E+01  0.1391E+02
      8.729  0.1384E+01  0.1401E+02
      8.803  0.1230E+01  0.1411E+02
      8.877  0.9916E+00  0.1419E+02
      8.951  0.9504E+00  0.1426E+02
      9.025  0.9733E+00  0.1433E+02
      9.099  0.1004E+01  0.1441E+02
      9.173  0.1056E+01  0.1448E+02
      9.247  0.1096E+01  0.1456E+02
      9.321  0.1079E+01  0.1464E+02
      9.395  0.1088E+01  0.1472E+02
      9.469  0.1156E+01  0.1481E+02
      9.542  0.1218E+01  0.1489E+02
      9.616  0.1280E+01  0.1499E+02
      9.690  0.1319E+01  0.1508E+02
      9.764  0.1218E+01  0.1518E+02
      9.838  0.1195E+01  0.1527E+02
      9.912  0.1181E+01  0.1535E+02
      9.986  0.8797E+00  0.1543E+02
     10.060  0.8108E+00  0.1549E+02
     10.134  0.8456E+00  0.1555E+02
     10.208  0.1170E+01  0.1562E+02
     10.282  0.4568E+00  0.1566E+02
     10.356  0.4284E+00  0.1569E+02
     10.430  0.4008E+00  0.1572E+02
     10.504  0.3687E+00  0.1575E+02
     10.578  0.3544E+00  0.1577E+02
     10.652  0.3507E+00  0.1580E+02
     10.726  0.3256E+00  0.1583E+02
     10.800  0.2860E+00  0.1585E+02
     10.874  0.2571E+00  0.1587E+02
     10.947  0.2329E+00  0.1589E+02
     11.021  0.2154E+00  0.1590E+02
     11.095  0.2001E+00  0.1592E+02
     11.169  0.1816E+00  0.1593E+02
     11.243  0.1698E+00  0.1594E+02
     11.317  0.1604E+00  0.1596E+02
     11.391  0.1407E+00  0.1597E+02
     11.465  0.1145E+00  0.1598E+02
     11.539  0.8790E-01  0.1599E+02
     11.613  0.6608E-01  0.1599E+02
     11.687  0.4905E-01  0.1599E+02
     11.761  0.5003E-01  0.1600E+02
     11.835  0.0000E+00  0.1600E+02
     11.909  0.0000E+00  0.1600E+02
     11.983  0.0000E+00  0.1600E+02
     12.057  0.0000E+00  0.1600E+02
     12.131  0.0000E+00  0.1600E+02
     12.205  0.0000E+00  0.1600E+02
     12.279  0.0000E+00  0.1600E+02
     12.353  0.0000E+00  0.1600E+02
     12.426  0.0000E+00  0.1600E+02
     12.500  0.0000E+00  0.1600E+02
     12.574  0.0000E+00  0.1600E+02
     12.648  0.0000E+00  0.1600E+02
     12.722  0.0000E+00  0.1600E+02
     12.796  0.0000E+00  0.1600E+02
