    2    2    1    1
  0.2638571E+02  0.4210218E-09  0.4210218E-09  0.4210218E-09  0.0000000E+00
  1.000000000000000E-004
  CAR 
 unknown system                          
      8    220      8
 
  0.0000000E+00  0.0000000E+00  0.0000000E+00  0.1457938E-03
    1       -8.380210   1.000000
    2        2.693513   1.000000
    3        2.693513   1.000000
    4        2.693513   1.000000
    5        3.632015   0.000000
    6        6.723691   0.000000
    7        6.723691   0.000000
    8        6.723692   0.000000
 
  0.5263158E-01  0.0000000E+00  0.0000000E+00  0.1166351E-02
    1       -8.357828   1.000000
    2        2.255767   1.000000
    3        2.666658   1.000000
    4        2.666658   1.000000
    5        4.000430   0.000000
    6        6.739891   0.000000
    7        6.772554   0.000000
    8        6.772554   0.000000
 
  0.1052632E+00  0.0000000E+00  0.0000000E+00  0.1166351E-02
    1       -8.291544   1.000000
    2        1.529920   1.000000
    3        2.592545   1.000000
    4        2.592545   1.000000
    5        4.476182   0.000000
    6        6.858602   0.000000
    7        6.904550   0.000000
    8        6.904550   0.000000
 
  0.1578947E+00  0.0000000E+00  0.0000000E+00  0.1166351E-02
    1       -8.184360   1.000000
    2        0.779010   1.000000
    3        2.486931   1.000000
    4        2.486932   1.000000
    5        4.725240   0.000000
    6        7.078748   0.000000
    7        7.078748   0.000000
    8        7.209238   0.000000
 
  0.2105263E+00  0.0000000E+00  0.0000000E+00  0.1166351E-02
    1       -8.041694   1.000000
    2        0.054323   1.000000
    3        2.367816   1.000000
    4        2.367816   1.000000
    5        4.746931   0.000000
    6        7.237665   0.000000
    7        7.237665   0.000000
    8        7.793092   0.000000
 
  0.2631579E+00  0.0000000E+00  0.0000000E+00  0.1166351E-02
    1       -7.872454   1.000000
    2       -0.616852   1.000000
    3        2.250595   1.000000
    4        2.250596   1.000000
    5        4.656351   0.000000
    6        7.331059   0.000000
    7        7.331060   0.000000
    8        8.496704   0.000000
 
  0.3157895E+00  0.0000000E+00  0.0000000E+00  0.1166351E-02
    1       -7.690206   1.000000
    2       -1.210244   1.000000
    3        2.146576   1.000000
    4        2.146577   1.000000
    5        4.536937   0.000000
    6        7.347550   0.000000
    7        7.347551   0.000000
    8        9.203173   0.000000
 
  0.3684211E+00  0.0000000E+00  0.0000000E+00  0.1166351E-02
    1       -7.514752   1.000000
    2       -1.699187   1.000000
    3        2.063329   1.000000
    4        2.063329   1.000000
    5        4.428750   0.000000
    6        7.315295   0.000000
    7        7.315295   0.000000
    8        9.762281   0.000000
 
  0.4210526E+00  0.0000000E+00  0.0000000E+00  0.1166351E-02
    1       -7.372224   1.000000
    2       -2.052986   1.000000
    3        2.005601   1.000000
    4        2.005601   1.000000
    5        4.350021   0.000000
    6        7.271798   0.000000
    7        7.271798   0.000000
    8       10.034522   0.000000
 
  0.4736842E+00  0.0000000E+00  0.0000000E+00  0.1166351E-02
    1       -7.291017   1.000000
    2       -2.240500   1.000000
    3        1.976122   1.000000
    4        1.976122   1.000000
    5        4.309022   0.000000
    6        7.243735   0.000000
    7        7.243735   0.000000
    8       10.107209   0.000000
 
  0.5263158E-01  0.5263158E-01  0.0000000E+00  0.8747631E-03
    1       -8.350351   1.000000
    2        2.217133   1.000000
    3        2.607996   1.000000
    4        2.607996   1.000000
    5        4.124145   0.000000
    6        6.601802   0.000000
    7        6.857706   0.000000
    8        6.857706   0.000000
 
  0.1052632E+00  0.5263158E-01  0.0000000E+00  0.3499052E-02
    1       -8.298654   1.000000
    2        1.667613   1.000000
    3        2.507742   1.000000
    4        2.554202   1.000000
    5        4.546731   0.000000
    6        6.538037   0.000000
    7        7.023607   0.000000
    8        7.030053   0.000000
 
  0.1578947E+00  0.5263158E-01  0.0000000E+00  0.3499052E-02
    1       -8.205021   1.000000
    2        0.970045   1.000000
    3        2.384693   1.000000
    4        2.477910   1.000000
    5        4.864413   0.000000
    6        6.618778   0.000000
    7        7.228790   0.000000
    8        7.312405   0.000000
 
  0.2105263E+00  0.5263158E-01  0.0000000E+00  0.3499052E-02
    1       -8.073958   1.000000
    2        0.261125   1.000000
    3        2.257229   1.000000
    4        2.364896   1.000000
    5        4.952944   0.000000
    6        6.834683   0.000000
    7        7.416429   0.000000
    8        7.723321   0.000000
 
  0.2631579E+00  0.5263158E-01  0.0000000E+00  0.3499052E-02
    1       -7.913124   1.000000
    2       -0.413483   1.000000
    3        2.139823   1.000000
    4        2.233241   1.000000
    5        4.891390   0.000000
    6        7.042327   0.000000
    7        7.532244   0.000000
    8        8.249010   0.000000
 
  0.3157895E+00  0.5263158E-01  0.0000000E+00  0.3499052E-02
    1       -7.734320   1.000000
    2       -1.024281   1.000000
    3        2.042554   1.000000
    4        2.100523   1.000000
    5        4.779498   0.000000
    6        7.147418   0.000000
    7        7.555672   0.000000
    8        8.843883   0.000000
 
  0.3684211E+00  0.5263158E-01  0.0000000E+00  0.3499052E-02
    1       -7.555117   1.000000
    2       -1.543488   1.000000
    3        1.971779   1.000000
    4        1.979845   1.000000
    5        4.668591   0.000000
    6        7.167608   0.000000
    7        7.510227   0.000000
    8        9.436444   0.000000
 
  0.4210526E+00  0.5263158E-01  0.0000000E+00  0.3499052E-02
    1       -7.399526   1.000000
    2       -1.940654   1.000000
    3        1.880201   1.000000
    4        1.931050   1.000000
    5        4.581493   0.000000
    6        7.156267   0.000000
    7        7.436654   0.000000
    8        9.902399   0.000000
 
  0.4736842E+00  0.5263158E-01  0.0000000E+00  0.3499052E-02
    1       -7.295830   1.000000
    2       -2.183606   1.000000
    3        1.807557   1.000000
    4        1.921841   1.000000
    5        4.528549   0.000000
    6        7.152846   0.000000
    7        7.367684   0.000000
    8       10.131627   0.000000
 
 -0.4736842E+00  0.5263158E-01  0.0000000E+00  0.3499052E-02
    1       -7.267913   1.000000
    2       -2.246362   1.000000
    3        1.765794   1.000000
    4        1.943996   1.000000
    5        4.514221   0.000000
    6        7.176699   0.000000
    7        7.321709   0.000000
    8       10.183719   0.000000
 
 -0.4210526E+00  0.5263158E-01  0.0000000E+00  0.3499052E-02
    1       -7.323070   1.000000
    2       -2.121169   1.000000
    3        1.757258   1.000000
    4        1.995979   1.000000
    5        4.539541   0.000000
    6        7.231631   0.000000
    7        7.304021   0.000000
    8       10.109291   0.000000
 
 -0.3684211E+00  0.5263158E-01  0.0000000E+00  0.3499052E-02
    1       -7.447264   1.000000
    2       -1.823114   1.000000
    3        1.783011   1.000000
    4        2.074876   1.000000
    5        4.602511   0.000000
    6        7.307432   0.000000
    7        7.307706   0.000000
    8        9.830755   0.000000
 
 -0.3157895E+00  0.5263158E-01  0.0000000E+00  0.3499052E-02
    1       -7.613803   1.000000
    2       -1.381674   1.000000
    3        1.842786   1.000000
    4        2.176122   1.000000
    5        4.696978   0.000000
    6        7.311010   0.000000
    7        7.378117   0.000000
    8        9.306732   0.000000
 
 -0.2631579E+00  0.5263158E-01  0.0000000E+00  0.3499052E-02
    1       -7.795222   1.000000
    2       -0.829225   1.000000
    3        1.934760   1.000000
    4        2.292978   1.000000
    5        4.808833   0.000000
    6        7.281539   0.000000
    7        7.391922   0.000000
    8        8.674723   0.000000
 
 -0.2105263E+00  0.5263158E-01  0.0000000E+00  0.3499052E-02
    1       -7.969647   1.000000
    2       -0.195692   1.000000
    3        2.055094   1.000000
    4        2.415765   1.000000
    5        4.906490   0.000000
    6        7.190116   0.000000
    7        7.273963   0.000000
    8        8.087273   0.000000
 
 -0.1578947E+00  0.5263158E-01  0.0000000E+00  0.3499052E-02
    1       -8.121594   1.000000
    2        0.489882   1.000000
    3        2.197529   1.000000
    4        2.531102   1.000000
    5        4.920884   0.000000
    6        7.003200   0.000000
    7        7.043520   0.000000
    8        7.639374   0.000000
 
 -0.1052632E+00  0.5263158E-01  0.0000000E+00  0.3499052E-02
    1       -8.240802   1.000000
    2        1.191336   1.000000
    3        2.353954   1.000000
    4        2.622143   1.000000
    5        4.743551   0.000000
    6        6.761758   0.000000
    7        6.889859   0.000000
    8        7.292361   0.000000
 
 -0.5263158E-01  0.5263158E-01  0.0000000E+00  0.1749526E-02
    1       -8.320780   1.000000
    2        1.838420   1.000000
    3        2.519345   1.000000
    4        2.671340   1.000000
    5        4.356705   0.000000
    6        6.697005   0.000000
    7        6.786603   0.000000
    8        6.996625   0.000000
 
  0.1052632E+00  0.1052632E+00  0.0000000E+00  0.8747631E-03
    1       -8.261828   1.000000
    2        1.484085   1.000000
    3        2.384820   1.000000
    4        2.384820   1.000000
    5        4.884099   0.000000
    6        6.297259   0.000000
    7        7.225336   0.000000
    8        7.225337   0.000000
 
  0.1578947E+00  0.1052632E+00  0.0000000E+00  0.3499052E-02
    1       -8.182650   1.000000
    2        0.988854   1.000000
    3        2.244850   1.000000
    4        2.275180   1.000000
    5        5.224835   0.000000
    6        6.195006   0.000000
    7        7.468598   0.000000
    8        7.496821   0.000000
 
  0.2105263E+00  0.1052632E+00  0.0000000E+00  0.3499052E-02
    1       -8.064860   1.000000
    2        0.373245   1.000000
    3        2.106640   1.000000
    4        2.156147   1.000000
    5        5.383213   0.000000
    6        6.299005   0.000000
    7        7.697976   0.000000
    8        7.808206   0.000000
 
  0.2631579E+00  0.1052632E+00  0.0000000E+00  0.3499052E-02
    1       -7.915010   1.000000
    2       -0.257208   1.000000
    3        1.984320   1.000000
    4        2.004655   1.000000
    5        5.348764   0.000000
    6        6.573389   0.000000
    7        7.854970   0.000000
    8        8.069158   0.000000
 
  0.3157895E+00  0.1052632E+00  0.0000000E+00  0.3499052E-02
    1       -7.743343   1.000000
    2       -0.852530   1.000000
    3        1.837276   1.000000
    4        1.887436   1.000000
    5        5.243453   0.000000
    6        6.832937   0.000000
    7        7.906603   0.000000
    8        8.335458   0.000000
 
  0.3684211E+00  0.1052632E+00  0.0000000E+00  0.3499052E-02
    1       -7.565284   1.000000
    2       -1.377521   1.000000
    3        1.673725   1.000000
    4        1.821878   1.000000
    5        5.132627   0.000000
    6        6.963165   0.000000
    7        7.866999   0.000000
    8        8.751836   0.000000
 
  0.4210526E+00  0.1052632E+00  0.0000000E+00  0.3499052E-02
    1       -7.402393   1.000000
    2       -1.799233   1.000000
    3        1.528688   1.000000
    4        1.790762   1.000000
    5        5.041508   0.000000
    6        6.997394   0.000000
    7        7.778018   0.000000
    8        9.305467   0.000000
 
  0.4736842E+00  0.1052632E+00  0.0000000E+00  0.3499052E-02
    1       -7.281466   1.000000
    2       -2.084105   1.000000
    3        1.412071   1.000000
    4        1.795050   1.000000
    5        4.981330   0.000000
    6        7.010176   0.000000
    7        7.678472   0.000000
    8        9.861677   0.000000
 
 -0.4736842E+00  0.1052632E+00  0.0000000E+00  0.3499052E-02
    1       -7.228240   1.000000
    2       -2.202709   1.000000
    3        1.330512   1.000000
    4        1.833907   1.000000
    5        4.957150   0.000000
    6        7.042518   0.000000
    7        7.592640   0.000000
    8       10.213891   0.000000
 
 -0.4210526E+00  0.1052632E+00  0.0000000E+00  0.3499052E-02
    1       -7.256033   1.000000
    2       -2.140499   1.000000
    3        1.288622   1.000000
    4        1.904852   1.000000
    5        4.970399   0.000000
    6        7.108137   0.000000
    7        7.530693   0.000000
    8       10.204634   0.000000
 
 -0.3684211E+00  0.1052632E+00  0.0000000E+00  0.3499052E-02
    1       -7.357697   1.000000
    2       -1.905719   1.000000
    3        1.289769   1.000000
    4        2.003658   1.000000
    5        5.019387   0.000000
    6        7.202983   0.000000
    7        7.489906   0.000000
    8        9.838442   0.000000
 
 -0.3157895E+00  0.1052632E+00  0.0000000E+00  0.3499052E-02
    1       -7.510141   1.000000
    2       -1.525266   1.000000
    3        1.336592   1.000000
    4        2.124030   1.000000
    5        5.098411   0.000000
    6        7.302961   0.000000
    7        7.453780   0.000000
    8        9.262535   0.000000
 
 -0.2631579E+00  0.1052632E+00  0.0000000E+00  0.3499052E-02
    1       -7.685926   1.000000
    2       -1.034062   1.000000
    3        1.431523   1.000000
    4        2.257057   1.000000
    5        5.194147   0.000000
    6        7.345311   0.000000
    7        7.392861   0.000000
    8        8.676884   0.000000
 
 -0.2105263E+00  0.1052632E+00  0.0000000E+00  0.3499052E-02
    1       -7.861554   1.000000
    2       -0.469091   1.000000
    3        1.577549   1.000000
    4        2.390441   1.000000
    5        5.275622   0.000000
    6        7.214592   0.000000
    7        7.280220   0.000000
    8        8.249867   0.000000
 
 -0.1578947E+00  0.1052632E+00  0.0000000E+00  0.3499052E-02
    1       -8.019716   1.000000
    2        0.128327   1.000000
    3        1.779461   1.000000
    4        2.508077   1.000000
    5        5.272412   0.000000
    6        6.932271   0.000000
    7        7.124106   0.000000
    8        7.980889   0.000000
 
 -0.1052632E+00  0.1052632E+00  0.0000000E+00  0.1749526E-02
    1       -8.148671   1.000000
    2        0.704547   1.000000
    3        2.043145   1.000000
    4        2.591112   1.000000
    5        5.084996   0.000000
    6        6.750863   0.000000
    7        6.974787   0.000000
    8        7.679228   0.000000
 
  0.1578947E+00  0.1578947E+00  0.0000000E+00  0.8747631E-03
    1       -8.118218   1.000000
    2        0.753627   1.000000
    3        2.090399   1.000000
    4        2.090399   1.000000
    5        5.559756   0.000000
    6        5.931186   0.000000
    7        7.757234   0.000000
    8        7.757234   0.000000
 
  0.2105263E+00  0.1578947E+00  0.0000000E+00  0.3499052E-02
    1       -8.014772   1.000000
    2        0.314521   1.000000
    3        1.940864   1.000000
    4        1.941228   1.000000
    5        5.688573   0.000000
    6        5.924869   0.000000
    7        8.028769   0.000000
    8        8.040988   0.000000
 
  0.2631579E+00  0.1578947E+00  0.0000000E+00  0.3499052E-02
    1       -7.877897   1.000000
    2       -0.210787   1.000000
    3        1.767241   1.000000
    4        1.810565   1.000000
    5        5.631944   0.000000
    6        6.166935   0.000000
    7        8.104654   0.000000
    8        8.257999   0.000000
 
  0.3157895E+00  0.1578947E+00  0.0000000E+00  0.3499052E-02
    1       -7.716513   1.000000
    2       -0.745112   1.000000
    3        1.562750   1.000000
    4        1.709090   1.000000
    5        5.540691   0.000000
    6        6.508125   0.000000
    7        8.061930   0.000000
    8        8.361070   0.000000
 
  0.3684211E+00  0.1578947E+00  0.0000000E+00  0.3499052E-02
    1       -7.544127   1.000000
    2       -1.240450   1.000000
    3        1.350795   1.000000
    4        1.642341   1.000000
    5        5.445185   0.000000
    6        6.837855   0.000000
    7        8.136350   0.000000
    8        8.349334   0.000000
 
  0.4210526E+00  0.1578947E+00  0.0000000E+00  0.3499052E-02
    1       -7.379815   1.000000
    2       -1.658382   1.000000
    3        1.153822   1.000000
    4        1.613464   1.000000
    5        5.367180   0.000000
    6        7.013739   0.000000
    7        8.262424   0.000000
    8        8.493725   0.000000
 
  0.4736842E+00  0.1578947E+00  0.0000000E+00  0.3499052E-02
    1       -7.248082   1.000000
    2       -1.962942   1.000000
    3        0.987377   1.000000
    4        1.623412   1.000000
    5        5.320053   0.000000
    6        7.062249   0.000000
    7        8.145308   0.000000
    8        9.084904   0.000000
 
 -0.4736842E+00  0.1578947E+00  0.0000000E+00  0.3499052E-02
    1       -7.174530   1.000000
    2       -2.122085   1.000000
    3        0.861726   1.000000
    4        1.671247   1.000000
    5        5.309847   0.000000
    6        7.085354   0.000000
    7        8.028771   0.000000
    8        9.734679   0.000000
 
 -0.4210526E+00  0.1578947E+00  0.0000000E+00  0.3499052E-02
    1       -7.176384   1.000000
    2       -2.116120   1.000000
    3        0.784258   1.000000
    4        1.754197   1.000000
    5        5.337177   0.000000
    6        7.130162   0.000000
    7        7.927572   0.000000
    8       10.114766   0.000000
 
 -0.3684211E+00  0.1578947E+00  0.0000000E+00  0.3499052E-02
    1       -7.253118   1.000000
    2       -1.946985   1.000000
    3        0.761331   1.000000
    4        1.867441   1.000000
    5        5.398106   0.000000
    6        7.208239   0.000000
    7        7.841991   0.000000
    8        9.802370   0.000000
 
 -0.3157895E+00  0.1578947E+00  0.0000000E+00  0.3499052E-02
    1       -7.386801   1.000000
    2       -1.638675   1.000000
    3        0.799893   1.000000
    4        2.003656   1.000000
    5        5.483369   0.000000
    6        7.307484   0.000000
    7        7.757347   0.000000
    8        9.173357   0.000000
 
 -0.2631579E+00  0.1578947E+00  0.0000000E+00  0.3499052E-02
    1       -7.551766   1.000000
    2       -1.229497   1.000000
    3        0.909221   1.000000
    4        2.152329   1.000000
    5        5.573823   0.000000
    6        7.372064   0.000000
    7        7.645474   0.000000
    8        8.570518   0.000000
 
 -0.2105263E+00  0.1578947E+00  0.0000000E+00  0.3499052E-02
    1       -7.723811   1.000000
    2       -0.765649   1.000000
    3        1.102435   1.000000
    4        2.298925   1.000000
    5        5.625959   0.000000
    6        7.262108   0.000000
    7        7.483594   0.000000
    8        8.218777   0.000000
 
 -0.1578947E+00  0.1578947E+00  0.0000000E+00  0.1749526E-02
    1       -7.884205   1.000000
    2       -0.297938   1.000000
    3        1.393702   1.000000
    4        2.424617   1.000000
    5        5.548367   0.000000
    6        7.021776   0.000000
    7        7.290148   0.000000
    8        8.122585   0.000000
 
  0.2105263E+00  0.2105263E+00  0.0000000E+00  0.8747631E-03
    1       -7.926092   1.000000
    2        0.058502   1.000000
    3        1.780579   1.000000
    4        1.780580   1.000000
    5        5.494443   0.000000
    6        6.020629   0.000000
    7        8.393472   0.000000
    8        8.393472   0.000000
 
  0.2631579E+00  0.2105263E+00  0.0000000E+00  0.3499052E-02
    1       -7.803599   1.000000
    2       -0.327427   1.000000
    3        1.610843   1.000000
    4        1.640761   1.000000
    5        5.397767   0.000000
    6        6.079358   0.000000
    7        8.513141   0.000000
    8        8.691746   0.000000
 
  0.3157895E+00  0.2105263E+00  0.0000000E+00  0.3499052E-02
    1       -7.655131   1.000000
    2       -0.761879   1.000000
    3        1.388533   1.000000
    4        1.531458   1.000000
    5        5.398732   0.000000
    6        6.204183   0.000000
    7        8.371812   0.000000
    8        8.873954   0.000000
 
  0.3684211E+00  0.2105263E+00  0.0000000E+00  0.3499052E-02
    1       -7.492535   1.000000
    2       -1.188761   1.000000
    3        1.131120   1.000000
    4        1.458918   1.000000
    5        5.381757   0.000000
    6        6.522100   0.000000
    7        8.226278   0.000000
    8        8.917413   0.000000
 
  0.4210526E+00  0.2105263E+00  0.0000000E+00  0.3499052E-02
    1       -7.332619   1.000000
    2       -1.566543   1.000000
    3        0.874339   1.000000
    4        1.426564   1.000000
    5        5.344898   0.000000
    6        6.971440   0.000000
    7        8.172781   0.000000
    8        8.853562   0.000000
 
  0.4736842E+00  0.2105263E+00  0.0000000E+00  0.3499052E-02
    1       -7.197250   1.000000
    2       -1.858633   1.000000
    3        0.646285   1.000000
    4        1.435612   1.000000
    5        5.326182   0.000000
    6        7.339231   0.000000
    7        8.371335   0.000000
    8        8.733381   0.000000
 
 -0.4736842E+00  0.2105263E+00  0.0000000E+00  0.3499052E-02
    1       -7.110374   1.000000
    2       -2.032484   1.000000
    3        0.465160   1.000000
    4        1.485336   1.000000
    5        5.344890   0.000000
    6        7.470758   0.000000
    7        8.595637   0.000000
    8        8.925545   0.000000
 
 -0.4210526E+00  0.2105263E+00  0.0000000E+00  0.3499052E-02
    1       -7.090714   1.000000
    2       -2.066139   1.000000
    3        0.343562   1.000000
    4        1.573108   1.000000
    5        5.405801   0.000000
    6        7.508453   0.000000
    7        8.459852   0.000000
    8        9.586268   0.000000
 
 -0.3684211E+00  0.2105263E+00  0.0000000E+00  0.3499052E-02
    1       -7.142755   1.000000
    2       -1.957715   1.000000
    3        0.292760   1.000000
    4        1.694092   1.000000
    5        5.504274   0.000000
    6        7.548827   0.000000
    7        8.327363   0.000000
    8        9.698287   0.000000
 
 -0.3157895E+00  0.2105263E+00  0.0000000E+00  0.3499052E-02
    1       -7.254378   1.000000
    2       -1.729503   1.000000
    3        0.326236   1.000000
    4        1.840707   1.000000
    5        5.625920   0.000000
    6        7.611638   0.000000
    7        8.181096   0.000000
    8        9.089443   0.000000
 
 -0.2631579E+00  0.2105263E+00  0.0000000E+00  0.3499052E-02
    1       -7.403344   1.000000
    2       -1.423176   1.000000
    3        0.461986   1.000000
    4        2.001759   1.000000
    5        5.739539   0.000000
    6        7.660967   0.000000
    7        7.990743   0.000000
    8        8.456294   0.000000
 
 -0.2105263E+00  0.2105263E+00  0.0000000E+00  0.1749526E-02
    1       -7.566309   1.000000
    2       -1.088565   1.000000
    3        0.719274   1.000000
    4        2.161432   1.000000
    5        5.777080   0.000000
    6        7.507992   0.000000
    7        7.744224   0.000000
    8        8.169696   0.000000
 
  0.2631579E+00  0.2631579E+00  0.0000000E+00  0.8747631E-03
    1       -7.696234   1.000000
    2       -0.587314   1.000000
    3        1.491005   1.000000
    4        1.491005   1.000000
    5        5.145390   0.000000
    6        5.984340   0.000000
    7        9.093517   0.000000
    8        9.093600   0.000000
 
  0.3157895E+00  0.2631579E+00  0.0000000E+00  0.3499052E-02
    1       -7.562750   1.000000
    2       -0.919683   1.000000
    3        1.315399   1.000000
    4        1.372105   1.000000
    5        5.073894   0.000000
    6        5.908736   0.000000
    7        9.097982   0.000000
    8        9.389070   0.000000
 
  0.3684211E+00  0.2631579E+00  0.0000000E+00  0.3499052E-02
    1       -7.413649   1.000000
    2       -1.263242   1.000000
    3        1.058094   1.000000
    4        1.290869   1.000000
    5        5.110346   0.000000
    6        6.000684   0.000000
    7        8.936868   0.000000
    8        9.525524   0.000000
 
  0.4210526E+00  0.2631579E+00  0.0000000E+00  0.3499052E-02
    1       -7.263796   1.000000
    2       -1.575532   1.000000
    3        0.758119   1.000000
    4        1.251164   1.000000
    5        5.131293   0.000000
    6        6.355684   0.000000
    7        8.786589   0.000000
    8        9.513749   0.000000
 
  0.4736842E+00  0.2631579E+00  0.0000000E+00  0.3499052E-02
    1       -7.132390   1.000000
    2       -1.823459   1.000000
    3        0.465239   1.000000
    4        1.254599   1.000000
    5        5.140713   0.000000
    6        6.909680   0.000000
    7        8.681135   0.000000
    8        9.408327   0.000000
 
 -0.4736842E+00  0.2631579E+00  0.0000000E+00  0.3499052E-02
    1       -7.040799   1.000000
    2       -1.979438   1.000000
    3        0.216301   1.000000
    4        1.300828   1.000000
    5        5.178009   0.000000
    6        7.530522   0.000000
    7        8.679115   0.000000
    8        9.258580   0.000000
 
 -0.4210526E+00  0.2631579E+00  0.0000000E+00  0.3499052E-02
    1       -7.006951   1.000000
    2       -2.025543   1.000000
    3        0.036971   1.000000
    4        1.387584   1.000000
    5        5.258796   0.000000
    6        7.978349   0.000000
    7        8.956784   0.000000
    8        9.089443   0.000000
 
 -0.3684211E+00  0.2631579E+00  0.0000000E+00  0.3499052E-02
    1       -7.037942   1.000000
    2       -1.962262   1.000000
    3       -0.050915   1.000000
    4        1.510377   1.000000
    5        5.382502   0.000000
    6        8.128882   0.000000
    7        8.900039   0.000000
    8        9.412730   0.000000
 
 -0.3157895E+00  0.2631579E+00  0.0000000E+00  0.3499052E-02
    1       -7.126625   1.000000
    2       -1.813914   1.000000
    3       -0.023464   1.000000
    4        1.661893   1.000000
    5        5.535443   0.000000
    6        8.182365   0.000000
    7        8.664945   0.000000
    8        9.039323   0.000000
 
 -0.2631579E+00  0.2631579E+00  0.0000000E+00  0.1749526E-02
    1       -7.255377   1.000000
    2       -1.621974   1.000000
    3        0.144007   1.000000
    4        1.831042   1.000000
    5        5.682276   0.000000
    6        8.117359   0.000000
    7        8.355091   0.000000
    8        8.478643   0.000000
 
  0.3157895E+00  0.3157895E+00  0.0000000E+00  0.8747631E-03
    1       -7.445618   1.000000
    2       -1.168186   1.000000
    3        1.242868   1.000000
    4        1.242868   1.000000
    5        4.845301   0.000000
    6        5.682215   0.000000
    7        9.829512   0.000000
    8        9.832455   0.000000
 
  0.3684211E+00  0.3157895E+00  0.0000000E+00  0.3499052E-02
    1       -7.313229   1.000000
    2       -1.441586   1.000000
    3        1.072701   1.000000
    4        1.151304   1.000000
    5        4.805152   0.000000
    6        5.587886   0.000000
    7        9.828667   0.000000
    8       10.109757   0.000000
 
  0.4210526E+00  0.3157895E+00  0.0000000E+00  0.3499052E-02
    1       -7.178848   1.000000
    2       -1.691723   1.000000
    3        0.796888   1.000000
    4        1.101841   1.000000
    5        4.865311   0.000000
    6        5.728408   0.000000
    7        9.678476   0.000000
    8       10.195642   0.000000
 
  0.4736842E+00  0.3157895E+00  0.0000000E+00  0.3499052E-02
    1       -7.059188   1.000000
    2       -1.886168   1.000000
    3        0.473469   1.000000
    4        1.096561   1.000000
    5        4.913098   0.000000
    6        6.157108   0.000000
    7        9.533558   0.000000
    8       10.131729   0.000000
 
 -0.4736842E+00  0.3157895E+00  0.0000000E+00  0.3499052E-02
    1       -6.972551   1.000000
    2       -2.003377   1.000000
    3        0.165441   1.000000
    4        1.135572   1.000000
    5        4.966682   0.000000
    6        6.787380   0.000000
    7        9.418504   0.000000
    8        9.979913   0.000000
 
 -0.4210526E+00  0.3157895E+00  0.0000000E+00  0.3499052E-02
    1       -6.934332   1.000000
    2       -2.034697   1.000000
    3       -0.078214   1.000000
    4        1.217066   1.000000
    5        5.057699   0.000000
    6        7.519247   0.000000
    7        9.356219   0.000000
    8        9.771510   0.000000
 
 -0.3684211E+00  0.3157895E+00  0.0000000E+00  0.3499052E-02
    1       -6.951549   1.000000
    2       -1.991063   1.000000
    3       -0.215797   1.000000
    4        1.337063   1.000000
    5        5.193180   0.000000
    6        8.220646   0.000000
    7        9.383446   0.000000
    8        9.498254   0.000000
 
 -0.3157895E+00  0.3157895E+00  0.0000000E+00  0.1749526E-02
    1       -7.020027   1.000000
    2       -1.905130   1.000000
    3       -0.206834   1.000000
    4        1.488831   1.000000
    5        5.363247   0.000000
    6        8.567034   0.000000
    7        9.127842   0.000000
    8        9.208336   0.000000
 
  0.3684211E+00  0.3684211E+00  0.0000000E+00  0.8747631E-03
    1       -7.200059   1.000000
    2       -1.660198   1.000000
    3        1.048677   1.000000
    4        1.048677   1.000000
    5        4.611115   0.000000
    6        5.348101   0.000000
    7       10.574530   0.000000
    8       10.574662   0.000000
 
  0.4210526E+00  0.3684211E+00  0.0000000E+00  0.3499052E-02
    1       -7.086052   1.000000
    2       -1.863081   1.000000
    3        0.893288   1.000000
    4        0.988102   1.000000
    5        4.604537   0.000000
    6        5.297546   0.000000
    7       10.607243   0.000000
    8       10.823505   0.000000
 
  0.4736842E+00  0.3684211E+00  0.0000000E+00  0.3499052E-02
    1       -6.985731   1.000000
    2       -2.013806   1.000000
    3        0.617160   1.000000
    4        0.972191   1.000000
    5        4.688721   0.000000
    6        5.516503   0.000000
    7       10.471073   0.000000
    8       10.846599   0.000000
 