       N       E                     dE             d eps       ncg     rms          rms(c)
DAV:   1     0.145082840732E+02    0.14508E+02   -0.29885E+03  3536   0.735E+02
DAV:   2    -0.877141755083E+01   -0.23280E+02   -0.22987E+02  4712   0.873E+01
DAV:   3    -0.945149115799E+01   -0.68007E+00   -0.68007E+00  4336   0.198E+01
DAV:   4    -0.945517071286E+01   -0.36796E-02   -0.36796E-02  5704   0.162E+00
DAV:   5    -0.945517857337E+01   -0.78605E-05   -0.78605E-05  4488   0.653E-02    0.250E+00
RMM:   6    -0.927920569552E+01    0.17597E+00   -0.21765E-01  3535   0.236E+00    0.136E+00
RMM:   7    -0.925715805198E+01    0.22048E-01   -0.94385E-02  3723   0.166E+00    0.486E-01
RMM:   8    -0.925765650535E+01   -0.49845E-03   -0.58754E-03  3753   0.620E-01    0.456E-02
RMM:   9    -0.925794796687E+01   -0.29146E-03   -0.41014E-04  4099   0.144E-01    0.248E-02
RMM:  10    -0.925799741431E+01   -0.49447E-04   -0.95979E-05  3895   0.712E-02    0.459E-03
RMM:  11    -0.925800155896E+01   -0.41447E-05   -0.14478E-05  4193   0.233E-02    0.507E-03
RMM:  12    -0.925799965839E+01    0.19006E-05   -0.38997E-06  3996   0.103E-02    0.392E-04
RMM:  13    -0.925799979051E+01   -0.13213E-06   -0.86858E-08  2362   0.248E-03
   1 F= -.92579998E+01 E0= -.92579998E+01  d E =0.000000E+00
