   3   3   0   0
  0.1755095E+02  0.4207063E-09  0.4207063E-09  0.4207063E-09  0.5000000E-15
  1.000000000000000E-004
  CAR
 unknown system
     16.89028694    -21.95073578  301     11.84794283      1.00000000
    -21.951  0.0000E+00  0.0000E+00
    -21.821  0.0000E+00  0.0000E+00
    -21.692  0.0000E+00  0.0000E+00
    -21.562  0.0000E+00  0.0000E+00
    -21.433  0.0000E+00  0.0000E+00
    -21.303  0.0000E+00  0.0000E+00
    -21.174  0.0000E+00  0.0000E+00
    -21.044  0.0000E+00  0.0000E+00
    -20.915  0.0000E+00  0.0000E+00
    -20.786  0.0000E+00  0.0000E+00
    -20.656  0.0000E+00  0.0000E+00
    -20.527  0.0000E+00  0.0000E+00
    -20.397  0.0000E+00  0.0000E+00
    -20.268  0.0000E+00  0.0000E+00
    -20.138  0.2679E+02  0.3468E+01
    -20.009  0.0000E+00  0.6000E+01
    -19.879  0.0000E+00  0.6000E+01
    -19.750  0.0000E+00  0.6000E+01
    -19.620  0.0000E+00  0.6000E+01
    -19.491  0.0000E+00  0.6000E+01
    -19.361  0.0000E+00  0.6000E+01
    -19.232  0.0000E+00  0.6000E+01
    -19.102  0.0000E+00  0.6000E+01
    -18.973  0.0000E+00  0.6000E+01
    -18.843  0.0000E+00  0.6000E+01
    -18.714  0.0000E+00  0.6000E+01
    -18.585  0.0000E+00  0.6000E+01
    -18.455  0.0000E+00  0.6000E+01
    -18.326  0.0000E+00  0.6000E+01
    -18.196  0.0000E+00  0.6000E+01
    -18.067  0.0000E+00  0.6000E+01
    -17.937  0.0000E+00  0.6000E+01
    -17.808  0.0000E+00  0.6000E+01
    -17.678  0.0000E+00  0.6000E+01
    -17.549  0.0000E+00  0.6000E+01
    -17.419  0.0000E+00  0.6000E+01
    -17.290  0.0000E+00  0.6000E+01
    -17.160  0.0000E+00  0.6000E+01
    -17.031  0.0000E+00  0.6000E+01
    -16.901  0.0000E+00  0.6000E+01
    -16.772  0.0000E+00  0.6000E+01
    -16.642  0.0000E+00  0.6000E+01
    -16.513  0.0000E+00  0.6000E+01
    -16.384  0.0000E+00  0.6000E+01
    -16.254  0.0000E+00  0.6000E+01
    -16.125  0.0000E+00  0.6000E+01
    -15.995  0.0000E+00  0.6000E+01
    -15.866  0.0000E+00  0.6000E+01
    -15.736  0.0000E+00  0.6000E+01
    -15.607  0.0000E+00  0.6000E+01
    -15.477  0.0000E+00  0.6000E+01
    -15.348  0.0000E+00  0.6000E+01
    -15.218  0.0000E+00  0.6000E+01
    -15.089  0.0000E+00  0.6000E+01
    -14.959  0.0000E+00  0.6000E+01
    -14.830  0.0000E+00  0.6000E+01
    -14.700  0.0000E+00  0.6000E+01
    -14.571  0.0000E+00  0.6000E+01
    -14.441  0.0000E+00  0.6000E+01
    -14.312  0.0000E+00  0.6000E+01
    -14.183  0.0000E+00  0.6000E+01
    -14.053  0.0000E+00  0.6000E+01
    -13.924  0.0000E+00  0.6000E+01
    -13.794  0.0000E+00  0.6000E+01
    -13.665  0.0000E+00  0.6000E+01
    -13.535  0.0000E+00  0.6000E+01
    -13.406  0.0000E+00  0.6000E+01
    -13.276  0.0000E+00  0.6000E+01
    -13.147  0.0000E+00  0.6000E+01
    -13.017  0.0000E+00  0.6000E+01
    -12.888  0.0000E+00  0.6000E+01
    -12.758  0.0000E+00  0.6000E+01
    -12.629  0.0000E+00  0.6000E+01
    -12.499  0.0000E+00  0.6000E+01
    -12.370  0.0000E+00  0.6000E+01
    -12.240  0.0000E+00  0.6000E+01
    -12.111  0.0000E+00  0.6000E+01
    -11.982  0.0000E+00  0.6000E+01
    -11.852  0.0000E+00  0.6000E+01
    -11.723  0.0000E+00  0.6000E+01
    -11.593  0.0000E+00  0.6000E+01
    -11.464  0.0000E+00  0.6000E+01
    -11.334  0.0000E+00  0.6000E+01
    -11.205  0.0000E+00  0.6000E+01
    -11.075  0.0000E+00  0.6000E+01
    -10.946  0.0000E+00  0.6000E+01
    -10.816  0.0000E+00  0.6000E+01
    -10.687  0.0000E+00  0.6000E+01
    -10.557  0.0000E+00  0.6000E+01
    -10.428  0.0000E+00  0.6000E+01
    -10.298  0.0000E+00  0.6000E+01
    -10.169  0.0000E+00  0.6000E+01
    -10.039  0.0000E+00  0.6000E+01
     -9.910  0.0000E+00  0.6000E+01
     -9.781  0.0000E+00  0.6000E+01
     -9.651  0.0000E+00  0.6000E+01
     -9.522  0.0000E+00  0.6000E+01
     -9.392  0.0000E+00  0.6000E+01
     -9.263  0.0000E+00  0.6000E+01
     -9.133  0.0000E+00  0.6000E+01
     -9.004  0.0000E+00  0.6000E+01
     -8.874  0.0000E+00  0.6000E+01
     -8.745  0.0000E+00  0.6000E+01
     -8.615  0.0000E+00  0.6000E+01
     -8.486  0.0000E+00  0.6000E+01
     -8.356  0.0000E+00  0.6000E+01
     -8.227  0.0000E+00  0.6000E+01
     -8.097  0.0000E+00  0.6000E+01
     -7.968  0.0000E+00  0.6000E+01
     -7.838  0.0000E+00  0.6000E+01
     -7.709  0.0000E+00  0.6000E+01
     -7.580  0.0000E+00  0.6000E+01
     -7.450  0.0000E+00  0.6000E+01
     -7.321  0.0000E+00  0.6000E+01
     -7.191  0.0000E+00  0.6000E+01
     -7.062  0.0000E+00  0.6000E+01
     -6.932  0.0000E+00  0.6000E+01
     -6.803  0.0000E+00  0.6000E+01
     -6.673  0.0000E+00  0.6000E+01
     -6.544  0.0000E+00  0.6000E+01
     -6.414  0.0000E+00  0.6000E+01
     -6.285  0.0000E+00  0.6000E+01
     -6.155  0.0000E+00  0.6000E+01
     -6.026  0.0000E+00  0.6000E+01
     -5.896  0.0000E+00  0.6000E+01
     -5.767  0.0000E+00  0.6000E+01
     -5.638  0.0000E+00  0.6000E+01
     -5.508  0.0000E+00  0.6000E+01
     -5.379  0.0000E+00  0.6000E+01
     -5.249  0.0000E+00  0.6000E+01
     -5.120  0.0000E+00  0.6000E+01
     -4.990  0.0000E+00  0.6000E+01
     -4.861  0.0000E+00  0.6000E+01
     -4.731  0.0000E+00  0.6000E+01
     -4.602  0.0000E+00  0.6000E+01
     -4.472  0.0000E+00  0.6000E+01
     -4.343  0.0000E+00  0.6000E+01
     -4.213  0.0000E+00  0.6000E+01
     -4.084  0.0000E+00  0.6000E+01
     -3.954  0.0000E+00  0.6000E+01
     -3.825  0.0000E+00  0.6000E+01
     -3.695  0.0000E+00  0.6000E+01
     -3.566  0.0000E+00  0.6000E+01
     -3.437  0.0000E+00  0.6000E+01
     -3.307  0.0000E+00  0.6000E+01
     -3.178  0.0000E+00  0.6000E+01
     -3.048  0.0000E+00  0.6000E+01
     -2.919  0.0000E+00  0.6000E+01
     -2.789  0.3830E-06  0.6000E+01
     -2.660  0.5696E-01  0.6008E+01
     -2.530  0.6203E-01  0.6022E+01
     -2.401  0.2250E+00  0.6054E+01
     -2.271  0.4219E-01  0.6059E+01
     -2.142  0.1688E+00  0.6103E+01
     -2.012  0.2250E+00  0.6154E+01
     -1.883  0.8455E-01  0.6165E+01
     -1.753  0.3109E+00  0.6254E+01
     -1.624  0.3375E+00  0.6301E+01
     -1.494  0.5061E+00  0.6374E+01
     -1.365  0.8372E+00  0.6483E+01
     -1.236  0.3923E+00  0.6540E+01
     -1.106  0.8910E+00  0.6703E+01
     -0.977  0.7989E+00  0.6851E+01
     -0.847  0.1860E+01  0.7168E+01
     -0.718  0.4862E+01  0.7996E+01
     -0.588  0.0000E+00  0.8000E+01
     -0.459  0.0000E+00  0.8000E+01
     -0.329  0.0000E+00  0.8000E+01
     -0.200  0.0000E+00  0.8000E+01
     -0.070  0.0000E+00  0.8000E+01
      0.059  0.0000E+00  0.8000E+01
      0.189  0.0000E+00  0.8000E+01
      0.318  0.0000E+00  0.8000E+01
      0.448  0.0000E+00  0.8000E+01
      0.577  0.0000E+00  0.8000E+01
      0.707  0.0000E+00  0.8000E+01
      0.836  0.0000E+00  0.8000E+01
      0.965  0.0000E+00  0.8000E+01
      1.095  0.0000E+00  0.8000E+01
      1.224  0.0000E+00  0.8000E+01
      1.354  0.0000E+00  0.8000E+01
      1.483  0.0000E+00  0.8000E+01
      1.613  0.0000E+00  0.8000E+01
      1.742  0.0000E+00  0.8000E+01
      1.872  0.0000E+00  0.8000E+01
      2.001  0.0000E+00  0.8000E+01
      2.131  0.0000E+00  0.8000E+01
      2.260  0.0000E+00  0.8000E+01
      2.390  0.0000E+00  0.8000E+01
      2.519  0.0000E+00  0.8000E+01
      2.649  0.0000E+00  0.8000E+01
      2.778  0.1838E+00  0.8024E+01
      2.908  0.1183E+01  0.8231E+01
      3.037  0.1252E+01  0.8617E+01
      3.166  0.2266E+01  0.9111E+01
      3.296  0.1054E+01  0.9314E+01
      3.425  0.9567E+00  0.9635E+01
      3.555  0.2785E+00  0.9751E+01
      3.684  0.6750E+00  0.9917E+01
      3.814  0.4059E+00  0.9970E+01
      3.943  0.1981E+01  0.1039E+02
      4.073  0.2702E+01  0.1112E+02
      4.202  0.2339E+01  0.1171E+02
      4.332  0.3352E+01  0.1225E+02
      4.461  0.2636E+01  0.1270E+02
      4.591  0.2848E+01  0.1324E+02
      4.720  0.1898E+01  0.1359E+02
      4.850  0.1011E+01  0.1387E+02
      4.979  0.5061E+00  0.1401E+02
      5.109  0.4195E-04  0.1401E+02
      5.238  0.6037E+00  0.1410E+02
      5.367  0.1866E+01  0.1441E+02
      5.497  0.6262E+01  0.1550E+02
      5.626  0.3708E+01  0.1657E+02
      5.756  0.4199E+01  0.1743E+02
      5.885  0.2533E+01  0.1795E+02
      6.015  0.1505E+01  0.1830E+02
      6.144  0.1395E+01  0.1856E+02
      6.274  0.1595E+01  0.1886E+02
      6.403  0.9908E+00  0.1911E+02
      6.533  0.1117E+01  0.1935E+02
      6.662  0.1068E+01  0.1950E+02
      6.792  0.5761E+00  0.1965E+02
      6.921  0.8660E+00  0.1978E+02
      7.051  0.5338E+00  0.1989E+02
      7.180  0.6691E+00  0.2001E+02
      7.310  0.5916E+00  0.2014E+02
      7.439  0.7049E+00  0.2037E+02
      7.568  0.1012E+01  0.2053E+02
      7.698  0.5062E+00  0.2060E+02
      7.827  0.1603E+01  0.2081E+02
      7.957  0.9135E+00  0.2099E+02
      8.086  0.9384E+00  0.2118E+02
      8.216  0.9240E+00  0.2135E+02
      8.345  0.1581E+01  0.2167E+02
      8.475  0.4655E+01  0.2232E+02
      8.604  0.6788E+00  0.2259E+02
      8.734  0.1694E+01  0.2300E+02
      8.863  0.1972E+01  0.2334E+02
      8.993  0.1293E+01  0.2359E+02
      9.122  0.6930E+00  0.2375E+02
      9.252  0.5175E+00  0.2387E+02
      9.381  0.2771E+00  0.2394E+02
      9.510  0.1837E-04  0.2397E+02
      9.640  0.2109E-01  0.2400E+02
      9.769  0.0000E+00  0.2400E+02
      9.899  0.0000E+00  0.2400E+02
     10.028  0.0000E+00  0.2400E+02
     10.158  0.0000E+00  0.2400E+02
     10.287  0.0000E+00  0.2400E+02
     10.417  0.0000E+00  0.2400E+02
     10.546  0.0000E+00  0.2400E+02
     10.676  0.0000E+00  0.2400E+02
     10.805  0.0000E+00  0.2400E+02
     10.935  0.2872E-02  0.2400E+02
     11.064  0.3667E+00  0.2405E+02
     11.194  0.5500E+00  0.2414E+02
     11.323  0.5906E+00  0.2423E+02
     11.453  0.8404E+00  0.2437E+02
     11.582  0.8877E+00  0.2453E+02
     11.711  0.1258E+01  0.2472E+02
     11.841  0.1372E+01  0.2497E+02
     11.970  0.1579E+01  0.2525E+02
     12.100  0.3393E+01  0.2579E+02
     12.229  0.7597E+00  0.2619E+02
     12.359  0.1551E+01  0.2648E+02
     12.488  0.1519E+01  0.2682E+02
     12.618  0.3295E+01  0.2736E+02
     12.747  0.1604E+01  0.2792E+02
     12.877  0.1117E+01  0.2825E+02
     13.006  0.2241E+01  0.2866E+02
     13.136  0.2074E+01  0.2910E+02
     13.265  0.1148E+01  0.2943E+02
     13.395  0.7627E+00  0.2960E+02
     13.524  0.1144E+01  0.2980E+02
     13.654  0.1759E+01  0.3011E+02
     13.783  0.1491E+01  0.3036E+02
     13.912  0.8034E+00  0.3052E+02
     14.042  0.1162E+01  0.3074E+02
     14.171  0.1835E+01  0.3112E+02
     14.301  0.1356E+01  0.3151E+02
     14.430  0.8437E+00  0.3171E+02
     14.560  0.6944E+00  0.3187E+02
     14.689  0.6047E+00  0.3197E+02
     14.819  0.0000E+00  0.3199E+02
     14.948  0.0000E+00  0.3199E+02
     15.078  0.7800E-12  0.3199E+02
     15.207  0.0000E+00  0.3200E+02
     15.337  0.0000E+00  0.3200E+02
     15.466  0.0000E+00  0.3200E+02
     15.596  0.0000E+00  0.3200E+02
     15.725  0.0000E+00  0.3200E+02
     15.855  0.0000E+00  0.3200E+02
     15.984  0.0000E+00  0.3200E+02
     16.113  0.0000E+00  0.3200E+02
     16.243  0.0000E+00  0.3200E+02
     16.372  0.0000E+00  0.3200E+02
     16.502  0.0000E+00  0.3200E+02
     16.631  0.0000E+00  0.3200E+02
     16.761  0.0000E+00  0.3200E+02
     16.890  0.0000E+00  0.3200E+02
