    3    3    1    1
  0.1755095E+02  0.4207063E-09  0.4207063E-09  0.4207063E-09  0.5000000E-15
  1.000000000000000E-004
  CAR
 unknown system
     25     84     16

  0.0000000E+00  0.0000000E+00  0.0000000E+00  0.4551661E-03
    1      -20.134550   1.000000
    2      -20.134550   1.000000
    3      -20.134550   1.000000
    4       -2.761801   1.000000
    5        4.393940   1.000000
    6        4.393940   1.000000
    7        4.393940   1.000000
    8        5.155560   1.000000
    9        5.155560   1.000000
   10        9.600787   1.000000
   11        9.600787   1.000000
   12        9.600787   1.000000
   13       12.222595   0.000000
   14       12.928218   0.000000
   15       12.928218   0.000000
   16       12.928218   0.000000

  0.7692308E-01  0.2441228E-18 -0.1319875E-17  0.3641329E-02
    1      -20.137466   1.000000
    2      -20.134176   1.000000
    3      -20.134176   1.000000
    4       -2.675275   1.000000
    5        4.320765   1.000000
    6        4.328311   1.000000
    7        4.328311   1.000000
    8        5.236209   1.000000
    9        5.236209   1.000000
   10        9.107526   1.000000
   11        9.535901   1.000000
   12        9.535901   1.000000
   13       12.090745   0.000000
   14       12.733839   0.000000
   15       12.733839   0.000000
   16       13.619407   0.000000

  0.1538462E+00  0.6314550E-17 -0.8466055E-17  0.3641329E-02
    1      -20.145448   1.000000
    2      -20.133131   1.000000
    3      -20.133131   1.000000
    4       -2.424999   1.000000
    5        4.115020   1.000000
    6        4.203982   1.000000
    7        4.203982   1.000000
    8        5.393674   1.000000
    9        5.393674   1.000000
   10        8.137723   1.000000
   11        9.376737   1.000000
   12        9.376737   1.000000
   13       12.049369   0.000000
   14       12.588849   0.000000
   15       12.588849   0.000000
   16       14.340117   0.000000

  0.2307692E+00  0.2737535E-16 -0.9960495E-17  0.3641329E-02
    1      -20.156461   1.000000
    2      -20.131677   1.000000
    3      -20.131677   1.000000
    4       -2.040197   1.000000
    5        3.805824   1.000000
    6        4.101371   1.000000
    7        4.101371   1.000000
    8        5.518421   1.000000
    9        5.518421   1.000000
   10        7.192209   1.000000
   11        9.203251   1.000000
   12        9.203251   1.000000
   13       12.063084   0.000000
   14       12.587683   0.000000
   15       12.587683   0.000000
   16       15.124786   0.000000

  0.3076923E+00  0.1262910E-16 -0.1693211E-16  0.3641329E-02
    1      -20.167839   1.000000
    2      -20.130119   1.000000
    3      -20.130119   1.000000
    4       -1.574930   1.000000
    5        3.425819   1.000000
    6        4.046913   1.000000
    7        4.046913   1.000000
    8        5.560017   1.000000
    9        5.560017   1.000000
   10        6.453634   1.000000
   11        9.083140   1.000000
   12        9.083140   1.000000
   13       12.080160   0.000000
   14       12.703103   0.000000
   15       12.703103   0.000000
   16       14.622389   0.000000

  0.3846154E+00 -0.4735860E-17 -0.6429033E-18  0.3641329E-02
    1      -20.177043   1.000000
    2      -20.128840   1.000000
    3      -20.128840   1.000000
    4       -1.119943   1.000000
    5        3.036210   1.000000
    6        4.035256   1.000000
    7        4.035256   1.000000
    8        5.530511   1.000000
    9        5.530511   1.000000
   10        5.979239   1.000000
   11        9.031608   1.000000
   12        9.031608   1.000000
   13       12.080659   0.000000
   14       12.883462   0.000000
   15       12.883462   0.000000
   16       13.754384   0.000000

  0.4615385E+00  0.2926471E-16  0.5565010E-17  0.3641329E-02
    1      -20.182132   1.000000
    2      -20.128115   1.000000
    3      -20.128115   1.000000
    4       -0.817578   1.000000
    5        2.766409   1.000000
    6        4.041970   1.000000
    7        4.041970   1.000000
    8        5.488512   1.000000
    9        5.488512   1.000000
   10        5.756964   1.000000
   11        9.020464   1.000000
   12        9.020464   1.000000
   13       12.064899   0.000000
   14       13.032133   0.000000
   15       13.032133   0.000000
   16       13.291707   0.000000

  0.7692308E-01  0.7692308E-01 -0.9248394E-18  0.2730997E-02
    1      -20.137361   1.000000
    2      -20.134601   1.000000
    3      -20.134601   1.000000
    4       -2.646908   1.000000
    5        4.092577   1.000000
    6        4.431395   1.000000
    7        4.431395   1.000000
    8        5.197289   1.000000
    9        5.286754   1.000000
   10        9.207223   1.000000
   11        9.384464   1.000000
   12        9.384464   1.000000
   13       11.945634   0.000000
   14       12.866764   0.000000
   15       13.210007   0.000000
   16       13.265668   0.000000

  0.1538462E+00  0.7692308E-01 -0.5804262E-18  0.1092399E-01
    1      -20.143270   1.000000
    2      -20.134264   1.000000
    3      -20.133731   1.000000
    4       -2.452773   1.000000
    5        3.842734   1.000000
    6        4.393889   1.000000
    7        4.407434   1.000000
    8        5.302534   1.000000
    9        5.397683   1.000000
   10        8.449328   1.000000
   11        9.181579   1.000000
   12        9.306076   1.000000
   13       11.935239   0.000000
   14       12.655474   0.000000
   15       12.901062   0.000000
   16       13.923546   0.000000

  0.2307692E+00  0.7692308E-01 -0.1061756E-16  0.1092399E-01
    1      -20.153079   1.000000
    2      -20.133250   1.000000
    3      -20.132360   1.000000
    4       -2.115763   1.000000
    5        3.605561   1.000000
    6        4.249931   1.000000
    7        4.327737   1.000000
    8        5.440913   1.000000
    9        5.518602   1.000000
   10        7.518347   1.000000
   11        9.010860   1.000000
   12        9.154113   1.000000
   13       12.092428   0.000000
   14       12.569055   0.000000
   15       12.716418   0.000000
   16       14.650070   0.000000

  0.3076923E+00  0.7692308E-01 -0.5037874E-18  0.1092399E-01
    1      -20.164049   1.000000
    2      -20.131791   1.000000
    3      -20.131102   1.000000
    4       -1.681934   1.000000
    5        3.363849   1.000000
    6        4.089489   1.000000
    7        4.254140   1.000000
    8        5.513737   1.000000
    9        5.590423   1.000000
   10        6.719116   1.000000
   11        8.922604   1.000000
   12        8.994187   1.000000
   13       12.080481   0.000000
   14       12.681554   0.000000
   15       12.808203   0.000000
   16       14.724400   0.000000

  0.3846154E+00  0.7692308E-01 -0.1197016E-16  0.1092399E-01
    1      -20.173659   1.000000
    2      -20.130267   1.000000
    3      -20.130231   1.000000
    4       -1.228731   1.000000
    5        3.093381   1.000000
    6        3.994407   1.000000
    7        4.194449   1.000000
    8        5.514426   1.000000
    9        5.591371   1.000000
   10        6.153265   1.000000
   11        8.890201   1.000000
   12        8.910476   1.000000
   13       12.034891   0.000000
   14       12.787815   0.000000
   15       13.047294   0.000000
   16       13.973051   0.000000

  0.4615385E+00  0.7692308E-01 -0.5762243E-17  0.1092399E-01
    1      -20.179866   1.000000
    2      -20.130024   1.000000
    3      -20.128917   1.000000
    4       -0.876864   1.000000
    5        2.852004   1.000000
    6        3.988986   1.000000
    7        4.130146   1.000000
    8        5.502007   1.000000
    9        5.550049   1.000000
   10        5.836473   1.000000
   11        8.843312   1.000000
   12        8.929778   1.000000
   13       12.049006   0.000000
   14       12.863034   0.000000
   15       12.968472   0.000000
   16       13.753718   0.000000

 -0.4615385E+00  0.7692308E-01 -0.3363605E-17  0.1092399E-01
    1      -20.181446   1.000000
    2      -20.130407   1.000000
    3      -20.128143   1.000000
    4       -0.772473   1.000000
    5        2.777576   1.000000
    6        4.047100   1.000000
    7        4.048388   1.000000
    8        5.506592   1.000000
    9        5.530334   1.000000
   10        5.759116   1.000000
   11        8.815817   1.000000
   12        8.951327   1.000000
   13       12.105605   0.000000
   14       12.663148   0.000000
   15       13.073128   0.000000
   16       13.783936   0.000000

 -0.3846154E+00  0.7692308E-01  0.1707123E-16  0.1092399E-01
    1      -20.178126   1.000000
    2      -20.131323   1.000000
    3      -20.128096   1.000000
    4       -0.972531   1.000000
    5        2.933931   1.000000
    6        3.965931   1.000000
    7        4.137633   1.000000
    8        5.483457   1.000000
    9        5.594626   1.000000
   10        5.921412   1.000000
   11        8.775116   1.000000
   12        8.987222   1.000000
   13       12.103573   0.000000
   14       12.849237   0.000000
   15       12.987985   0.000000
   16       13.776991   0.000000

 -0.3076923E+00  0.7692308E-01 -0.1508602E-17  0.1092399E-01
    1      -20.170556   1.000000
    2      -20.132537   1.000000
    3      -20.128771   1.000000
    4       -1.374286   1.000000
    5        3.229948   1.000000
    6        3.916927   1.000000
    7        4.244556   1.000000
    8        5.485102   1.000000
    9        5.643405   1.000000
   10        6.319960   1.000000
   11        8.730315   1.000000
   12        9.073994   1.000000
   13       12.146281   0.000000
   14       12.774211   0.000000
   15       12.922978   0.000000
   16       14.216578   0.000000

 -0.2307692E+00  0.7692308E-01 -0.8131087E-17  0.1092399E-01
    1      -20.160308   1.000000
    2      -20.133758   1.000000
    3      -20.130036   1.000000
    4       -1.832389   1.000000
    5        3.551369   1.000000
    6        3.928906   1.000000
    7        4.358867   1.000000
    8        5.458954   1.000000
    9        5.625638   1.000000
   10        6.964864   1.000000
   11        8.736244   1.000000
   12        9.232179   1.000000
   13       12.276890   0.000000
   14       12.548423   0.000000
   15       12.764913   0.000000
   16       14.616643   0.000000

 -0.1538462E+00  0.7692308E-01  0.6955312E-18  0.1092399E-01
    1      -20.149680   1.000000
    2      -20.134628   1.000000
    3      -20.131593   1.000000
    4       -2.241127   1.000000
    5        3.849010   1.000000
    6        4.012755   1.000000
    7        4.454288   1.000000
    8        5.369425   1.000000
    9        5.527508   1.000000
   10        7.809324   1.000000
   11        8.854996   1.000000
   12        9.424617   1.000000
   13       12.315329   0.000000
   14       12.407292   0.000000
   15       12.750745   0.000000
   16       13.987664   0.000000

 -0.7692308E-01  0.7692308E-01  0.4882456E-18  0.5461994E-02
    1      -20.141374   1.000000
    2      -20.134783   1.000000
    3      -20.133094   1.000000
    4       -2.534668   1.000000
    5        4.112398   1.000000
    6        4.159161   1.000000
    7        4.463494   1.000000
    8        5.266704   1.000000
    9        5.377470   1.000000
   10        8.650525   1.000000
   11        9.144762   1.000000
   12        9.553945   1.000000
   13       12.134263   0.000000
   14       12.446930   0.000000
   15       12.998139   0.000000
   16       13.422800   0.000000

  0.1538462E+00  0.1538462E+00 -0.1849679E-17  0.2730997E-02
    1      -20.145240   1.000000
    2      -20.134729   1.000000
    3      -20.134729   1.000000
    4       -2.321227   1.000000
    5        3.532937   1.000000
    6        4.534450   1.000000
    7        4.534450   1.000000
    8        5.317346   1.000000
    9        5.391396   1.000000
   10        8.461187   1.000000
   11        8.941536   1.000000
   12        8.941536   1.000000
   13       11.616774   1.000000
   14       12.938810   0.000000
   15       12.989869   0.000000
   16       14.016335   0.000000

  0.2307692E+00  0.1538462E+00 -0.2240721E-17  0.1092399E-01
    1      -20.152435   1.000000
    2      -20.134422   1.000000
    3      -20.134237   1.000000
    4       -2.048070   1.000000
    5        3.278284   1.000000
    6        4.511463   1.000000
    7        4.545182   1.000000
    8        5.427595   1.000000
    9        5.433869   1.000000
   10        7.816203   1.000000
   11        8.751393   1.000000
   12        8.803441   1.000000
   13       11.665997   1.000000
   14       12.724038   0.000000
   15       12.997947   0.000000
   16       14.482290   0.000000

  0.3076923E+00  0.1538462E+00 -0.1276907E-16  0.1092399E-01
    1      -20.161670   1.000000
    2      -20.133733   1.000000
    3      -20.133429   1.000000
    4       -1.673906   1.000000
    5        3.095367   1.000000
    6        4.357126   1.000000
    7        4.494789   1.000000
    8        5.517106   1.000000
    9        5.522476   1.000000
   10        7.057507   1.000000
   11        8.647053   1.000000
   12        8.666866   1.000000
   13       11.818650   0.999983
   14       12.587542   0.000000
   15       13.172051   0.000000
   16       14.609175   0.000000

  0.3846154E+00  0.1538462E+00 -0.1391438E-16  0.1092399E-01
    1      -20.170189   1.000000
    2      -20.133924   1.000000
    3      -20.131962   1.000000
    4       -1.266627   1.000000
    5        2.983305   1.000000
    6        4.165340   1.000000
    7        4.414542   1.000000
    8        5.555157   1.000000
    9        5.580850   1.000000
   10        6.427373   1.000000
   11        8.501033   1.000000
   12        8.676584   1.000000
   13       11.832095   0.987494
   14       12.626860   0.000000
   15       13.509347   0.000000
   16       14.024028   0.000000

  0.4615385E+00  0.1538462E+00 -0.7706462E-17  0.1092399E-01
    1      -20.176052   1.000000
    2      -20.134824   1.000000
    3      -20.130366   1.000000
    4       -0.923926   1.000000
    5        2.927723   1.000000
    6        4.021468   1.000000
    7        4.298054   1.000000
    8        5.571738   1.000000
    9        5.588649   1.000000
   10        6.020967   1.000000
   11        8.403202   1.000000
   12        8.718044   1.000000
   13       11.841565   0.816474
   14       12.837854   0.000000
   15       13.043773   0.000000
   16       14.182313   0.000000

 -0.4615385E+00  0.1538462E+00 -0.1172302E-16  0.1092399E-01
    1      -20.178172   1.000000
    2      -20.136155   1.000000
    3      -20.129004   1.000000
    4       -0.757607   1.000000
    5        2.917059   1.000000
    6        3.995828   1.000000
    7        4.147693   1.000000
    8        5.537572   1.000000
    9        5.620987   1.000000
   10        5.888671   1.000000
   11        8.335125   1.000000
   12        8.752708   1.000000
   13       11.983069   0.000000
   14       12.550468   0.000000
   15       13.079563   0.000000
   16       14.460775   0.000000

 -0.3846154E+00  0.1538462E+00 -0.1974203E-16  0.1092399E-01
    1      -20.176300   1.000000
    2      -20.137487   1.000000
    3      -20.128185   1.000000
    4       -0.836812   1.000000
    5        2.965939   1.000000
    6        3.995715   1.000000
    7        4.107387   1.000000
    8        5.489204   1.000000
    9        5.694319   1.000000
   10        5.999992   1.000000
   11        8.251670   1.000000
   12        8.800234   1.000000
   13       12.129905   0.000000
   14       12.557631   0.000000
   15       13.121142   0.000000
   16       14.382140   0.000000

 -0.3076923E+00  0.1538462E+00 -0.9868021E-17  0.1092399E-01
    1      -20.170990   1.000000
    2      -20.138313   1.000000
    3      -20.128094   1.000000
    4       -1.129199   1.000000
    5        3.093718   1.000000
    6        3.883567   1.000000
    7        4.302664   1.000000
    8        5.461700   1.000000
    9        5.745304   1.000000
   10        6.329998   1.000000
   11        8.141761   1.000000
   12        8.905736   1.000000
   13       12.169900   0.000000
   14       12.940509   0.000000
   15       13.114034   0.000000
   16       14.158278   0.000000

 -0.2307692E+00  0.1538462E+00 -0.3660107E-17  0.1092399E-01
    1      -20.163562   1.000000
    2      -20.138185   1.000000
    3      -20.128749   1.000000
    4       -1.528548   1.000000
    5        3.296852   1.000000
    6        3.841778   1.000000
    7        4.490120   1.000000
    8        5.425720   1.000000
    9        5.733872   1.000000
   10        6.851488   1.000000
   11        8.081728   1.000000
   12        9.087529   1.000000
   13       12.362075   0.000000
   14       12.679184   0.000000
   15       13.314952   0.000000
   16       14.144607   0.000000

 -0.1538462E+00  0.1538462E+00  0.1262910E-16  0.5461994E-02
    1      -20.155887   1.000000
    2      -20.136838   1.000000
    3      -20.130013   1.000000
    4       -1.925788   1.000000
    5        3.557363   1.000000
    6        3.885201   1.000000
    7        4.568943   1.000000
    8        5.377941   1.000000
    9        5.653486   1.000000
   10        7.420515   1.000000
   11        8.267009   1.000000
   12        9.297587   1.000000
   13       12.461697   0.000000
   14       12.614336   0.000000
   15       12.923049   0.000000
   16       13.881553   0.000000

  0.2307692E+00  0.2307692E+00 -0.2774518E-17  0.2730997E-02
    1      -20.156562   1.000000
    2      -20.134925   1.000000
    3      -20.134925   1.000000
    4       -1.849555   1.000000
    5        3.020259   1.000000
    6        4.675509   1.000000
    7        4.675509   1.000000
    8        5.322282   1.000000
    9        5.499266   1.000000
   10        7.756616   1.000000
   11        8.528957   1.000000
   12        8.528957   1.000000
   13       11.366017   1.000000
   14       12.548186   0.000000
   15       13.227945   0.000000
   16       14.644909   0.000000

  0.3076923E+00  0.2307692E+00 -0.8440166E-17  0.1092399E-01
    1      -20.163496   1.000000
    2      -20.135128   1.000000
    3      -20.134631   1.000000
    4       -1.556393   1.000000
    5        2.870019   1.000000
    6        4.625590   1.000000
    7        4.700148   1.000000
    8        5.334937   1.000000
    9        5.598770   1.000000
   10        7.268286   1.000000
   11        8.358838   1.000000
   12        8.416923   1.000000
   13       11.405152   1.000000
   14       12.367608   0.000000
   15       13.409156   0.000000
   16       14.637073   0.000000

  0.3846154E+00  0.2307692E+00 -0.1492057E-16  0.1092399E-01
    1      -20.170003   1.000000
    2      -20.136379   1.000000
    3      -20.133624   1.000000
    4       -1.228388   1.000000
    5        2.847727   1.000000
    6        4.416839   1.000000
    7        4.644066   1.000000
    8        5.460917   1.000000
    9        5.655994   1.000000
   10        6.688900   1.000000
   11        8.147055   1.000000
   12        8.419401   1.000000
   13       11.507759   1.000000
   14       12.349252   0.000000
   15       13.808958   0.000000
   16       14.075381   0.000000

  0.4615385E+00  0.2307692E+00 -0.1192026E-16  0.1092399E-01
    1      -20.174033   1.000000
    2      -20.138983   1.000000
    3      -20.132132   1.000000
    4       -0.941664   1.000000
    5        2.949779   1.000000
    6        4.188656   1.000000
    7        4.512922   1.000000
    8        5.554474   1.000000
    9        5.691296   1.000000
   10        6.234709   1.000000
   11        7.942825   1.000000
   12        8.465891   1.000000
   13       11.549626   1.000000
   14       12.574733   0.000000
   15       13.323008   0.000000
   16       14.303828   0.000000

 -0.4615385E+00  0.2307692E+00  0.4705298E-17  0.1092399E-01
    1      -20.174804   1.000000
    2      -20.142310   1.000000
    3      -20.130499   1.000000
    4       -0.768268   1.000000
    5        3.113202   1.000000
    6        4.007703   1.000000
    7        4.322540   1.000000
    8        5.497355   1.000000
    9        5.745977   1.000000
   10        6.106715   1.000000
   11        7.779435   1.000000
   12        8.502976   1.000000
   13       11.654325   1.000000
   14       12.759773   0.000000
   15       12.981906   0.000000
   16       14.386600   0.000000

 -0.3846154E+00  0.2307692E+00 -0.3313706E-17  0.1092399E-01
    1      -20.172724   1.000000
    2      -20.145150   1.000000
    3      -20.129077   1.000000
    4       -0.754067   1.000000
    5        3.182593   1.000000
    6        3.985479   1.000000
    7        4.118150   1.000000
    8        5.436584   1.000000
    9        5.809682   1.000000
   10        6.230932   1.000000
   11        7.646225   1.000000
   12        8.552780   1.000000
   13       11.889025   0.000000
   14       12.512703   0.000000
   15       13.250539   0.000000
   16       14.241133   0.000000

 -0.3076923E+00  0.2307692E+00 -0.7666616E-17  0.1092399E-01
    1      -20.169317   1.000000
    2      -20.145787   1.000000
    3      -20.128204   1.000000
    4       -0.907963   1.000000
    5        3.133129   1.000000
    6        3.948908   1.000000
    7        4.164424   1.000000
    8        5.450538   1.000000
    9        5.841551   1.000000
   10        6.482595   1.000000
   11        7.542563   1.000000
   12        8.667527   1.000000
   13       12.066853   0.000000
   14       12.835271   0.000000
   15       13.159833   0.000000
   16       14.134341   0.000000

 -0.2307692E+00  0.2307692E+00  0.1346647E-16  0.5461994E-02
    1      -20.166269   1.000000
    2      -20.143062   1.000000
    3      -20.128083   1.000000
    4       -1.192210   1.000000
    5        3.147903   1.000000
    6        3.850209   1.000000
    7        4.384915   1.000000
    8        5.449348   1.000000
    9        5.814415   1.000000
   10        6.743685   1.000000
   11        7.617257   1.000000
   12        8.863346   1.000000
   13       12.215972   0.000000
   14       12.918332   0.000000
   15       13.516282   0.000000
   16       14.170954   0.000000

  0.3076923E+00  0.3076923E+00 -0.3699358E-17  0.2730997E-02
    1      -20.168854   1.000000
    2      -20.135133   1.000000
    3      -20.135133   1.000000
    4       -1.359601   1.000000
    5        2.763200   1.000000
    6        4.813628   1.000000
    7        4.813628   1.000000
    8        5.130373   1.000000
    9        5.712312   1.000000
   10        7.089453   1.000000
   11        8.259337   1.000000
   12        8.259337   1.000000
   13       11.170284   1.000000
   14       12.119009   0.000000
   15       13.547336   0.000000
   16       14.560538   0.000000

  0.3846154E+00  0.3076923E+00  0.2522656E-17  0.1092399E-01
    1      -20.174165   1.000000
    2      -20.136022   1.000000
    3      -20.134835   1.000000
    4       -1.132885   1.000000
    5        2.805379   1.000000
    6        4.668813   1.000000
    7        4.823160   1.000000
    8        5.227550   1.000000
    9        5.794355   1.000000
   10        6.667636   1.000000
   11        8.085648   1.000000
   12        8.225796   1.000000
   13       11.185253   1.000000
   14       12.005980   0.000000
   15       13.811084   0.000000
   16       14.174811   0.000000

  0.4615385E+00  0.3076923E+00 -0.6751017E-17  0.1092399E-01
    1      -20.176777   1.000000
    2      -20.139013   1.000000
    3      -20.133788   1.000000
    4       -0.930102   1.000000
    5        2.990607   1.000000
    6        4.418021   1.000000
    7        4.727166   1.000000
    8        5.420696   1.000000
    9        5.837796   1.000000
   10        6.244778   1.000000
   11        7.782614   1.000000
   12        8.257305   1.000000
   13       11.259374   1.000000
   14       12.169271   0.000000
   15       13.526299   0.000000
   16       14.141667   0.000000

 -0.4615385E+00  0.3076923E+00 -0.5050640E-17  0.1092399E-01
    1      -20.175695   1.000000
    2      -20.143898   1.000000
    3      -20.132251   1.000000
    4       -0.790163   1.000000
    5        3.256063   1.000000
    6        4.182485   1.000000
    7        4.540214   1.000000
    8        5.404851   1.000000
    9        5.878854   1.000000
   10        6.156804   1.000000
   11        7.454843   1.000000
   12        8.287235   1.000000
   13       11.357941   1.000000
   14       12.650756   0.000000
   15       12.994542   0.000000
   16       13.947846   0.000000

 -0.3846154E+00  0.3076923E+00  0.2553793E-17  0.1092399E-01
    1      -20.171648   1.000000
    2      -20.149179   1.000000
    3      -20.130568   1.000000
    4       -0.732262   1.000000
    5        3.464225   1.000000
    6        3.943778   1.000000
    7        4.312228   1.000000
    8        5.316572   1.000000
    9        5.911648   1.000000
   10        6.422834   1.000000
   11        7.168345   1.000000
   12        8.335518   1.000000
   13       11.557450   1.000000
   14       12.642688   0.000000
   15       13.288276   0.000000
   16       13.870128   0.000000

 -0.3076923E+00  0.3076923E+00  0.2525820E-16  0.5461994E-02
    1      -20.168256   1.000000
    2      -20.150968   1.000000
    3      -20.129101   1.000000
    4       -0.768926   1.000000
    5        3.343255   1.000000
    6        3.967560   1.000000
    7        4.100707   1.000000
    8        5.375616   1.000000
    9        5.903236   1.000000
   10        6.643691   1.000000
   11        7.098319   1.000000
   12        8.458607   1.000000
   13       11.843401   0.739654
   14       12.578380   0.000000
   15       13.363496   0.000000
   16       13.917338   0.000000

  0.3846154E+00  0.3846154E+00 -0.4624197E-17  0.2730997E-02
    1      -20.179264   1.000000
    2      -20.135315   1.000000
    3      -20.135315   1.000000
    4       -1.013258   1.000000
    5        2.896897   1.000000
    6        4.912080   1.000000
    7        4.912080   1.000000
    8        4.951658   1.000000
    9        5.908928   1.000000
   10        6.341000   1.000000
   11        8.146692   1.000000
   12        8.146692   1.000000
   13       11.024147   1.000000
   14       11.747359   1.000000
   15       13.748418   0.000000
   16       14.060726   0.000000

  0.4615385E+00  0.3846154E+00 -0.6437534E-18  0.1092399E-01
    1      -20.181907   1.000000
    2      -20.136647   1.000000
    3      -20.134976   1.000000
    4       -0.901261   1.000000
    5        3.101601   1.000000
    6        4.670695   1.000000
    7        4.889870   1.000000
    8        5.195296   1.000000
    9        5.945801   1.000000
   10        5.964478   1.000000
   11        7.984795   1.000000
   12        8.149313   1.000000
   13       11.037770   1.000000
   14       11.749700   1.000000
   15       13.612820   0.000000
   16       13.853182   0.000000

 -0.4615385E+00  0.3846154E+00  0.1277420E-16  0.1092399E-01
    1      -20.180642   1.000000
    2      -20.140585   1.000000
    3      -20.133892   1.000000
    4       -0.814218   1.000000
    5        3.332781   1.000000
    6        4.467806   1.000000
    7        4.753994   1.000000
    8        5.284881   1.000000
    9        5.831562   1.000000
   10        5.983403   1.000000
   11        7.627069   1.000000
   12        8.164766   1.000000
   13       11.130044   1.000000
   14       12.109508   0.000000
   15       13.224490   0.000000
   16       13.707501   0.000000

 -0.3846154E+00  0.3846154E+00 -0.9471720E-17  0.5461994E-02
    1      -20.176045   1.000000
    2      -20.145997   1.000000
    3      -20.132307   1.000000
    4       -0.756592   1.000000
    5        3.488875   1.000000
    6        4.201767   1.000000
    7        4.541613   1.000000
    8        5.218710   1.000000
    9        5.971443   1.000000
   10        6.172043   1.000000
   11        7.252443   1.000000
   12        8.207642   1.000000
   13       11.296010   1.000000
   14       12.762482   0.000000
   15       12.876986   0.000000
   16       13.621448   0.000000

  0.4615385E+00  0.4615385E+00 -0.5549036E-17  0.2730997E-02
    1      -20.185235   1.000000
    2      -20.135426   1.000000
    3      -20.135426   1.000000
    4       -0.868615   1.000000
    5        3.252322   1.000000
    6        4.945933   1.000000
    7        4.958492   1.000000
    8        4.958492   1.000000
    9        5.595687   1.000000
   10        6.030122   1.000000
   11        8.129220   1.000000
   12        8.129220   1.000000
   13       10.945201   1.000000
   14       11.528932   1.000000
   15       13.589519   0.000000
   16       13.700118   0.000000

 -0.4615385E+00  0.4615385E+00 -0.2403905E-16  0.5461994E-02
    1      -20.184748   1.000000
    2      -20.136886   1.000000
    3      -20.135047   1.000000
    4       -0.839543   1.000000
    5        3.345307   1.000000
    6        4.738058   1.000000
    7        4.908948   1.000000
    8        5.194075   1.000000
    9        5.483281   1.000000
   10        6.034378   1.000000
   11        7.969069   1.000000
   12        8.132247   1.000000
   13       10.987175   1.000000
   14       11.659863   1.000000
   15       13.441526   0.000000
   16       13.650541   0.000000

  0.2307692E+00  0.1538462E+00  0.7692308E-01  0.1092399E-01
    1      -20.149032   1.000000
    2      -20.135292   1.000000
    3      -20.132470   1.000000
    4       -2.217228   1.000000
    5        3.573787   1.000000
    6        4.262508   1.000000
    7        4.547956   1.000000
    8        5.349373   1.000000
    9        5.499436   1.000000
   10        7.986458   1.000000
   11        8.694673   1.000000
   12        9.258790   1.000000
   13       11.980934   0.000000
   14       12.710769   0.000000
   15       12.867903   0.000000
   16       13.922444   0.000000

  0.3076923E+00  0.1538462E+00  0.7692308E-01  0.2184797E-01
    1      -20.157692   1.000000
    2      -20.135706   1.000000
    3      -20.130967   1.000000
    4       -1.859704   1.000000
    5        3.344588   1.000000
    6        4.119979   1.000000
    7        4.531873   1.000000
    8        5.419821   1.000000