       N       E                     dE             d eps       ncg     rms          rms(c)
DAV:   1     0.152170866017E+03    0.15217E+03   -0.14765E+04  2696   0.179E+03
DAV:   2    -0.189165223554E+02   -0.17109E+03   -0.16956E+03  3424   0.356E+02
DAV:   3    -0.234034798613E+02   -0.44870E+01   -0.44588E+01  3440   0.531E+01
DAV:   4    -0.234638080942E+02   -0.60328E-01   -0.59903E-01  3488   0.625E+00
DAV:   5    -0.234651878445E+02   -0.13798E-02   -0.12908E-02  3496   0.818E-01    0.591E+01
DAV:   6    -0.229498446843E+02    0.51534E+00   -0.10874E+00  3280   0.878E+00    0.346E+01
DAV:   7    -0.228035481950E+02    0.14630E+00   -0.69000E-01  3536   0.502E+00    0.441E+00
DAV:   8    -0.227742438219E+02    0.29304E-01   -0.22841E-01  3264   0.338E+00    0.104E+00
DAV:   9    -0.227724215877E+02    0.18222E-02   -0.21802E-02  3368   0.120E+00    0.625E-01
DAV:  10    -0.227722959950E+02    0.12559E-03   -0.94598E-04  3344   0.211E-01    0.176E-01
DAV:  11    -0.227723025551E+02   -0.65601E-05   -0.57439E-05  3448   0.502E-02    0.804E-02
DAV:  12    -0.227723033257E+02   -0.77057E-06   -0.12081E-05  3552   0.222E-02    0.113E-02
DAV:  13    -0.227723028853E+02    0.44044E-06   -0.60357E-07  3304   0.640E-03    0.363E-03
DAV:  14    -0.227723027567E+02    0.12854E-06   -0.10645E-07  2560   0.260E-03    0.462E-04
DAV:  15    -0.227723027891E+02   -0.32364E-07   -0.16034E-08  1896   0.926E-04
   1 F= -.22772303E+02 E0= -.22772212E+02  d E =-.182529E-03
