 vasp.6.0.8 29Jun18 (build Jun 13 2019 12:54:44) complex

 executed on      IFC18_CrayMPICH date 2021.12.05  14:21:51
 running   64 mpi-ranks, with    1 threads/rank
 distrk:  each k-point on   16 cores,    4 groups
 distr:  one band on NCORES_PER_BAND=   4 cores,    4 groups


--------------------------------------------------------------------------------------------------------


 INCAR:
 POTCAR:    PAW_PBE Hf_pv 06Sep2000
 POTCAR:    PAW_PBE Sb 06Sep2000
 POTCAR:    PAW_PBE Pt 04Feb2005
 POTCAR:    PAW_PBE Hf_pv 06Sep2000
   VRHFIN =Hf: 5p6s5d
   LEXCH  = PE
   EATOM  =   860.9206 eV,   63.2759 Ry

   TITEL  = PAW_PBE Hf_pv 06Sep2000
   LULTRA =        F    use ultrasoft PP ?
   IUNSCR =        1    unscreen: 0-lin 1-nonlin 2-no
   RPACOR =    2.500    partial core radius
   POMASS =  178.490; ZVAL   =   10.000    mass and valenz
   RCORE  =    2.600    outmost cutoff radius
   RWIGS  =    3.050; RWIGS  =    1.614    wigner-seitz radius (au A)
   ENMAX  =  220.334; ENMIN  =  165.250 eV
   RCLOC  =    2.212    cutoff for local pot
   LCOR   =        T    correct aug charges
   LPAW   =        T    paw PP
   EAUG   =  380.878
   DEXC   =    0.000
   RMAX   =    2.665    core radius for proj-oper
   RAUG   =    1.300    factor for augmentation sphere
   RDEP   =    2.681    radius for radial grids
   RDEPT  =    2.139    core radius for aug-charge

   Atomic configuration
   15 entries
     n  l   j            E        occ.
     1  0  0.50    -65259.4397   2.0000
     2  0  0.50    -11157.9884   2.0000
     2  1  1.50     -9795.2114   6.0000
     3  0  0.50     -2541.4060   2.0000
     3  1  1.50     -2134.4772   6.0000
     3  2  2.50     -1653.5420  10.0000
     4  0  0.50      -510.9577   2.0000
     4  1  1.50      -377.5024   6.0000
     4  2  2.50      -205.2086  10.0000
     4  3  3.50       -15.4906  14.0000
     5  0  0.50       -65.6020   2.0000
     5  1  1.50       -34.2798   6.0000
     5  2  2.50        -1.9877   3.0000
     6  0  0.50        -4.7357   1.0000
     5  3  2.50        -1.3606   0.0000
   Description
     l       E           TYP  RCUT    TYP  RCUT
     1    -34.2797769     23  2.500
     1    -35.6403595     23  2.500
     2     -1.9876655     23  2.500
     2      0.0744675     23  2.500
     0     -4.7356889     23  2.600
     0      3.2364748     23  2.600
  local pseudopotential read in
  partial core-charges read in
  partial kinetic energy density read in
  atomic valenz-charges read in
  non local Contribution for L=           1  read in
    real space projection operators read in
  non local Contribution for L=           1  read in
    real space projection operators read in
  non local Contribution for L=           2  read in
    real space projection operators read in
  non local Contribution for L=           2  read in
    real space projection operators read in
  non local Contribution for L=           0  read in
    real space projection operators read in
  non local Contribution for L=           0  read in
    real space projection operators read in
    PAW grid and wavefunctions read in

   number of l-projection  operators is LMAX  =           6
   number of lm-projection operators is LMMAX =          18

 POTCAR:    PAW_PBE Sb 06Sep2000
   VRHFIN =Sb: s2p3
   LEXCH  = PE
   EATOM  =   149.9515 eV,   11.0211 Ry

   TITEL  = PAW_PBE Sb 06Sep2000
   LULTRA =        F    use ultrasoft PP ?
   IUNSCR =        1    unscreen: 0-lin 1-nonlin 2-no
   RPACOR =    2.200    partial core radius
   POMASS =  121.750; ZVAL   =    5.000    mass and valenz
   RCORE  =    2.300    outmost cutoff radius
   RWIGS  =    2.980; RWIGS  =    1.577    wigner-seitz radius (au A)
   ENMAX  =  172.069; ENMIN  =  129.052 eV
   ICORE  =        3    local potential
   LCOR   =        T    correct aug charges
   LPAW   =        T    paw PP
   EAUG   =  380.513
   DEXC   =    0.000
   RMAX   =    2.346    core radius for proj-oper
   RAUG   =    1.300    factor for augmentation sphere
   RDEP   =    2.360    radius for radial grids
   RDEPT  =    2.192    core radius for aug-charge

   Atomic configuration
   13 entries
     n  l   j            E        occ.
     1  0  0.50    -30298.2797   2.0000
     2  0  0.50     -4610.2252   2.0000
     2  1  1.50     -4138.3407   6.0000
     3  0  0.50      -903.8815   2.0000
     3  1  1.50      -750.1337   6.0000
     3  2  2.50      -515.7092  10.0000
     4  0  0.50      -148.8034   2.0000
     4  1  1.50      -101.7581   6.0000
     4  2  2.50       -33.5048  10.0000
     5  0  0.50       -12.8298   2.0000
     5  1  0.50        -4.8276   3.0000
     5  2  1.50        -4.0817   0.0000
     4  3  2.50        -4.0817   0.0000
   Description
     l       E           TYP  RCUT    TYP  RCUT
     0    -12.8297861     23  2.300
     0     13.6058260     23  2.300
     1     -4.8275512     23  2.300
     1     -0.7245443     23  2.300
     2     -4.0817478     23  2.300
     3     -1.3605826     23  2.300
  local pseudopotential read in
  partial core-charges read in
  partial kinetic energy density read in
  atomic valenz-charges read in
  non local Contribution for L=           0  read in
    real space projection operators read in
  non local Contribution for L=           0  read in
    real space projection operators read in
  non local Contribution for L=           1  read in
    real space projection operators read in
  non local Contribution for L=           1  read in
    real space projection operators read in
  non local Contribution for L=           2  read in
    real space projection operators read in
    PAW grid and wavefunctions read in

   number of l-projection  operators is LMAX  =           5
   number of lm-projection operators is LMMAX =          13

 POTCAR:    PAW_PBE Pt 04Feb2005
   VRHFIN =Pt: s1d9
   LEXCH  = PE
   EATOM  =   729.1176 eV,   53.5886 Ry

   TITEL  = PAW_PBE Pt 04Feb2005
   LULTRA =        F    use ultrasoft PP ?
   IUNSCR =        1    unscreen: 0-lin 1-nonlin 2-no
   RPACOR =    2.330    partial core radius
   POMASS =  195.080; ZVAL   =   10.000    mass and valenz
   RCORE  =    2.600    outmost cutoff radius
   RWIGS  =    2.750; RWIGS  =    1.455    wigner-seitz radius (au A)
   ENMAX  =  230.283; ENMIN  =  172.712 eV
   ICORE  =        3    local potential
   LCOR   =        T    correct aug charges
   LPAW   =        T    paw PP
   EAUG   =  358.966
   DEXC   =    0.000
   RMAX   =    2.658    core radius for proj-oper
   RAUG   =    1.300    factor for augmentation sphere
   RDEP   =    2.761    radius for radial grids
   RDEPT  =    2.203    core radius for aug-charge

   Atomic configuration
   16 entries
     n  l   j            E        occ.
     1  0  0.50    -78401.1885   2.0000
     2  0  0.50    -13770.7750   2.0000
     2  1  1.50    -11931.0468   6.0000
     3  0  0.50     -3234.7234   2.0000
     3  1  1.50     -2699.2216   6.0000
     3  2  2.50     -2119.5714  10.0000
     4  0  0.50      -695.1528   2.0000
     4  1  1.50      -519.6034   6.0000
     4  2  2.50      -306.6786  10.0000
     4  3  3.50       -70.1041  14.0000
     5  0  0.50      -101.7747   2.0000
     5  1  1.50       -55.9873   6.0000
     5  2  2.50        -6.1423   9.0000
     6  0  0.50        -5.6573   1.0000
     6  1  1.50        -6.8029   0.0000
     5  3  2.50        -1.3606   0.0000
   Description
     l       E           TYP  RCUT    TYP  RCUT
     2     -6.1423404     23  2.500
     2     -7.5029230     23  2.500
     0     -5.6573207     23  2.500
     0      0.7416693     23  2.500
     1     -2.7211652     23  2.600
     1     20.4087390     23  2.600
     3     -1.3605826     23  2.500
  local pseudopotential read in
  partial core-charges read in
  partial kinetic energy density read in
  atomic valenz-charges read in
  non local Contribution for L=           2  read in
    real space projection operators read in
  non local Contribution for L=           2  read in
    real space projection operators read in
  non local Contribution for L=           0  read in
    real space projection operators read in
  non local Contribution for L=           0  read in
    real space projection operators read in
  non local Contribution for L=           1  read in
    real space projection operators read in
  non local Contribution for L=           1  read in
    real space projection operators read in
    PAW grid and wavefunctions read in

   number of l-projection  operators is LMAX  =           6
   number of lm-projection operators is LMMAX =          18


 -----------------------------------------------------------------------------
|                                                                             |
|  ADVICE TO THIS USER RUNNING 'VASP/VAMP'   (HEAR YOUR MASTER'S VOICE ...):  |
|                                                                             |
|      You enforced a specific xc-type in the INCAR file,                     |
|      a different type was found on the POTCAR file                          |
|          I HOPE YOU KNOW, WHAT YOU ARE  DOING                               |
|                                                                             |
 -----------------------------------------------------------------------------

  PAW_PBE Hf_pv 06Sep2000               :
 energy of atom  1       EATOM= -860.9206
 kinetic energy error for atom=    0.0004 (will be added to EATOM!!)
  PAW_PBE Sb 06Sep2000                  :
 energy of atom  2       EATOM= -149.9515
 kinetic energy error for atom=    0.0002 (will be added to EATOM!!)
  PAW_PBE Pt 04Feb2005                  :
 energy of atom  3       EATOM= -729.1176
 kinetic energy error for atom=    0.0010 (will be added to EATOM!!)


 POSCAR: Hf1 Sb1 Pt1
  positions in direct lattice
  No initial velocities read in
 exchange correlation table for  LEXCH =       14
   RHO(1)=    0.500       N(1)  =     2000
   RHO(2)=  100.500       N(2)  =     4000



--------------------------------------------------------------------------------------------------------


 ion  position               nearest neighbor table
   1  0.750  0.750  0.750-   3 2.58   3 2.58   3 2.58   3 2.58   2 2.97   2 2.97   2 2.97   2 2.97
                             2 2.97   2 2.97
   2  0.250  0.250  0.250-   3 2.58   3 2.58   3 2.58   3 2.58   1 2.97   1 2.97   1 2.97   1 2.97
                             1 2.97   1 2.97
   3  0.000  0.000  0.000-   1 2.58   1 2.58   2 2.58   2 2.58   2 2.58   2 2.58   1 2.58   1 2.58


  LATTYP: Found a face centered cubic cell.
 ALAT       =     5.9496851141

  Lattice vectors:

 A1 = (   0.0000000000,   2.9748425570,   2.9748425570)
 A2 = (   2.9748425570,   0.0000000000,   2.9748425570)
 A3 = (   2.9748425570,   2.9748425570,   0.0000000000)


Analysis of symmetry for initial positions (statically):
=====================================================================
 Subroutine PRICEL returns:
 Original cell was already a primitive cell.


 Routine SETGRP: Setting up the symmetry group for a
 face centered cubic supercell.


 Subroutine GETGRP returns: Found 24 space group operations
 (whereof 24 operations were pure point group operations)
 out of a pool of 48 trial point group operations.


The static configuration has the point symmetry T_d .


Analysis of symmetry for dynamics (positions and initial velocities):
=====================================================================
 Subroutine PRICEL returns:
 Original cell was already a primitive cell.


 Routine SETGRP: Setting up the symmetry group for a
 face centered cubic supercell.


 Subroutine GETGRP returns: Found 24 space group operations
 (whereof 24 operations were pure point group operations)
 out of a pool of 48 trial point group operations.


The dynamic configuration has the point symmetry T_d .


 Subroutine INISYM returns: Found 24 space group operations
 (whereof 24 operations are pure point group operations),
 and found     1 'primitive' translations


----------------------------------------------------------------------------------------

                                     Primitive cell

  volume of cell :      52.6529

  direct lattice vectors                    reciprocal lattice vectors
     0.000000000  2.974842557  2.974842557    -0.168076122  0.168076122  0.168076122
     2.974842557  0.000000000  2.974842557     0.168076122 -0.168076122  0.168076122
     2.974842557  2.974842557  0.000000000     0.168076122  0.168076122 -0.168076122

  length of vectors
     4.207062690  4.207062690  4.207062690     0.291116383  0.291116383  0.291116383

  position of ions in fractional coordinates (direct lattice)
     0.750000000  0.750000000  0.750000000
     0.250000000  0.250000000  0.250000000
     0.000000000  0.000000000  0.000000000

  ion indices of the primitive-cell ions
   primitive index   ion index
                 1           1
                 2           2
                 3           3

----------------------------------------------------------------------------------------



 KPOINTS: KPOINTS

Automatic generation of k-mesh.
Space group operators:
 irot       det(A)        alpha          n_x          n_y          n_z        tau_x        tau_y        tau_z
    1     1.000000     0.000000     1.000000     0.000000     0.000000     0.000000     0.000000     0.000000
    2     1.000000   120.000000    -0.577350    -0.577350    -0.577350     0.000000     0.000000     0.000000
    3     1.000000   120.000000     0.577350     0.577350     0.577350     0.000000     0.000000     0.000000
    4    -1.000000    90.000000     0.000000     0.000000    -1.000000     0.000000     0.000000     0.000000
    5    -1.000000   180.000000     0.000000     0.707107     0.707107     0.000000     0.000000     0.000000
    6    -1.000000    90.000000     0.000000     1.000000    -0.000000     0.000000     0.000000     0.000000
    7     1.000000   180.000000    -0.000000     0.000000    -1.000000     0.000000     0.000000     0.000000
    8     1.000000   120.000000    -0.577350     0.577350     0.577350     0.000000     0.000000     0.000000
    9     1.000000   120.000000    -0.577350     0.577350    -0.577350     0.000000     0.000000     0.000000
   10    -1.000000    90.000000     0.000000     0.000000     1.000000     0.000000     0.000000     0.000000
   11    -1.000000    90.000000    -1.000000    -0.000000     0.000000     0.000000     0.000000     0.000000
   12    -1.000000   180.000000     0.707107     0.000000     0.707107     0.000000     0.000000     0.000000
   13     1.000000   120.000000     0.577350    -0.577350     0.577350     0.000000     0.000000     0.000000
   14     1.000000   120.000000    -0.577350    -0.577350     0.577350     0.000000     0.000000     0.000000
   15     1.000000   180.000000     1.000000     0.000000     0.000000     0.000000     0.000000     0.000000
   16    -1.000000    90.000000     0.000000    -1.000000     0.000000     0.000000     0.000000     0.000000
   17    -1.000000   180.000000     0.707107     0.707107     0.000000     0.000000     0.000000     0.000000
   18    -1.000000    90.000000     1.000000     0.000000    -0.000000     0.000000     0.000000     0.000000
   19     1.000000   120.000000     0.577350    -0.577350    -0.577350     0.000000     0.000000     0.000000
   20     1.000000   180.000000     0.000000    -1.000000    -0.000000     0.000000     0.000000     0.000000
   21     1.000000   120.000000     0.577350     0.577350    -0.577350     0.000000     0.000000     0.000000
   22    -1.000000   180.000000    -0.000000    -0.707107     0.707107     0.000000     0.000000     0.000000
   23    -1.000000   180.000000     0.707107    -0.707107    -0.000000     0.000000     0.000000     0.000000
   24    -1.000000   180.000000     0.707107     0.000000    -0.707107     0.000000     0.000000     0.000000

 Subroutine IBZKPT returns following result:
 ===========================================

 Found     84 irreducible k-points:

 Following reciprocal coordinates:
            Coordinates               Weight
  0.000000  0.000000  0.000000      1.000000
  0.076923  0.000000 -0.000000      8.000000
  0.153846  0.000000 -0.000000      8.000000
  0.230769  0.000000 -0.000000      8.000000
  0.307692  0.000000 -0.000000      8.000000
  0.384615 -0.000000 -0.000000      8.000000
  0.461538  0.000000  0.000000      8.000000
  0.076923  0.076923 -0.000000      6.000000
  0.153846  0.076923 -0.000000     24.000000
  0.230769  0.076923 -0.000000     24.000000
  0.307692  0.076923 -0.000000     24.000000
  0.384615  0.076923 -0.000000     24.000000
  0.461538  0.076923 -0.000000     24.000000
 -0.461538  0.076923 -0.000000     24.000000
 -0.384615  0.076923  0.000000     24.000000
 -0.307692  0.076923 -0.000000     24.000000
 -0.230769  0.076923 -0.000000     24.000000
 -0.153846  0.076923  0.000000     24.000000
 -0.076923  0.076923  0.000000     12.000000
  0.153846  0.153846 -0.000000      6.000000
  0.230769  0.153846 -0.000000     24.000000
  0.307692  0.153846 -0.000000     24.000000
  0.384615  0.153846 -0.000000     24.000000
  0.461538  0.153846 -0.000000     24.000000
 -0.461538  0.153846 -0.000000     24.000000
 -0.384615  0.153846 -0.000000     24.000000
 -0.307692  0.153846 -0.000000     24.000000
 -0.230769  0.153846 -0.000000     24.000000
 -0.153846  0.153846  0.000000     12.000000
  0.230769  0.230769 -0.000000      6.000000
  0.307692  0.230769 -0.000000     24.000000
  0.384615  0.230769 -0.000000     24.000000
  0.461538  0.230769 -0.000000     24.000000
 -0.461538  0.230769  0.000000     24.000000
 -0.384615  0.230769 -0.000000     24.000000
 -0.307692  0.230769 -0.000000     24.000000
 -0.230769  0.230769  0.000000     12.000000
  0.307692  0.307692 -0.000000      6.000000
  0.384615  0.307692  0.000000     24.000000
  0.461538  0.307692 -0.000000     24.000000
 -0.461538  0.307692 -0.000000     24.000000
 -0.384615  0.307692  0.000000     24.000000
 -0.307692  0.307692  0.000000     12.000000
  0.384615  0.384615 -0.000000      6.000000
  0.461538  0.384615 -0.000000     24.000000
 -0.461538  0.384615  0.000000     24.000000
 -0.384615  0.384615 -0.000000     12.000000
  0.461538  0.461538 -0.000000      6.000000
 -0.461538  0.461538 -0.000000     12.000000
  0.230769  0.153846  0.076923     24.000000
  0.307692  0.153846  0.076923     48.000000
  0.384615  0.153846  0.076923     48.000000
  0.461538  0.153846  0.076923     48.000000
 -0.461538  0.153846  0.076923     48.000000
  0.307692  0.230769  0.076923     24.000000
  0.384615  0.230769  0.076923     48.000000
  0.461538  0.230769  0.076923     48.000000
 -0.461538  0.230769  0.076923     48.000000
 -0.384615  0.230769  0.076923     48.000000
 -0.307692  0.230769  0.076923     48.000000
 -0.230769  0.230769  0.076923     48.000000
 -0.153846  0.230769  0.076923     24.000000
  0.384615  0.307692  0.076923     24.000000
  0.461538  0.307692  0.076923     48.000000
 -0.461538  0.307692  0.076923     48.000000
 -0.384615  0.307692  0.076923     48.000000
 -0.307692  0.307692  0.076923     48.000000
 -0.230769  0.307692  0.076923     24.000000
  0.461538  0.384615  0.076923     24.000000
 -0.461538  0.384615  0.076923     48.000000
 -0.384615  0.384615  0.076923     48.000000
 -0.307692  0.384615  0.076923     24.000000
 -0.461538  0.461538  0.076923     24.000000
 -0.384615  0.461538  0.076923     24.000000
  0.461538  0.307692  0.153846     24.000000
 -0.461538  0.307692  0.153846     48.000000
 -0.384615  0.307692  0.153846     48.000000
 -0.461538  0.384615  0.153846     24.000000
 -0.384615  0.384615  0.153846     48.000000
 -0.307692  0.384615  0.153846     48.000000
 -0.230769  0.384615  0.153846     24.000000
 -0.384615  0.461538  0.153846     24.000000
 -0.307692  0.461538  0.153846     24.000000
 -0.307692  0.461538  0.230769     24.000000

 Following cartesian coordinates:
            Coordinates               Weight
  0.000000  0.000000  0.000000      1.000000
 -0.012101  0.012101  0.012101      8.000000
 -0.024203  0.024203  0.024203      8.000000
 -0.036304  0.036304  0.036304      8.000000
 -0.048405  0.048405  0.048405      8.000000
 -0.060507  0.060507  0.060507      8.000000
 -0.072608  0.072608  0.072608      8.000000
  0.000000 -0.000000  0.024203      6.000000
 -0.012101  0.012101  0.036304     24.000000
 -0.024203  0.024203  0.048405     24.000000
 -0.036304  0.036304  0.060507     24.000000
 -0.048405  0.048405  0.072608     24.000000
 -0.060507  0.060507  0.084709     24.000000
  0.084709 -0.084709 -0.060507     24.000000
  0.072608 -0.072608 -0.048405     24.000000
  0.060507 -0.060507 -0.036304     24.000000
  0.048405 -0.048405 -0.024203     24.000000
  0.036304 -0.036304 -0.012101     24.000000
  0.024203 -0.024203  0.000000     12.000000
  0.000000 -0.000000  0.048405      6.000000
 -0.012101  0.012101  0.060507     24.000000
 -0.024203  0.024203  0.072608     24.000000
 -0.036304  0.036304  0.084709     24.000000
 -0.048405  0.048405  0.096811     24.000000
  0.096811 -0.096811 -0.048405     24.000000
  0.084709 -0.084709 -0.036304     24.000000
  0.072608 -0.072608 -0.024203     24.000000
  0.060507 -0.060507 -0.012101     24.000000
  0.048405 -0.048405 -0.000000     12.000000
  0.000000 -0.000000  0.072608      6.000000
 -0.012101  0.012101  0.084709     24.000000
 -0.024203  0.024203  0.096811     24.000000
 -0.036304  0.036304  0.108912     24.000000
  0.108912 -0.108912 -0.036304     24.000000
  0.096811 -0.096811 -0.024203     24.000000
  0.084709 -0.084709 -0.012101     24.000000
  0.072608 -0.072608 -0.000000     12.000000
  0.000000 -0.000000  0.096811      6.000000
 -0.012101  0.012101  0.108912     24.000000
 -0.024203  0.024203  0.121014     24.000000
  0.121014 -0.121014 -0.024203     24.000000
  0.108912 -0.108912 -0.012101     24.000000
  0.096811 -0.096811 -0.000000     12.000000
 -0.000000 -0.000000  0.121014      6.000000
 -0.012101  0.012101  0.133115     24.000000
  0.133115 -0.133115 -0.012101     24.000000
  0.121014 -0.121014  0.000000     12.000000
  0.000000 -0.000000  0.145216      6.000000
  0.145216 -0.145216  0.000000     12.000000
  0.000000  0.024203  0.048405     24.000000
 -0.012101  0.036304  0.060507     48.000000
 -0.024203  0.048405  0.072608     48.000000
 -0.036304  0.060507  0.084709     48.000000
  0.108912 -0.084709 -0.060507     48.000000
  0.000000  0.024203  0.072608     24.000000
 -0.012101  0.036304  0.084709     48.000000
 -0.024203  0.048405  0.096811     48.000000
  0.121014 -0.096811 -0.048405     48.000000
  0.108912 -0.084709 -0.036304     48.000000
  0.096811 -0.072608 -0.024203     48.000000
  0.084709 -0.060507 -0.012101     48.000000
  0.072608 -0.048405 -0.000000     24.000000
 -0.000000  0.024203  0.096811     24.000000
 -0.012101  0.036304  0.108912     48.000000
  0.133115 -0.108912 -0.036304     48.000000
  0.121014 -0.096811 -0.024203     48.000000
  0.108912 -0.084709 -0.012101     48.000000
  0.096811 -0.072608 -0.000000     24.000000
  0.000000  0.024203  0.121014     24.000000
  0.145216 -0.121014 -0.024203     48.000000
  0.133115 -0.108912 -0.012101     48.000000
  0.121014 -0.096811 -0.000000     24.000000
  0.157318 -0.133115 -0.012101     24.000000
  0.145216 -0.121014 -0.000000     24.000000
  0.000000  0.048405  0.096811     24.000000
  0.145216 -0.096811 -0.048405     48.000000
  0.133115 -0.084709 -0.036304     48.000000
  0.157318 -0.108912 -0.036304     24.000000
  0.145216 -0.096811 -0.024203     48.000000
  0.133115 -0.084709 -0.012101     48.000000
  0.121014 -0.072608  0.000000     24.000000
  0.157318 -0.108912 -0.012101     24.000000
  0.145216 -0.096811  0.000000     24.000000
  0.157318 -0.084709 -0.012101     24.000000



--------------------------------------------------------------------------------------------------------




 Dimension of arrays:
   k-points           NKPTS =     84   k-points in BZ     NKDIM =     84   number of bands    NBANDS=     16
   number of dos      NEDOS =    301   number of ions     NIONS =      3
   non local maximal  LDIM  =      6   non local SUM 2l+1 LMDIM =     18
   total plane-waves  NPLWV =  46656
   max r-space proj   IRMAX =      1   max aug-charges    IRDMAX= 429503
   dimension x,y,z NGX =    36 NGY =   36 NGZ =   36
   dimension x,y,z NGXF=    72 NGYF=   72 NGZF=   72
   support grid    NGXF=   144 NGYF=  144 NGZF=  144
   ions per type =               1   1   1
   NGX,Y,Z   is equivalent  to a cutoff of  14.23, 14.23, 14.23 a.u.
   NGXF,Y,Z  is equivalent  to a cutoff of  28.45, 28.45, 28.45 a.u.

 SYSTEM =  unknown system
 POSCAR =  Hf1 Sb1 Pt1

 Startparameter for this run:
   NWRITE =      2    write-flag & timer
   PREC   = acc       normal or accurate (medium, high low for compatibility)
   ISTART =      0    job   : 0-new  1-cont  2-samecut
   ICHARG =      2    charge: 1-file 2-atom 10-const
   ISPIN  =      1    spin polarized calculation?
   LNONCOLLINEAR =      F non collinear calculations
   LSORBIT =      F    spin-orbit coupling
   INIWAV =      1    electr: 0-lowe 1-rand  2-diag
   LASPH  =      F    aspherical Exc in radial PAW
   METAGGA=      F    non-selfconsistent MetaGGA calc.

 Electronic Relaxation 1
   ENCUT  =  700.0 eV  51.45 Ry    7.17 a.u.   9.08  9.08  9.08*2*pi/ulx,y,z
   ENINI  =  700.0     initial cutoff
   ENAUG  =  380.9 eV  augmentation charge cutoff
   NELM   =     60;   NELMIN=  5; NELMDL= -5     # of ELM steps
   EDIFF  = 0.1E-06   stopping-criterion for ELM
   LREAL  =      F    real-space projection
   NLSPLINE    = F    spline interpolate recip. space projectors
   LCOMPAT=      F    compatible to vasp.4.4
   GGA_COMPAT  = T    GGA compatible to vasp.4.4-vasp.4.6
   LMAXPAW     = -100 max onsite density
   LMAXMIX     =    2 max onsite mixed and CHGCAR
   VOSKOWN=      0    Vosko Wilk Nusair interpolation
   ROPT   =    0.00000   0.00000   0.00000
 Ionic relaxation
   EDIFFG = 0.1E-05   stopping-criterion for IOM
   NSW    =      0    number of steps for IOM
   NBLOCK =      1;   KBLOCK =      1    inner block; outer block
   IBRION =     -1    ionic relax: 0-MD 1-quasi-New 2-CG
   NFREE  =      0    steps in history (QN), initial steepest desc. (CG)
   ISIF   =      3    stress and relaxation
   IWAVPR =     10    prediction:  0-non 1-charg 2-wave 3-comb
   ISYM   =      2    0-nonsym 1-usesym 2-fastsym
   LCORR  =      T    Harris-Foulkes like correction to forces

   POTIM  = 0.5000    time-step for ionic-motion
   TEIN   =    0.0    initial temperature
   TEBEG  =    0.0;   TEEND  =   0.0 temperature during run
   SMASS  =  -3.00    Nose mass-parameter (am)
   estimated Nose-frequenzy (Omega)   =  0.10E-29 period in steps = 0.13E+47 mass=  -0.404E-27a.u.
   SCALEE = 1.0000    scale energy and forces
   NPACO  =    256;   APACO  = 16.0  distance and # of slots for P.C.
   PSTRESS=    0.0 pullay stress

  Mass of Ions in am
   POMASS = 178.49121.75195.08
  Ionic Valenz
   ZVAL   =  10.00  5.00 10.00
  Atomic Wigner-Seitz radii
   RWIGS  =  -1.00 -1.00 -1.00
  virtual crystal weights
   VCA    =   1.00  1.00  1.00
   NELECT =      25.0000    total number of electrons
   NUPDOWN=      -1.0000    fix difference up-down

 DOS related values:
   EMIN   =  10.00;   EMAX   =-10.00  energy-range for DOS
   EFERMI =   0.00
   ISMEAR =     0;   SIGMA  =   0.01  broadening in eV -4-tet -1-fermi 0-gaus

 Electronic relaxation 2 (details)
   IALGO  =     38    algorithm
   LDIAG  =      T    sub-space diagonalisation (order eigenvalues)
   LSUBROT=      F    optimize rotation matrix (better conditioning)
   TURBO    =      0    0=normal 1=particle mesh
   IRESTART =      0    0=no restart 2=restart with 2 vectors
   NREBOOT  =      0    no. of reboots
   NMIN     =      0    reboot dimension
   EREF     =   0.00    reference energy to select bands
   IMIX   =      4    mixing-type and parameters
     AMIX     =   0.40;   BMIX     =  1.00
     AMIX_MAG =   1.60;   BMIX_MAG =  1.00
     AMIN     =   0.10
     WC   =   100.;   INIMIX=   1;  MIXPRE=   1;  MAXMIX= -45

 Intra band minimization:
   WEIMIN = 0.0000     energy-eigenvalue tresh-hold
   EBREAK =  0.16E-08  absolut break condition
   DEPER  =   0.30     relativ break condition

   TIME   =   0.40     timestep for ELM

  volume/ion in A,a.u.               =      17.55       118.44
  Fermi-wavevector in a.u.,A,eV,Ry     =   1.277166  2.413495 22.193201  1.631154
  Thomas-Fermi vector in A             =   2.409781

 Write flags
   LWAVE        =      F    write WAVECAR
   LDOWNSAMPLE  =      F    k-point downsampling of WAVECAR
   LCHARG       =      F    write CHGCAR
   LVTOT        =      F    write LOCPOT, total local potential
   LVHAR        =      F    write LOCPOT, Hartree potential only
   LELF         =      F    write electronic localiz. function (ELF)
   LORBIT       =      0    0 simple, 1 ext, 2 COOP (PROOUT), +10 PAW based schemes


 Dipole corrections
   LMONO  =      F    monopole corrections only (constant potential shift)
   LDIPOL =      F    correct potential (dipole corrections)
   IDIPOL =      0    1-x, 2-y, 3-z, 4-all directions
   EPSILON=  1.0000000 bulk dielectric constant

 Exchange correlation treatment:
   GGA     =    PS    GGA type
   LEXCH   =    14    internal setting for exchange type
   VOSKOWN=      0    Vosko Wilk Nusair interpolation
   LHFCALC =     F    Hartree Fock is set to
   LHFONE  =     F    Hartree Fock one center treatment
   AEXX    =    0.0000 exact exchange contribution

 Linear response parameters
   LEPSILON=     F    determine dielectric tensor
   LRPA    =     F    only Hartree local field effects (RPA)
   LNABLA  =     F    use nabla operator in PAW spheres
   LVEL    =     F    velocity operator in full k-point grid
   LINTERFAST=   F  fast interpolation
   KINTER  =     0    interpolate to denser k-point grid
   CSHIFT  =0.1000    complex shift for real part using Kramers Kronig
   OMEGAMAX=  -1.0    maximum frequency
   DEG_THRESHOLD= 0.2000000E-02 threshold for treating states as degnerate
   RTIME   =   -0.100 relaxation time in fs
  (WPLASMAI=    0.000 imaginary part of plasma frequency in eV, 0.658/RTIME)
   DFIELD  = 0.0000000 0.0000000 0.0000000 field for delta impulse in time

 Orbital magnetization related:
   ORBITALMAG=     F  switch on orbital magnetization
   LCHIMAG   =     F  perturbation theory with respect to B field
   DQ        =  0.001000  dq finite difference perturbation B field
   LLRAUG    =     F  two centre corrections for induced B field



--------------------------------------------------------------------------------------------------------


 Static calculation
 charge density and potential will be updated during run
 non-spin polarized calculation
 Variant of blocked Davidson
 Davidson routine will perform the subspace rotation
 perform sub-space diagonalisation
    after iterative eigenvector-optimisation
 modified Broyden-mixing scheme, WC =      100.0
 initial mixing is a Kerker type mixing with AMIX =  0.4000 and BMIX =      1.0000
 Hartree-type preconditioning will be used
 using additional bands            3
 reciprocal scheme for non local part
 use partial core corrections
 calculate Harris-corrections to forces
   (improved forces if not selfconsistent)
 use gradient corrections
 use of overlap-Matrix (Vanderbilt PP)
 Gauss-broadening in eV      SIGMA  =   0.01


--------------------------------------------------------------------------------------------------------


  energy-cutoff  :      700.00
  volume of cell :       52.65
      direct lattice vectors                 reciprocal lattice vectors
     0.000000000  2.974842557  2.974842557    -0.168076122  0.168076122  0.168076122
     2.974842557  0.000000000  2.974842557     0.168076122 -0.168076122  0.168076122
     2.974842557  2.974842557  0.000000000     0.168076122  0.168076122 -0.168076122

  length of vectors
     4.207062690  4.207062690  4.207062690     0.291116383  0.291116383  0.291116383



 k-points in units of 2pi/SCALE and weight: KPOINTS
   0.00000000  0.00000000  0.00000000       0.000
  -0.01210135  0.01210135  0.01210135       0.004
  -0.02420271  0.02420271  0.02420271       0.004
  -0.03630406  0.03630406  0.03630406       0.004
  -0.04840541  0.04840541  0.04840541       0.004
  -0.06050677  0.06050677  0.06050677       0.004
  -0.07260812  0.07260812  0.07260812       0.004
   0.00000000 -0.00000000  0.02420271       0.003
  -0.01210135  0.01210135  0.03630406       0.011
  -0.02420271  0.02420271  0.04840541       0.011
  -0.03630406  0.03630406  0.06050677       0.011
  -0.04840541  0.04840541  0.07260812       0.011
  -0.06050677  0.06050677  0.08470948       0.011
   0.08470948 -0.08470948 -0.06050677       0.011
   0.07260812 -0.07260812 -0.04840541       0.011
   0.06050677 -0.06050677 -0.03630406       0.011
   0.04840541 -0.04840541 -0.02420271       0.011
   0.03630406 -0.03630406 -0.01210135       0.011
   0.02420271 -0.02420271  0.00000000       0.005
   0.00000000 -0.00000000  0.04840541       0.003
  -0.01210135  0.01210135  0.06050677       0.011
  -0.02420271  0.02420271  0.07260812       0.011
  -0.03630406  0.03630406  0.08470948       0.011
  -0.04840541  0.04840541  0.09681083       0.011
   0.09681083 -0.09681083 -0.04840541       0.011
   0.08470948 -0.08470948 -0.03630406       0.011
   0.07260812 -0.07260812 -0.02420271       0.011
   0.06050677 -0.06050677 -0.01210135       0.011
   0.04840541 -0.04840541 -0.00000000       0.005
   0.00000000 -0.00000000  0.07260812       0.003
  -0.01210135  0.01210135  0.08470948       0.011
  -0.02420271  0.02420271  0.09681083       0.011
  -0.03630406  0.03630406  0.10891218       0.011
   0.10891218 -0.10891218 -0.03630406       0.011
   0.09681083 -0.09681083 -0.02420271       0.011
   0.08470948 -0.08470948 -0.01210135       0.011
   0.07260812 -0.07260812 -0.00000000       0.005
   0.00000000 -0.00000000  0.09681083       0.003
  -0.01210135  0.01210135  0.10891218       0.011
  -0.02420271  0.02420271  0.12101354       0.011
   0.12101354 -0.12101354 -0.02420271       0.011
   0.10891218 -0.10891218 -0.01210135       0.011
   0.09681083 -0.09681083 -0.00000000       0.005
  -0.00000000 -0.00000000  0.12101354       0.003
  -0.01210135  0.01210135  0.13311489       0.011
   0.13311489 -0.13311489 -0.01210135       0.011
   0.12101354 -0.12101354  0.00000000       0.005
   0.00000000 -0.00000000  0.14521624       0.003
   0.14521624 -0.14521624  0.00000000       0.005
   0.00000000  0.02420271  0.04840541       0.011
  -0.01210135  0.03630406  0.06050677       0.022
  -0.02420271  0.04840541  0.07260812       0.022
  -0.03630406  0.06050677  0.08470948       0.022
   0.10891218 -0.08470948 -0.06050677       0.022
   0.00000000  0.02420271  0.07260812       0.011
  -0.01210135  0.03630406  0.08470948       0.022
  -0.02420271  0.04840541  0.09681083       0.022
   0.12101354 -0.09681083 -0.04840541       0.022
   0.10891218 -0.08470948 -0.03630406       0.022
   0.09681083 -0.07260812 -0.02420271       0.022
   0.08470948 -0.06050677 -0.01210135       0.022
   0.07260812 -0.04840541 -0.00000000       0.011
  -0.00000000  0.02420271  0.09681083       0.011
  -0.01210135  0.03630406  0.10891218       0.022
   0.13311489 -0.10891218 -0.03630406       0.022
   0.12101354 -0.09681083 -0.02420271       0.022
   0.10891218 -0.08470948 -0.01210135       0.022
   0.09681083 -0.07260812 -0.00000000       0.011
   0.00000000  0.02420271  0.12101354       0.011
   0.14521624 -0.12101354 -0.02420271       0.022
   0.13311489 -0.10891218 -0.01210135       0.022
   0.12101354 -0.09681083 -0.00000000       0.011
   0.15731760 -0.13311489 -0.01210135       0.011
   0.14521624 -0.12101354 -0.00000000       0.011
   0.00000000  0.04840541  0.09681083       0.011
   0.14521624 -0.09681083 -0.04840541       0.022
   0.13311489 -0.08470948 -0.03630406       0.022
   0.15731760 -0.10891218 -0.03630406       0.011
   0.14521624 -0.09681083 -0.02420271       0.022
   0.13311489 -0.08470948 -0.01210135       0.022
   0.12101354 -0.07260812  0.00000000       0.011
   0.15731760 -0.10891218 -0.01210135       0.011
   0.14521624 -0.09681083  0.00000000       0.011
   0.15731760 -0.08470948 -0.01210135       0.011

 k-points in reciprocal lattice and weights: KPOINTS
   0.00000000  0.00000000  0.00000000       0.000
   0.07692308  0.00000000 -0.00000000       0.004
   0.15384615  0.00000000 -0.00000000       0.004
   0.23076923  0.00000000 -0.00000000       0.004
   0.30769231  0.00000000 -0.00000000       0.004
   0.38461538 -0.00000000 -0.00000000       0.004
   0.46153846  0.00000000  0.00000000       0.004
   0.07692308  0.07692308 -0.00000000       0.003
   0.15384615  0.07692308 -0.00000000       0.011
   0.23076923  0.07692308 -0.00000000       0.011
   0.30769231  0.07692308 -0.00000000       0.011
   0.38461538  0.07692308 -0.00000000       0.011
   0.46153846  0.07692308 -0.00000000       0.011
  -0.46153846  0.07692308 -0.00000000       0.011
  -0.38461538  0.07692308  0.00000000       0.011
  -0.30769231  0.07692308 -0.00000000       0.011
  -0.23076923  0.07692308 -0.00000000       0.011
  -0.15384615  0.07692308  0.00000000       0.011
  -0.07692308  0.07692308  0.00000000       0.005
   0.15384615  0.15384615 -0.00000000       0.003
   0.23076923  0.15384615 -0.00000000       0.011
   0.30769231  0.15384615 -0.00000000       0.011
   0.38461538  0.15384615 -0.00000000       0.011
   0.46153846  0.15384615 -0.00000000       0.011
  -0.46153846  0.15384615 -0.00000000       0.011
  -0.38461538  0.15384615 -0.00000000       0.011
  -0.30769231  0.15384615 -0.00000000       0.011
  -0.23076923  0.15384615 -0.00000000       0.011
  -0.15384615  0.15384615  0.00000000       0.005
   0.23076923  0.23076923 -0.00000000       0.003
   0.30769231  0.23076923 -0.00000000       0.011
   0.38461538  0.23076923 -0.00000000       0.011
   0.46153846  0.23076923 -0.00000000       0.011
  -0.46153846  0.23076923  0.00000000       0.011
  -0.38461538  0.23076923 -0.00000000       0.011
  -0.30769231  0.23076923 -0.00000000       0.011
  -0.23076923  0.23076923  0.00000000       0.005
   0.30769231  0.30769231 -0.00000000       0.003
   0.38461538  0.30769231  0.00000000       0.011
   0.46153846  0.30769231 -0.00000000       0.011
  -0.46153846  0.30769231 -0.00000000       0.011
  -0.38461538  0.30769231  0.00000000       0.011
  -0.30769231  0.30769231  0.00000000       0.005
   0.38461538  0.38461538 -0.00000000       0.003
   0.46153846  0.38461538 -0.00000000       0.011
  -0.46153846  0.38461538  0.00000000       0.011
  -0.38461538  0.38461538 -0.00000000       0.005
   0.46153846  0.46153846 -0.00000000       0.003
  -0.46153846  0.46153846 -0.00000000       0.005
   0.23076923  0.15384615  0.07692308       0.011
   0.30769231  0.15384615  0.07692308       0.022
   0.38461538  0.15384615  0.07692308       0.022
   0.46153846  0.15384615  0.07692308       0.022
  -0.46153846  0.15384615  0.07692308       0.022
   0.30769231  0.23076923  0.07692308       0.011
   0.38461538  0.23076923  0.07692308       0.022
   0.46153846  0.23076923  0.07692308       0.022
  -0.46153846  0.23076923  0.07692308       0.022
  -0.38461538  0.23076923  0.07692308       0.022
  -0.30769231  0.23076923  0.07692308       0.022
  -0.23076923  0.23076923  0.07692308       0.022
  -0.15384615  0.23076923  0.07692308       0.011
   0.38461538  0.30769231  0.07692308       0.011
   0.46153846  0.30769231  0.07692308       0.022
  -0.46153846  0.30769231  0.07692308       0.022
  -0.38461538  0.30769231  0.07692308       0.022
  -0.30769231  0.30769231  0.07692308       0.022
  -0.23076923  0.30769231  0.07692308       0.011
   0.46153846  0.38461538  0.07692308       0.011
  -0.46153846  0.38461538  0.07692308       0.022
  -0.38461538  0.38461538  0.07692308       0.022
  -0.30769231  0.38461538  0.07692308       0.011
  -0.46153846  0.46153846  0.07692308       0.011
  -0.38461538  0.46153846  0.07692308       0.011
   0.46153846  0.30769231  0.15384615       0.011
  -0.46153846  0.30769231  0.15384615       0.022
  -0.38461538  0.30769231  0.15384615       0.022
  -0.46153846  0.38461538  0.15384615       0.011
  -0.38461538  0.38461538  0.15384615       0.022
  -0.30769231  0.38461538  0.15384615       0.022
  -0.23076923  0.38461538  0.15384615       0.011
  -0.38461538  0.46153846  0.15384615       0.011
  -0.30769231  0.46153846  0.15384615       0.011
  -0.30769231  0.46153846  0.23076923       0.011

 position of ions in fractional coordinates (direct lattice)
   0.75000000  0.75000000  0.75000000
   0.25000000  0.25000000  0.25000000
   0.00000000  0.00000000  0.00000000

 position of ions in cartesian coordinates  (Angst):
   4.46226384  4.46226384  4.46226384
   1.48742128  1.48742128  1.48742128
   0.00000000  0.00000000  0.00000000



--------------------------------------------------------------------------------------------------------


 k-point  1 :   0.0000 0.0000 0.0000  plane waves:    2229
 k-point  2 :   0.0769 0.0000-0.0000  plane waves:    2181
 k-point  3 :   0.1538 0.0000-0.0000  plane waves:    2193
 k-point  4 :   0.2308 0.0000-0.0000  plane waves:    2202
 k-point  5 :   0.3077 0.0000-0.0000  plane waves:    2208
 k-point  6 :   0.3846-0.0000-0.0000  plane waves:    2208
 k-point  7 :   0.4615 0.0000 0.0000  plane waves:    2219
 k-point  8 :   0.0769 0.0769-0.0000  plane waves:    2185
 k-point  9 :   0.1538 0.0769-0.0000  plane waves:    2189
 k-point 10 :   0.2308 0.0769-0.0000  plane waves:    2202
 k-point 11 :   0.3077 0.0769-0.0000  plane waves:    2203
 k-point 12 :   0.3846 0.0769-0.0000  plane waves:    2206
 k-point 13 :   0.4615 0.0769-0.0000  plane waves:    2213
 k-point 14 :  -0.4615 0.0769-0.0000  plane waves:    2213
 k-point 15 :  -0.3846 0.0769 0.0000  plane waves:    2209
 k-point 16 :  -0.3077 0.0769-0.0000  plane waves:    2204
 k-point 17 :  -0.2308 0.0769-0.0000  plane waves:    2201
 k-point 18 :  -0.1538 0.0769 0.0000  plane waves:    2199
 k-point 19 :  -0.0769 0.0769 0.0000  plane waves:    2189
 k-point 20 :   0.1538 0.1538-0.0000  plane waves:    2205
 k-point 21 :   0.2308 0.1538-0.0000  plane waves:    2212
 k-point 22 :   0.3077 0.1538-0.0000  plane waves:    2204
 k-point 23 :   0.3846 0.1538-0.0000  plane waves:    2218
 k-point 24 :   0.4615 0.1538-0.0000  plane waves:    2213
 k-point 25 :  -0.4615 0.1538-0.0000  plane waves:    2217
 k-point 26 :  -0.3846 0.1538-0.0000  plane waves:    2220
 k-point 27 :  -0.3077 0.1538-0.0000  plane waves:    2211
 k-point 28 :  -0.2308 0.1538-0.0000  plane waves:    2206
 k-point 29 :  -0.1538 0.1538 0.0000  plane waves:    2207
 k-point 30 :   0.2308 0.2308-0.0000  plane waves:    2209
 k-point 31 :   0.3077 0.2308-0.0000  plane waves:    2212
 k-point 32 :   0.3846 0.2308-0.0000  plane waves:    2217
 k-point 33 :   0.4615 0.2308-0.0000  plane waves:    2217
 k-point 34 :  -0.4615 0.2308 0.0000  plane waves:    2220
 k-point 35 :  -0.3846 0.2308-0.0000  plane waves:    2224
 k-point 36 :  -0.3077 0.2308-0.0000  plane waves:    2218
 k-point 37 :  -0.2308 0.2308 0.0000  plane waves:    2217
 k-point 38 :   0.3077 0.3077-0.0000  plane waves:    2213
 k-point 39 :   0.3846 0.3077 0.0000  plane waves:    2206
 k-point 40 :   0.4615 0.3077-0.0000  plane waves:    2211
 k-point 41 :  -0.4615 0.3077-0.0000  plane waves:    2220
 k-point 42 :  -0.3846 0.3077 0.0000  plane waves:    2222
 k-point 43 :  -0.3077 0.3077 0.0000  plane waves:    2215
 k-point 44 :   0.3846 0.3846-0.0000  plane waves:    2217
 k-point 45 :   0.4615 0.3846-0.0000  plane waves:    2208
 k-point 46 :  -0.4615 0.3846 0.0000  plane waves:    2222
 k-point 47 :  -0.3846 0.3846-0.0000  plane waves:    2215
 k-point 48 :   0.4615 0.4615-0.0000  plane waves:    2208
 k-point 49 :  -0.4615 0.4615-0.0000  plane waves:    2225
 k-point 50 :   0.2308 0.1538 0.0769  plane waves:    2206
 k-point 51 :   0.3077 0.1538 0.0769  plane waves:    2212
 k-point 52 :   0.3846 0.1538 0.0769  plane waves:    2202
 k-point 53 :   0.4615 0.1538 0.0769  plane waves:    2207
 k-point 54 :  -0.4615 0.1538 0.0769  plane waves:    2218
 k-point 55 :   0.3077 0.2308 0.0769  plane waves:    2212
 k-point 56 :   0.3846 0.2308 0.0769  plane waves:    2208
 k-point 57 :   0.4615 0.2308 0.0769  plane waves:    2211
 k-point 58 :  -0.4615 0.2308 0.0769  plane waves:    2217
 k-point 59 :  -0.3846 0.2308 0.0769  plane waves:    2226
 k-point 60 :  -0.3077 0.2308 0.0769  plane waves:    2216
 k-point 61 :  -0.2308 0.2308 0.0769  plane waves:    2210
 k-point 62 :  -0.1538 0.2308 0.0769  plane waves:    2204
 k-point 63 :   0.3846 0.3077 0.0769  plane waves:    2211
 k-point 64 :   0.4615 0.3077 0.0769  plane waves:    2213
 k-point 65 :  -0.4615 0.3077 0.0769  plane waves:    2218
 k-point 66 :  -0.3846 0.3077 0.0769  plane waves:    2228
 k-point 67 :  -0.3077 0.3077 0.0769  plane waves:    2222
 k-point 68 :  -0.2308 0.3077 0.0769  plane waves:    2228
 k-point 69 :   0.4615 0.3846 0.0769  plane waves:    2208
 k-point 70 :  -0.4615 0.3846 0.0769  plane waves:    2215
 k-point 71 :  -0.3846 0.3846 0.0769  plane waves:    2218
 k-point 72 :  -0.3077 0.3846 0.0769  plane waves:    2221
 k-point 73 :  -0.4615 0.4615 0.0769  plane waves:    2215
 k-point 74 :  -0.3846 0.4615 0.0769  plane waves:    2217
 k-point 75 :   0.4615 0.3077 0.1538  plane waves:    2219
 k-point 76 :  -0.4615 0.3077 0.1538  plane waves:    2219
 k-point 77 :  -0.3846 0.3077 0.1538  plane waves:    2220
 k-point 78 :  -0.4615 0.3846 0.1538  plane waves:    2216
 k-point 79 :  -0.3846 0.3846 0.1538  plane waves:    2215
 k-point 80 :  -0.3077 0.3846 0.1538  plane waves:    2225
 k-point 81 :  -0.2308 0.3846 0.1538  plane waves:    2219
 k-point 82 :  -0.3846 0.4615 0.1538  plane waves:    2212
 k-point 83 :  -0.3077 0.4615 0.1538  plane waves:    2219
 k-point 84 :  -0.3077 0.4615 0.2308  plane waves:    2217

 maximum and minimum number of plane-waves per node :       564      537

 maximum number of plane-waves:      2229
 maximum index in each direction:
   IXMAX=    9   IYMAX=    9   IZMAX=    9
   IXMIN=   -9   IYMIN=   -9   IZMIN=   -9


 parallel 3D FFT for wavefunctions:
    minimum data exchange during FFTs selected (reduces bandwidth)
 parallel 3D FFT for charge:
    minimum data exchange during FFTs selected (reduces bandwidth)


 total amount of memory used by VASP MPI-rank0    59657. kBytes
=======================================================================

   base      :      30000. kBytes
   nonl-proj :      20493. kBytes
   fftplans  :       3845. kBytes
   grid      :       2165. kBytes
   one-center:         15. kBytes
   wavefun   :       3139. kBytes

     INWAV:  cpu time    0.0002: real time    0.0004
 Broyden mixing: mesh for mixing (old mesh)
   NGX = 19   NGY = 19   NGZ = 19
  (NGX  = 72   NGY  = 72   NGZ  = 72)
  gives a total of   6859 points

 initial charge density was supplied:
 charge density of overlapping atoms calculated
 number of electron      25.0000000 magnetization
 keeping initial charge density in first step


--------------------------------------------------------------------------------------------------------


 Maximum index for augmentation-charges        25911 (set IRDMAX)


--------------------------------------------------------------------------------------------------------


 First call to EWALD:  gamma=   0.473
 Maximum number of real-space cells 3x 3x 3
 Maximum number of reciprocal cells 3x 3x 3

    FEWALD:  cpu time    0.0055: real time    0.0063


--------------------------------------- Iteration      1(   1)  ---------------------------------------


    POTLOK:  cpu time    0.0382: real time    0.1046
    SETDIJ:  cpu time    0.0611: real time    0.0612
     EDDAV:  cpu time    0.8707: real time    0.9424
       DOS:  cpu time    0.0034: real time    0.0041
    --------------------------------------------
      LOOP:  cpu time    0.9737: real time    1.1131

 eigenvalue-minimisations  :  2696
 total energy-change (2. order) : 0.1521709E+03  (-0.1476460E+04)
 number of electron      25.0000000 magnetization
 augmentation part       25.0000000 magnetization

 Free energy of the ion-electron system (eV)
  ---------------------------------------------------
  alpha Z        PSCENC =       129.39000340
  Ewald energy   TEWEN  =     -1671.36897809
  -Hartree energ DENC   =      -288.30247529
  -exchange      EXHF   =         0.00000000
  -V(xc)+E(xc)   XCENC  =       -17.17020701
  PAW double counting   =      1514.36848356    -1421.27055995
  entropy T*S    EENTRO =        -0.00010032
  eigenvalues    EBANDS =       165.42018852
  atomic energy  EATOM  =      1741.10451121
  Solvation  Ediel_sol  =         0.00000000
  ---------------------------------------------------
  free energy    TOTEN  =       152.17086602 eV

  energy without entropy =      152.17096634  energy(sigma->0) =      152.17091618


--------------------------------------------------------------------------------------------------------




--------------------------------------- Iteration      1(   2)  ---------------------------------------


     EDDAV:  cpu time    1.0010: real time    1.0365
       DOS:  cpu time    0.0027: real time    0.0030
    --------------------------------------------
      LOOP:  cpu time    1.0038: real time    1.0413

 eigenvalue-minimisations  :  3424
 total energy-change (2. order) :-0.1710874E+03  (-0.1695582E+03)
 number of electron      25.0000000 magnetization
 augmentation part       25.0000000 magnetization

 Free energy of the ion-electron system (eV)
  ---------------------------------------------------
  alpha Z        PSCENC =       129.39000340
  Ewald energy   TEWEN  =     -1671.36897809
  -Hartree energ DENC   =      -288.30247529
  -exchange      EXHF   =         0.00000000
  -V(xc)+E(xc)   XCENC  =       -17.17020701
  PAW double counting   =      1514.36848356    -1421.27055995
  entropy T*S    EENTRO =        -0.00023642
  eigenvalues    EBANDS =        -5.66706376
  atomic energy  EATOM  =      1741.10451121
  Solvation  Ediel_sol  =         0.00000000
  ---------------------------------------------------
  free energy    TOTEN  =       -18.91652236 eV

  energy without entropy =      -18.91628594  energy(sigma->0) =      -18.91640415


--------------------------------------------------------------------------------------------------------




--------------------------------------- Iteration      1(   3)  ---------------------------------------


     EDDAV:  cpu time    1.0019: real time    1.0342
       DOS:  cpu time    0.0027: real time    0.0028
    --------------------------------------------
      LOOP:  cpu time    1.0045: real time    1.0359

 eigenvalue-minimisations  :  3440
 total energy-change (2. order) :-0.4486958E+01  (-0.4458845E+01)
 number of electron      25.0000000 magnetization
 augmentation part       25.0000000 magnetization

 Free energy of the ion-electron system (eV)
  ---------------------------------------------------
  alpha Z        PSCENC =       129.39000340
  Ewald energy   TEWEN  =     -1671.36897809
  -Hartree energ DENC   =      -288.30247529
  -exchange      EXHF   =         0.00000000
  -V(xc)+E(xc)   XCENC  =       -17.17020701
  PAW double counting   =      1514.36848356    -1421.27055995
  entropy T*S    EENTRO =        -0.00013198
  eigenvalues    EBANDS =       -10.15412571
  atomic energy  EATOM  =      1741.10451121
  Solvation  Ediel_sol  =         0.00000000
  ---------------------------------------------------
  free energy    TOTEN  =       -23.40347986 eV

  energy without entropy =      -23.40334788  energy(sigma->0) =      -23.40341387


--------------------------------------------------------------------------------------------------------




--------------------------------------- Iteration      1(   4)  ---------------------------------------


     EDDAV:  cpu time    1.0327: real time    1.0551
       DOS:  cpu time    0.0026: real time    0.0027
    --------------------------------------------
      LOOP:  cpu time    1.0352: real time    1.0579

 eigenvalue-minimisations  :  3488
 total energy-change (2. order) :-0.6032823E-01  (-0.5990252E-01)
 number of electron      25.0000000 magnetization
 augmentation part       25.0000000 magnetization

 Free energy of the ion-electron system (eV)
  ---------------------------------------------------
  alpha Z        PSCENC =       129.39000340
  Ewald energy   TEWEN  =     -1671.36897809
  -Hartree energ DENC   =      -288.30247529
  -exchange      EXHF   =         0.00000000
  -V(xc)+E(xc)   XCENC  =       -17.17020701
  PAW double counting   =      1514.36848356    -1421.27055995
  entropy T*S    EENTRO =        -0.00030801
  eigenvalues    EBANDS =       -10.21427791
  atomic energy  EATOM  =      1741.10451121
  Solvation  Ediel_sol  =         0.00000000
  ---------------------------------------------------
  free energy    TOTEN  =       -23.46380809 eV

  energy without entropy =      -23.46350009  energy(sigma->0) =      -23.46365409


--------------------------------------------------------------------------------------------------------




--------------------------------------- Iteration      1(   5)  ---------------------------------------


     EDDAV:  cpu time    1.0332: real time    1.0548
       DOS:  cpu time    0.0027: real time    0.0029
    CHARGE:  cpu time    0.1968: real time    0.1976
    MIXING:  cpu time    0.0047: real time    0.0058
    --------------------------------------------
      LOOP:  cpu time    1.2375: real time    1.2601

 eigenvalue-minimisations  :  3496
 total energy-change (2. order) :-0.1379750E-02  (-0.1290763E-02)
 number of electron      25.0000000 magnetization
 augmentation part        4.8319099 magnetization

 Broyden mixing:
  rms(total) = 0.59135E+01    rms(broyden)= 0.59135E+01
  rms(prec ) = 0.60385E+01
  weight for this iteration     100.00

 Free energy of the ion-electron system (eV)
  ---------------------------------------------------
  alpha Z        PSCENC =       129.39000340
  Ewald energy   TEWEN  =     -1671.36897809
  -Hartree energ DENC   =      -288.30247529
  -exchange      EXHF   =         0.00000000
  -V(xc)+E(xc)   XCENC  =       -17.17020701
  PAW double counting   =      1514.36848356    -1421.27055995
  entropy T*S    EENTRO =        -0.00028656
  eigenvalues    EBANDS =       -10.21567911
  atomic energy  EATOM  =      1741.10451121
  Solvation  Ediel_sol  =         0.00000000
  ---------------------------------------------------
  free energy    TOTEN  =       -23.46518784 eV

  energy without entropy =      -23.46490129  energy(sigma->0) =      -23.46504456


--------------------------------------------------------------------------------------------------------




--------------------------------------- Iteration      1(   6)  ---------------------------------------


    POTLOK:  cpu time    0.0309: real time    0.0620
    SETDIJ:  cpu time    0.0684: real time    0.0686
     EDDAV:  cpu time    0.9734: real time    0.9735
       DOS:  cpu time    0.0025: real time    0.0027
    CHARGE:  cpu time    0.1541: real time    0.1543
    MIXING:  cpu time    0.0038: real time    0.0040
    --------------------------------------------
      LOOP:  cpu time    1.2330: real time    1.2657

 eigenvalue-minimisations  :  3280
 total energy-change (2. order) : 0.5153432E+00  (-0.1087379E+00)
 number of electron      25.0000000 magnetization
 augmentation part        4.9908015 magnetization

 Broyden mixing:
  rms(total) = 0.34612E+01    rms(broyden)= 0.34612E+01
  rms(prec ) = 0.34994E+01
  weight for this iteration     100.00

 eigenvalues of (default mixing * dielectric matrix)
  average eigenvalue GAMMA=   2.3864
  2.3864

 Free energy of the ion-electron system (eV)
  ---------------------------------------------------
  alpha Z        PSCENC =       129.39000340
  Ewald energy   TEWEN  =     -1671.36897809
  -Hartree energ DENC   =      -276.62556790
  -exchange      EXHF   =         0.00000000
  -V(xc)+E(xc)   XCENC  =       -17.51783713
  PAW double counting   =      2273.57610043    -2183.50177845
  entropy T*S    EENTRO =        -0.00011510
  eigenvalues    EBANDS =       -18.00618306
  atomic energy  EATOM  =      1741.10451121
  Solvation  Ediel_sol  =         0.00000000
  ---------------------------------------------------
  free energy    TOTEN  =       -22.94984468 eV

  energy without entropy =      -22.94972959  energy(sigma->0) =      -22.94978714


--------------------------------------------------------------------------------------------------------




--------------------------------------- Iteration      1(   7)  ---------------------------------------


    POTLOK:  cpu time    0.0594: real time    0.0794
    SETDIJ:  cpu time    0.0634: real time    0.0636
     EDDAV:  cpu time    1.0119: real time    1.0121
       DOS:  cpu time    0.0026: real time    0.0027
    CHARGE:  cpu time    0.1345: real time    0.1346
    MIXING:  cpu time    0.0034: real time    0.0036
    --------------------------------------------
      LOOP:  cpu time    1.2752: real time    1.3006

 eigenvalue-minimisations  :  3536
 total energy-change (2. order) : 0.1462965E+00  (-0.6900040E-01)
 number of electron      25.0000000 magnetization
 augmentation part        4.9883965 magnetization

 Broyden mixing:
  rms(total) = 0.44079E+00    rms(broyden)= 0.44079E+00
  rms(prec ) = 0.54950E+00
  weight for this iteration     100.00

 eigenvalues of (default mixing * dielectric matrix)
  average eigenvalue GAMMA=   1.7841
  1.0017  2.5665

 Free energy of the ion-electron system (eV)
  ---------------------------------------------------
  alpha Z        PSCENC =       129.39000340
  Ewald energy   TEWEN  =     -1671.36897809
  -Hartree energ DENC   =      -270.53229234
  -exchange      EXHF   =         0.00000000
  -V(xc)+E(xc)   XCENC  =       -17.61113946
  PAW double counting   =      3579.39838762    -3493.09398065
  entropy T*S    EENTRO =        -0.00023036
  eigenvalues    EBANDS =       -20.08982952
  atomic energy  EATOM  =      1741.10451121
  Solvation  Ediel_sol  =         0.00000000
  ---------------------------------------------------
  free energy    TOTEN  =       -22.80354819 eV

  energy without entropy =      -22.80331783  energy(sigma->0) =      -22.80343301


--------------------------------------------------------------------------------------------------------




--------------------------------------- Iteration      1(   8)  ---------------------------------------


    POTLOK:  cpu time    0.0277: real time    0.0504
    SETDIJ:  cpu time    0.0631: real time    0.0632
     EDDAV:  cpu time    0.9403: real time    0.9404
       DOS:  cpu time    0.0024: real time    0.0026
    CHARGE:  cpu time    0.1326: real time    0.1327
    MIXING:  cpu time    0.0045: real time    0.0047
    --------------------------------------------
      LOOP:  cpu time    1.1706: real time    1.1903

 eigenvalue-minimisations  :  3264
 total energy-change (2. order) : 0.2930437E-01  (-0.2284087E-01)
 number of electron      25.0000000 magnetization
 augmentation part        5.0342741 magnetization

 Broyden mixing:
  rms(total) = 0.10407E+00    rms(broyden)= 0.10407E+00
  rms(prec ) = 0.13556E+00
  weight for this iteration     100.00

 eigenvalues of (default mixing * dielectric matrix)
  average eigenvalue GAMMA=   1.6056
  2.5849  1.5149  0.7168

 Free energy of the ion-electron system (eV)
  ---------------------------------------------------
  alpha Z        PSCENC =       129.39000340
  Ewald energy   TEWEN  =     -1671.36897809
  -Hartree energ DENC   =      -269.89888060
  -exchange      EXHF   =         0.00000000
  -V(xc)+E(xc)   XCENC  =       -17.60110789
  PAW double counting   =      3712.89549888    -3626.82844006
  entropy T*S    EENTRO =        -0.00017757
  eigenvalues    EBANDS =       -20.46667311
  atomic energy  EATOM  =      1741.10451121
  Solvation  Ediel_sol  =         0.00000000
  ---------------------------------------------------
  free energy    TOTEN  =       -22.77424382 eV

  energy without entropy =      -22.77406626  energy(sigma->0) =      -22.77415504


--------------------------------------------------------------------------------------------------------




--------------------------------------- Iteration      1(   9)  ---------------------------------------


    POTLOK:  cpu time    0.0362: real time    0.0541
    SETDIJ:  cpu time    0.0638: real time    0.0640
     EDDAV:  cpu time    0.9810: real time    0.9812
       DOS:  cpu time    0.0027: real time    0.0029
    CHARGE:  cpu time    0.1338: real time    0.1340
    MIXING:  cpu time    0.0035: real time    0.0036
    --------------------------------------------
      LOOP:  cpu time    1.2210: real time    1.2399

 eigenvalue-minimisations  :  3368
 total energy-change (2. order) : 0.1822234E-02  (-0.2180178E-02)
 number of electron      25.0000000 magnetization
 augmentation part        5.0193610 magnetization

 Broyden mixing:
  rms(total) = 0.62516E-01    rms(broyden)= 0.62516E-01
  rms(prec ) = 0.66446E-01
  weight for this iteration     100.00

 eigenvalues of (default mixing * dielectric matrix)
  average eigenvalue GAMMA=   1.4271
  2.4025  1.4213  1.1758  0.7087

 Free energy of the ion-electron system (eV)
  ---------------------------------------------------
  alpha Z        PSCENC =       129.39000340
  Ewald energy   TEWEN  =     -1671.36897809
  -Hartree energ DENC   =      -271.03936315
  -exchange      EXHF   =         0.00000000
  -V(xc)+E(xc)   XCENC  =       -17.55441020
  PAW double counting   =      3704.27811082    -3618.13744196
  entropy T*S    EENTRO =        -0.00017908
  eigenvalues    EBANDS =       -19.44467454
  atomic energy  EATOM  =      1741.10451121
  Solvation  Ediel_sol  =         0.00000000
  ---------------------------------------------------
  free energy    TOTEN  =       -22.77242159 eV

  energy without entropy =      -22.77224251  energy(sigma->0) =      -22.77233205


--------------------------------------------------------------------------------------------------------




--------------------------------------- Iteration      1(  10)  ---------------------------------------


    POTLOK:  cpu time    0.0403: real time    0.0609
    SETDIJ:  cpu time    0.0618: real time    0.0622
     EDDAV:  cpu time    0.9670: real time    0.9672
       DOS:  cpu time    0.0023: real time    0.0025
    CHARGE:  cpu time    0.1336: real time    0.1337
    MIXING:  cpu time    0.0123: real time    0.0125
    --------------------------------------------
      LOOP:  cpu time    1.2171: real time    1.2388

 eigenvalue-minimisations  :  3344
 total energy-change (2. order) : 0.1255927E-03  (-0.9459843E-04)
 number of electron      25.0000000 magnetization
 augmentation part        5.0176862 magnetization

 Broyden mixing:
  rms(total) = 0.17576E-01    rms(broyden)= 0.17576E-01
  rms(prec ) = 0.18419E-01
  weight for this iteration     100.00

 eigenvalues of (default mixing * dielectric matrix)
  average eigenvalue GAMMA=   1.4514
  2.3950  1.8873  1.3355  0.7168  0.9226

 Free energy of the ion-electron system (eV)
  ---------------------------------------------------
  alpha Z        PSCENC =       129.39000340
  Ewald energy   TEWEN  =     -1671.36897809
  -Hartree energ DENC   =      -271.04786531
  -exchange      EXHF   =         0.00000000
  -V(xc)+E(xc)   XCENC  =       -17.55648562
  PAW double counting   =      3684.30626892    -3598.06411993
  entropy T*S    EENTRO =        -0.00018264
  eigenvalues    EBANDS =       -19.53544793
  atomic energy  EATOM  =      1741.10451121
  Solvation  Ediel_sol  =         0.00000000
  ---------------------------------------------------
  free energy    TOTEN  =       -22.77229600 eV

  energy without entropy =      -22.77211335  energy(sigma->0) =      -22.77220467


--------------------------------------------------------------------------------------------------------




--------------------------------------- Iteration      1(  11)  ---------------------------------------


    POTLOK:  cpu time    0.0349: real time    0.0532
    SETDIJ:  cpu time    0.0649: real time    0.0651
     EDDAV:  cpu time    1.0002: real time    1.0004
       DOS:  cpu time    0.0025: real time    0.0027
    CHARGE:  cpu time    0.1329: real time    0.1334
    MIXING:  cpu time    0.0054: real time    0.0055
    --------------------------------------------
      LOOP:  cpu time    1.2408: real time    1.2601

 eigenvalue-minimisations  :  3448
 total energy-change (2. order) :-0.6560127E-05  (-0.5743931E-05)
 number of electron      25.0000000 magnetization
 augmentation part        5.0182279 magnetization

 Broyden mixing:
  rms(total) = 0.80373E-02    rms(broyden)= 0.80373E-02
  rms(prec ) = 0.83735E-02
  weight for this iteration     100.00

 eigenvalues of (default mixing * dielectric matrix)
  average eigenvalue GAMMA=   1.4948
  2.5398  2.3459  0.7196  1.1853  1.1853  0.9929

 Free energy of the ion-electron system (eV)
  ---------------------------------------------------
  alpha Z        PSCENC =       129.39000340
  Ewald energy   TEWEN  =     -1671.36897809
  -Hartree energ DENC   =      -271.04395312
  -exchange      EXHF   =         0.00000000
  -V(xc)+E(xc)   XCENC  =       -17.55463106
  PAW double counting   =      3692.58397860    -3606.32501522
  entropy T*S    EENTRO =        -0.00018284
  eigenvalues    EBANDS =       -19.55803543
  atomic energy  EATOM  =      1741.10451121
  Solvation  Ediel_sol  =         0.00000000
  ---------------------------------------------------
  free energy    TOTEN  =       -22.77230256 eV

  energy without entropy =      -22.77211971  energy(sigma->0) =      -22.77221113


--------------------------------------------------------------------------------------------------------




--------------------------------------- Iteration      1(  12)  ---------------------------------------


    POTLOK:  cpu time    0.0276: real time    0.0535
    SETDIJ:  cpu time    0.0625: real time    0.0633
     EDDAV:  cpu time    1.0119: real time    1.0120
       DOS:  cpu time    0.0026: real time    0.0028
    CHARGE:  cpu time    0.1317: real time    0.1318
    MIXING:  cpu time    0.0049: real time    0.0051
    --------------------------------------------
      LOOP:  cpu time    1.2412: real time    1.2704

 eigenvalue-minimisations  :  3552
 total energy-change (2. order) :-0.7705701E-06  (-0.1208059E-05)
 number of electron      25.0000000 magnetization
 augmentation part        5.0181348 magnetization

 Broyden mixing:
  rms(total) = 0.11252E-02    rms(broyden)= 0.11252E-02
  rms(prec ) = 0.11672E-02
  weight for this iteration     100.00

 eigenvalues of (default mixing * dielectric matrix)
  average eigenvalue GAMMA=   1.5626
  2.4830  2.4830  2.0208  0.7208  1.1382  1.1382  0.9544

 Free energy of the ion-electron system (eV)
  ---------------------------------------------------
  alpha Z        PSCENC =       129.39000340
  Ewald energy   TEWEN  =     -1671.36897809
  -Hartree energ DENC   =      -271.07161504
  -exchange      EXHF   =         0.00000000
  -V(xc)+E(xc)   XCENC  =       -17.55264047
  PAW double counting   =      3696.09598354    -3609.83223222
  entropy T*S    EENTRO =        -0.00018252
  eigenvalues    EBANDS =       -19.53715313
  atomic energy  EATOM  =      1741.10451121
  Solvation  Ediel_sol  =         0.00000000
  ---------------------------------------------------
  free energy    TOTEN  =       -22.77230333 eV

  energy without entropy =      -22.77212080  energy(sigma->0) =      -22.77221206


--------------------------------------------------------------------------------------------------------




--------------------------------------- Iteration      1(  13)  ---------------------------------------


    POTLOK:  cpu time    0.0318: real time    0.0505
    SETDIJ:  cpu time    0.0639: real time    0.0640
     EDDAV:  cpu time    0.9650: real time    0.9654
       DOS:  cpu time    0.0025: real time    0.0028
    CHARGE:  cpu time    0.1339: real time    0.1340
    MIXING:  cpu time    0.0043: real time    0.0044
    --------------------------------------------
      LOOP:  cpu time    1.2015: real time    1.2194

 eigenvalue-minimisations  :  3304
 total energy-change (2. order) : 0.4404362E-06  (-0.6035737E-07)
 number of electron      25.0000000 magnetization
 augmentation part        5.0181931 magnetization

 Broyden mixing:
  rms(total) = 0.36298E-03    rms(broyden)= 0.36296E-03
  rms(prec ) = 0.44370E-03
  weight for this iteration     100.00

 eigenvalues of (default mixing * dielectric matrix)
  average eigenvalue GAMMA=   1.5269
  2.5436  2.5436  2.2086  0.7220  0.9493  1.0742  1.0871  1.0871

 Free energy of the ion-electron system (eV)
  ---------------------------------------------------
  alpha Z        PSCENC =       129.39000340
  Ewald energy   TEWEN  =     -1671.36897809
  -Hartree energ DENC   =      -271.06987781
  -exchange      EXHF   =         0.00000000
  -V(xc)+E(xc)   XCENC  =       -17.55262730
  PAW double counting   =      3696.20356097    -3609.93693469
  entropy T*S    EENTRO =        -0.00018248
  eigenvalues    EBANDS =       -19.54177810
  atomic energy  EATOM  =      1741.10451121
  Solvation  Ediel_sol  =         0.00000000
  ---------------------------------------------------
  free energy    TOTEN  =       -22.77230289 eV

  energy without entropy =      -22.77212041  energy(sigma->0) =      -22.77221165


--------------------------------------------------------------------------------------------------------




--------------------------------------- Iteration      1(  14)  ---------------------------------------


    POTLOK:  cpu time    0.0286: real time    0.0564
    SETDIJ:  cpu time    0.0632: real time    0.0635
     EDDAV:  cpu time    0.8596: real time    0.8597
       DOS:  cpu time    0.0026: real time    0.0028
    CHARGE:  cpu time    0.1335: real time    0.1337
    MIXING:  cpu time    0.0044: real time    0.0045
    --------------------------------------------
      LOOP:  cpu time    1.0919: real time    1.1201

 eigenvalue-minimisations  :  2560
 total energy-change (2. order) : 0.1285416E-06  (-0.1064546E-07)
 number of electron      25.0000000 magnetization
 augmentation part        5.0181722 magnetization

 Broyden mixing:
  rms(total) = 0.46171E-04    rms(broyden)= 0.46020E-04
  rms(prec ) = 0.67543E-04
  weight for this iteration     100.00

 eigenvalues of (default mixing * dielectric matrix)
  average eigenvalue GAMMA=   1.5391
  2.6294  2.3561  2.3561  1.6253  1.1328  1.1328  0.7220  1.0016  0.8955

 Free energy of the ion-electron system (eV)
  ---------------------------------------------------
  alpha Z        PSCENC =       129.39000340
  Ewald energy   TEWEN  =     -1671.36897809
  -Hartree energ DENC   =      -271.06980163
  -exchange      EXHF   =         0.00000000
  -V(xc)+E(xc)   XCENC  =       -17.55262537
  PAW double counting   =      3696.26986946    -3610.00289902
  entropy T*S    EENTRO =        -0.00018252
  eigenvalues    EBANDS =       -19.54220020
  atomic energy  EATOM  =      1741.10451121
  Solvation  Ediel_sol  =         0.00000000
  ---------------------------------------------------
  free energy    TOTEN  =       -22.77230276 eV

  energy without entropy =      -22.77212024  energy(sigma->0) =      -22.77221150


--------------------------------------------------------------------------------------------------------




--------------------------------------- Iteration      1(  15)  ---------------------------------------


    POTLOK:  cpu time    0.0403: real time    0.0533
    SETDIJ:  cpu time    0.0641: real time    0.0642
     EDDAV:  cpu time    0.6690: real time    0.6691
       DOS:  cpu time    0.0027: real time    0.0029
    --------------------------------------------
      LOOP:  cpu time    0.7759: real time    0.7883

 eigenvalue-minimisations  :  1896
 total energy-change (2. order) :-0.3236414E-07  (-0.1603439E-08)
 number of electron      25.0000000 magnetization
 augmentation part        5.0181722 magnetization

 Free energy of the ion-electron system (eV)
  ---------------------------------------------------
  alpha Z        PSCENC =       129.39000340
  Ewald energy   TEWEN  =     -1671.36897809
  -Hartree energ DENC   =      -271.06980049
  -exchange      EXHF   =         0.00000000
  -V(xc)+E(xc)   XCENC  =       -17.55261817
  PAW double counting   =      3696.31329454    -3610.04643846
  entropy T*S    EENTRO =        -0.00018253
  eigenvalues    EBANDS =       -19.54209421
  atomic energy  EATOM  =      1741.10451121
  Solvation  Ediel_sol  =         0.00000000
  ---------------------------------------------------
  free energy    TOTEN  =       -22.77230279 eV

  energy without entropy =      -22.77212026  energy(sigma->0) =      -22.77221152


--------------------------------------------------------------------------------------------------------




 average (electrostatic) potential at core
  the test charge radii are     1.1707  1.1712  1.2059
  (the norm of the test charge is              1.0000)
       1 -31.3163       2 -82.2208       3 -64.3728



 E-fermi :  11.8479     XC(G=0): -12.3386     alpha+bet :-16.6256


 k-point     1 :       0.0000    0.0000    0.0000
  band No.  band energies     occupation
      1     -20.1345      2.00000
      2     -20.1345      2.00000
      3     -20.1345      2.00000
      4      -2.7618      2.00000
      5       4.3939      2.00000
      6       4.3939      2.00000
      7       4.3939      2.00000
      8       5.1556      2.00000
      9       5.1556      2.00000
     10       9.6008      2.00000
     11       9.6008      2.00000
     12       9.6008      2.00000
     13      12.2226      0.00000
     14      12.9282      0.00000
     15      12.9282      0.00000
     16      12.9282      0.00000

 k-point     2 :       0.0769    0.0000   -0.0000
  band No.  band energies     occupation
      1     -20.1375      2.00000
      2     -20.1342      2.00000
      3     -20.1342      2.00000
      4      -2.6753      2.00000
      5       4.3208      2.00000
      6       4.3283      2.00000
      7       4.3283      2.00000
      8       5.2362      2.00000
      9       5.2362      2.00000
     10       9.1075      2.00000
     11       9.5359      2.00000
     12       9.5359      2.00000
     13      12.0907      0.00000
     14      12.7338      0.00000
     15      12.7338      0.00000
     16      13.6194      0.00000

 k-point     3 :       0.1538    0.0000   -0.0000
  band No.  band energies     occupation
      1     -20.1454      2.00000
      2     -20.1331      2.00000
      3     -20.1331      2.00000
      4      -2.4250      2.00000
      5       4.1150      2.00000
      6       4.2040      2.00000
      7       4.2040      2.00000
      8       5.3937      2.00000
      9       5.3937      2.00000
     10       8.1377      2.00000
     11       9.3767      2.00000
     12       9.3767      2.00000
     13      12.0494      0.00000
     14      12.5888      0.00000
     15      12.5888      0.00000
     16      14.3401      0.00000

 k-point     4 :       0.2308    0.0000   -0.0000
  band No.  band energies     occupation
      1     -20.1565      2.00000
      2     -20.1317      2.00000
      3     -20.1317      2.00000
      4      -2.0402      2.00000
      5       3.8058      2.00000
      6       4.1014      2.00000
      7       4.1014      2.00000
      8       5.5184      2.00000
      9       5.5184      2.00000
     10       7.1922      2.00000
     11       9.2033      2.00000
     12       9.2033      2.00000
     13      12.0631      0.00000
     14      12.5877      0.00000
     15      12.5877      0.00000
     16      15.1248      0.00000

 k-point     5 :       0.3077    0.0000   -0.0000
  band No.  band energies     occupation
      1     -20.1678      2.00000
      2     -20.1301      2.00000
      3     -20.1301      2.00000
      4      -1.5749      2.00000
      5       3.4258      2.00000
      6       4.0469      2.00000
      7       4.0469      2.00000
      8       5.5600      2.00000
      9       5.5600      2.00000
     10       6.4536      2.00000
     11       9.0831      2.00000
     12       9.0831      2.00000
     13      12.0802      0.00000
     14      12.7031      0.00000
     15      12.7031      0.00000
     16      14.6224      0.00000

 k-point     6 :       0.3846   -0.0000   -0.0000
  band No.  band energies     occupation
      1     -20.1770      2.00000
      2     -20.1288      2.00000
      3     -20.1288      2.00000
      4      -1.1199      2.00000
      5       3.0362      2.00000
      6       4.0353      2.00000
      7       4.0353      2.00000
      8       5.5305      2.00000
      9       5.5305      2.00000
     10       5.9792      2.00000
     11       9.0316      2.00000
     12       9.0316      2.00000
     13      12.0807      0.00000
     14      12.8835      0.00000
     15      12.8835      0.00000
     16      13.7544      0.00000

 k-point     7 :       0.4615    0.0000    0.0000
  band No.  band energies     occupation
      1     -20.1821      2.00000
      2     -20.1281      2.00000
      3     -20.1281      2.00000
      4      -0.8176      2.00000
      5       2.7664      2.00000
      6       4.0420      2.00000
      7       4.0420      2.00000
      8       5.4885      2.00000
      9       5.4885      2.00000
     10       5.7570      2.00000
     11       9.0205      2.00000
     12       9.0205      2.00000
     13      12.0649      0.00000
     14      13.0321      0.00000
     15      13.0321      0.00000
     16      13.2917      0.00000

 k-point     8 :       0.0769    0.0769   -0.0000
  band No.  band energies     occupation
      1     -20.1374      2.00000
      2     -20.1346      2.00000
      3     -20.1346      2.00000
      4      -2.6469      2.00000
      5       4.0926      2.00000
      6       4.4314      2.00000
      7       4.4314      2.00000
      8       5.1973      2.00000
      9       5.2868      2.00000
     10       9.2072      2.00000
     11       9.3845      2.00000
     12       9.3845      2.00000
     13      11.9456      0.00000
     14      12.8668      0.00000
     15      13.2100      0.00000
     16      13.2657      0.00000

 k-point     9 :       0.1538    0.0769   -0.0000
  band No.  band energies     occupation
      1     -20.1433      2.00000
      2     -20.1343      2.00000
      3     -20.1337      2.00000
      4      -2.4528      2.00000
      5       3.8427      2.00000
      6       4.3939      2.00000
      7       4.4074      2.00000
      8       5.3025      2.00000
      9       5.3977      2.00000
     10       8.4493      2.00000
     11       9.1816      2.00000
     12       9.3061      2.00000
     13      11.9352      0.00000
     14      12.6555      0.00000
     15      12.9011      0.00000
     16      13.9235      0.00000

 k-point    10 :       0.2308    0.0769   -0.0000
  band No.  band energies     occupation
      1     -20.1531      2.00000
      2     -20.1333      2.00000
      3     -20.1324      2.00000
      4      -2.1158      2.00000
      5       3.6056      2.00000
      6       4.2499      2.00000
      7       4.3277      2.00000
      8       5.4409      2.00000
      9       5.5186      2.00000
     10       7.5183      2.00000
     11       9.0109      2.00000
     12       9.1541      2.00000
     13      12.0924      0.00000
     14      12.5691      0.00000
     15      12.7164      0.00000
     16      14.6501      0.00000

 k-point    11 :       0.3077    0.0769   -0.0000
  band No.  band energies     occupation
      1     -20.1640      2.00000
      2     -20.1318      2.00000
      3     -20.1311      2.00000
      4      -1.6819      2.00000
      5       3.3638      2.00000
      6       4.0895      2.00000
      7       4.2541      2.00000
      8       5.5137      2.00000
      9       5.5904      2.00000
[...]
  212              fftbas_plan_mpi                       0.048024                     12   6
  213                dfftw_execute                         0.019827                   36   7
  214                map_backward                          0.003186                   12   7
  215                  map_gather                            0.000581                  6   8
  216                  m_alltoallv_z                         0.001435                  6   8
  217                  map_scatter                           0.000891                  6   8
  218                map_forward                           0.022020                   12   7
  219                  map_gather                            0.013098                  6   8
  220                  m_alltoallv_z                         0.004315                  6   8
  221                  map_scatter                           0.004314                  6   8
  222            M_sumb_d                              0.002468                        6   5
  223          M_sumb_d                              0.000026                          1   4
  224        setdij_                               1.076431                           20   3
  225          fft3d_mpi                             0.170990                         40   4
  226            fftbas_plan_mpi                       0.157379                       40   5
  227              dfftw_execute                         0.066881                    120   6
  228              map_backward                          0.010558                     40   6
  229                map_gather                            0.001931                   20   7
  230                m_alltoallv_z                         0.004774                   20   7
  231                map_scatter                           0.002933                   20   7
  232              map_forward                           0.070289                     40   6
  233                map_gather                            0.040323                   20   7
  234                m_alltoallv_z                         0.014216                   20   7
  235                map_scatter                           0.014773                   20   7
  236          M_sumb_d                              0.007637                         20   4
  237        set_dd_magatom                        0.000003                            1   3
  238        set_dd_paw                            0.004969                            1   3
  239          set_rsgf_all                          0.000004                          1   4
  240          M_sumb_d                              0.004610                          8   4
  241        strkin                                0.000899                            1   3
  242          M_sumb_d                              0.000513                          1   4
  243        strelo                                0.002293                            1   3
  244          M_sumb_d                              0.000532                          2   4
  245        strenl                                0.568279                            1   3
  246          spher                                 0.450672                         19   4
  247          phase                                 0.009882                        189   4
  248          proj1                                 0.095390                        756   4
  249            crexp_mul_wave                        0.015569                     2268   5
  250            M_sumb_d                              0.022932                      756   5
  251          M_sumb_d                              0.001196                          1   4
  252        M_sumb_d                              0.000214                            6   3
  253        fft3d_mpi                             0.012956                           11   3
  254          fftbas_plan_mpi                       0.012125                         11   4
  255            dfftw_execute                         0.004268                       33   5
  256            map_forward                           0.002609                       10   5
  257              map_gather                            0.000522                      5   6
  258              m_alltoallv_z                         0.001361                      5   6
  259              map_scatter                           0.000508                      5   6
  260            map_backward                          0.002948                       12   5
  261              map_gather                            0.000554                      6   6
  262              m_alltoallv_z                         0.001283                      6   6
  263              map_scatter                           0.000846                      6   6
  264        ggaall_grid                           0.001221                            1   3
  265        forhar                                0.005029                            2   3
  266          M_sumb_d                              0.000291                          2   4
  267        strehar                               0.002277                            1   3
  268          M_sumb_d                              0.000223                          1   4
  269        chggra                                0.004816                            1   3
  270          fft3d_mpi                             0.003431                          3   4
  271            fftbas_plan_mpi                       0.003200                        3   5
  272              dfftw_execute                         0.001204                      9   6
  273              map_backward                          0.000499                      2   6
  274                map_gather                            0.000086                    1   7
  275                m_alltoallv_z                         0.000214                    1   7
  276                map_scatter                           0.000150                    1   7
  277              map_forward                           0.000833                      4   6
  278                map_gather                            0.000161                    2   7
  279                m_alltoallv_z                         0.000391                    2   7
  280                map_scatter                           0.000196                    2   7
  281          M_sumb_d                              0.000126                          3   4
  282        brmix                                 0.004291                            1   3
  283          M_sumb_d                              0.000235                          6   4
  284          brpre                                 0.000050                          1   4
  285          setg0                                 0.001108                          1   4
  286          broyd                                 0.001951                          1   4
  287            M_sumb_d                              0.000513                       17   5
  288            brsav                                 0.000136                       16   5
  289            brget                                 0.000267                       59   5
  290          M_bcast_z                             0.000117                          1   4
  291          M_bcast_d                             0.000069                          1   4
  292        M_bcast_d                             0.000044                            2   3
  293      potlok                                0.022424                              1   2
  294        fft3d_mpi                             0.015282                           13   3
  295          fftbas_plan_mpi                       0.014298                         13   4
  296            dfftw_execute                         0.004840                       39   5
  297            map_forward                           0.003453                       14   5
  298              map_gather                            0.000612                      8   6
  299              m_alltoallv_z                         0.001673                      8   6
  300              map_scatter                           0.000837                      8   6
  301            map_backward                          0.003305                       12   5
  302              map_gather                            0.000583                      6   6
  303              m_alltoallv_z                         0.001524                      6   6
  304              map_scatter                           0.000934                      6   6
  305        ggaall_grid                           0.001251                            1   3
  306        M_sumb_d                              0.000268                            6   3
  307        M_bcast_d                             0.000091                            1   3
  308      potlok_metagga                        0.000004                              1   2
  309      set_dd_magatom                        0.000004                              1   2
  310      set_dd_paw                            0.000762                              1   2
  311        set_rsgf_all                          0.000004                            1   3
  312        M_sumb_d                              0.000237                            8   3
  313      densta                                0.001989                              1   2
  314        M_sumb_d                              0.000808                           41   3
  315      lprj_proall                           0.000007                              1   2

 Flat profile
 ============

             routine name                   CPU           calls
 ---------------------------------------------------------------
 total_time                             12.302269           1
 eddav                                   2.958447          15
 dfftw_execute                           2.348699       28746
 fftbas_plan_mpi                         1.940476        9584
 setdij_                                 1.843614          39
 M_sumb_d                                1.379496       27191
 m_alltoallv_z                           1.008395        9605
 elmin                                   1.001016           1
 set_charge                              0.861794          11
 pdssyex_zheevx                          0.648233         315
 M_alltoall_d                            0.643692       31486
 spher                                   0.512144          20
 orth1                                   0.445036        6408
 proj1                                   0.354881        3838
 map_gather                              0.325886        9605
 vhamil                                  0.319478        4258
 M_bcast_z                               0.308150        3838
 map_forward                             0.302014       10368
 gemm                                    0.301642       12774
 fftwav_mpi                              0.283357        5053
 map_scatter                             0.277113        9605
 vnlac0                                  0.274012        4258
 redis_pw                                0.253891       12186
 redis_proj                              0.230513       15205
 crpa_reader                             0.223020           1
 hamiltmu                                0.219158        2129
 fft3d_mpi                               0.162354        9582
 w1_copy                                 0.153282       12774
 map_backward                            0.152871        8796
 work_mul_crexp                          0.126954       12774
 fftext_mpi                              0.121520        4258
 crexp_mul_wave                          0.089790       11514
 eccp                                    0.086797        1260
 kinhamil                                0.080073        4258
 overl                                   0.079282        7277
 M_bcast_d                               0.069459        2159
 force_and_stress                        0.064572           1
 potlok                                  0.060055          12
 overl1                                  0.052878        4258
 lincom                                  0.044560         336
 setup_precond                           0.038891        1260
 apply_precond                           0.036881        2998
 pw_charge                               0.034647         795
 w1_projall                              0.031686        1499
 phase                                   0.028553         547
 soft_charge                             0.019063          11
 truncate_high_frequency_w1              0.018713        5518
 densta                                  0.018162          16
 fornl                                   0.017119           1
 ggaall_grid                             0.016148          13
 strenl                                  0.011139           1
 setg0                                   0.010557          12
 brmix                                   0.009868          11
 broyd                                   0.007138          11
 forhar                                  0.004738           2
 set_dd_paw                              0.004283          13
 depsum                                  0.002696          11
 forloc                                  0.002383           1
 orthch                                  0.002055           1
 strehar                                 0.002054           1
 strelo                                  0.001761           1
 brget                                   0.001714         368
 brgrid                                  0.001410           1
 chggra                                  0.001259           1
 brpre                                   0.001243          11
 proj                                    0.000920          21
 brsav                                   0.000867         112
 choleski                                0.000834          21
 strkin                                  0.000386           1
 vectorpot                               0.000154          12
 fordep                                  0.000132           1
 set_rsgf_all                            0.000061          13
 potlok_metagga                          0.000054          12
 set_dd_magatom                          0.000047          13
 set_kineden                             0.000037          10
 rotate_active_occupied_orbital          0.000015           1
 lprj_proall                             0.000007           1
 redis_pw_over_bands                     0.000004           1
 ---------------------------------------------------------------
  summed up times    33.2385501861572

 Accumulative profile
 ====================

             routine name                   CPU           calls
 ---------------------------------------------------------------
 total_time                             33.238550           1
 elmin                                  17.763224           1
 eddav                                  14.328491          15
 fft3d_mpi                               6.383075        9582
 fftbas_plan_mpi                         6.355455        9584
 hamiltmu                                4.318781        2129
 fftwav_mpi                              3.351173        5053
 kinhamil                                2.767769        4258
 fftext_mpi                              2.687696        4258
 dfftw_execute                           2.348699       28746
 force_and_stress                        2.244604           1
 setdij_                                 2.208064          39
 set_charge                              1.546272          11
 M_sumb_d                                1.379496       27191
 map_forward                             1.177103       10368
 m_alltoallv_z                           1.008395        9605
 vnlac0                                  0.959498        4258
 map_backward                            0.889178        8796
 pdssyex_zheevx                          0.648233         315
 M_alltoall_d                            0.643692       31486
 proj1                                   0.615866        3838
 redis_pw                                0.600121       12186
 strenl                                  0.568279           1
 soft_charge                             0.560764          11
 w1_projall                              0.541152        1499
 redis_proj                              0.527974       15205
 spher                                   0.512144          20
 orth1                                   0.445036        6408
 fordep                                  0.337391           1
 map_gather                              0.325886        9605
 vhamil                                  0.319478        4258
 M_bcast_z                               0.308150        3838
 gemm                                    0.301642       12774
 map_scatter                             0.277113        9605
 potlok                                  0.261788          12
 crpa_reader                             0.223020           1
 eccp                                    0.153745        1260
 w1_copy                                 0.153282       12774
 work_mul_crexp                          0.126954       12774
 crexp_mul_wave                          0.089790       11514
 overl                                   0.079282        7277
 set_dd_paw                              0.073258          13
 M_bcast_d                               0.069459        2159
 setup_precond                           0.067339        1260
 brmix                                   0.053928          11
 overl1                                  0.052878        4258
 lincom                                  0.044560         336
 apply_precond                           0.036881        2998
 pw_charge                               0.034647         795
 densta                                  0.029816          16
 phase                                   0.028553         547
 fornl                                   0.024542           1
 orthch                                  0.023916           1
 truncate_high_frequency_w1              0.018713        5518
 ggaall_grid                             0.016148          13
 broyd                                   0.013747          11
 proj                                    0.011929          21
 setg0                                   0.010557          12
 depsum                                  0.006835          11
 forhar                                  0.005029           2
 chggra                                  0.004816           1
 forloc                                  0.002449           1
 strelo                                  0.002293           1
 strehar                                 0.002277           1
 brget                                   0.001714         368
 brgrid                                  0.001410           1
 brpre                                   0.001243          11
 strkin                                  0.000899           1
 brsav                                   0.000867         112
 choleski                                0.000834          21
 vectorpot                               0.000154          12
 set_rsgf_all                            0.000061          13
 potlok_metagga                          0.000054          12
 set_dd_magatom                          0.000047          13
 set_kineden                             0.000037          10
 rotate_active_occupied_orbital          0.000015           1
 lprj_proall                             0.000007           1
 redis_pw_over_bands                     0.000004           1
 ---------------------------------------------------------------

Profiling took   0.739894  0.906939  0.005939  0.004538 seconds
Profiling took   0.708586 seconds
