<?xml version="1.0" encoding="ISO-8859-1"?>
<modeling>
 <generator>
  <i name="program" type="string">vasp </i>
  <i name="version" type="string">6.0.8  </i>
  <i name="subversion" type="string">29Jun18 (build Jun 13 2019 12:54:44) complex                          parallel </i>
  <i name="platform" type="string">IFC18_CrayMPICH </i>
  <i name="date" type="string">2021 12 05 </i>
  <i name="time" type="string">14:21:51 </i>
 </generator>
 <incar>
  <i type="int" name="KPAR">     4</i>
  <i type="int" name="NPAR">     4</i>
  <i type="int" name="ISTART">     0</i>
  <i type="string" name="PREC"> ACC</i>
  <i type="string" name="ALGO"> Normal</i>
  <i type="logical" name="ADDGRID"> T  </i>
  <i type="int" name="ISPIN">     1</i>
  <i type="int" name="NELMIN">     5</i>
  <i type="int" name="IBRION">    -1</i>
  <i name="EDIFF">      0.00000010</i>
  <i type="int" name="NSW">     0</i>
  <i type="int" name="ISIF">     3</i>
  <i name="ENCUT">    700.00000000</i>
  <i type="logical" name="LREAL"> F  </i>
  <i type="int" name="ISMEAR">     0</i>
  <i name="SIGMA">      0.01000000</i>
  <i type="logical" name="LWAVE"> F  </i>
  <i type="logical" name="LCHARG"> F  </i>
  <i type="logical" name="LVTOT"> F  </i>
  <i type="string" name="ALGO"> Normal</i>
  <i type="string" name="GGA"> PS</i>
  <i name="EDIFF">      0.00000010</i>
  <i type="int" name="ISPIN">     1</i>
 </incar>
 <structure name="primitive_cell" >
  <crystal>
   <varray name="basis" >
    <v>       0.00000000       2.97484256       2.97484256 </v>
    <v>       2.97484256       0.00000000       2.97484256 </v>
    <v>       2.97484256       2.97484256       0.00000000 </v>
   </varray>
   <i name="volume">     52.65285838 </i>
   <varray name="rec_basis" >
    <v>      -0.16807612       0.16807612       0.16807612 </v>
    <v>       0.16807612      -0.16807612       0.16807612 </v>
    <v>       0.16807612       0.16807612      -0.16807612 </v>
   </varray>
  </crystal>
  <varray name="positions" >
   <v>       0.75000000       0.75000000       0.75000000 </v>
   <v>       0.25000000       0.25000000       0.25000000 </v>
   <v>       0.00000000       0.00000000       0.00000000 </v>
  </varray>
 </structure>
 <varray name="primitive_index" >
  <v type="int" >        1 </v>
  <v type="int" >        2 </v>
  <v type="int" >        3 </v>
 </varray>
 <kpoints>
  <generation param="Gamma">
   <v type="int" name="divisions">      13       13       13 </v>
   <v name="usershift">      0.00000000       0.00000000       0.00000000 </v>
   <v name="genvec1">      0.07692308      -0.00000000       0.00000000 </v>
   <v name="genvec2">     -0.00000000       0.07692308      -0.00000000 </v>
   <v name="genvec3">      0.00000000       0.00000000       0.07692308 </v>
   <v name="shift">      0.00000000       0.00000000       0.00000000 </v>
  </generation>
  <varray name="kpointlist" >
   <v>       0.00000000       0.00000000       0.00000000 </v>
   <v>       0.07692308       0.00000000      -0.00000000 </v>
   <v>       0.15384615       0.00000000      -0.00000000 </v>
   <v>       0.23076923       0.00000000      -0.00000000 </v>
   <v>       0.30769231       0.00000000      -0.00000000 </v>
   <v>       0.38461538      -0.00000000      -0.00000000 </v>
   <v>       0.46153846       0.00000000       0.00000000 </v>
   <v>       0.07692308       0.07692308      -0.00000000 </v>
   <v>       0.15384615       0.07692308      -0.00000000 </v>
   <v>       0.23076923       0.07692308      -0.00000000 </v>
   <v>       0.30769231       0.07692308      -0.00000000 </v>
   <v>       0.38461538       0.07692308      -0.00000000 </v>
   <v>       0.46153846       0.07692308      -0.00000000 </v>
   <v>      -0.46153846       0.07692308      -0.00000000 </v>
   <v>      -0.38461538       0.07692308       0.00000000 </v>
   <v>      -0.30769231       0.07692308      -0.00000000 </v>
   <v>      -0.23076923       0.07692308      -0.00000000 </v>
   <v>      -0.15384615       0.07692308       0.00000000 </v>
   <v>      -0.07692308       0.07692308       0.00000000 </v>
   <v>       0.15384615       0.15384615      -0.00000000 </v>
   <v>       0.23076923       0.15384615      -0.00000000 </v>
   <v>       0.30769231       0.15384615      -0.00000000 </v>
   <v>       0.38461538       0.15384615      -0.00000000 </v>
   <v>       0.46153846       0.15384615      -0.00000000 </v>
   <v>      -0.46153846       0.15384615      -0.00000000 </v>
   <v>      -0.38461538       0.15384615      -0.00000000 </v>
   <v>      -0.30769231       0.15384615      -0.00000000 </v>
   <v>      -0.23076923       0.15384615      -0.00000000 </v>
   <v>      -0.15384615       0.15384615       0.00000000 </v>
   <v>       0.23076923       0.23076923      -0.00000000 </v>
   <v>       0.30769231       0.23076923      -0.00000000 </v>
   <v>       0.38461538       0.23076923      -0.00000000 </v>
   <v>       0.46153846       0.23076923      -0.00000000 </v>
   <v>      -0.46153846       0.23076923       0.00000000 </v>
   <v>      -0.38461538       0.23076923      -0.00000000 </v>
   <v>      -0.30769231       0.23076923      -0.00000000 </v>
   <v>      -0.23076923       0.23076923       0.00000000 </v>
   <v>       0.30769231       0.30769231      -0.00000000 </v>
   <v>       0.38461538       0.30769231       0.00000000 </v>
   <v>       0.46153846       0.30769231      -0.00000000 </v>
   <v>      -0.46153846       0.30769231      -0.00000000 </v>
   <v>      -0.38461538       0.30769231       0.00000000 </v>
   <v>      -0.30769231       0.30769231       0.00000000 </v>
   <v>       0.38461538       0.38461538      -0.00000000 </v>
   <v>       0.46153846       0.38461538      -0.00000000 </v>
   <v>      -0.46153846       0.38461538       0.00000000 </v>
   <v>      -0.38461538       0.38461538      -0.00000000 </v>
   <v>       0.46153846       0.46153846      -0.00000000 </v>
   <v>      -0.46153846       0.46153846      -0.00000000 </v>
   <v>       0.23076923       0.15384615       0.07692308 </v>
   <v>       0.30769231       0.15384615       0.07692308 </v>
   <v>       0.38461538       0.15384615       0.07692308 </v>
   <v>       0.46153846       0.15384615       0.07692308 </v>
   <v>      -0.46153846       0.15384615       0.07692308 </v>
   <v>       0.30769231       0.23076923       0.07692308 </v>
   <v>       0.38461538       0.23076923       0.07692308 </v>
   <v>       0.46153846       0.23076923       0.07692308 </v>
   <v>      -0.46153846       0.23076923       0.07692308 </v>
   <v>      -0.38461538       0.23076923       0.07692308 </v>
   <v>      -0.30769231       0.23076923       0.07692308 </v>
   <v>      -0.23076923       0.23076923       0.07692308 </v>
   <v>      -0.15384615       0.23076923       0.07692308 </v>
   <v>       0.38461538       0.30769231       0.07692308 </v>
   <v>       0.46153846       0.30769231       0.07692308 </v>
   <v>      -0.46153846       0.30769231       0.07692308 </v>
   <v>      -0.38461538       0.30769231       0.07692308 </v>
   <v>      -0.30769231       0.30769231       0.07692308 </v>
   <v>      -0.23076923       0.30769231       0.07692308 </v>
   <v>       0.46153846       0.38461538       0.07692308 </v>
   <v>      -0.46153846       0.38461538       0.07692308 </v>
   <v>      -0.38461538       0.38461538       0.07692308 </v>
   <v>      -0.30769231       0.38461538       0.07692308 </v>
   <v>      -0.46153846       0.46153846       0.07692308 </v>
   <v>      -0.38461538       0.46153846       0.07692308 </v>
   <v>       0.46153846       0.30769231       0.15384615 </v>
   <v>      -0.46153846       0.30769231       0.15384615 </v>
   <v>      -0.38461538       0.30769231       0.15384615 </v>
   <v>      -0.46153846       0.38461538       0.15384615 </v>
   <v>      -0.38461538       0.38461538       0.15384615 </v>
   <v>      -0.30769231       0.38461538       0.15384615 </v>
   <v>      -0.23076923       0.38461538       0.15384615 </v>
   <v>      -0.38461538       0.46153846       0.15384615 </v>
   <v>      -0.30769231       0.46153846       0.15384615 </v>
   <v>      -0.30769231       0.46153846       0.23076923 </v>
  </varray>
  <varray name="weights" >
   <v>       0.00045517 </v>
   <v>       0.00364133 </v>
   <v>       0.00364133 </v>
   <v>       0.00364133 </v>
   <v>       0.00364133 </v>
   <v>       0.00364133 </v>
   <v>       0.00364133 </v>
   <v>       0.00273100 </v>
   <v>       0.01092399 </v>
   <v>       0.01092399 </v>
   <v>       0.01092399 </v>
   <v>       0.01092399 </v>
   <v>       0.01092399 </v>
   <v>       0.01092399 </v>
   <v>       0.01092399 </v>
   <v>       0.01092399 </v>
   <v>       0.01092399 </v>
   <v>       0.01092399 </v>
   <v>       0.00546199 </v>
   <v>       0.00273100 </v>
   <v>       0.01092399 </v>
   <v>       0.01092399 </v>
   <v>       0.01092399 </v>
   <v>       0.01092399 </v>
   <v>       0.01092399 </v>
   <v>       0.01092399 </v>
   <v>       0.01092399 </v>
   <v>       0.01092399 </v>
   <v>       0.00546199 </v>
   <v>       0.00273100 </v>
   <v>       0.01092399 </v>
   <v>       0.01092399 </v>
   <v>       0.01092399 </v>
   <v>       0.01092399 </v>
   <v>       0.01092399 </v>
   <v>       0.01092399 </v>
   <v>       0.00546199 </v>
   <v>       0.00273100 </v>
   <v>       0.01092399 </v>
   <v>       0.01092399 </v>
   <v>       0.01092399 </v>
   <v>       0.01092399 </v>
   <v>       0.00546199 </v>
   <v>       0.00273100 </v>
   <v>       0.01092399 </v>
   <v>       0.01092399 </v>
   <v>       0.00546199 </v>
   <v>       0.00273100 </v>
   <v>       0.00546199 </v>
   <v>       0.01092399 </v>
   <v>       0.02184797 </v>
   <v>       0.02184797 </v>
   <v>       0.02184797 </v>
   <v>       0.02184797 </v>
   <v>       0.01092399 </v>
   <v>       0.02184797 </v>
   <v>       0.02184797 </v>
   <v>       0.02184797 </v>
   <v>       0.02184797 </v>
   <v>       0.02184797 </v>
   <v>       0.02184797 </v>
   <v>       0.01092399 </v>
   <v>       0.01092399 </v>
   <v>       0.02184797 </v>
   <v>       0.02184797 </v>
   <v>       0.02184797 </v>
   <v>       0.02184797 </v>
   <v>       0.01092399 </v>
   <v>       0.01092399 </v>
   <v>       0.02184797 </v>
   <v>       0.02184797 </v>
   <v>       0.01092399 </v>
   <v>       0.01092399 </v>
   <v>       0.01092399 </v>
   <v>       0.01092399 </v>
   <v>       0.02184797 </v>
   <v>       0.02184797 </v>
   <v>       0.01092399 </v>
   <v>       0.02184797 </v>
   <v>       0.02184797 </v>
   <v>       0.01092399 </v>
   <v>       0.01092399 </v>
   <v>       0.01092399 </v>
   <v>       0.01092399 </v>
  </varray>
 </kpoints>
 <parameters>
  <separator name="general" >
   <i type="string" name="SYSTEM">unknown system</i>
   <i type="logical" name="LCOMPAT"> F  </i>
  </separator>
  <separator name="electronic" >
   <i type="string" name="PREC">acc</i>
   <i name="ENMAX">    700.00000000</i>
   <i name="ENAUG">    380.87800000</i>
   <i name="EDIFF">      0.00000010</i>
   <i type="int" name="IALGO">    38</i>
   <i type="int" name="IWAVPR">    10</i>
   <i type="int" name="NBANDS">    16</i>
   <i type="int" name="NBANDSLOW">    -1</i>
   <i type="int" name="NBANDSHIGH">    -1</i>
   <i name="NELECT">     25.00000000</i>
   <i type="int" name="TURBO">     0</i>
   <i type="int" name="IRESTART">     0</i>
   <i type="int" name="NREBOOT">     0</i>
   <i type="int" name="NMIN">     0</i>
   <i name="EREF">      0.00000000</i>
   <separator name="electronic smearing" >
    <i type="int" name="ISMEAR">     0</i>
    <i name="SIGMA">      0.01000000</i>
    <i name="KSPACING">      0.50000000</i>
    <i type="logical" name="KGAMMA"> T  </i>
    <i type="logical" name="KBLOWUP"> T  </i>
   </separator>
   <separator name="electronic projectors" >
    <i type="logical" name="LREAL"> F  </i>
    <v name="ROPT">      0.00000000      0.00000000      0.00000000</v>
    <i type="int" name="LMAXPAW">  -100</i>
    <i type="int" name="LMAXMIX">     2</i>
    <i type="logical" name="NLSPLINE"> F  </i>
   </separator>
   <separator name="electronic startup" >
    <i type="int" name="ISTART">     0</i>
    <i type="int" name="ICHARG">     2</i>
    <i type="int" name="INIWAV">     1</i>
   </separator>
   <separator name="electronic spin" >
    <i type="int" name="ISPIN">     1</i>
    <i type="logical" name="LNONCOLLINEAR"> F  </i>
    <v name="MAGMOM">      1.00000000      1.00000000      1.00000000</v>
    <i name="NUPDOWN">     -1.00000000</i>
    <i type="logical" name="LSORBIT"> F  </i>
    <v name="SAXIS">      0.00000000      0.00000000      1.00000000</v>
    <i type="logical" name="LSPIRAL"> F  </i>
    <v name="QSPIRAL">      0.00000000      0.00000000      0.00000000</v>
    <i type="logical" name="LZEROZ"> F  </i>
   </separator>
   <separator name="electronic exchange-correlation" >
    <i type="logical" name="LASPH"> F  </i>
    <i type="logical" name="LMETAGGA"> F  </i>
   </separator>
   <separator name="electronic convergence" >
    <i type="int" name="NELM">    60</i>
    <i type="int" name="NELMDL">    -5</i>
    <i type="int" name="NELMIN">     5</i>
    <i name="ENINI">    700.00000000</i>
    <separator name="electronic convergence detail" >
     <i type="logical" name="LDIAG"> T  </i>
     <i type="logical" name="LSUBROT"> F  </i>
     <i name="WEIMIN">      0.00000000</i>
     <i name="EBREAK">      0.00000000</i>
     <i name="DEPER">      0.30000000</i>
     <i type="int" name="NRMM">     4</i>
     <i name="TIME">      0.40000000</i>
    </separator>
   </separator>
   <separator name="electronic mixer" >
    <i name="AMIX">      0.40000000</i>
    <i name="BMIX">      1.00000000</i>
    <i name="AMIN">      0.10000000</i>
    <i name="AMIX_MAG">      1.60000000</i>
    <i name="BMIX_MAG">      1.00000000</i>
    <separator name="electronic mixer details" >
     <i type="int" name="IMIX">     4</i>
     <i type="logical" name="MIXFIRST"> F  </i>
     <i type="int" name="MAXMIX">   -45</i>
     <i name="WC">    100.00000000</i>
     <i type="int" name="INIMIX">     1</i>
     <i type="int" name="MIXPRE">     1</i>
     <i type="int" name="MREMOVE">     5</i>
    </separator>
   </separator>
   <separator name="electronic dipolcorrection" >
    <i type="logical" name="LDIPOL"> F  </i>
    <i type="logical" name="LMONO"> F  </i>
    <i type="int" name="IDIPOL">     0</i>
    <i name="EPSILON">      1.00000000</i>
    <v name="DIPOL">   -100.00000000   -100.00000000   -100.00000000</v>
    <i name="EFIELD">      0.00000000</i>
   </separator>
  </separator>
  <separator name="grids" >
   <i type="int" name="NGX">    36</i>
   <i type="int" name="NGY">    36</i>
   <i type="int" name="NGZ">    36</i>
   <i type="int" name="NGXF">    72</i>
   <i type="int" name="NGYF">    72</i>
   <i type="int" name="NGZF">    72</i>
   <i type="logical" name="ADDGRID"> T  </i>
  </separator>
  <separator name="ionic" >
   <i type="int" name="NSW">     0</i>
   <i type="int" name="IBRION">    -1</i>
   <i type="int" name="MDALGO">     0</i>
   <i type="int" name="ISIF">     3</i>
   <i name="PSTRESS">      0.00000000</i>
   <i name="EDIFFG">      0.00000100</i>
   <i type="int" name="NFREE">     0</i>
   <i name="POTIM">      0.50000000</i>
   <i name="SMASS">     -3.00000000</i>
   <i name="SCALEE">      1.00000000</i>
  </separator>
  <separator name="ionic md" >
   <i name="TEBEG">      0.00010000</i>
   <i name="TEEND">      0.00010000</i>
   <i type="int" name="NBLOCK">     1</i>
   <i type="int" name="KBLOCK">     1</i>
   <i type="int" name="NPACO">   256</i>
   <i name="APACO">     16.00000000</i>
  </separator>
  <separator name="symmetry" >
   <i type="int" name="ISYM">     2</i>
   <i name="SYMPREC">      0.00001000</i>
  </separator>
  <separator name="dos" >
   <i type="int" name="LORBIT">     0</i>
   <v name="RWIGS">     -1.00000000     -1.00000000     -1.00000000</v>
   <i type="int" name="NEDOS">   301</i>
   <i name="EMIN">     10.00000000</i>
   <i name="EMAX">    -10.00000000</i>
   <i name="EFERMI">      0.00000000</i>
  </separator>
  <separator name="writing" >
   <i type="int" name="NWRITE">     2</i>
   <i type="logical" name="LWAVE"> F  </i>
   <i type="logical" name="LDOWNSAMPLE"> F  </i>
   <i type="logical" name="LCHARG"> F  </i>
   <i type="logical" name="LPARD"> F  </i>
   <i type="logical" name="LVTOT"> F  </i>
   <i type="logical" name="LVHAR"> F  </i>
   <i type="logical" name="LELF"> F  </i>
   <i type="logical" name="LOPTICS"> F  </i>
   <v name="STM">      0.00000000      0.00000000      0.00000000      0.00000000      0.00000000      0.00000000      0.00000000</v>
  </separator>
  <separator name="performance" >
   <i type="int" name="NPAR">     4</i>
   <i type="int" name="NSIM">     4</i>
   <i type="int" name="NBLK">    -1</i>
   <i type="logical" name="LPLANE"> T  </i>
   <i type="logical" name="LSCALAPACK"> T  </i>
   <i type="logical" name="LSCAAWARE"> F  </i>
   <i type="logical" name="LSCALU"> F  </i>
   <i type="logical" name="LASYNC"> F  </i>
   <i type="logical" name="LORBITALREAL"> F  </i>
  </separator>
  <separator name="miscellaneous" >
   <i type="int" name="IDIOT">     3</i>
   <i type="int" name="PHON_NSTRUCT">    -1</i>
   <i type="logical" name="LMUSIC"> F  </i>
   <v name="POMASS">    178.49000000    121.75000000    195.08000000</v>
   <v name="DARWINR">      0.00000000      0.00000000      0.00000000</v>
   <v name="DARWINV">      1.00000000      1.00000000      1.00000000</v>
   <i type="logical" name="LCORR"> T  </i>
  </separator>
  <i type="logical" name="GGA_COMPAT"> T  </i>
  <i type="logical" name="LBERRY"> F  </i>
  <i type="int" name="ICORELEVEL">     0</i>
  <i type="logical" name="LDAU"> F  </i>
  <i type="int" name="I_CONSTRAINED_M">     0</i>
  <separator name="electronic exchange-correlation" >
   <i type="string" name="GGA">PS</i>
   <i type="int" name="VOSKOWN">     0</i>
   <i type="logical" name="LHFCALC"> F  </i>
   <i type="string" name="PRECFOCK"></i>
   <i type="logical" name="LSYMGRAD"> F  </i>
   <i type="logical" name="LHFONE"> F  </i>
   <i type="logical" name="LRHFCALC"> F  </i>
   <i type="logical" name="LTHOMAS"> F  </i>
   <i type="logical" name="LMODELHF"> F  </i>
   <i type="logical" name="LFOCKACE"> F  </i>
   <i name="ENCUT4O">     -1.00000000</i>
   <i type="int" name="EXXOEP">     0</i>
   <i type="int" name="FOURORBIT">     0</i>
   <i name="AEXX">      0.00000000</i>
   <i name="HFALPHA">      0.00000000</i>
   <i name="MCALPHA">      0.00000000</i>
   <i name="ALDAX">      1.00000000</i>
   <i name="AGGAX">      1.00000000</i>
   <i name="ALDAC">      1.00000000</i>
   <i name="AGGAC">      1.00000000</i>
   <i type="int" name="NKREDX">     1</i>
   <i type="int" name="NKREDY">     1</i>
   <i type="int" name="NKREDZ">     1</i>
   <i type="logical" name="SHIFTRED"> F  </i>
   <i type="logical" name="ODDONLY"> F  </i>
   <i type="logical" name="EVENONLY"> F  </i>
   <i type="int" name="LMAXFOCK">     0</i>
   <i type="int" name="NMAXFOCKAE">     0</i>
   <i type="logical" name="LFOCKAEDFT"> F  </i>
   <i name="HFSCREEN">      0.00000000</i>
   <i name="HFSCREENC">      0.00000000</i>
   <i type="int" name="NBANDSGWLOW">     0</i>
  </separator>
  <separator name="vdW DFT" >
   <i type="logical" name="LUSE_VDW"> F  </i>
   <i name="Zab_VDW">     -0.84910000</i>
   <i name="PARAM1">      0.12340000</i>
   <i name="PARAM2">      1.00000000</i>
   <i name="PARAM3">      0.00000000</i>
  </separator>
  <separator name="model GW" >
   <i type="int" name="MODEL_GW">     0</i>
   <i name="MODEL_EPS0">     10.53057168</i>
   <i name="MODEL_ALPHA">      1.00000000</i>
  </separator>
  <separator name="linear response parameters" >
   <i type="logical" name="LEPSILON"> F  </i>
   <i type="logical" name="LRPA"> F  </i>
   <i type="logical" name="LNABLA"> F  </i>
   <i type="logical" name="LVEL"> F  </i>
   <i type="int" name="KINTER">     0</i>
   <i name="CSHIFT">      0.10000000</i>
   <i name="OMEGAMAX">     -1.00000000</i>
   <i name="DEG_THRESHOLD">      0.00200000</i>
   <i name="RTIME">     -0.10000000</i>
   <i name="WPLASMAI">      0.00000000</i>
   <v name="DFIELD">      0.00000000      0.00000000      0.00000000</v>
   <v name="WPLASMA">      0.00000000      0.00000000      0.00000000      0.00000000      0.00000000      0.00000000      0.00000000      0.00000000      0.00000000</v>
  </separator>
  <separator name="orbital magnetization" >
   <i type="logical" name="NUCIND"> F  </i>
   <v name="MAGPOS">      0.00000000      0.00000000      0.00000000</v>
   <i type="logical" name="LNICSALL"> T  </i>
   <i type="logical" name="ORBITALMAG"> F  </i>
   <i type="logical" name="LMAGBLOCH"> F  </i>
   <i type="logical" name="LCHIMAG"> F  </i>
   <i type="logical" name="LGAUGE"> T  </i>
   <i type="int" name="MAGATOM">     0</i>
   <v name="MAGDIPOL">      0.00000000      0.00000000      0.00000000</v>
   <v name="AVECCONST">      0.00000000      0.00000000      0.00000000</v>
  </separator>
  <separator name="response functions" >
   <i type="logical" name="LFINITE_TEMPERATURE"> F  </i>
   <i type="logical" name="LADDER"> F  </i>
   <i type="logical" name="LRPAFORCE"> F  </i>
   <i type="logical" name="LFXC"> F  </i>
   <i type="logical" name="LHARTREE"> T  </i>
   <i type="int" name="IBSE">     0</i>
   <v type="int" name="KPOINT">    -1     0     0     0</v>
   <i type="logical" name="LTCTC"> F  </i>
   <i type="logical" name="LTCTE"> F  </i>
   <i type="logical" name="LTETE"> F  </i>
   <i type="logical" name="LTRIPLET"> F  </i>
   <i type="logical" name="LFXCEPS"> F  </i>
   <i type="logical" name="LFXHEG"> F  </i>
   <i type="int" name="NATURALO">     2</i>
   <i type="logical" name="L2ORDER"> F  </i>
   <i type="logical" name="LDMP1"> F  </i>
   <i type="logical" name="LMP2LT"> F  </i>
   <i type="logical" name="LSMP2LT"> F  </i>
   <i type="logical" name="LUSEW"> F  </i>
   <i name="ENCUTGW">     -2.00000000</i>
   <i name="ENCUTGWSOFT">     -2.00000000</i>
   <i name="ENCUTLF">     -1.00000000</i>
   <i type="int" name="LMAXMP2">    -1</i>
   <i name="SCISSOR">      0.00000000</i>
   <i type="int" name="NOMEGA">     0</i>
   <i type="int" name="NOMEGAR">     0</i>
   <i type="int" name="NBANDSGW">    -1</i>
   <i type="int" name="NBANDSO">    -1</i>
   <i type="int" name="NBANDSV">    -1</i>
   <i type="int" name="NELM">     1</i>
   <i type="int" name="NELMHF">     1</i>
   <i type="int" name="DIM">     3</i>
   <i type="int" name="IESPILON">     4</i>
   <i type="int" name="ANTIRES">     0</i>
   <i name="OMEGAMAX">    -30.00000000</i>
   <i name="OMEGAMIN">    -30.00000000</i>
   <i name="OMEGATL">   -200.00000000</i>
   <i type="int" name="OMEGAGRID">   145</i>
   <i name="CSHIFT">     -0.10000000</i>
   <i type="logical" name="LSELFENERGY"> F  </i>
   <i type="logical" name="LSPECTRAL"> F  </i>
   <i type="logical" name="LSPECTRALGW"> F  </i>
   <i type="logical" name="LSINGLES"> F  </i>
   <i type="logical" name="LFERMIGW"> F  </i>
   <i type="logical" name="ODDONLYGW"> F  </i>
   <i type="logical" name="EVENONLYGW"> F  </i>
   <i type="int" name="NKREDLFX">     1</i>
   <i type="int" name="NKREDLFY">     1</i>
   <i type="int" name="NKREDLFZ">     1</i>
   <i type="int" name="MAXMEM">  2800</i>
   <i type="int" name="TELESCOPE">     0</i>
   <i type="int" name="NTAUPAR">     1</i>
   <i type="int" name="NOMEGAPAR">    -1</i>
   <i name="LAMBDA">      1.00000000</i>
  </separator>
  <separator name="External order field" >
   <i name="OFIELD_KAPPA">      0.00000000</i>
   <v name="OFIELD_K">      0.00000000      0.00000000      0.00000000</v>
   <i name="OFIELD_Q6_NEAR">      0.00000000</i>
   <i name="OFIELD_Q6_FAR">      0.00000000</i>
   <i name="OFIELD_A">      0.00000000</i>
  </separator>
 </parameters>
 <atominfo>
  <atoms>       3 </atoms>
  <types>       3 </types>
  <array name="atoms" >
   <dimension dim="1">ion</dimension>
   <field type="string">element</field>
   <field type="int">atomtype</field>
   <set>
    <rc><c>Hf</c><c>   1</c></rc>
    <rc><c>Sb</c><c>   2</c></rc>
    <rc><c>Pt</c><c>   3</c></rc>
   </set>
  </array>
  <array name="atomtypes" >
   <dimension dim="1">type</dimension>
   <field type="int">atomspertype</field>
   <field type="string">element</field>
   <field>mass</field>
   <field>valence</field>
   <field type="string">pseudopotential</field>
   <set>
    <rc><c>   1</c><c>Hf</c><c>    178.49000000</c><c>     10.00000000</c><c>  PAW_PBE Hf_pv 06Sep2000               </c></rc>
    <rc><c>   1</c><c>Sb</c><c>    121.75000000</c><c>      5.00000000</c><c>  PAW_PBE Sb 06Sep2000                  </c></rc>
    <rc><c>   1</c><c>Pt</c><c>    195.08000000</c><c>     10.00000000</c><c>  PAW_PBE Pt 04Feb2005                  </c></rc>
   </set>
  </array>
 </atominfo>
 <structure name="initialpos" >
  <crystal>
   <varray name="basis" >
    <v>       0.00000000       2.97484256       2.97484256 </v>
    <v>       2.97484256       0.00000000       2.97484256 </v>
    <v>       2.97484256       2.97484256       0.00000000 </v>
   </varray>
   <i name="volume">     52.65285838 </i>
   <varray name="rec_basis" >
    <v>      -0.16807612       0.16807612       0.16807612 </v>
    <v>       0.16807612      -0.16807612       0.16807612 </v>
    <v>       0.16807612       0.16807612      -0.16807612 </v>
   </varray>
  </crystal>
  <varray name="positions" >
   <v>       0.75000000       0.75000000       0.75000000 </v>
   <v>       0.25000000       0.25000000       0.25000000 </v>
   <v>       0.00000000       0.00000000       0.00000000 </v>
  </varray>
 </structure>
 <calculation>
  <scstep>
   <time name="dav">    0.87    0.94</time>
   <time name="total">    0.97    1.11</time>
   <energy>
    <i name="alphaZ">    129.39000340 </i>
    <i name="ewald">  -1671.36897809 </i>
    <i name="hartreedc">   -288.30247529 </i>
    <i name="XCdc">    -17.17020701 </i>
    <i name="pawpsdc">   1514.36848356 </i>
    <i name="pawaedc">  -1421.27055995 </i>
    <i name="eentropy">     -0.00010032 </i>
    <i name="bandstr">    165.42018852 </i>
    <i name="atom">   1741.10451121 </i>
    <i name="e_fr_energy">    152.17086602 </i>
    <i name="e_wo_entrp">    152.17096634 </i>
    <i name="e_0_energy">    152.17091618 </i>
   </energy>
  </scstep>
  <scstep>
   <time name="dav">    1.00    1.04</time>
   <time name="total">    1.00    1.04</time>
   <energy>
    <i name="e_fr_energy">    -18.91652236 </i>
    <i name="e_wo_entrp">    -18.91628594 </i>
    <i name="e_0_energy">    -18.91640415 </i>
   </energy>
  </scstep>
  <scstep>
   <time name="dav">    1.00    1.03</time>
   <time name="total">    1.00    1.04</time>
   <energy>
    <i name="e_fr_energy">    -23.40347986 </i>
    <i name="e_wo_entrp">    -23.40334788 </i>
    <i name="e_0_energy">    -23.40341387 </i>
   </energy>
  </scstep>
  <scstep>
   <time name="dav">    1.03    1.06</time>
   <time name="total">    1.04    1.06</time>
   <energy>
    <i name="e_fr_energy">    -23.46380809 </i>
    <i name="e_wo_entrp">    -23.46350009 </i>
    <i name="e_0_energy">    -23.46365409 </i>
   </energy>
  </scstep>
  <scstep>
   <time name="dav">    1.03    1.05</time>
   <time name="total">    1.24    1.26</time>
   <energy>
    <i name="e_fr_energy">    -23.46518784 </i>
    <i name="e_wo_entrp">    -23.46490129 </i>
    <i name="e_0_energy">    -23.46504456 </i>
   </energy>
  </scstep>
  <scstep>
   <time name="dav">    0.97    0.97</time>
   <time name="total">    1.23    1.27</time>
   <energy>
    <i name="e_fr_energy">    -22.94984468 </i>
    <i name="e_wo_entrp">    -22.94972959 </i>
    <i name="e_0_energy">    -22.94978714 </i>
   </energy>
  </scstep>
  <scstep>
   <time name="dav">    1.01    1.01</time>
   <time name="total">    1.28    1.30</time>
   <energy>
    <i name="e_fr_energy">    -22.80354819 </i>
    <i name="e_wo_entrp">    -22.80331783 </i>
    <i name="e_0_energy">    -22.80343301 </i>
   </energy>
  </scstep>
  <scstep>
   <time name="dav">    0.94    0.94</time>
   <time name="total">    1.17    1.19</time>
   <energy>
    <i name="e_fr_energy">    -22.77424382 </i>
    <i name="e_wo_entrp">    -22.77406626 </i>
    <i name="e_0_energy">    -22.77415504 </i>
   </energy>
  </scstep>
  <scstep>
   <time name="dav">    0.98    0.98</time>
   <time name="total">    1.22    1.24</time>
   <energy>
    <i name="e_fr_energy">    -22.77242159 </i>
    <i name="e_wo_entrp">    -22.77224251 </i>
    <i name="e_0_energy">    -22.77233205 </i>
   </energy>
  </scstep>
  <scstep>
   <time name="dav">    0.97    0.97</time>
   <time name="total">    1.22    1.24</time>
   <energy>
    <i name="e_fr_energy">    -22.77229600 </i>
    <i name="e_wo_entrp">    -22.77211335 </i>
    <i name="e_0_energy">    -22.77220467 </i>
   </energy>
  </scstep>
  <scstep>
   <time name="dav">    1.00    1.00</time>
   <time name="total">    1.24    1.26</time>
   <energy>
    <i name="e_fr_energy">    -22.77230256 </i>
    <i name="e_wo_entrp">    -22.77211971 </i>
    <i name="e_0_energy">    -22.77221113 </i>
   </energy>
  </scstep>
  <scstep>
   <time name="dav">    1.01    1.01</time>
   <time name="total">    1.24    1.27</time>
   <energy>
    <i name="e_fr_energy">    -22.77230333 </i>
    <i name="e_wo_entrp">    -22.77212080 </i>
    <i name="e_0_energy">    -22.77221206 </i>
   </energy>
  </scstep>
  <scstep>
   <time name="dav">    0.97    0.97</time>
   <time name="total">    1.20    1.22</time>
   <energy>
    <i name="e_fr_energy">    -22.77230289 </i>
    <i name="e_wo_entrp">    -22.77212041 </i>
    <i name="e_0_energy">    -22.77221165 </i>
   </energy>
  </scstep>
  <scstep>
   <time name="dav">    0.86    0.86</time>
   <time name="total">    1.09    1.12</time>
   <energy>
    <i name="e_fr_energy">    -22.77230276 </i>
    <i name="e_wo_entrp">    -22.77212024 </i>
    <i name="e_0_energy">    -22.77221150 </i>
   </energy>
  </scstep>
  <scstep>
   <time name="dav">    0.67    0.67</time>
   <time name="total">    0.78    0.79</time>
   <energy>
    <i name="alphaZ">    129.39000340 </i>
    <i name="ewald">  -1671.36897809 </i>
    <i name="hartreedc">   -271.06980049 </i>
    <i name="XCdc">    -17.55261817 </i>
    <i name="pawpsdc">   3696.31329454 </i>
    <i name="pawaedc">  -3610.04643846 </i>
    <i name="eentropy">     -0.00018253 </i>
    <i name="bandstr">    -19.54209421 </i>
    <i name="atom">   1741.10451121 </i>
    <i name="e_fr_energy">    -22.77230279 </i>
    <i name="e_wo_entrp">    -22.77212026 </i>
    <i name="e_0_energy">    -22.77221152 </i>
   </energy>
  </scstep>
  <structure>
   <crystal>
    <varray name="basis" >
     <v>       0.00000000       2.97484256       2.97484256 </v>
     <v>       2.97484256       0.00000000       2.97484256 </v>
     <v>       2.97484256       2.97484256       0.00000000 </v>
    </varray>
    <i name="volume">     52.65285838 </i>
    <varray name="rec_basis" >
     <v>      -0.16807612       0.16807612       0.16807612 </v>
     <v>       0.16807612      -0.16807612       0.16807612 </v>
     <v>       0.16807612       0.16807612      -0.16807612 </v>
    </varray>
   </crystal>
   <varray name="positions" >
    <v>       0.75000000       0.75000000       0.75000000 </v>
    <v>       0.25000000       0.25000000       0.25000000 </v>
    <v>       0.00000000       0.00000000       0.00000000 </v>
   </varray>
  </structure>
  <varray name="forces" >
   <v>       0.00000000       0.00000000      -0.00000000 </v>
   <v>       0.00000000       0.00000000      -0.00000000 </v>
   <v>      -0.00000000      -0.00000000       0.00000000 </v>
  </varray>
  <varray name="stress" >
   <v>     430.33812526      -0.00000000       0.00000000 </v>
   <v>      -0.00000000     430.33812526       0.00000000 </v>
   <v>       0.00000000      -0.00000000     430.33812526 </v>
  </varray>
  <energy>
   <i name="e_fr_energy">    -22.77230279 </i>
   <i name="e_wo_entrp">    -22.77221152 </i>
   <i name="e_0_energy">     -0.00018253 </i>
  </energy>
  <time name="totalsc">   19.34   20.16</time>
  <eigenvalues>
   <array>
    <dimension dim="1">band</dimension>
    <dimension dim="2">kpoint</dimension>
    <dimension dim="3">spin</dimension>
    <field>eigene</field>
    <field>occ</field>
    <set>
     <set comment="spin 1">
      <set comment="kpoint 1">
       <r>  -20.1345    1.0000 </r>
       <r>  -20.1345    1.0000 </r>
       <r>  -20.1345    1.0000 </r>
       <r>   -2.7618    1.0000 </r>
       <r>    4.3939    1.0000 </r>
       <r>    4.3939    1.0000 </r>
       <r>    4.3939    1.0000 </r>
       <r>    5.1556    1.0000 </r>
       <r>    5.1556    1.0000 </r>
       <r>    9.6008    1.0000 </r>
       <r>    9.6008    1.0000 </r>
       <r>    9.6008    1.0000 </r>
       <r>   12.2226    0.0000 </r>
       <r>   12.9282    0.0000 </r>
       <r>   12.9282    0.0000 </r>
       <r>   12.9282    0.0000 </r>
      </set>
      <set comment="kpoint 2">
       <r>  -20.1375    1.0000 </r>
       <r>  -20.1342    1.0000 </r>
       <r>  -20.1342    1.0000 </r>
       <r>   -2.6753    1.0000 </r>
       <r>    4.3208    1.0000 </r>
       <r>    4.3283    1.0000 </r>
       <r>    4.3283    1.0000 </r>
       <r>    5.2362    1.0000 </r>
       <r>    5.2362    1.0000 </r>
       <r>    9.1075    1.0000 </r>
       <r>    9.5359    1.0000 </r>
       <r>    9.5359    1.0000 </r>
       <r>   12.0907    0.0000 </r>
       <r>   12.7338    0.0000 </r>
       <r>   12.7338    0.0000 </r>
       <r>   13.6194    0.0000 </r>
      </set>
      <set comment="kpoint 3">
       <r>  -20.1454    1.0000 </r>
       <r>  -20.1331    1.0000 </r>
       <r>  -20.1331    1.0000 </r>
       <r>   -2.4250    1.0000 </r>
       <r>    4.1150    1.0000 </r>
       <r>    4.2040    1.0000 </r>
       <r>    4.2040    1.0000 </r>
       <r>    5.3937    1.0000 </r>
       <r>    5.3937    1.0000 </r>
       <r>    8.1377    1.0000 </r>
       <r>    9.3767    1.0000 </r>
       <r>    9.3767    1.0000 </r>
       <r>   12.0494    0.0000 </r>
       <r>   12.5888    0.0000 </r>
       <r>   12.5888    0.0000 </r>
       <r>   14.3401    0.0000 </r>
      </set>
      <set comment="kpoint 4">
       <r>  -20.1565    1.0000 </r>
       <r>  -20.1317    1.0000 </r>
       <r>  -20.1317    1.0000 </r>
       <r>   -2.0402    1.0000 </r>
       <r>    3.8058    1.0000 </r>
       <r>    4.1014    1.0000 </r>
       <r>    4.1014    1.0000 </r>
       <r>    5.5184    1.0000 </r>
       <r>    5.5184    1.0000 </r>
       <r>    7.1922    1.0000 </r>
       <r>    9.2033    1.0000 </r>
       <r>    9.2033    1.0000 </r>
       <r>   12.0631    0.0000 </r>
       <r>   12.5877    0.0000 </r>
       <r>   12.5877    0.0000 </r>
       <r>   15.1248    0.0000 </r>
      </set>
      <set comment="kpoint 5">
       <r>  -20.1678    1.0000 </r>
       <r>  -20.1301    1.0000 </r>
       <r>  -20.1301    1.0000 </r>
       <r>   -1.5749    1.0000 </r>
       <r>    3.4258    1.0000 </r>
       <r>    4.0469    1.0000 </r>
       <r>    4.0469    1.0000 </r>
       <r>    5.5600    1.0000 </r>
       <r>    5.5600    1.0000 </r>
       <r>    6.4536    1.0000 </r>
       <r>    9.0831    1.0000 </r>
       <r>    9.0831    1.0000 </r>
       <r>   12.0802    0.0000 </r>
       <r>   12.7031    0.0000 </r>
       <r>   12.7031    0.0000 </r>
       <r>   14.6224    0.0000 </r>
      </set>
      <set comment="kpoint 6">
       <r>  -20.1770    1.0000 </r>
       <r>  -20.1288    1.0000 </r>
       <r>  -20.1288    1.0000 </r>
       <r>   -1.1199    1.0000 </r>
       <r>    3.0362    1.0000 </r>
       <r>    4.0353    1.0000 </r>
       <r>    4.0353    1.0000 </r>
       <r>    5.5305    1.0000 </r>
       <r>    5.5305    1.0000 </r>
       <r>    5.9792    1.0000 </r>
       <r>    9.0316    1.0000 </r>
       <r>    9.0316    1.0000 </r>
       <r>   12.0807    0.0000 </r>
       <r>   12.8835    0.0000 </r>
       <r>   12.8835    0.0000 </r>
       <r>   13.7544    0.0000 </r>
      </set>
      <set comment="kpoint 7">
       <r>  -20.1821    1.0000 </r>
       <r>  -20.1281    1.0000 </r>
       <r>  -20.1281    1.0000 </r>
       <r>   -0.8176    1.0000 </r>
       <r>    2.7664    1.0000 </r>
       <r>    4.0420    1.0000 </r>
       <r>    4.0420    1.0000 </r>
       <r>    5.4885    1.0000 </r>
       <r>    5.4885    1.0000 </r>
       <r>    5.7570    1.0000 </r>
       <r>    9.0205    1.0000 </r>
       <r>    9.0205    1.0000 </r>
       <r>   12.0649    0.0000 </r>
       <r>   13.0321    0.0000 </r>
       <r>   13.0321    0.0000 </r>
       <r>   13.2917    0.0000 </r>
      </set>
      <set comment="kpoint 8">
       <r>  -20.1374    1.0000 </r>
       <r>  -20.1346    1.0000 </r>
       <r>  -20.1346    1.0000 </r>
       <r>   -2.6469    1.0000 </r>
       <r>    4.0926    1.0000 </r>
       <r>    4.4314    1.0000 </r>
       <r>    4.4314    1.0000 </r>
       <r>    5.1973    1.0000 </r>
       <r>    5.2868    1.0000 </r>
       <r>    9.2072    1.0000 </r>
       <r>    9.3845    1.0000 </r>
       <r>    9.3845    1.0000 </r>
       <r>   11.9456    0.0000 </r>
       <r>   12.8668    0.0000 </r>
       <r>   13.2100    0.0000 </r>
       <r>   13.2657    0.0000 </r>
      </set>
      <set comment="kpoint 9">
       <r>  -20.1433    1.0000 </r>
       <r>  -20.1343    1.0000 </r>
       <r>  -20.1337    1.0000 </r>
       <r>   -2.4528    1.0000 </r>
       <r>    3.8427    1.0000 </r>
       <r>    4.3939    1.0000 </r>
       <r>    4.4074    1.0000 </r>
       <r>    5.3025    1.0000 </r>
       <r>    5.3977    1.0000 </r>
       <r>    8.4493    1.0000 </r>
       <r>    9.1816    1.0000 </r>
       <r>    9.3061    1.0000 </r>
       <r>   11.9352    0.0000 </r>
       <r>   12.6555    0.0000 </r>
       <r>   12.9011    0.0000 </r>
       <r>   13.9235    0.0000 </r>
      </set>
      <set comment="kpoint 10">
       <r>  -20.1531    1.0000 </r>
       <r>  -20.1333    1.0000 </r>
       <r>  -20.1324    1.0000 </r>
       <r>   -2.1158    1.0000 </r>
       <r>    3.6056    1.0000 </r>
       <r>    4.2499    1.0000 </r>
       <r>    4.3277    1.0000 </r>
       <r>    5.4409    1.0000 </r>
       <r>    5.5186    1.0000 </r>
       <r>    7.5183    1.0000 </r>
       <r>    9.0109    1.0000 </r>
       <r>    9.1541    1.0000 </r>
       <r>   12.0924    0.0000 </r>
       <r>   12.5691    0.0000 </r>
       <r>   12.7164    0.0000 </r>
       <r>   14.6501    0.0000 </r>
      </set>
      <set comment="kpoint 11">
       <r>  -20.1640    1.0000 </r>
       <r>  -20.1318    1.0000 </r>
       <r>  -20.1311    1.0000 </r>
       <r>   -1.6819    1.0000 </r>
       <r>    3.3638    1.0000 </r>
       <r>    4.0895    1.0000 </r>
       <r>    4.2541    1.0000 </r>
       <r>    5.5137    1.0000 </r>
       <r>    5.5904    1.0000 </r>
       <r>    6.7191    1.0000 </r>
       <r>    8.9226    1.0000 </r>
       <r>    8.9942    1.0000 </r>
       <r>   12.0805    0.0000 </r>
       <r>   12.6816    0.0000 </r>
       <r>   12.8082    0.0000 </r>
       <r>   14.7244    0.0000 </r>
      </set>
      <set comment="kpoint 12">
       <r>  -20.1737    1.0000 </r>
       <r>  -20.1303    1.0000 </r>
       <r>  -20.1302    1.0000 </r>
       <r>   -1.2287    1.0000 </r>
       <r>    3.0934    1.0000 </r>
       <r>    3.9944    1.0000 </r>
       <r>    4.1944    1.0000 </r>
       <r>    5.5144    1.0000 </r>
       <r>    5.5914    1.0000 </r>
       <r>    6.1533    1.0000 </r>
       <r>    8.8902    1.0000 </r>
       <r>    8.9105    1.0000 </r>
       <r>   12.0349    0.0000 </r>
       <r>   12.7878    0.0000 </r>
       <r>   13.0473    0.0000 </r>
       <r>   13.9731    0.0000 </r>
      </set>
      <set comment="kpoint 13">
       <r>  -20.1799    1.0000 </r>
       <r>  -20.1300    1.0000 </r>
       <r>  -20.1289    1.0000 </r>
       <r>   -0.8769    1.0000 </r>
       <r>    2.8520    1.0000 </r>
       <r>    3.9890    1.0000 </r>
       <r>    4.1301    1.0000 </r>
       <r>    5.5020    1.0000 </r>
       <r>    5.5500    1.0000 </r>
       <r>    5.8365    1.0000 </r>
       <r>    8.8433    1.0000 </r>
       <r>    8.9298    1.0000 </r>
       <r>   12.0490    0.0000 </r>
       <r>   12.8630    0.0000 </r>
       <r>   12.9685    0.0000 </r>
       <r>   13.7537    0.0000 </r>
      </set>
      <set comment="kpoint 14">
       <r>  -20.1814    1.0000 </r>
       <r>  -20.1304    1.0000 </r>
       <r>  -20.1281    1.0000 </r>
       <r>   -0.7725    1.0000 </r>
       <r>    2.7776    1.0000 </r>
       <r>    4.0471    1.0000 </r>
       <r>    4.0484    1.0000 </r>
       <r>    5.5066    1.0000 </r>
       <r>    5.5303    1.0000 </r>
       <r>    5.7591    1.0000 </r>
       <r>    8.8158    1.0000 </r>
       <r>    8.9513    1.0000 </r>
       <r>   12.1056    0.0000 </r>
       <r>   12.6631    0.0000 </r>
       <r>   13.0731    0.0000 </r>
       <r>   13.7839    0.0000 </r>
      </set>
      <set comment="kpoint 15">
       <r>  -20.1781    1.0000 </r>
       <r>  -20.1313    1.0000 </r>
       <r>  -20.1281    1.0000 </r>
       <r>   -0.9725    1.0000 </r>
       <r>    2.9339    1.0000 </r>
       <r>    3.9659    1.0000 </r>
       <r>    4.1376    1.0000 </r>
       <r>    5.4835    1.0000 </r>
       <r>    5.5946    1.0000 </r>
       <r>    5.9214    1.0000 </r>
       <r>    8.7751    1.0000 </r>
       <r>    8.9872    1.0000 </r>
       <r>   12.1036    0.0000 </r>
       <r>   12.8492    0.0000 </r>
       <r>   12.9880    0.0000 </r>
       <r>   13.7770    0.0000 </r>
      </set>
      <set comment="kpoint 16">
       <r>  -20.1706    1.0000 </r>
       <r>  -20.1325    1.0000 </r>
       <r>  -20.1288    1.0000 </r>
       <r>   -1.3743    1.0000 </r>
       <r>    3.2299    1.0000 </r>
       <r>    3.9169    1.0000 </r>
       <r>    4.2446    1.0000 </r>
       <r>    5.4851    1.0000 </r>
       <r>    5.6434    1.0000 </r>
       <r>    6.3200    1.0000 </r>
       <r>    8.7303    1.0000 </r>
       <r>    9.0740    1.0000 </r>
       <r>   12.1463    0.0000 </r>
       <r>   12.7742    0.0000 </r>
       <r>   12.9230    0.0000 </r>
       <r>   14.2166    0.0000 </r>
      </set>
      <set comment="kpoint 17">
       <r>  -20.1603    1.0000 </r>
       <r>  -20.1338    1.0000 </r>
       <r>  -20.1300    1.0000 </r>
       <r>   -1.8324    1.0000 </r>
       <r>    3.5514    1.0000 </r>
       <r>    3.9289    1.0000 </r>
       <r>    4.3589    1.0000 </r>
       <r>    5.4590    1.0000 </r>
       <r>    5.6256    1.0000 </r>
       <r>    6.9649    1.0000 </r>
       <r>    8.7362    1.0000 </r>
       <r>    9.2322    1.0000 </r>
       <r>   12.2769    0.0000 </r>
       <r>   12.5484    0.0000 </r>
       <r>   12.7649    0.0000 </r>
       <r>   14.6166    0.0000 </r>
      </set>
      <set comment="kpoint 18">
       <r>  -20.1497    1.0000 </r>
       <r>  -20.1346    1.0000 </r>
       <r>  -20.1316    1.0000 </r>
       <r>   -2.2411    1.0000 </r>
       <r>    3.8490    1.0000 </r>
       <r>    4.0128    1.0000 </r>
       <r>    4.4543    1.0000 </r>
       <r>    5.3694    1.0000 </r>
       <r>    5.5275    1.0000 </r>
       <r>    7.8093    1.0000 </r>
       <r>    8.8550    1.0000 </r>
       <r>    9.4246    1.0000 </r>
       <r>   12.3153    0.0000 </r>
       <r>   12.4073    0.0000 </r>
       <r>   12.7507    0.0000 </r>
       <r>   13.9877    0.0000 </r>
      </set>
      <set comment="kpoint 19">
       <r>  -20.1414    1.0000 </r>
       <r>  -20.1348    1.0000 </r>
       <r>  -20.1331    1.0000 </r>
       <r>   -2.5347    1.0000 </r>
       <r>    4.1124    1.0000 </r>
       <r>    4.1592    1.0000 </r>
       <r>    4.4635    1.0000 </r>
       <r>    5.2667    1.0000 </r>
       <r>    5.3775    1.0000 </r>
       <r>    8.6505    1.0000 </r>
       <r>    9.1448    1.0000 </r>
       <r>    9.5539    1.0000 </r>
       <r>   12.1343    0.0000 </r>
       <r>   12.4469    0.0000 </r>
       <r>   12.9981    0.0000 </r>
       <r>   13.4228    0.0000 </r>
      </set>
      <set comment="kpoint 20">
       <r>  -20.1452    1.0000 </r>
       <r>  -20.1347    1.0000 </r>
       <r>  -20.1347    1.0000 </r>
       <r>   -2.3212    1.0000 </r>
       <r>    3.5329    1.0000 </r>
       <r>    4.5344    1.0000 </r>
       <r>    4.5344    1.0000 </r>
       <r>    5.3173    1.0000 </r>
       <r>    5.3914    1.0000 </r>
       <r>    8.4612    1.0000 </r>
       <r>    8.9415    1.0000 </r>
       <r>    8.9415    1.0000 </r>
       <r>   11.6168    1.0000 </r>
       <r>   12.9388    0.0000 </r>
       <r>   12.9899    0.0000 </r>
       <r>   14.0163    0.0000 </r>
      </set>
      <set comment="kpoint 21">
       <r>  -20.1524    1.0000 </r>
       <r>  -20.1344    1.0000 </r>
       <r>  -20.1342    1.0000 </r>
       <r>   -2.0481    1.0000 </r>
       <r>    3.2783    1.0000 </r>
       <r>    4.5115    1.0000 </r>
       <r>    4.5452    1.0000 </r>
       <r>    5.4276    1.0000 </r>
       <r>    5.4339    1.0000 </r>
       <r>    7.8162    1.0000 </r>
       <r>    8.7514    1.0000 </r>
       <r>    8.8034    1.0000 </r>
       <r>   11.6660    1.0000 </r>
       <r>   12.7240    0.0000 </r>
       <r>   12.9979    0.0000 </r>
       <r>   14.4823    0.0000 </r>
      </set>
      <set comment="kpoint 22">
       <r>  -20.1617    1.0000 </r>
       <r>  -20.1337    1.0000 </r>
       <r>  -20.1334    1.0000 </r>
       <r>   -1.6739    1.0000 </r>
       <r>    3.0954    1.0000 </r>
       <r>    4.3571    1.0000 </r>
       <r>    4.4948    1.0000 </r>
       <r>    5.5171    1.0000 </r>
       <r>    5.5225    1.0000 </r>
       <r>    7.0575    1.0000 </r>
       <r>    8.6471    1.0000 </r>
       <r>    8.6669    1.0000 </r>
       <r>   11.8187    1.0000 </r>
       <r>   12.5875    0.0000 </r>
       <r>   13.1721    0.0000 </r>
       <r>   14.6092    0.0000 </r>
      </set>
      <set comment="kpoint 23">
       <r>  -20.1702    1.0000 </r>
       <r>  -20.1339    1.0000 </r>
       <r>  -20.1320    1.0000 </r>
       <r>   -1.2666    1.0000 </r>
       <r>    2.9833    1.0000 </r>
       <r>    4.1653    1.0000 </r>
       <r>    4.4145    1.0000 </r>
       <r>    5.5552    1.0000 </r>
       <r>    5.5808    1.0000 </r>
       <r>    6.4274    1.0000 </r>
       <r>    8.5010    1.0000 </r>
       <r>    8.6766    1.0000 </r>
       <r>   11.8321    0.9875 </r>
       <r>   12.6269    0.0000 </r>
       <r>   13.5093    0.0000 </r>
       <r>   14.0240    0.0000 </r>
      </set>
      <set comment="kpoint 24">
       <r>  -20.1761    1.0000 </r>
       <r>  -20.1348    1.0000 </r>
       <r>  -20.1304    1.0000 </r>
       <r>   -0.9239    1.0000 </r>
       <r>    2.9277    1.0000 </r>
       <r>    4.0215    1.0000 </r>
       <r>    4.2981    1.0000 </r>
       <r>    5.5717    1.0000 </r>
       <r>    5.5886    1.0000 </r>
       <r>    6.0210    1.0000 </r>
       <r>    8.4032    1.0000 </r>
       <r>    8.7180    1.0000 </r>
       <r>   11.8416    0.8165 </r>
       <r>   12.8379    0.0000 </r>
       <r>   13.0438    0.0000 </r>
       <r>   14.1823    0.0000 </r>
      </set>
      <set comment="kpoint 25">
       <r>  -20.1782    1.0000 </r>
       <r>  -20.1362    1.0000 </r>
       <r>  -20.1290    1.0000 </r>
       <r>   -0.7576    1.0000 </r>
       <r>    2.9171    1.0000 </r>
       <r>    3.9958    1.0000 </r>
       <r>    4.1477    1.0000 </r>
       <r>    5.5376    1.0000 </r>
       <r>    5.6210    1.0000 </r>
       <r>    5.8887    1.0000 </r>
       <r>    8.3351    1.0000 </r>
       <r>    8.7527    1.0000 </r>
       <r>   11.9831    0.0000 </r>
       <r>   12.5505    0.0000 </r>
       <r>   13.0796    0.0000 </r>
       <r>   14.4608    0.0000 </r>
      </set>
      <set comment="kpoint 26">
       <r>  -20.1763    1.0000 </r>
       <r>  -20.1375    1.0000 </r>
       <r>  -20.1282    1.0000 </r>
       <r>   -0.8368    1.0000 </r>
       <r>    2.9659    1.0000 </r>
       <r>    3.9957    1.0000 </r>
       <r>    4.1074    1.0000 </r>
       <r>    5.4892    1.0000 </r>
       <r>    5.6943    1.0000 </r>
       <r>    6.0000    1.0000 </r>
       <r>    8.2517    1.0000 </r>
       <r>    8.8002    1.0000 </r>
       <r>   12.1299    0.0000 </r>
       <r>   12.5576    0.0000 </r>
       <r>   13.1211    0.0000 </r>
       <r>   14.3821    0.0000 </r>
      </set>
      <set comment="kpoint 27">
       <r>  -20.1710    1.0000 </r>
       <r>  -20.1383    1.0000 </r>
       <r>  -20.1281    1.0000 </r>
       <r>   -1.1292    1.0000 </r>
       <r>    3.0937    1.0000 </r>
       <r>    3.8836    1.0000 </r>
       <r>    4.3027    1.0000 </r>
       <r>    5.4617    1.0000 </r>
       <r>    5.7453    1.0000 </r>
       <r>    6.3300    1.0000 </r>
       <r>    8.1418    1.0000 </r>
       <r>    8.9057    1.0000 </r>
       <r>   12.1699    0.0000 </r>
       <r>   12.9405    0.0000 </r>
       <r>   13.1140    0.0000 </r>
       <r>   14.1583    0.0000 </r>
      </set>
      <set comment="kpoint 28">
       <r>  -20.1636    1.0000 </r>
       <r>  -20.1382    1.0000 </r>
       <r>  -20.1287    1.0000 </r>
       <r>   -1.5285    1.0000 </r>
       <r>    3.2969    1.0000 </r>
       <r>    3.8418    1.0000 </r>
       <r>    4.4901    1.0000 </r>
       <r>    5.4257    1.0000 </r>
       <r>    5.7339    1.0000 </r>
       <r>    6.8515    1.0000 </r>
       <r>    8.0817    1.0000 </r>
       <r>    9.0875    1.0000 </r>
       <r>   12.3621    0.0000 </r>
       <r>   12.6792    0.0000 </r>
       <r>   13.3150    0.0000 </r>
       <r>   14.1446    0.0000 </r>
      </set>
      <set comment="kpoint 29">
       <r>  -20.1559    1.0000 </r>
       <r>  -20.1368    1.0000 </r>
       <r>  -20.1300    1.0000 </r>
       <r>   -1.9258    1.0000 </r>
       <r>    3.5574    1.0000 </r>
       <r>    3.8852    1.0000 </r>
       <r>    4.5689    1.0000 </r>
       <r>    5.3779    1.0000 </r>
       <r>    5.6535    1.0000 </r>
       <r>    7.4205    1.0000 </r>
       <r>    8.2670    1.0000 </r>
       <r>    9.2976    1.0000 </r>
       <r>   12.4617    0.0000 </r>
       <r>   12.6143    0.0000 </r>
       <r>   12.9230    0.0000 </r>
       <r>   13.8816    0.0000 </r>
      </set>
      <set comment="kpoint 30">
       <r>  -20.1566    1.0000 </r>
       <r>  -20.1349    1.0000 </r>
       <r>  -20.1349    1.0000 </r>
       <r>   -1.8496    1.0000 </r>
       <r>    3.0203    1.0000 </r>
       <r>    4.6755    1.0000 </r>
       <r>    4.6755    1.0000 </r>
       <r>    5.3223    1.0000 </r>
       <r>    5.4993    1.0000 </r>
       <r>    7.7566    1.0000 </r>
       <r>    8.5290    1.0000 </r>
       <r>    8.5290    1.0000 </r>
       <r>   11.3660    1.0000 </r>
       <r>   12.5482    0.0000 </r>
       <r>   13.2279    0.0000 </r>
       <r>   14.6449    0.0000 </r>
      </set>
      <set comment="kpoint 31">
       <r>  -20.1635    1.0000 </r>
       <r>  -20.1351    1.0000 </r>
       <r>  -20.1346    1.0000 </r>
       <r>   -1.5564    1.0000 </r>
       <r>    2.8700    1.0000 </r>
       <r>    4.6256    1.0000 </r>
       <r>    4.7001    1.0000 </r>
       <r>    5.3349    1.0000 </r>
       <r>    5.5988    1.0000 </r>
       <r>    7.2683    1.0000 </r>
       <r>    8.3588    1.0000 </r>
       <r>    8.4169    1.0000 </r>
       <r>   11.4052    1.0000 </r>
       <r>   12.3676    0.0000 </r>
       <r>   13.4092    0.0000 </r>
       <r>   14.6371    0.0000 </r>
      </set>
      <set comment="kpoint 32">
       <r>  -20.1700    1.0000 </r>
       <r>  -20.1364    1.0000 </r>
       <r>  -20.1336    1.0000 </r>
       <r>   -1.2284    1.0000 </r>
       <r>    2.8477    1.0000 </r>
       <r>    4.4168    1.0000 </r>
       <r>    4.6441    1.0000 </r>
       <r>    5.4609    1.0000 </r>
       <r>    5.6560    1.0000 </r>
       <r>    6.6889    1.0000 </r>
       <r>    8.1471    1.0000 </r>
       <r>    8.4194    1.0000 </r>
       <r>   11.5078    1.0000 </r>
       <r>   12.3493    0.0000 </r>
       <r>   13.8090    0.0000 </r>
       <r>   14.0754    0.0000 </r>
      </set>
      <set comment="kpoint 33">
       <r>  -20.1740    1.0000 </r>
       <r>  -20.1390    1.0000 </r>
       <r>  -20.1321    1.0000 </r>
       <r>   -0.9417    1.0000 </r>
       <r>    2.9498    1.0000 </r>
       <r>    4.1887    1.0000 </r>
       <r>    4.5129    1.0000 </r>
       <r>    5.5545    1.0000 </r>
       <r>    5.6913    1.0000 </r>
       <r>    6.2347    1.0000 </r>
       <r>    7.9428    1.0000 </r>
       <r>    8.4659    1.0000 </r>
       <r>   11.5496    1.0000 </r>
       <r>   12.5747    0.0000 </r>
       <r>   13.3230    0.0000 </r>
       <r>   14.3038    0.0000 </r>
      </set>
      <set comment="kpoint 34">
       <r>  -20.1748    1.0000 </r>
       <r>  -20.1423    1.0000 </r>
       <r>  -20.1305    1.0000 </r>
       <r>   -0.7683    1.0000 </r>
       <r>    3.1132    1.0000 </r>
       <r>    4.0077    1.0000 </r>
       <r>    4.3225    1.0000 </r>
       <r>    5.4974    1.0000 </r>
       <r>    5.7460    1.0000 </r>
       <r>    6.1067    1.0000 </r>
       <r>    7.7794    1.0000 </r>
       <r>    8.5030    1.0000 </r>
       <r>   11.6543    1.0000 </r>
       <r>   12.7598    0.0000 </r>
       <r>   12.9819    0.0000 </r>
       <r>   14.3866    0.0000 </r>
      </set>
      <set comment="kpoint 35">
       <r>  -20.1727    1.0000 </r>
       <r>  -20.1451    1.0000 </r>
       <r>  -20.1291    1.0000 </r>
       <r>   -0.7541    1.0000 </r>
       <r>    3.1826    1.0000 </r>
       <r>    3.9855    1.0000 </r>
       <r>    4.1181    1.0000 </r>
       <r>    5.4366    1.0000 </r>
       <r>    5.8097    1.0000 </r>
       <r>    6.2309    1.0000 </r>
       <r>    7.6462    1.0000 </r>
       <r>    8.5528    1.0000 </r>
       <r>   11.8890    0.0000 </r>
       <r>   12.5127    0.0000 </r>
       <r>   13.2505    0.0000 </r>
       <r>   14.2411    0.0000 </r>
      </set>
      <set comment="kpoint 36">
       <r>  -20.1693    1.0000 </r>
       <r>  -20.1458    1.0000 </r>
       <r>  -20.1282    1.0000 </r>
       <r>   -0.9080    1.0000 </r>
       <r>    3.1331    1.0000 </r>
       <r>    3.9489    1.0000 </r>
       <r>    4.1644    1.0000 </r>
       <r>    5.4505    1.0000 </r>
       <r>    5.8416    1.0000 </r>
       <r>    6.4826    1.0000 </r>
       <r>    7.5426    1.0000 </r>
       <r>    8.6675    1.0000 </r>
       <r>   12.0669    0.0000 </r>
       <r>   12.8353    0.0000 </r>
       <r>   13.1598    0.0000 </r>
       <r>   14.1343    0.0000 </r>
      </set>
      <set comment="kpoint 37">
       <r>  -20.1663    1.0000 </r>
       <r>  -20.1431    1.0000 </r>
       <r>  -20.1281    1.0000 </r>
       <r>   -1.1922    1.0000 </r>
       <r>    3.1479    1.0000 </r>
       <r>    3.8502    1.0000 </r>
       <r>    4.3849    1.0000 </r>
       <r>    5.4493    1.0000 </r>
       <r>    5.8144    1.0000 </r>
       <r>    6.7437    1.0000 </r>
       <r>    7.6173    1.0000 </r>
       <r>    8.8633    1.0000 </r>
       <r>   12.2160    0.0000 </r>
       <r>   12.9183    0.0000 </r>
       <r>   13.5163    0.0000 </r>
       <r>   14.1710    0.0000 </r>
      </set>
      <set comment="kpoint 38">
       <r>  -20.1689    1.0000 </r>
       <r>  -20.1351    1.0000 </r>
       <r>  -20.1351    1.0000 </r>
       <r>   -1.3596    1.0000 </r>
       <r>    2.7632    1.0000 </r>
       <r>    4.8136    1.0000 </r>
       <r>    4.8136    1.0000 </r>
       <r>    5.1304    1.0000 </r>
       <r>    5.7123    1.0000 </r>
       <r>    7.0895    1.0000 </r>
       <r>    8.2593    1.0000 </r>
       <r>    8.2593    1.0000 </r>
       <r>   11.1703    1.0000 </r>
       <r>   12.1190    0.0000 </r>
       <r>   13.5473    0.0000 </r>
       <r>   14.5605    0.0000 </r>
      </set>
      <set comment="kpoint 39">
       <r>  -20.1742    1.0000 </r>
       <r>  -20.1360    1.0000 </r>
       <r>  -20.1348    1.0000 </r>
       <r>   -1.1329    1.0000 </r>
       <r>    2.8054    1.0000 </r>
       <r>    4.6688    1.0000 </r>
       <r>    4.8232    1.0000 </r>
       <r>    5.2276    1.0000 </r>
       <r>    5.7944    1.0000 </r>
       <r>    6.6676    1.0000 </r>
       <r>    8.0856    1.0000 </r>
       <r>    8.2258    1.0000 </r>
       <r>   11.1853    1.0000 </r>
       <r>   12.0060    0.0000 </r>
       <r>   13.8111    0.0000 </r>
       <r>   14.1748    0.0000 </r>
      </set>
      <set comment="kpoint 40">
       <r>  -20.1768    1.0000 </r>
       <r>  -20.1390    1.0000 </r>
       <r>  -20.1338    1.0000 </r>
       <r>   -0.9301    1.0000 </r>
       <r>    2.9906    1.0000 </r>
       <r>    4.4180    1.0000 </r>
       <r>    4.7272    1.0000 </r>
       <r>    5.4207    1.0000 </r>
       <r>    5.8378    1.0000 </r>
       <r>    6.2448    1.0000 </r>
       <r>    7.7826    1.0000 </r>
       <r>    8.2573    1.0000 </r>
       <r>   11.2594    1.0000 </r>
       <r>   12.1693    0.0000 </r>
       <r>   13.5263    0.0000 </r>
       <r>   14.1417    0.0000 </r>
      </set>
      <set comment="kpoint 41">
       <r>  -20.1757    1.0000 </r>
       <r>  -20.1439    1.0000 </r>
       <r>  -20.1323    1.0000 </r>
       <r>   -0.7902    1.0000 </r>
       <r>    3.2561    1.0000 </r>
       <r>    4.1825    1.0000 </r>
       <r>    4.5402    1.0000 </r>
       <r>    5.4049    1.0000 </r>
       <r>    5.8789    1.0000 </r>
       <r>    6.1568    1.0000 </r>
       <r>    7.4548    1.0000 </r>
       <r>    8.2872    1.0000 </r>
       <r>   11.3579    1.0000 </r>
       <r>   12.6508    0.0000 </r>
       <r>   12.9945    0.0000 </r>
       <r>   13.9478    0.0000 </r>
      </set>
      <set comment="kpoint 42">
       <r>  -20.1716    1.0000 </r>
       <r>  -20.1492    1.0000 </r>
       <r>  -20.1306    1.0000 </r>
       <r>   -0.7323    1.0000 </r>
       <r>    3.4642    1.0000 </r>
       <r>    3.9438    1.0000 </r>
       <r>    4.3122    1.0000 </r>
       <r>    5.3166    1.0000 </r>
       <r>    5.9116    1.0000 </r>
       <r>    6.4228    1.0000 </r>
       <r>    7.1683    1.0000 </r>
       <r>    8.3355    1.0000 </r>
       <r>   11.5575    1.0000 </r>
       <r>   12.6427    0.0000 </r>
       <r>   13.2883    0.0000 </r>
       <r>   13.8701    0.0000 </r>
      </set>
      <set comment="kpoint 43">
       <r>  -20.1683    1.0000 </r>
       <r>  -20.1510    1.0000 </r>
       <r>  -20.1291    1.0000 </r>
       <r>   -0.7689    1.0000 </r>
       <r>    3.3433    1.0000 </r>
       <r>    3.9676    1.0000 </r>
       <r>    4.1007    1.0000 </r>
       <r>    5.3756    1.0000 </r>
       <r>    5.9032    1.0000 </r>
       <r>    6.6437    1.0000 </r>
       <r>    7.0983    1.0000 </r>
       <r>    8.4586    1.0000 </r>
       <r>   11.8434    0.7397 </r>
       <r>   12.5784    0.0000 </r>
       <r>   13.3635    0.0000 </r>
       <r>   13.9173    0.0000 </r>
      </set>
      <set comment="kpoint 44">
       <r>  -20.1793    1.0000 </r>
       <r>  -20.1353    1.0000 </r>
       <r>  -20.1353    1.0000 </r>
       <r>   -1.0133    1.0000 </r>
       <r>    2.8969    1.0000 </r>
       <r>    4.9121    1.0000 </r>
       <r>    4.9121    1.0000 </r>
       <r>    4.9517    1.0000 </r>
       <r>    5.9089    1.0000 </r>
       <r>    6.3410    1.0000 </r>
       <r>    8.1467    1.0000 </r>
       <r>    8.1467    1.0000 </r>
       <r>   11.0241    1.0000 </r>
       <r>   11.7474    1.0000 </r>
       <r>   13.7484    0.0000 </r>
       <r>   14.0607    0.0000 </r>
      </set>
      <set comment="kpoint 45">
       <r>  -20.1819    1.0000 </r>
       <r>  -20.1366    1.0000 </r>
       <r>  -20.1350    1.0000 </r>
       <r>   -0.9013    1.0000 </r>
       <r>    3.1016    1.0000 </r>
       <r>    4.6707    1.0000 </r>
       <r>    4.8899    1.0000 </r>
       <r>    5.1953    1.0000 </r>
       <r>    5.9458    1.0000 </r>
       <r>    5.9645    1.0000 </r>
       <r>    7.9848    1.0000 </r>
       <r>    8.1493    1.0000 </r>
       <r>   11.0378    1.0000 </r>
       <r>   11.7497    1.0000 </r>
       <r>   13.6128    0.0000 </r>
       <r>   13.8532    0.0000 </r>
      </set>
      <set comment="kpoint 46">
       <r>  -20.1806    1.0000 </r>
       <r>  -20.1406    1.0000 </r>
       <r>  -20.1339    1.0000 </r>
       <r>   -0.8142    1.0000 </r>
       <r>    3.3328    1.0000 </r>
       <r>    4.4678    1.0000 </r>
       <r>    4.7540    1.0000 </r>
       <r>    5.2849    1.0000 </r>
       <r>    5.8316    1.0000 </r>
       <r>    5.9834    1.0000 </r>
       <r>    7.6271    1.0000 </r>
       <r>    8.1648    1.0000 </r>
       <r>   11.1300    1.0000 </r>
       <r>   12.1095    0.0000 </r>
       <r>   13.2245    0.0000 </r>
       <r>   13.7075    0.0000 </r>
      </set>
      <set comment="kpoint 47">
       <r>  -20.1760    1.0000 </r>
       <r>  -20.1460    1.0000 </r>
       <r>  -20.1323    1.0000 </r>
       <r>   -0.7566    1.0000 </r>
       <r>    3.4889    1.0000 </r>
       <r>    4.2018    1.0000 </r>
       <r>    4.5416    1.0000 </r>
       <r>    5.2187    1.0000 </r>
       <r>    5.9714    1.0000 </r>
       <r>    6.1720    1.0000 </r>
       <r>    7.2524    1.0000 </r>
       <r>    8.2076    1.0000 </r>
       <r>   11.2960    1.0000 </r>
       <r>   12.7625    0.0000 </r>
       <r>   12.8770    0.0000 </r>
       <r>   13.6214    0.0000 </r>
      </set>
      <set comment="kpoint 48">
       <r>  -20.1852    1.0000 </r>
       <r>  -20.1354    1.0000 </r>
       <r>  -20.1354    1.0000 </r>
       <r>   -0.8686    1.0000 </r>
       <r>    3.2523    1.0000 </r>
       <r>    4.9459    1.0000 </r>
       <r>    4.9585    1.0000 </r>
       <r>    4.9585    1.0000 </r>
       <r>    5.5957    1.0000 </r>
       <r>    6.0301    1.0000 </r>
       <r>    8.1292    1.0000 </r>
       <r>    8.1292    1.0000 </r>
       <r>   10.9452    1.0000 </r>
       <r>   11.5289    1.0000 </r>
       <r>   13.5895    0.0000 </r>
       <r>   13.7001    0.0000 </r>
      </set>
      <set comment="kpoint 49">
       <r>  -20.1847    1.0000 </r>
       <r>  -20.1369    1.0000 </r>
       <r>  -20.1350    1.0000 </r>
       <r>   -0.8395    1.0000 </r>
       <r>    3.3453    1.0000 </r>
       <r>    4.7381    1.0000 </r>
       <r>    4.9089    1.0000 </r>
       <r>    5.1941    1.0000 </r>
       <r>    5.4833    1.0000 </r>
       <r>    6.0344    1.0000 </r>
       <r>    7.9691    1.0000 </r>
       <r>    8.1322    1.0000 </r>
       <r>   10.9872    1.0000 </r>
       <r>   11.6599    1.0000 </r>
       <r>   13.4415    0.0000 </r>
       <r>   13.6505    0.0000 </r>
      </set>
      <set comment="kpoint 50">
       <r>  -20.1490    1.0000 </r>
       <r>  -20.1353    1.0000 </r>
       <r>  -20.1325    1.0000 </r>
       <r>   -2.2172    1.0000 </r>
       <r>    3.5738    1.0000 </r>
       <r>    4.2625    1.0000 </r>
       <r>    4.5480    1.0000 </r>
       <r>    5.3494    1.0000 </r>
       <r>    5.4994    1.0000 </r>
       <r>    7.9865    1.0000 </r>
       <r>    8.6947    1.0000 </r>
       <r>    9.2588    1.0000 </r>
       <r>   11.9809    0.0000 </r>
       <r>   12.7108    0.0000 </r>
       <r>   12.8679    0.0000 </r>
       <r>   13.9224    0.0000 </r>
      </set>
      <set comment="kpoint 51">
       <r>  -20.1577    1.0000 </r>
       <r>  -20.1357    1.0000 </r>
       <r>  -20.1310    1.0000 </r>
       <r>   -1.8597    1.0000 </r>
       <r>    3.3446    1.0000 </r>
       <r>    4.1200    1.0000 </r>
       <r>    4.5319    1.0000 </r>
       <r>    5.4198    1.0000 </r>
       <r>    5.6105    1.0000 </r>
       <r>    7.2767    1.0000 </r>
       <r>    8.4360    1.0000 </r>
       <r>    9.1211    1.0000 </r>
       <r>   12.1330    0.0000 </r>
       <r>   12.6479    0.0000 </r>
       <r>   12.9509    0.0000 </r>
       <r>   14.3037    0.0000 </r>
      </set>
      <set comment="kpoint 52">
       <r>  -20.1669    1.0000 </r>
       <r>  -20.1354    1.0000 </r>
       <r>  -20.1298    1.0000 </r>
       <r>   -1.4379    1.0000 </r>
       <r>    3.1519    1.0000 </r>
       <r>    4.0150    1.0000 </r>
       <r>    4.4154    1.0000 </r>
       <r>    5.4728    1.0000 </r>
       <r>    5.6662    1.0000 </r>
       <r>    6.5994    1.0000 </r>
       <r>    8.3959    1.0000 </r>
       <r>    8.9594    1.0000 </r>
       <r>   12.1030    0.0000 </r>
       <r>   12.6474    0.0000 </r>
       <r>   13.2714    0.0000 </r>
       <r>   14.2690    0.0000 </r>
      </set>
      <set comment="kpoint 53">
       <r>  -20.1745    1.0000 </r>
       <r>  -20.1349    1.0000 </r>
       <r>  -20.1290    1.0000 </r>
       <r>   -1.0418    1.0000 </r>
       <r>    2.9906    1.0000 </r>
       <r>    3.9702    1.0000 </r>
       <r>    4.2697    1.0000 </r>
       <r>    5.4962    1.0000 </r>
       <r>    5.6549    1.0000 </r>
       <r>    6.1176    1.0000 </r>
       <r>    8.4346    1.0000 </r>
       <r>    8.8576    1.0000 </r>
       <r>   12.0332    0.0000 </r>
       <r>   12.7757    0.0000 </r>
       <r>   13.1611    0.0000 </r>
       <r>   14.0374    0.0000 </r>
      </set>
      <set comment="kpoint 54">
       <r>  -20.1786    1.0000 </r>
       <r>  -20.1345    1.0000 </r>
       <r>  -20.1287    1.0000 </r>
       <r>   -0.7919    1.0000 </r>
       <r>    2.8857    1.0000 </r>
       <r>    3.9820    1.0000 </r>
       <r>    4.1516    1.0000 </r>
       <r>    5.5279    1.0000 </r>
       <r>    5.5986    1.0000 </r>
       <r>    5.8749    1.0000 </r>
       <r>    8.4678    1.0000 </r>
       <r>    8.8226    1.0000 </r>
       <r>   12.0864    0.0000 </r>
       <r>   12.5341    0.0000 </r>
       <r>   13.0778    0.0000 </r>
       <r>   14.2631    0.0000 </r>
      </set>
      <set comment="kpoint 55">
       <r>  -20.1588    1.0000 </r>
       <r>  -20.1360    1.0000 </r>
       <r>  -20.1329    1.0000 </r>
       <r>   -1.7605    1.0000 </r>
       <r>    3.0624    1.0000 </r>
       <r>    4.4240    1.0000 </r>
       <r>    4.6524    1.0000 </r>
       <r>    5.4120    1.0000 </r>
       <r>    5.5460    1.0000 </r>
       <r>    7.4355    1.0000 </r>
       <r>    8.3016    1.0000 </r>
       <r>    8.7904    1.0000 </r>
       <r>   11.6877    1.0000 </r>
       <r>   12.5574    0.0000 </r>
       <r>   13.2167    0.0000 </r>
       <r>   14.5089    0.0000 </r>
      </set>
      <set comment="kpoint 56">
       <r>  -20.1658    1.0000 </r>
       <r>  -20.1373    1.0000 </r>
       <r>  -20.1318    1.0000 </r>
       <r>   -1.4062    1.0000 </r>
       <r>    2.9489    1.0000 </r>
       <r>    4.2806    1.0000 </r>
       <r>    4.6050    1.0000 </r>
       <r>    5.4769    1.0000 </r>
       <r>    5.6247    1.0000 </r>
       <r>    6.8900    1.0000 </r>
       <r>    8.0838    1.0000 </r>
       <r>    8.6987    1.0000 </r>
       <r>   11.7978    1.0000 </r>
       <r>   12.4551    0.0000 </r>
       <r>   13.6045    0.0000 </r>
       <r>   14.3200    0.0000 </r>
      </set>
      <set comment="kpoint 57">
       <r>  -20.1716    1.0000 </r>
       <r>  -20.1386    1.0000 </r>
       <r>  -20.1310    1.0000 </r>
       <r>   -1.0618    1.0000 </r>
       <r>    2.9447    1.0000 </r>
       <r>    4.1204    1.0000 </r>
       <r>    4.4809    1.0000 </r>
       <r>    5.5443    1.0000 </r>
       <r>    5.6538    1.0000 </r>
       <r>    6.3786    1.0000 </r>
       <r>    8.0087    1.0000 </r>
       <r>    8.6281    1.0000 </r>
       <r>   11.8068    1.0000 </r>
       <r>   12.5494    0.0000 </r>
       <r>   13.4896    0.0000 </r>
       <r>   14.1588    0.0000 </r>
      </set>
      <set comment="kpoint 58">
       <r>  -20.1749    1.0000 </r>
       <r>  -20.1400    1.0000 </r>
       <r>  -20.1302    1.0000 </r>
       <r>   -0.8171    1.0000 </r>
       <r>    3.0203    1.0000 </r>
       <r>    3.9756    1.0000 </r>
       <r>    4.3466    1.0000 </r>
       <r>    5.5578    1.0000 </r>
       <r>    5.6452    1.0000 </r>
       <r>    6.0947    1.0000 </r>
       <r>    7.9530    1.0000 </r>
       <r>    8.6143    1.0000 </r>
       <r>   11.8448    0.6735 </r>
       <r>   12.6424    0.0000 </r>
       <r>   13.0127    0.0000 </r>
       <r>   14.4681    0.0000 </r>
      </set>
      <set comment="kpoint 59">
       <r>  -20.1751    1.0000 </r>
       <r>  -20.1414    1.0000 </r>
       <r>  -20.1295    1.0000 </r>
       <r>   -0.7455    1.0000 </r>
       <r>    3.0774    1.0000 </r>
       <r>    3.9187    1.0000 </r>
       <r>    4.2435    1.0000 </r>
       <r>    5.5029    1.0000 </r>
       <r>    5.6856    1.0000 </r>
       <r>    6.0729    1.0000 </r>
       <r>    7.8983    1.0000 </r>
       <r>    8.6278    1.0000 </r>
       <r>   12.0207    0.0000 </r>
       <r>   12.3734    0.0000 </r>
       <r>   13.1249    0.0000 </r>
       <r>   14.4914    0.0000 </r>
      </set>
      <set comment="kpoint 60">
       <r>  -20.1726    1.0000 </r>
       <r>  -20.1421    1.0000 </r>
       <r>  -20.1289    1.0000 </r>
       <r>   -0.8713    1.0000 </r>
       <r>    3.0568    1.0000 </r>
       <r>    3.9509    1.0000 </r>
       <r>    4.2530    1.0000 </r>
       <r>    5.4865    1.0000 </r>
       <r>    5.7475    1.0000 </r>
       <r>    6.2408    1.0000 </r>
       <r>    7.8345    1.0000 </r>
       <r>    8.6777    1.0000 </r>
       <r>   12.0783    0.0000 </r>
       <r>   12.5762    0.0000 </r>
       <r>   13.1276    0.0000 </r>
       <r>   14.3845    0.0000 </r>
      </set>
      <set comment="kpoint 61">
       <r>  -20.1682    1.0000 </r>
       <r>  -20.1413    1.0000 </r>
       <r>  -20.1289    1.0000 </r>
       <r>   -1.1564    1.0000 </r>
       <r>    3.0585    1.0000 </r>
       <r>    3.9615    1.0000 </r>
       <r>    4.4139    1.0000 </r>
       <r>    5.4731    1.0000 </r>
       <r>    5.7597    1.0000 </r>
       <r>    6.6007    1.0000 </r>
       <r>    7.7850    1.0000 </r>
       <r>    8.7993    1.0000 </r>
       <r>   12.1473    0.0000 </r>
       <r>   12.6494    0.0000 </r>
       <r>   13.5549    0.0000 </r>
       <r>   14.1937    0.0000 </r>
      </set>
      <set comment="kpoint 62">
       <r>  -20.1629    1.0000 </r>
       <r>  -20.1390    1.0000 </r>
       <r>  -20.1296    1.0000 </r>
       <r>   -1.5164    1.0000 </r>
       <r>    3.1543    1.0000 </r>
       <r>    4.0075    1.0000 </r>
       <r>    4.5595    1.0000 </r>
       <r>    5.4321    1.0000 </r>
       <r>    5.7089    1.0000 </r>
       <r>    7.0120    1.0000 </r>
       <r>    7.9188    1.0000 </r>
       <r>    8.9793    1.0000 </r>
       <r>   12.2407    0.0000 </r>
       <r>   12.5458    0.0000 </r>
       <r>   13.5475    0.0000 </r>
       <r>   14.1389    0.0000 </r>
      </set>
      <set comment="kpoint 63">
       <r>  -20.1691    1.0000 </r>
       <r>  -20.1368    1.0000 </r>
       <r>  -20.1338    1.0000 </r>
       <r>   -1.2928    1.0000 </r>
       <r>    2.8104    1.0000 </r>
       <r>    4.5303    1.0000 </r>
       <r>    4.7609    1.0000 </r>
       <r>    5.3522    1.0000 </r>
       <r>    5.6811    1.0000 </r>
       <r>    6.9287    1.0000 </r>
       <r>    8.0291    1.0000 </r>
       <r>    8.4188    1.0000 </r>
       <r>   11.4053    1.0000 </r>
       <r>   12.2180    0.0000 </r>
       <r>   13.7099    0.0000 </r>
       <r>   14.3658    0.0000 </r>
      </set>
      <set comment="kpoint 64">
       <r>  -20.1731    1.0000 </r>
       <r>  -20.1393    1.0000 </r>
       <r>  -20.1331    1.0000 </r>
       <r>   -1.0321    1.0000 </r>
       <r>    2.9004    1.0000 </r>
       <r>    4.3253    1.0000 </r>
       <r>    4.7143    1.0000 </r>
       <r>    5.4828    1.0000 </r>
       <r>    5.7113    1.0000 </r>
       <r>    6.5103    1.0000 </r>
       <r>    7.7589    1.0000 </r>
       <r>    8.4060    1.0000 </r>
       <r>   11.4835    1.0000 </r>
       <r>   12.2398    0.0000 </r>
       <r>   13.6704    0.0000 </r>
       <r>   14.1961    0.0000 </r>
      </set>
      <set comment="kpoint 65">
       <r>  -20.1742    1.0000 </r>
       <r>  -20.1429    1.0000 </r>
       <r>  -20.1321    1.0000 </r>
       <r>   -0.8346    1.0000 </r>
       <r>    3.1130    1.0000 </r>
       <r>    4.1045    1.0000 </r>
       <r>    4.5937    1.0000 </r>
       <r>    5.5298    1.0000 </r>
       <r>    5.7289    1.0000 </r>
       <r>    6.2353    1.0000 </r>
       <r>    7.5214    1.0000 </r>
       <r>    8.4187    1.0000 </r>
       <r>   11.5478    1.0000 </r>
       <r>   12.5284    0.0000 </r>
       <r>   13.0455    0.0000 </r>
       <r>   14.1869    0.0000 </r>
      </set>
      <set comment="kpoint 66">
       <r>  -20.1725    1.0000 </r>
       <r>  -20.1469    1.0000 </r>
       <r>  -20.1309    1.0000 </r>
       <r>   -0.7392    1.0000 </r>
       <r>    3.3368    1.0000 </r>
       <r>    3.8961    1.0000 </r>
       <r>    4.4352    1.0000 </r>
       <r>    5.4128    1.0000 </r>
       <r>    5.7987    1.0000 </r>
       <r>    6.2787    1.0000 </r>
       <r>    7.3294    1.0000 </r>
       <r>    8.4383    1.0000 </r>
       <r>   11.6973    1.0000 </r>
       <r>   12.5735    0.0000 </r>
       <r>   13.0058    0.0000 </r>
       <r>   14.0408    0.0000 </r>
      </set>
      <set comment="kpoint 67">
       <r>  -20.1697    1.0000 </r>
       <r>  -20.1492    1.0000 </r>
       <r>  -20.1298    1.0000 </r>
       <r>   -0.7635    1.0000 </r>
       <r>    3.3124    1.0000 </r>
       <r>    3.8707    1.0000 </r>
       <r>    4.2972    1.0000 </r>
       <r>    5.4049    1.0000 </r>
       <r>    5.8421    1.0000 </r>
       <r>    6.4750    1.0000 </r>
       <r>    7.2220    1.0000 </r>
       <r>    8.4878    1.0000 </r>
       <r>   11.9418    0.0000 </r>
       <r>   12.4463    0.0000 </r>
       <r>   13.1476    0.0000 </r>
       <r>   14.0566    0.0000 </r>
      </set>
      <set comment="kpoint 68">
       <r>  -20.1684    1.0000 </r>
       <r>  -20.1470    1.0000 </r>
       <r>  -20.1290    1.0000 </r>
       <r>   -0.9110    1.0000 </r>
       <r>    3.1272    1.0000 </r>
       <r>    3.9486    1.0000 </r>
       <r>    4.2958    1.0000 </r>
       <r>    5.4630    1.0000 </r>
       <r>    5.8257    1.0000 </r>
       <r>    6.6223    1.0000 </r>
       <r>    7.3332    1.0000 </r>
       <r>    8.6109    1.0000 </r>
       <r>   12.0803    0.0000 </r>
       <r>   12.6611    0.0000 </r>
       <r>   13.1635    0.0000 </r>
       <r>   14.0923    0.0000 </r>
      </set>
      <set comment="kpoint 69">
       <r>  -20.1778    1.0000 </r>
       <r>  -20.1375    1.0000 </r>
       <r>  -20.1346    1.0000 </r>
       <r>   -0.9707    1.0000 </r>
       <r>    2.9485    1.0000 </r>
       <r>    4.5290    1.0000 </r>
       <r>    4.8748    1.0000 </r>
       <r>    5.2929    1.0000 </r>
       <r>    5.8544    1.0000 </r>
       <r>    6.3051    1.0000 </r>
       <r>    7.8529    1.0000 </r>
       <r>    8.2502    1.0000 </r>
       <r>   11.1833    1.0000 </r>
       <r>   11.9307    0.0000 </r>
       <r>   13.7095    0.0000 </r>
       <r>   14.0670    0.0000 </r>
      </set>
      <set comment="kpoint 70">
       <r>  -20.1781    1.0000 </r>
       <r>  -20.1409    1.0000 </r>
       <r>  -20.1339    1.0000 </r>
       <r>   -0.8409    1.0000 </r>
       <r>    3.1963    1.0000 </r>
       <r>    4.3222    1.0000 </r>
       <r>    4.8188    1.0000 </r>
       <r>    5.4211    1.0000 </r>
       <r>    5.8296    1.0000 </r>
       <r>    6.0560    1.0000 </r>
       <r>    7.5009    1.0000 </r>
       <r>    8.2963    1.0000 </r>
       <r>   11.2710    1.0000 </r>
       <r>   12.1118    0.0000 </r>
       <r>   13.2555    0.0000 </r>
       <r>   13.8400    0.0000 </r>
      </set>
      <set comment="kpoint 71">
       <r>  -20.1750    1.0000 </r>
       <r>  -20.1461    1.0000 </r>
       <r>  -20.1327    1.0000 </r>
       <r>   -0.7588    1.0000 </r>
       <r>    3.4487    1.0000 </r>
       <r>    4.0996    1.0000 </r>
       <r>    4.6664    1.0000 </r>
       <r>    5.3056    1.0000 </r>
       <r>    5.9055    1.0000 </r>
       <r>    6.1551    1.0000 </r>
       <r>    7.1450    1.0000 </r>
       <r>    8.3223    1.0000 </r>
       <r>   11.4099    1.0000 </r>
       <r>   12.5716    0.0000 </r>
       <r>   12.8864    0.0000 </r>
       <r>   13.6079    0.0000 </r>
      </set>
      <set comment="kpoint 72">
       <r>  -20.1705    1.0000 </r>
       <r>  -20.1507    1.0000 </r>
       <r>  -20.1312    1.0000 </r>
       <r>   -0.7298    1.0000 </r>
       <r>    3.5840    1.0000 </r>
       <r>    3.8223    1.0000 </r>
       <r>    4.4649    1.0000 </r>
       <r>    5.2908    1.0000 </r>
       <r>    5.9085    1.0000 </r>
       <r>    6.5304    1.0000 </r>
       <r>    6.8808    1.0000 </r>
       <r>    8.3679    1.0000 </r>
       <r>   11.6465    1.0000 </r>
       <r>   12.5400    0.0000 </r>
       <r>   13.1583    0.0000 </r>
       <r>   13.6360    0.0000 </r>
      </set>
      <set comment="kpoint 73">
       <r>  -20.1828    1.0000 </r>
       <r>  -20.1378    1.0000 </r>
       <r>  -20.1350    1.0000 </r>
       <r>   -0.8405    1.0000 </r>
       <r>    3.2939    1.0000 </r>
       <r>    4.5680    1.0000 </r>
       <r>    4.9323    1.0000 </r>
       <r>    5.2813    1.0000 </r>
       <r>    5.6255    1.0000 </r>
       <r>    6.0038    1.0000 </r>
       <r>    7.7618    1.0000 </r>
       <r>    8.2239    1.0000 </r>
       <r>   11.0655    1.0000 </r>
       <r>   11.7724    1.0000 </r>
       <r>   13.4513    0.0000 </r>
       <r>   13.6154    0.0000 </r>
      </set>
      <set comment="kpoint 74">
       <r>  -20.1800    1.0000 </r>
       <r>  -20.1416    1.0000 </r>
       <r>  -20.1342    1.0000 </r>
       <r>   -0.7934    1.0000 </r>
       <r>    3.4198    1.0000 </r>
       <r>    4.3829    1.0000 </r>
       <r>    4.8497    1.0000 </r>
       <r>    5.2948    1.0000 </r>
       <r>    5.7299    1.0000 </r>
       <r>    5.9883    1.0000 </r>
       <r>    7.4057    1.0000 </r>
       <r>    8.2776    1.0000 </r>
       <r>   11.1996    1.0000 </r>
       <r>   12.0710    0.0000 </r>
       <r>   13.1900    0.0000 </r>
       <r>   13.5075    0.0000 </r>
      </set>
      <set comment="kpoint 75">
       <r>  -20.1691    1.0000 </r>
       <r>  -20.1413    1.0000 </r>
       <r>  -20.1310    1.0000 </r>
       <r>   -1.1181    1.0000 </r>
       <r>    2.9428    1.0000 </r>
       <r>    4.1549    1.0000 </r>
       <r>    4.5829    1.0000 </r>
       <r>    5.5224    1.0000 </r>
       <r>    5.6833    1.0000 </r>
       <r>    6.7050    1.0000 </r>
       <r>    7.6364    1.0000 </r>
       <r>    8.6102    1.0000 </r>
       <r>   11.8942    0.0000 </r>
       <r>   12.3583    0.0000 </r>
       <r>   13.7385    0.0000 </r>
       <r>   14.1749    0.0000 </r>
      </set>
      <set comment="kpoint 76">
       <r>  -20.1710    1.0000 </r>
       <r>  -20.1446    1.0000 </r>
       <r>  -20.1308    1.0000 </r>
       <r>   -0.8813    1.0000 </r>
       <r>    3.0814    1.0000 </r>
       <r>    4.0062    1.0000 </r>
       <r>    4.5150    1.0000 </r>
       <r>    5.5338    1.0000 </r>
       <r>    5.7109    1.0000 </r>
       <r>    6.4462    1.0000 </r>
       <r>    7.4228    1.0000 </r>
       <r>    8.5342    1.0000 </r>
       <r>   11.9290    0.0000 </r>
       <r>   12.4293    0.0000 </r>
       <r>   13.0789    0.0000 </r>
       <r>   14.2224    0.0000 </r>
      </set>
      <set comment="kpoint 77">
       <r>  -20.1718    1.0000 </r>
       <r>  -20.1466    1.0000 </r>
       <r>  -20.1309    1.0000 </r>
       <r>   -0.7511    1.0000 </r>
       <r>    3.2834    1.0000 </r>
       <r>    3.8443    1.0000 </r>
       <r>    4.4831    1.0000 </r>
       <r>    5.4788    1.0000 </r>
       <r>    5.7100    1.0000 </r>
       <r>    6.2926    1.0000 </r>
       <r>    7.3382    1.0000 </r>
       <r>    8.5111    1.0000 </r>
[...]
       <r>   12.2223    0.0000 </r>
       <r>   13.1338    0.0000 </r>
       <r>   14.0724    0.0000 </r>
      </set>
      <set comment="kpoint 79">
       <r>  -20.1724    1.0000 </r>
       <r>  -20.1474    1.0000 </r>
       <r>  -20.1328    1.0000 </r>
       <r>   -0.7638    1.0000 </r>
       <r>    3.3895    1.0000 </r>
       <r>    3.9569    1.0000 </r>
       <r>    4.7458    1.0000 </r>
       <r>    5.4952    1.0000 </r>
       <r>    5.7162    1.0000 </r>
       <r>    6.2591    1.0000 </r>
       <r>    6.9906    1.0000 </r>
       <r>    8.4512    1.0000 </r>
       <r>   11.7358    1.0000 </r>
       <r>   12.4338    0.0000 </r>
       <r>   12.6633    0.0000 </r>
       <r>   13.7487    0.0000 </r>
      </set>
      <set comment="kpoint 80">
       <r>  -20.1700    1.0000 </r>
       <r>  -20.1506    1.0000 </r>
       <r>  -20.1322    1.0000 </r>
       <r>   -0.7293    1.0000 </r>
       <r>    3.6115    1.0000 </r>
       <r>    3.7450    1.0000 </r>
       <r>    4.6802    1.0000 </r>
       <r>    5.3811    1.0000 </r>
       <r>    5.7976    1.0000 </r>
       <r>    6.3970    1.0000 </r>
       <r>    6.7796    1.0000 </r>
       <r>    8.4651    1.0000 </r>
       <r>   11.9375    0.0000 </r>
       <r>   12.3158    0.0000 </r>
       <r>   12.7377    0.0000 </r>
       <r>   13.5864    0.0000 </r>
      </set>
      <set comment="kpoint 81">
       <r>  -20.1695    1.0000 </r>
       <r>  -20.1496    1.0000 </r>
       <r>  -20.1314    1.0000 </r>
       <r>   -0.7669    1.0000 </r>
       <r>    3.3667    1.0000 </r>
       <r>    3.8537    1.0000 </r>
       <r>    4.5845    1.0000 </r>
       <r>    5.4401    1.0000 </r>
       <r>    5.7789    1.0000 </r>
       <r>    6.5298    1.0000 </r>
       <r>    6.9047    1.0000 </r>
       <r>    8.4767    1.0000 </r>
       <r>   12.0652    0.0000 </r>
       <r>   12.2822    0.0000 </r>
       <r>   12.7668    0.0000 </r>
       <r>   13.9724    0.0000 </r>
      </set>
      <set comment="kpoint 82">
       <r>  -20.1765    1.0000 </r>
       <r>  -20.1442    1.0000 </r>
       <r>  -20.1341    1.0000 </r>
       <r>   -0.7777    1.0000 </r>
       <r>    3.4212    1.0000 </r>
       <r>    4.1831    1.0000 </r>
       <r>    4.8765    1.0000 </r>
       <r>    5.5349    1.0000 </r>
       <r>    5.6627    1.0000 </r>
       <r>    5.9844    1.0000 </r>
       <r>    7.1087    1.0000 </r>
       <r>    8.4048    1.0000 </r>
       <r>   11.4380    1.0000 </r>
       <r>   12.1343    0.0000 </r>
       <r>   12.9821    0.0000 </r>
       <r>   13.5038    0.0000 </r>
      </set>
      <set comment="kpoint 83">
       <r>  -20.1727    1.0000 </r>
       <r>  -20.1485    1.0000 </r>
       <r>  -20.1335    1.0000 </r>
       <r>   -0.7407    1.0000 </r>
       <r>    3.5686    1.0000 </r>
       <r>    4.0019    1.0000 </r>
       <r>    4.8231    1.0000 </r>
       <r>    5.4078    1.0000 </r>
       <r>    5.8852    1.0000 </r>
       <r>    6.0018    1.0000 </r>
       <r>    6.8122    1.0000 </r>
       <r>    8.4547    1.0000 </r>
       <r>   11.6643    1.0000 </r>
       <r>   12.3629    0.0000 </r>
       <r>   12.7152    0.0000 </r>
       <r>   13.3229    0.0000 </r>
      </set>
      <set comment="kpoint 84">
       <r>  -20.1701    1.0000 </r>
       <r>  -20.1507    1.0000 </r>
       <r>  -20.1335    1.0000 </r>
       <r>   -0.7313    1.0000 </r>
       <r>    3.6218    1.0000 </r>
       <r>    3.8751    1.0000 </r>
       <r>    4.8315    1.0000 </r>
       <r>    5.5525    1.0000 </r>
       <r>    5.7437    1.0000 </r>
       <r>    6.0920    1.0000 </r>
       <r>    6.6601    1.0000 </r>
       <r>    8.5057    1.0000 </r>
       <r>   12.0255    0.0000 </r>
       <r>   12.3183    0.0000 </r>
       <r>   12.3972    0.0000 </r>
       <r>   13.3356    0.0000 </r>
      </set>
     </set>
    </set>
   </array>
  </eigenvalues>
  <separator name="orbital magnetization" >
   <v name="MAGDIPOLOUT">      0.00000000      0.00000000      0.00000000</v>
  </separator>
  <dos>
   <i name="efermi">     11.84794283 </i>
   <total>
    <array>
     <dimension dim="1">gridpoints</dimension>
     <dimension dim="2">spin</dimension>
     <field>energy</field>
     <field>total</field>
     <field>integrated</field>
     <set>
      <set comment="spin 1">
       <r>   -21.9507     0.0000     0.0000 </r>
       <r>   -21.8213     0.0000     0.0000 </r>
       <r>   -21.6918     0.0000     0.0000 </r>
       <r>   -21.5623     0.0000     0.0000 </r>
       <r>   -21.4329     0.0000     0.0000 </r>
       <r>   -21.3034     0.0000     0.0000 </r>
       <r>   -21.1739     0.0000     0.0000 </r>
       <r>   -21.0444     0.0000     0.0000 </r>
       <r>   -20.9150     0.0000     0.0000 </r>
       <r>   -20.7855     0.0000     0.0000 </r>
       <r>   -20.6560     0.0000     0.0000 </r>
       <r>   -20.5266     0.0000     0.0000 </r>
       <r>   -20.3971     0.0000     0.0000 </r>
       <r>   -20.2676     0.0000     0.0000 </r>
       <r>   -20.1382    26.7876     3.4682 </r>
       <r>   -20.0087     0.0000     6.0000 </r>
       <r>   -19.8792     0.0000     6.0000 </r>
       <r>   -19.7497     0.0000     6.0000 </r>
       <r>   -19.6203     0.0000     6.0000 </r>
       <r>   -19.4908     0.0000     6.0000 </r>
       <r>   -19.3613     0.0000     6.0000 </r>
       <r>   -19.2319     0.0000     6.0000 </r>
       <r>   -19.1024     0.0000     6.0000 </r>
       <r>   -18.9729     0.0000     6.0000 </r>
       <r>   -18.8435     0.0000     6.0000 </r>
       <r>   -18.7140     0.0000     6.0000 </r>
       <r>   -18.5845     0.0000     6.0000 </r>
       <r>   -18.4550     0.0000     6.0000 </r>
       <r>   -18.3256     0.0000     6.0000 </r>
       <r>   -18.1961     0.0000     6.0000 </r>
       <r>   -18.0666     0.0000     6.0000 </r>
       <r>   -17.9372     0.0000     6.0000 </r>
       <r>   -17.8077     0.0000     6.0000 </r>
       <r>   -17.6782     0.0000     6.0000 </r>
       <r>   -17.5488     0.0000     6.0000 </r>
       <r>   -17.4193     0.0000     6.0000 </r>
       <r>   -17.2898     0.0000     6.0000 </r>
       <r>   -17.1603     0.0000     6.0000 </r>
       <r>   -17.0309     0.0000     6.0000 </r>
       <r>   -16.9014     0.0000     6.0000 </r>
       <r>   -16.7719     0.0000     6.0000 </r>
       <r>   -16.6425     0.0000     6.0000 </r>
       <r>   -16.5130     0.0000     6.0000 </r>
       <r>   -16.3835     0.0000     6.0000 </r>
       <r>   -16.2541     0.0000     6.0000 </r>
       <r>   -16.1246     0.0000     6.0000 </r>
       <r>   -15.9951     0.0000     6.0000 </r>
       <r>   -15.8656     0.0000     6.0000 </r>
       <r>   -15.7362     0.0000     6.0000 </r>
       <r>   -15.6067     0.0000     6.0000 </r>
       <r>   -15.4772     0.0000     6.0000 </r>
       <r>   -15.3478     0.0000     6.0000 </r>
       <r>   -15.2183     0.0000     6.0000 </r>
       <r>   -15.0888     0.0000     6.0000 </r>
       <r>   -14.9594     0.0000     6.0000 </r>
       <r>   -14.8299     0.0000     6.0000 </r>
       <r>   -14.7004     0.0000     6.0000 </r>
       <r>   -14.5709     0.0000     6.0000 </r>
       <r>   -14.4415     0.0000     6.0000 </r>
       <r>   -14.3120     0.0000     6.0000 </r>
       <r>   -14.1825     0.0000     6.0000 </r>
       <r>   -14.0531     0.0000     6.0000 </r>
       <r>   -13.9236     0.0000     6.0000 </r>
       <r>   -13.7941     0.0000     6.0000 </r>
       <r>   -13.6647     0.0000     6.0000 </r>
       <r>   -13.5352     0.0000     6.0000 </r>
       <r>   -13.4057     0.0000     6.0000 </r>
       <r>   -13.2762     0.0000     6.0000 </r>
       <r>   -13.1468     0.0000     6.0000 </r>
       <r>   -13.0173     0.0000     6.0000 </r>
       <r>   -12.8878     0.0000     6.0000 </r>
       <r>   -12.7584     0.0000     6.0000 </r>
       <r>   -12.6289     0.0000     6.0000 </r>
       <r>   -12.4994     0.0000     6.0000 </r>
       <r>   -12.3700     0.0000     6.0000 </r>
       <r>   -12.2405     0.0000     6.0000 </r>
       <r>   -12.1110     0.0000     6.0000 </r>
       <r>   -11.9815     0.0000     6.0000 </r>
       <r>   -11.8521     0.0000     6.0000 </r>
       <r>   -11.7226     0.0000     6.0000 </r>
       <r>   -11.5931     0.0000     6.0000 </r>
       <r>   -11.4637     0.0000     6.0000 </r>
       <r>   -11.3342     0.0000     6.0000 </r>
       <r>   -11.2047     0.0000     6.0000 </r>
       <r>   -11.0752     0.0000     6.0000 </r>
       <r>   -10.9458     0.0000     6.0000 </r>
       <r>   -10.8163     0.0000     6.0000 </r>
       <r>   -10.6868     0.0000     6.0000 </r>
       <r>   -10.5574     0.0000     6.0000 </r>
       <r>   -10.4279     0.0000     6.0000 </r>
       <r>   -10.2984     0.0000     6.0000 </r>
       <r>   -10.1690     0.0000     6.0000 </r>
       <r>   -10.0395     0.0000     6.0000 </r>
       <r>    -9.9100     0.0000     6.0000 </r>
       <r>    -9.7805     0.0000     6.0000 </r>
       <r>    -9.6511     0.0000     6.0000 </r>
       <r>    -9.5216     0.0000     6.0000 </r>
       <r>    -9.3921     0.0000     6.0000 </r>
       <r>    -9.2627     0.0000     6.0000 </r>
       <r>    -9.1332     0.0000     6.0000 </r>
       <r>    -9.0037     0.0000     6.0000 </r>
       <r>    -8.8743     0.0000     6.0000 </r>
       <r>    -8.7448     0.0000     6.0000 </r>
       <r>    -8.6153     0.0000     6.0000 </r>
       <r>    -8.4858     0.0000     6.0000 </r>
       <r>    -8.3564     0.0000     6.0000 </r>
       <r>    -8.2269     0.0000     6.0000 </r>
       <r>    -8.0974     0.0000     6.0000 </r>
       <r>    -7.9680     0.0000     6.0000 </r>
       <r>    -7.8385     0.0000     6.0000 </r>
       <r>    -7.7090     0.0000     6.0000 </r>
       <r>    -7.5796     0.0000     6.0000 </r>
       <r>    -7.4501     0.0000     6.0000 </r>
       <r>    -7.3206     0.0000     6.0000 </r>
       <r>    -7.1911     0.0000     6.0000 </r>
       <r>    -7.0617     0.0000     6.0000 </r>
       <r>    -6.9322     0.0000     6.0000 </r>
       <r>    -6.8027     0.0000     6.0000 </r>
       <r>    -6.6733     0.0000     6.0000 </r>
       <r>    -6.5438     0.0000     6.0000 </r>
       <r>    -6.4143     0.0000     6.0000 </r>
       <r>    -6.2849     0.0000     6.0000 </r>
       <r>    -6.1554     0.0000     6.0000 </r>
       <r>    -6.0259     0.0000     6.0000 </r>
       <r>    -5.8964     0.0000     6.0000 </r>
       <r>    -5.7670     0.0000     6.0000 </r>
       <r>    -5.6375     0.0000     6.0000 </r>
       <r>    -5.5080     0.0000     6.0000 </r>
       <r>    -5.3786     0.0000     6.0000 </r>
       <r>    -5.2491     0.0000     6.0000 </r>
       <r>    -5.1196     0.0000     6.0000 </r>
       <r>    -4.9902     0.0000     6.0000 </r>
       <r>    -4.8607     0.0000     6.0000 </r>
       <r>    -4.7312     0.0000     6.0000 </r>
       <r>    -4.6017     0.0000     6.0000 </r>
       <r>    -4.4723     0.0000     6.0000 </r>
       <r>    -4.3428     0.0000     6.0000 </r>
       <r>    -4.2133     0.0000     6.0000 </r>
       <r>    -4.0839     0.0000     6.0000 </r>
       <r>    -3.9544     0.0000     6.0000 </r>
       <r>    -3.8249     0.0000     6.0000 </r>
       <r>    -3.6955     0.0000     6.0000 </r>
       <r>    -3.5660     0.0000     6.0000 </r>
       <r>    -3.4365     0.0000     6.0000 </r>
       <r>    -3.3070     0.0000     6.0000 </r>
       <r>    -3.1776     0.0000     6.0000 </r>
       <r>    -3.0481     0.0000     6.0000 </r>
       <r>    -2.9186     0.0000     6.0000 </r>
       <r>    -2.7892     0.0000     6.0000 </r>
       <r>    -2.6597     0.0570     6.0083 </r>
       <r>    -2.5302     0.0620     6.0217 </r>
       <r>    -2.4008     0.2250     6.0537 </r>
       <r>    -2.2713     0.0422     6.0592 </r>
       <r>    -2.1418     0.1688     6.1029 </r>
       <r>    -2.0123     0.2250     6.1538 </r>
       <r>    -1.8829     0.0846     6.1648 </r>
       <r>    -1.7534     0.3109     6.2542 </r>
       <r>    -1.6239     0.3375     6.3013 </r>
       <r>    -1.4945     0.5061     6.3741 </r>
       <r>    -1.3650     0.8372     6.4825 </r>
       <r>    -1.2355     0.3923     6.5396 </r>
       <r>    -1.1061     0.8910     6.7025 </r>
       <r>    -0.9766     0.7989     6.8508 </r>
       <r>    -0.8471     1.8600     7.1684 </r>
       <r>    -0.7176     4.8616     7.9958 </r>
       <r>    -0.5882     0.0000     8.0000 </r>
       <r>    -0.4587     0.0000     8.0000 </r>
       <r>    -0.3292     0.0000     8.0000 </r>
       <r>    -0.1998     0.0000     8.0000 </r>
       <r>    -0.0703     0.0000     8.0000 </r>
       <r>     0.0592     0.0000     8.0000 </r>
       <r>     0.1886     0.0000     8.0000 </r>
       <r>     0.3181     0.0000     8.0000 </r>
       <r>     0.4476     0.0000     8.0000 </r>
       <r>     0.5771     0.0000     8.0000 </r>
       <r>     0.7065     0.0000     8.0000 </r>
       <r>     0.8360     0.0000     8.0000 </r>
       <r>     0.9655     0.0000     8.0000 </r>
       <r>     1.0949     0.0000     8.0000 </r>
       <r>     1.2244     0.0000     8.0000 </r>
       <r>     1.3539     0.0000     8.0000 </r>
       <r>     1.4833     0.0000     8.0000 </r>
       <r>     1.6128     0.0000     8.0000 </r>
       <r>     1.7423     0.0000     8.0000 </r>
       <r>     1.8718     0.0000     8.0000 </r>
       <r>     2.0012     0.0000     8.0000 </r>
       <r>     2.1307     0.0000     8.0000 </r>
       <r>     2.2602     0.0000     8.0000 </r>
       <r>     2.3896     0.0000     8.0000 </r>
       <r>     2.5191     0.0000     8.0000 </r>
       <r>     2.6486     0.0000     8.0000 </r>
       <r>     2.7780     0.1838     8.0238 </r>
       <r>     2.9075     1.1831     8.2315 </r>
       <r>     3.0370     1.2518     8.6172 </r>
       <r>     3.1665     2.2657     9.1108 </r>
       <r>     3.2959     1.0541     9.3144 </r>
       <r>     3.4254     0.9567     9.6350 </r>
       <r>     3.5549     0.2785     9.7511 </r>
       <r>     3.6843     0.6750     9.9172 </r>
       <r>     3.8138     0.4059     9.9697 </r>
       <r>     3.9433     1.9806    10.3884 </r>
       <r>     4.0727     2.7016    11.1154 </r>
       <r>     4.2022     2.3390    11.7075 </r>
       <r>     4.3317     3.3522    12.2465 </r>
       <r>     4.4612     2.6362    12.7000 </r>
       <r>     4.5906     2.8483    13.2436 </r>
       <r>     4.7201     1.8978    13.5903 </r>
       <r>     4.8496     1.0106    13.8687 </r>
       <r>     4.9790     0.5061    14.0109 </r>
       <r>     5.1085     0.0000    14.0109 </r>
       <r>     5.2380     0.6037    14.0964 </r>
       <r>     5.3675     1.8663    14.4055 </r>
       <r>     5.4969     6.2616    15.4971 </r>
       <r>     5.6264     3.7079    16.5702 </r>
       <r>     5.7559     4.1985    17.4293 </r>
       <r>     5.8853     2.5329    17.9474 </r>
       <r>     6.0148     1.5049    18.3004 </r>
       <r>     6.1443     1.3947    18.5611 </r>
       <r>     6.2737     1.5949    18.8601 </r>
       <r>     6.4032     0.9908    19.1096 </r>
       <r>     6.5327     1.1166    19.3498 </r>
       <r>     6.6622     1.0680    19.5038 </r>
       <r>     6.7916     0.5761    19.6476 </r>
       <r>     6.9211     0.8660    19.7835 </r>
       <r>     7.0506     0.5338    19.8934 </r>
       <r>     7.1800     0.6691    20.0147 </r>
       <r>     7.3095     0.5916    20.1431 </r>
       <r>     7.4390     0.7049    20.3653 </r>
       <r>     7.5684     1.0125    20.5253 </r>
       <r>     7.6979     0.5062    20.6017 </r>
       <r>     7.8274     1.6030    20.8093 </r>
       <r>     7.9569     0.9135    20.9876 </r>
       <r>     8.0863     0.9384    21.1766 </r>
       <r>     8.2158     0.9240    21.3495 </r>
       <r>     8.3453     1.5807    21.6712 </r>
       <r>     8.4747     4.6552    22.3205 </r>
       <r>     8.6042     0.6788    22.5867 </r>
       <r>     8.7337     1.6937    23.0022 </r>
       <r>     8.8631     1.9717    23.3440 </r>
       <r>     8.9926     1.2933    23.5948 </r>
       <r>     9.1221     0.6930    23.7538 </r>
       <r>     9.2516     0.5175    23.8731 </r>
       <r>     9.3810     0.2771    23.9385 </r>
       <r>     9.5105     0.0000    23.9718 </r>
       <r>     9.6400     0.0211    24.0000 </r>
       <r>     9.7694     0.0000    24.0000 </r>
       <r>     9.8989     0.0000    24.0000 </r>
       <r>    10.0284     0.0000    24.0000 </r>
       <r>    10.1578     0.0000    24.0000 </r>
       <r>    10.2873     0.0000    24.0000 </r>
       <r>    10.4168     0.0000    24.0000 </r>
       <r>    10.5463     0.0000    24.0000 </r>
       <r>    10.6757     0.0000    24.0000 </r>
       <r>    10.8052     0.0000    24.0000 </r>
       <r>    10.9347     0.0029    24.0004 </r>
       <r>    11.0641     0.3667    24.0529 </r>
       <r>    11.1936     0.5500    24.1368 </r>
       <r>    11.3231     0.5906    24.2349 </r>
       <r>    11.4525     0.8404    24.3710 </r>
       <r>    11.5820     0.8877    24.5300 </r>
       <r>    11.7115     1.2580    24.7200 </r>
       <r>    11.8410     1.3723    24.9697 </r>
       <r>    11.9704     1.5787    25.2476 </r>
       <r>    12.0999     3.3932    25.7939 </r>
       <r>    12.2294     0.7597    26.1903 </r>
       <r>    12.3588     1.5512    26.4794 </r>
       <r>    12.4883     1.5188    26.8248 </r>
       <r>    12.6178     3.2951    27.3606 </r>
       <r>    12.7472     1.6037    27.9191 </r>
       <r>    12.8767     1.1174    28.2457 </r>
       <r>    13.0062     2.2413    28.6625 </r>
       <r>    13.1357     2.0741    29.0951 </r>
       <r>    13.2651     1.1477    29.4340 </r>
       <r>    13.3946     0.7627    29.6044 </r>
       <r>    13.5241     1.1439    29.7958 </r>
       <r>    13.6535     1.7593    30.1103 </r>
       <r>    13.7830     1.4907    30.3559 </r>
       <r>    13.9125     0.8034    30.5200 </r>
       <r>    14.0419     1.1622    30.7413 </r>
       <r>    14.1714     1.8352    31.1234 </r>
       <r>    14.3009     1.3559    31.5092 </r>
       <r>    14.4304     0.8437    31.7123 </r>
       <r>    14.5598     0.6944    31.8678 </r>
       <r>    14.6893     0.6047    31.9709 </r>
       <r>    14.8188     0.0000    31.9927 </r>
       <r>    14.9482     0.0000    31.9927 </r>
       <r>    15.0777     0.0000    31.9927 </r>
       <r>    15.2072     0.0000    32.0000 </r>
       <r>    15.3366     0.0000    32.0000 </r>
       <r>    15.4661     0.0000    32.0000 </r>
       <r>    15.5956     0.0000    32.0000 </r>
       <r>    15.7251     0.0000    32.0000 </r>
       <r>    15.8545     0.0000    32.0000 </r>
       <r>    15.9840     0.0000    32.0000 </r>
       <r>    16.1135     0.0000    32.0000 </r>
       <r>    16.2429     0.0000    32.0000 </r>
       <r>    16.3724     0.0000    32.0000 </r>
       <r>    16.5019     0.0000    32.0000 </r>
       <r>    16.6313     0.0000    32.0000 </r>
       <r>    16.7608     0.0000    32.0000 </r>
       <r>    16.8903     0.0000    32.0000 </r>
      </set>
     </set>
    </array>
   </total>
  </dos>
 </calculation>
 <structure name="finalpos" >
  <crystal>
   <varray name="basis" >
    <v>       0.00000000       2.97484256       2.97484256 </v>
    <v>       2.97484256       0.00000000       2.97484256 </v>
    <v>       2.97484256       2.97484256       0.00000000 </v>
   </varray>
   <i name="volume">     52.65285838 </i>
   <varray name="rec_basis" >
    <v>      -0.16807612       0.16807612       0.16807612 </v>
    <v>       0.16807612      -0.16807612       0.16807612 </v>
    <v>       0.16807612       0.16807612      -0.16807612 </v>
   </varray>
  </crystal>
  <varray name="positions" >
   <v>       0.75000000       0.75000000       0.75000000 </v>
   <v>       0.25000000       0.25000000       0.25000000 </v>
   <v>       0.00000000       0.00000000       0.00000000 </v>
  </varray>
 </structure>
</modeling>
