   3   3   0   0
  0.1996231E+02  0.4391528E-09  0.4391528E-09  0.4391528E-09  0.5000000E-15
  1.000000000000000E-004
  CAR
 unknown system
     16.33508001    -33.13049088  301     13.06928716      1.00000000
    -33.130  0.0000E+00  0.0000E+00
    -32.966  0.0000E+00  0.0000E+00
    -32.801  0.0000E+00  0.0000E+00
    -32.636  0.0000E+00  0.0000E+00
    -32.471  0.0000E+00  0.0000E+00
    -32.306  0.0000E+00  0.0000E+00
    -32.141  0.0000E+00  0.0000E+00
    -31.976  0.0000E+00  0.0000E+00
    -31.811  0.0000E+00  0.0000E+00
    -31.647  0.0000E+00  0.0000E+00
    -31.482  0.0000E+00  0.0000E+00
    -31.317  0.0000E+00  0.0000E+00
    -31.152  0.0000E+00  0.0000E+00
    -30.987  0.0000E+00  0.0000E+00
    -30.822  0.1213E+02  0.2000E+01
    -30.657  0.0000E+00  0.2000E+01
    -30.492  0.0000E+00  0.2000E+01
    -30.327  0.0000E+00  0.2000E+01
    -30.163  0.0000E+00  0.2000E+01
    -29.998  0.0000E+00  0.2000E+01
    -29.833  0.0000E+00  0.2000E+01
    -29.668  0.0000E+00  0.2000E+01
    -29.503  0.0000E+00  0.2000E+01
    -29.338  0.0000E+00  0.2000E+01
    -29.173  0.0000E+00  0.2000E+01
    -29.008  0.0000E+00  0.2000E+01
    -28.843  0.0000E+00  0.2000E+01
    -28.679  0.0000E+00  0.2000E+01
    -28.514  0.0000E+00  0.2000E+01
    -28.349  0.0000E+00  0.2000E+01
    -28.184  0.0000E+00  0.2000E+01
    -28.019  0.0000E+00  0.2000E+01
    -27.854  0.0000E+00  0.2000E+01
    -27.689  0.0000E+00  0.2000E+01
    -27.524  0.0000E+00  0.2000E+01
    -27.360  0.0000E+00  0.2000E+01
    -27.195  0.0000E+00  0.2000E+01
    -27.030  0.0000E+00  0.2000E+01
    -26.865  0.0000E+00  0.2000E+01
    -26.700  0.0000E+00  0.2000E+01
    -26.535  0.0000E+00  0.2000E+01
    -26.370  0.0000E+00  0.2000E+01
    -26.205  0.0000E+00  0.2000E+01
    -26.040  0.0000E+00  0.2000E+01
    -25.876  0.0000E+00  0.2000E+01
    -25.711  0.0000E+00  0.2000E+01
    -25.546  0.0000E+00  0.2000E+01
    -25.381  0.0000E+00  0.2000E+01
    -25.216  0.0000E+00  0.2000E+01
    -25.051  0.0000E+00  0.2000E+01
    -24.886  0.0000E+00  0.2000E+01
    -24.721  0.0000E+00  0.2000E+01
    -24.556  0.0000E+00  0.2000E+01
    -24.392  0.0000E+00  0.2000E+01
    -24.227  0.0000E+00  0.2000E+01
    -24.062  0.0000E+00  0.2000E+01
    -23.897  0.0000E+00  0.2000E+01
    -23.732  0.0000E+00  0.2000E+01
    -23.567  0.0000E+00  0.2000E+01
    -23.402  0.0000E+00  0.2000E+01
    -23.237  0.0000E+00  0.2000E+01
    -23.072  0.0000E+00  0.2000E+01
    -22.908  0.0000E+00  0.2000E+01
    -22.743  0.0000E+00  0.2000E+01
    -22.578  0.0000E+00  0.2000E+01
    -22.413  0.0000E+00  0.2000E+01
    -22.248  0.0000E+00  0.2000E+01
    -22.083  0.0000E+00  0.2000E+01
    -21.918  0.0000E+00  0.2000E+01
    -21.753  0.0000E+00  0.2000E+01
    -21.589  0.0000E+00  0.2000E+01
    -21.424  0.0000E+00  0.2000E+01
    -21.259  0.0000E+00  0.2000E+01
    -21.094  0.0000E+00  0.2000E+01
    -20.929  0.0000E+00  0.2000E+01
    -20.764  0.0000E+00  0.2000E+01
    -20.599  0.0000E+00  0.2000E+01
    -20.434  0.0000E+00  0.2000E+01
    -20.269  0.0000E+00  0.2000E+01
    -20.105  0.0000E+00  0.2000E+01
    -19.940  0.0000E+00  0.2000E+01
    -19.775  0.0000E+00  0.2000E+01
    -19.610  0.0000E+00  0.2000E+01
    -19.445  0.0000E+00  0.2000E+01
    -19.280  0.0000E+00  0.2000E+01
    -19.115  0.0000E+00  0.2000E+01
    -18.950  0.0000E+00  0.2000E+01
    -18.785  0.0000E+00  0.2000E+01
    -18.621  0.0000E+00  0.2000E+01
    -18.456  0.0000E+00  0.2000E+01
    -18.291  0.0000E+00  0.2000E+01
    -18.126  0.0000E+00  0.2000E+01
    -17.961  0.0000E+00  0.2000E+01
    -17.796  0.0000E+00  0.2000E+01
    -17.631  0.0000E+00  0.2000E+01
    -17.466  0.0000E+00  0.2000E+01
    -17.302  0.0000E+00  0.2000E+01
    -17.137  0.0000E+00  0.2000E+01
    -16.972  0.0000E+00  0.2000E+01
    -16.807  0.0000E+00  0.2000E+01
    -16.642  0.0000E+00  0.2000E+01
    -16.477  0.0000E+00  0.2000E+01
    -16.312  0.0000E+00  0.2000E+01
    -16.147  0.0000E+00  0.2000E+01
    -15.982  0.0000E+00  0.2000E+01
    -15.818  0.0000E+00  0.2000E+01
    -15.653  0.0000E+00  0.2000E+01
    -15.488  0.0000E+00  0.2000E+01
    -15.323  0.0000E+00  0.2000E+01
    -15.158  0.0000E+00  0.2000E+01
    -14.993  0.0000E+00  0.2000E+01
    -14.828  0.0000E+00  0.2000E+01
    -14.663  0.0000E+00  0.2000E+01
    -14.498  0.0000E+00  0.2000E+01
    -14.334  0.0000E+00  0.2000E+01
    -14.169  0.0000E+00  0.2000E+01
    -14.004  0.0000E+00  0.2000E+01
    -13.839  0.0000E+00  0.2000E+01
    -13.674  0.0000E+00  0.2000E+01
    -13.509  0.0000E+00  0.2000E+01
    -13.344  0.0000E+00  0.2000E+01
    -13.179  0.0000E+00  0.2000E+01
    -13.014  0.0000E+00  0.2000E+01
    -12.850  0.0000E+00  0.2000E+01
    -12.685  0.0000E+00  0.2000E+01
    -12.520  0.0000E+00  0.2000E+01
    -12.355  0.0000E+00  0.2000E+01
    -12.190  0.0000E+00  0.2000E+01
    -12.025  0.0000E+00  0.2000E+01
    -11.860  0.0000E+00  0.2000E+01
    -11.695  0.0000E+00  0.2000E+01
    -11.531  0.0000E+00  0.2000E+01
    -11.366  0.0000E+00  0.2000E+01
    -11.201  0.0000E+00  0.2000E+01
    -11.036  0.0000E+00  0.2000E+01
    -10.871  0.0000E+00  0.2000E+01
    -10.706  0.0000E+00  0.2000E+01
    -10.541  0.0000E+00  0.2000E+01
    -10.376  0.4735E-06  0.2000E+01
    -10.211  0.3691E+02  0.1044E+02
    -10.047  0.0000E+00  0.1200E+02
     -9.882  0.0000E+00  0.1200E+02
     -9.717  0.0000E+00  0.1200E+02
     -9.552  0.0000E+00  0.1200E+02
     -9.387  0.0000E+00  0.1200E+02
     -9.222  0.0000E+00  0.1200E+02
     -9.057  0.0000E+00  0.1200E+02
     -8.892  0.0000E+00  0.1200E+02
     -8.727  0.0000E+00  0.1200E+02
     -8.563  0.0000E+00  0.1200E+02
     -8.398  0.0000E+00  0.1200E+02
     -8.233  0.0000E+00  0.1200E+02
     -8.068  0.0000E+00  0.1200E+02
     -7.903  0.0000E+00  0.1200E+02
     -7.738  0.0000E+00  0.1200E+02
     -7.573  0.0000E+00  0.1200E+02
     -7.408  0.0000E+00  0.1200E+02
     -7.244  0.0000E+00  0.1200E+02
     -7.079  0.0000E+00  0.1200E+02
     -6.914  0.1713E+00  0.1203E+02
     -6.749  0.5342E+01  0.1324E+02
     -6.584  0.1172E+01  0.1402E+02
     -6.419  0.7473E+01  0.1588E+02
     -6.254  0.5955E+01  0.1799E+02
     -6.089  0.0000E+00  0.1800E+02
     -5.924  0.0000E+00  0.1800E+02
     -5.760  0.0000E+00  0.1800E+02
     -5.595  0.0000E+00  0.1800E+02
     -5.430  0.0000E+00  0.1800E+02
     -5.265  0.0000E+00  0.1800E+02
     -5.100  0.0000E+00  0.1800E+02
     -4.935  0.0000E+00  0.1800E+02
     -4.770  0.0000E+00  0.1800E+02
     -4.605  0.0000E+00  0.1800E+02
     -4.440  0.0000E+00  0.1800E+02
     -4.276  0.0000E+00  0.1800E+02
     -4.111  0.0000E+00  0.1800E+02
     -3.946  0.0000E+00  0.1800E+02
     -3.781  0.0000E+00  0.1800E+02
     -3.616  0.0000E+00  0.1800E+02
     -3.451  0.0000E+00  0.1800E+02
     -3.286  0.0000E+00  0.1800E+02
     -3.121  0.0000E+00  0.1800E+02
     -2.956  0.0000E+00  0.1800E+02
     -2.792  0.0000E+00  0.1800E+02
     -2.627  0.0000E+00  0.1800E+02
     -2.462  0.0000E+00  0.1800E+02
     -2.297  0.0000E+00  0.1800E+02
     -2.132  0.0000E+00  0.1800E+02
     -1.967  0.0000E+00  0.1800E+02
     -1.802  0.0000E+00  0.1800E+02
     -1.637  0.0000E+00  0.1800E+02
     -1.473  0.0000E+00  0.1800E+02
     -1.308  0.0000E+00  0.1800E+02
     -1.143  0.0000E+00  0.1800E+02
     -0.978  0.0000E+00  0.1800E+02
     -0.813  0.0000E+00  0.1800E+02
     -0.648  0.5521E-02  0.1800E+02
     -0.483  0.3313E-01  0.1801E+02
     -0.318  0.1788E-01  0.1803E+02
     -0.153  0.3124E-01  0.1806E+02
      0.011  0.2650E+00  0.1810E+02
      0.176  0.1455E+00  0.1815E+02
      0.341  0.6160E+00  0.1828E+02
      0.506  0.1124E+01  0.1864E+02
      0.671  0.1000E+01  0.1909E+02
      0.836  0.1330E+01  0.1955E+02
      1.001  0.3994E+00  0.1983E+02
      1.166  0.1325E+00  0.1997E+02
      1.331  0.0000E+00  0.2000E+02
      1.495  0.0000E+00  0.2000E+02
      1.660  0.0000E+00  0.2000E+02
      1.825  0.0000E+00  0.2000E+02
      1.990  0.0000E+00  0.2000E+02
      2.155  0.0000E+00  0.2000E+02
      2.320  0.0000E+00  0.2000E+02
      2.485  0.0000E+00  0.2000E+02
      2.650  0.0000E+00  0.2000E+02
      2.814  0.0000E+00  0.2000E+02
      2.979  0.0000E+00  0.2000E+02
      3.144  0.0000E+00  0.2000E+02
      3.309  0.0000E+00  0.2000E+02
      3.474  0.0000E+00  0.2000E+02
      3.639  0.0000E+00  0.2000E+02
      3.804  0.0000E+00  0.2000E+02
      3.969  0.0000E+00  0.2000E+02
      4.134  0.0000E+00  0.2000E+02
      4.298  0.0000E+00  0.2000E+02
      4.463  0.0000E+00  0.2000E+02
      4.628  0.0000E+00  0.2000E+02
      4.793  0.0000E+00  0.2000E+02
      4.958  0.0000E+00  0.2000E+02
      5.123  0.0000E+00  0.2000E+02
      5.288  0.0000E+00  0.2000E+02
      5.453  0.0000E+00  0.2000E+02
      5.618  0.0000E+00  0.2000E+02
      5.782  0.2254E+00  0.2004E+02
      5.947  0.9773E+00  0.2040E+02
      6.112  0.9052E+00  0.2079E+02
      6.277  0.9021E+00  0.2107E+02
      6.442  0.1959E+01  0.2162E+02
      6.607  0.2548E+01  0.2244E+02
      6.772  0.1755E+01  0.2307E+02
      6.937  0.1839E+01  0.2391E+02
      7.102  0.2459E+01  0.2470E+02
      7.266  0.1400E+01  0.2537E+02
      7.431  0.1373E+01  0.2576E+02
      7.596  0.1013E+01  0.2599E+02
      7.761  0.5551E+01  0.2737E+02
      7.926  0.2233E+01  0.2839E+02
      8.091  0.2940E+01  0.2910E+02
      8.256  0.1414E+01  0.2986E+02
      8.421  0.2830E+00  0.3005E+02
      8.585  0.5900E+00  0.3020E+02
      8.750  0.1187E+01  0.3048E+02
      8.915  0.1060E+01  0.3074E+02
      9.080  0.7540E+00  0.3111E+02
      9.245  0.7434E+00  0.3142E+02
      9.410  0.3987E+00  0.3157E+02
      9.575  0.8794E+00  0.3180E+02
      9.740  0.4303E+00  0.3197E+02
      9.905  0.5729E+00  0.3212E+02
     10.069  0.8336E+00  0.3237E+02
     10.234  0.6997E+00  0.3261E+02
     10.399  0.1229E+01  0.3287E+02
     10.564  0.3289E+00  0.3312E+02
     10.729  0.8757E+00  0.3335E+02
     10.894  0.9235E+00  0.3365E+02
     11.059  0.1459E+01  0.3397E+02
     11.224  0.3911E+01  0.3511E+02
     11.389  0.1198E+01  0.3567E+02
     11.553  0.3195E+00  0.3590E+02
     11.718  0.0000E+00  0.3600E+02
     11.883  0.2598E-10  0.3600E+02
     12.048  0.6051E-07  0.3600E+02
     12.213  0.1994E+00  0.3606E+02
     12.378  0.1533E+01  0.3652E+02
     12.543  0.1754E+01  0.3708E+02
     12.708  0.1537E+01  0.3763E+02
     12.872  0.5514E+00  0.3801E+02
     13.037  0.2135E+01  0.3850E+02
     13.202  0.3668E+01  0.4062E+02
     13.367  0.3790E+01  0.4194E+02
     13.532  0.8833E+01  0.4388E+02
     13.697  0.6961E+01  0.4588E+02
     13.862  0.4768E+01  0.4763E+02
     14.027  0.5688E+00  0.4798E+02
     14.192  0.0000E+00  0.4800E+02
     14.356  0.0000E+00  0.4800E+02
     14.521  0.0000E+00  0.4800E+02
     14.686  0.0000E+00  0.4800E+02
     14.851  0.0000E+00  0.4800E+02
     15.016  0.0000E+00  0.4800E+02
     15.181  0.0000E+00  0.4800E+02
     15.346  0.0000E+00  0.4800E+02
     15.511  0.0000E+00  0.4800E+02
     15.676  0.0000E+00  0.4800E+02
     15.840  0.0000E+00  0.4800E+02
     16.005  0.0000E+00  0.4800E+02
     16.170  0.0000E+00  0.4800E+02
     16.335  0.0000E+00  0.4800E+02
