    3    3    1    1
  0.1996231E+02  0.4391528E-09  0.4391528E-09  0.4391528E-09  0.5000000E-15
  1.000000000000000E-004
  CAR
 unknown system
     39     84     24

  0.0000000E+00  0.0000000E+00  0.0000000E+00  0.4551661E-03
    1      -30.882056   1.000000
    2      -10.266319   1.000000
    3      -10.266319   1.000000
    4      -10.220760   1.000000
    5      -10.220760   1.000000
    6      -10.220760   1.000000
    7       -6.447026   1.000000
    8       -6.447026   1.000000
    9       -6.447026   1.000000
   10       -0.715585   1.000000
   11        7.547607   1.000000
   12        7.547607   1.000000
   13        7.569308   1.000000
   14        7.569308   1.000000
   15        7.569308   1.000000
   16       11.550944   1.000000
   17       11.550944   1.000000
   18       11.550944   1.000000
   19       11.923774   1.000000
   20       12.850366   1.000000
   21       12.850366   1.000000
   22       12.850366   1.000000
   23       13.455188   0.000000
   24       13.455189   0.000000

  0.7692308E-01 -0.2270102E-18  0.9328892E-18  0.3641329E-02
    1      -30.881142   1.000000
    2      -10.270985   1.000000
    3      -10.270985   1.000000
    4      -10.221627   1.000000
    5      -10.220246   1.000000
    6      -10.220246   1.000000
    7       -6.485597   1.000000
    8       -6.436073   1.000000
    9       -6.436073   1.000000
   10       -0.596559   1.000000
   11        7.254695   1.000000
   12        7.254695   1.000000
   13        7.434159   1.000000
   14        7.845339   1.000000
   15        7.845339   1.000000
   16       10.944140   1.000000
   17       11.476053   1.000000
   18       11.476053   1.000000
   19       12.146708   1.000000
   20       12.878076   1.000000
   21       12.878076   1.000000
   22       13.013729   1.000000
   23       13.470233   0.000000
   24       13.527801   0.000000

  0.1538462E+00 -0.6133166E-17  0.7544924E-17  0.3641329E-02
    1      -30.878605   1.000000
    2      -10.283734   1.000000
    3      -10.283734   1.000000
    4      -10.224446   1.000000
    5      -10.218897   1.000000
    6      -10.218896   1.000000
    7       -6.584118   1.000000
    8       -6.405860   1.000000
    9       -6.405860   1.000000
   10       -0.270877   1.000000
   11        6.989447   1.000000
   12        6.989447   1.000000
   13        7.079060   1.000000
   14        8.042104   1.000000
   15        8.042104   1.000000
   16       10.136353   1.000000
   17       11.330819   1.000000
   18       11.330819   1.000000
   19       12.121269   1.000000
   20       12.933081   1.000000
   21       12.933081   1.000000
   22       13.348398   0.000000
   23       13.463394   0.000000
   24       13.697880   0.000000

  0.2307692E+00 -0.3255990E-17  0.5373627E-17  0.3641329E-02
    1      -30.875035   1.000000
    2      -10.301307   1.000000
    3      -10.301307   1.000000
    4      -10.229486   1.000000
    5      -10.217066   1.000000
    6      -10.217066   1.000000
    7       -6.705042   1.000000
    8       -6.363675   1.000000
    9       -6.363675   1.000000
   10        0.180168   1.000000
   11        6.623041   1.000000
   12        6.797488   1.000000
   13        6.797488   1.000000
   14        8.083888   1.000000
   15        8.083888   1.000000
   16        9.425981   1.000000
   17       11.239054   1.000000
   18       11.239054   1.000000
   19       12.081223   1.000000
   20       12.995157   1.000000
   21       12.995157   1.000000
   22       13.471809   0.000000
   23       13.561949   0.000000
   24       13.837433   0.000000

  0.3076923E+00 -0.1226633E-16  0.1508985E-16  0.3641329E-02
    1      -30.871249   1.000000
    2      -10.319495   1.000000
    3      -10.319495   1.000000
    4      -10.236269   1.000000
    5      -10.215162   1.000000
    6      -10.215162   1.000000
    7       -6.814094   1.000000
    8       -6.319395   1.000000
    9       -6.319395   1.000000
   10        0.649505   1.000000
   11        6.196474   1.000000
   12        6.694864   1.000000
   13        6.694864   1.000000
   14        7.968542   1.000000
   15        7.968542   1.000000
   16        8.879661   1.000000
   17       11.242779   1.000000
   18       11.242779   1.000000
   19       12.114980   1.000000
   20       13.068383   0.550883
   21       13.068383   0.550882
   22       13.480816   0.000000
   23       13.681151   0.000000
   24       13.838995   0.000000

  0.3846154E+00 -0.1249334E-16  0.1602274E-16  0.3641329E-02
    1      -30.868116   1.000000
    2      -10.334235   1.000000
    3      -10.334235   1.000000
    4      -10.243064   1.000000
    5      -10.213603   1.000000
    6      -10.213603   1.000000
    7       -6.891577   1.000000
    8       -6.283077   1.000000
    9       -6.283077   1.000000
   10        1.028195   1.000000
   11        5.894878   1.000000
   12        6.674730   1.000000
   13        6.674730   1.000000
   14        7.775925   1.000000
   15        7.775925   1.000000
   16        8.511649   1.000000
   17       11.298007   1.000000
   18       11.298007   1.000000
   19       12.212330   1.000000
   20       13.154317   0.000000
   21       13.154317   0.000000
   22       13.488302   0.000000
   23       13.740410   0.000000
   24       13.759947   0.000000

  0.4615385E+00  0.4352052E-19  0.4191753E-17  0.3641329E-02
    1      -30.866348   1.000000
    2      -10.342445   1.000000
    3      -10.342445   1.000000
    4      -10.247390   1.000000
    5      -10.212731   1.000000
    6      -10.212730   1.000000
    7       -6.930688   1.000000
    8       -6.262728   1.000000
    9       -6.262728   1.000000
   10        1.235129   1.000000
   11        5.750453   1.000000
   12        6.696540   1.000000
   13        6.696540   1.000000
   14        7.625722   1.000000
   15        7.625722   1.000000
   16        8.325294   1.000000
   17       11.342830   1.000000
   18       11.342830   1.000000
   19       12.307724   1.000000
   20       13.230561   0.000000
   21       13.230561   0.000000
   22       13.492852   0.000000
   23       13.641329   0.000000
   24       13.641329   0.000000

  0.7692308E-01  0.7692308E-01  0.4060874E-18  0.2730997E-02
    1      -30.880842   1.000000
    2      -10.278951   1.000000
    3      -10.265209   1.000000
    4      -10.221880   1.000000
    5      -10.220130   1.000000
    6      -10.220130   1.000000
    7       -6.467234   1.000000
    8       -6.448480   1.000000
    9       -6.448480   1.000000
   10       -0.559324   1.000000
   11        6.945350   1.000000
   12        7.560774   1.000000
   13        7.578459   1.000000
   14        7.578459   1.000000
   15        7.918442   1.000000
   16       10.968519   1.000000
   17       11.350460   1.000000
   18       11.350460   1.000000
   19       12.235281   1.000000
   20       12.927999   1.000000
   21       12.941659   1.000000
   22       12.941659   1.000000
   23       13.470834   0.000000
   24       13.546653   0.000000

  0.1538462E+00  0.7692308E-01  0.1084899E-17  0.1092399E-01
    1      -30.878861   1.000000
    2      -10.292936   1.000000
    3      -10.268982   1.000000
    4      -10.224015   1.000000
    5      -10.219193   1.000000
    6      -10.218963   1.000000
    7       -6.542674   1.000000
    8       -6.438896   1.000000
    9       -6.415919   1.000000
   10       -0.310528   1.000000
   11        6.605089   1.000000
   12        7.313206   1.000000
   13        7.399560   1.000000
   14        7.811812   1.000000
   15        8.081492   1.000000
   16       10.395784   1.000000
   17       11.193105   1.000000
   18       11.213173   1.000000
   19       12.252456   1.000000
   20       12.907012   1.000000
   21       12.992153   1.000000
   22       13.242487   0.000000
   23       13.479744   0.000000
   24       13.673858   0.000000

  0.2307692E+00  0.7692308E-01  0.5852496E-17  0.1092399E-01
    1      -30.875657   1.000000
    2      -10.309522   1.000000
    3      -10.281283   1.000000
    4      -10.227975   1.000000
    5      -10.217905   1.000000
    6      -10.217005   1.000000
    7       -6.657237   1.000000
    8       -6.409780   1.000000
    9       -6.370080   1.000000
   10        0.083149   1.000000
   11        6.313104   1.000000
   12        7.053008   1.000000
   13        7.109829   1.000000
   14        7.904845   1.000000
   15        8.196371   1.000000
   16        9.719696   1.000000
   17       11.081735   1.000000
   18       11.115029   1.000000
   19       12.225785   1.000000
   20       12.954961   1.000000
   21       13.028631   1.000000
   22       13.484366   0.000000
   23       13.485531   0.000000
   24       13.804318   0.000000

  0.3076923E+00  0.7692308E-01  0.1690929E-17  0.1092399E-01
    1      -30.871966   1.000000
    2      -10.324847   1.000000
    3      -10.298803   1.000000
    4      -10.233684   1.000000
    5      -10.216457   1.000000
    6      -10.214914   1.000000
    7       -6.769934   1.000000
    8       -6.368143   1.000000
    9       -6.326801   1.000000
   10        0.521493   1.000000
   11        6.082432   1.000000
   12        6.747628   1.000000
   13        6.973093   1.000000
   14        7.835388   1.000000
   15        8.169767   1.000000
   16        9.130814   1.000000
   17       11.036594   1.000000
   18       11.145464   1.000000
   19       12.215226   1.000000
   20       13.041044   0.999968
   21       13.073490   0.276133
   22       13.490889   0.000000
   23       13.610906   0.000000
   24       13.834651   0.000000

  0.3846154E+00  0.7692308E-01  0.1650161E-16  0.1092399E-01
    1      -30.868637   1.000000
    2      -10.335539   1.000000
    3      -10.317307   1.000000
    4      -10.240094   1.000000
    5      -10.215043   1.000000
    6      -10.213231   1.000000
    7       -6.856678   1.000000
    8       -6.323620   1.000000
    9       -6.295727   1.000000
   10        0.898147   1.000000
   11        5.920203   1.000000
   12        6.596313   1.000000
   13        6.885920   1.000000
   14        7.690140   1.000000
   15        8.019092   1.000000
   16        8.689282   1.000000
   17       11.075122   1.000000
   18       11.226311   1.000000
   19       12.260663   1.000000
   20       13.135831   0.000000
   21       13.138729   0.000000
   22       13.493158   0.000000
   23       13.658501   0.000000
   24       13.798691   0.000000

  0.4615385E+00  0.7692308E-01  0.4670622E-17  0.1092399E-01
    1      -30.866426   1.000000
    2      -10.339441   1.000000
    3      -10.332665   1.000000
    4      -10.245053   1.000000
    5      -10.213951   1.000000
    6      -10.212319   1.000000
    7       -6.907136   1.000000
    8       -6.286188   1.000000
    9       -6.283470   1.000000
   10        1.134008   1.000000
   11        5.837392   1.000000
   12        6.605865   1.000000
   13        6.790181   1.000000
   14        7.613337   1.000000
   15        7.820677   1.000000
   16        8.424332   1.000000
   17       11.136582   1.000000
   18       11.285735   1.000000
   19       12.340770   1.000000
   20       13.214742   0.000000
   21       13.218957   0.000000
   22       13.486599   0.000000
   23       13.629601   0.000000
   24       13.728541   0.000000

 -0.4615385E+00  0.7692308E-01  0.8703859E-17  0.1092399E-01
    1      -30.865836   1.000000
    2      -10.341691   1.000000
    3      -10.335921   1.000000
    4      -10.246405   1.000000
    5      -10.213465   1.000000
    6      -10.212336   1.000000
    7       -6.919303   1.000000
    8       -6.292318   1.000000
    9       -6.264080   1.000000
   10        1.196913   1.000000
   11        5.819570   1.000000
   12        6.653136   1.000000
   13        6.715792   1.000000
   14        7.667579   1.000000
   15        7.692687   1.000000
   16        8.358172   1.000000
   17       11.157630   1.000000
   18       11.292712   1.000000
   19       12.376178   1.000000
   20       13.226892   0.000000
   21       13.268015   0.000000
   22       13.471978   0.000000
   23       13.638914   0.000000
   24       13.655599   0.000000

 -0.3846154E+00  0.7692308E-01  0.6003336E-17  0.1092399E-01
    1      -30.867004   1.000000
    2      -10.342563   1.000000
    3      -10.325714   1.000000
    4      -10.243489   1.000000
    5      -10.213729   1.000000
    6      -10.213221   1.000000
    7       -6.893465   1.000000
    8       -6.319934   1.000000
    9       -6.262202   1.000000
   10        1.081267   1.000000
   11        5.865836   1.000000
   12        6.530125   1.000000
   13        6.848346   1.000000
   14        7.638839   1.000000
   15        7.884942   1.000000
   16        8.496279   1.000000
   17       11.103957   1.000000
   18       11.259055   1.000000
   19       12.325361   1.000000
   20       13.170204   0.000000
   21       13.217222   0.000000
   22       13.480441   0.000000
   23       13.683605   0.000000
   24       13.706584   0.000000

 -0.3076923E+00  0.7692308E-01 -0.1461098E-16  0.1092399E-01
    1      -30.869662   1.000000
    2      -10.335075   1.000000
    3      -10.310780   1.000000
    4      -10.237655   1.000000
    5      -10.214747   1.000000
    6      -10.214732   1.000000
    7       -6.830294   1.000000
    8       -6.359903   1.000000
    9       -6.281125   1.000000
   10        0.794779   1.000000
   11        6.020724   1.000000
   12        6.480979   1.000000
   13        6.973083   1.000000
   14        7.736136   1.000000
   15        8.099015   1.000000
   16        8.821056   1.000000
   17       10.987818   1.000000
   18       11.226048   1.000000
   19       12.252028   1.000000
   20       13.103295   0.000001
   21       13.118350   0.000000
   22       13.486345   0.000000
   23       13.682069   0.000000
   24       13.762676   0.000000

 -0.2307692E+00  0.7692308E-01 -0.4894758E-17  0.1092399E-01
    1      -30.873204   1.000000
    2      -10.320746   1.000000
    3      -10.294190   1.000000
    4      -10.231274   1.000000
    5      -10.216554   1.000000
    6      -10.216284   1.000000
    7       -6.734584   1.000000
    8       -6.402864   1.000000
    9       -6.316839   1.000000
   10        0.385142   1.000000
   11        6.303822   1.000000
   12        6.533893   1.000000
   13        7.137177   1.000000
   14        7.845469   1.000000
   15        8.240090   1.000000
   16        9.312058   1.000000
   17       10.875711   1.000000
   18       11.247992   1.000000
   19       12.219111   1.000000
   20       13.017351   1.000000
   21       13.051824   0.993238
   22       13.482865   0.000000
   23       13.594598   0.000000
   24       13.807554   0.000000

 -0.1538462E+00  0.7692308E-01  0.3707547E-17  0.1092399E-01
    1      -30.876826   1.000000
    2      -10.302580   1.000000
    3      -10.279755   1.000000
    4      -10.226177   1.000000
    5      -10.218259   1.000000
    6      -10.218060   1.000000
    7       -6.622248   1.000000
    8       -6.437710   1.000000
    9       -6.361401   1.000000
   10       -0.053373   1.000000
   11        6.663191   1.000000
   12        6.693195   1.000000
   13        7.374661   1.000000
   14        7.838027   1.000000
   15        8.238072   1.000000
   16        9.933938   1.000000
   17       10.874716   1.000000
   18       11.348894   1.000000
   19       12.234876   1.000000
   20       12.926501   1.000000
   21       13.012850   1.000000
   22       13.442686   0.000000
   23       13.475675   0.000000
   24       13.744569   0.000000

 -0.7692308E-01  0.7692308E-01 -0.4540204E-18  0.5461994E-02
    1      -30.879691   1.000000
    2      -10.284590   1.000000
    3      -10.271228   1.000000
    4      -10.222989   1.000000
    5      -10.219551   1.000000
    6      -10.219546   1.000000
    7       -6.527040   1.000000
    8       -6.450676   1.000000
    9       -6.404537   1.000000
   10       -0.411381   1.000000
   11        6.944458   1.000000
   12        7.026217   1.000000
   13        7.587009   1.000000
   14        7.716707   1.000000
   15        8.089097   1.000000
   16       10.551385   1.000000
   17       11.107243   1.000000
   18       11.465585   1.000000
   19       12.238135   1.000000
   20       12.866856   1.000000
   21       12.964227   1.000000
   22       13.201431   0.000000
   23       13.466521   0.000000
   24       13.611655   0.000000

  0.1538462E+00  0.1538462E+00  0.8121748E-18  0.2730997E-02
    1      -30.877533   1.000000
    2      -10.304761   1.000000
    3      -10.262155   1.000000
    4      -10.225800   1.000000
    5      -10.218253   1.000000
    6      -10.218253   1.000000
    7       -6.521581   1.000000
    8       -6.452746   1.000000
    9       -6.452746   1.000000
   10       -0.164622   1.000000
   11        6.232250   1.000000
   12        7.578860   1.000000
   13        7.578860   1.000000
   14        7.597767   1.000000
   15        7.998398   1.000000
   16       10.382473   1.000000
   17       11.040200   1.000000
   18       11.040200   1.000000
   19       12.211752   1.000000
   20       13.040321   0.999979
   21       13.040321   0.999979
   22       13.199238   0.000000
   23       13.518466   0.000000
   24       13.749142   0.000000

  0.2307692E+00  0.1538462E+00  0.2204312E-17  0.1092399E-01
    1      -30.874927   1.000000
    2      -10.316300   1.000000
    3      -10.265377   1.000000
    4      -10.228940   1.000000
    5      -10.217077   1.000000
    6      -10.216463   1.000000
    7       -6.605521   1.000000
    8       -6.444345   1.000000
    9       -6.419381   1.000000
   10        0.117529   1.000000
   11        5.958480   1.000000
   12        7.362003   1.000000
   13        7.397057   1.000000
   14        7.734567   1.000000
   15        8.077274   1.000000
   16       10.022633   1.000000
   17       10.879658   1.000000
   18       10.975054   1.000000
   19       12.259067   1.000000
   20       13.010015   1.000000
   21       13.068569   0.540423
   22       13.381249   0.000000
   23       13.537671   0.000000
   24       13.848528   0.000000

  0.3076923E+00  0.1538462E+00  0.1036844E-16  0.1092399E-01
    1      -30.871647   1.000000
    2      -10.324885   1.000000
    3      -10.277603   1.000000
    4      -10.232911   1.000000
    5      -10.216346   1.000000
    6      -10.214166   1.000000
    7       -6.712452   1.000000
    8       -6.415944   1.000000
    9       -6.377023   1.000000
   10        0.449289   1.000000
   11        5.828852   1.000000
   12        7.015724   1.000000
   13        7.246865   1.000000
   14        7.725204   1.000000
   15        8.160858   1.000000
   16        9.533529   1.000000
   17       10.740445   1.000000
   18       11.023439   1.000000
   19       12.335090   1.000000
   20       13.032050   1.000000
   21       13.098263   0.000021
   22       13.505361   0.000000
   23       13.540100   0.000000
   24       13.881133   0.000000

  0.3846154E+00  0.1538462E+00  0.5277271E-18  0.1092399E-01
    1      -30.868445   1.000000
    2      -10.328651   1.000000
    3      -10.295367   1.000000
    4      -10.237386   1.000000
    5      -10.216013   1.000000
    6      -10.212259   1.000000
    7       -6.801029   1.000000
    8       -6.374296   1.000000
    9       -6.350598   1.000000
   10        0.740422   1.000000
   11        5.857054   1.000000
   12        6.746204   1.000000
   13        7.100872   1.000000
   14        7.653455   1.000000
   15        8.137774   1.000000
   16        9.055292   1.000000
   17       10.704249   1.000000
   18       11.119451   1.000000
   19       12.370672   1.000000
   20       13.112475   0.000000
   21       13.146496   0.000000
   22       13.532843   0.000000
   23       13.559836   0.000000
   24       13.852859   0.000000

  0.4615385E+00  0.1538462E+00  0.1791336E-16  0.1092399E-01
    1      -30.866051   1.000000
    2      -10.327069   1.000000
    3      -10.314432   1.000000
    4      -10.241246   1.000000
    5      -10.215853   1.000000
    6      -10.211236   1.000000
    7       -6.856629   1.000000
    8       -6.346360   1.000000
    9       -6.328912   1.000000
   10        0.935933   1.000000
   11        5.987567   1.000000
   12        6.620373   1.000000
   13        6.901610   1.000000
   14        7.661853   1.000000
   15        8.015970   1.000000
   16        8.696288   1.000000
   17       10.729000   1.000000
   18       11.181127   1.000000
   19       12.419415   1.000000
   20       13.181976   0.000000
   21       13.218230   0.000000
   22       13.512153   0.000000
   23       13.587597   0.000000
   24       13.817250   0.000000

 -0.4615385E+00  0.1538462E+00 -0.2735618E-16  0.1092399E-01
    1      -30.865010   1.000000
    2      -10.330625   1.000000
    3      -10.320934   1.000000
    4      -10.242667   1.000000
    5      -10.215818   1.000000
    6      -10.211225   1.000000
    7       -6.875797   1.000000
    8       -6.363989   1.000000
    9       -6.289874   1.000000
   10        1.027231   1.000000
   11        6.077563   1.000000
   12        6.658376   1.000000
   13        6.671623   1.000000
   14        7.788981   1.000000
   15        7.851768   1.000000
   16        8.545524   1.000000
   17       10.740142   1.000000
   18       11.178927   1.000000
   19       12.470633   1.000000
   20       13.188230   0.000000
   21       13.296661   0.000000
   22       13.468766   0.000000
   23       13.636780   0.000000
   24       13.744801   0.000000

 -0.3846154E+00  0.1538462E+00 -0.2301127E-17  0.1092399E-01
    1      -30.865559   1.000000
    2      -10.340589   1.000000
    3      -10.311745   1.000000
    4      -10.240654   1.000000
    5      -10.215938   1.000000
    6      -10.212125   1.000000
    7       -6.860236   1.000000
    8       -6.397489   1.000000
    9       -6.265833   1.000000
   10        1.016255   1.000000
   11        6.042464   1.000000
   12        6.477524   1.000000
   13        6.825354   1.000000
   14        7.724144   1.000000
   15        7.989673   1.000000
   16        8.643684   1.000000
   17       10.674637   1.000000
   18       11.137230   1.000000
   19       12.472717   1.000000
   20       13.146345   0.000000
   21       13.308338   0.000000
   22       13.446218   0.000000
   23       13.683353   0.000000
   24       13.703781   0.000000

 -0.3076923E+00  0.1538462E+00 -0.1368237E-17  0.1092399E-01
    1      -30.867573   1.000000
    2      -10.342306   1.000000
    3      -10.300953   1.000000
    4      -10.236304   1.000000
    5      -10.216213   1.000000
    6      -10.213654   1.000000
    7       -6.813747   1.000000
    8       -6.436336   1.000000
    9       -6.262275   1.000000
   10        0.885022   1.000000
   11        5.989828   1.000000
   12        6.366243   1.000000
   13        7.047644   1.000000
   14        7.676056   1.000000
   15        8.197597   1.000000
   16        8.944938   1.000000
   17       10.521445   1.000000
   18       11.108155   1.000000
   19       12.431279   1.000000
   20       13.104898   0.000000
   21       13.217501   0.000000
   22       13.477077   0.000000
   23       13.666769   0.000000
   24       13.724796   0.000000

 -0.2307692E+00  0.1538462E+00 -0.6990849E-17  0.1092399E-01
    1      -30.870593   1.000000
    2      -10.335365   1.000000
    3      -10.290278   1.000000
    4      -10.231856   1.000000
    5      -10.216621   1.000000
    6      -10.215432   1.000000
    7       -6.744764   1.000000
    8       -6.466298   1.000000
    9       -6.280273   1.000000
   10        0.623296   1.000000
   11        6.064051   1.000000
   12        6.362907   1.000000
   13        7.286970   1.000000
   14        7.675879   1.000000
   15        8.336479   1.000000
   16        9.373883   1.000000
   17       10.347889   1.000000
   18       11.143620   1.000000
   19       12.383285   1.000000
   20       13.079410   0.076135
   21       13.105289   0.000000
   22       13.492119   0.000000
   23       13.615845   0.000000
   24       13.767127   0.000000

 -0.1538462E+00  0.1538462E+00 -0.1226633E-16  0.5461994E-02
    1      -30.873933   1.000000
    2      -10.321138   1.000000
    3      -10.282296   1.000000
    4      -10.228547   1.000000
    5      -10.217239   1.000000
    6      -10.217060   1.000000
    7       -6.673178   1.000000
    8       -6.469430   1.000000
    9       -6.316011   1.000000
   10        0.278012   1.000000
   11        6.307441   1.000000
   12        6.475023   1.000000
   13        7.515825   1.000000
   14        7.644423   1.000000
   15        8.350195   1.000000
   16        9.772171   1.000000
   17       10.382260   1.000000
   18       11.250176   1.000000
   19       12.333327   1.000000
   20       12.997333   1.000000
   21       13.057993   0.944893
   22       13.489491   0.000000
   23       13.539382   0.000000
   24       13.781837   0.000000

  0.2307692E+00  0.2307692E+00  0.1218262E-17  0.2730997E-02
    1      -30.873017   1.000000
    2      -10.319740   1.000000
    3      -10.257841   1.000000
    4      -10.231905   1.000000
    5      -10.215202   1.000000
    6      -10.215202   1.000000
    7       -6.597986   1.000000
    8       -6.459397   1.000000
    9       -6.459397   1.000000
   10        0.253360   1.000000
   11        5.746105   1.000000
   12        7.515875   1.000000
   13        7.515875   1.000000
   14        7.651227   1.000000
   15        7.845547   1.000000
   16       10.010203   1.000000
   17       10.921415   1.000000
   18       10.921415   1.000000
   19       12.178624   1.000000
   20       13.095355   0.000114
   21       13.095355   0.000114
   22       13.333278   0.000000
   23       13.599680   0.000000
   24       13.932680   0.000000

  0.3076923E+00  0.2307692E+00  0.6191030E-17  0.1092399E-01
    1      -30.870364   1.000000
    2      -10.318975   1.000000
    3      -10.260935   1.000000
    4      -10.235246   1.000000
    5      -10.213958   1.000000
    6      -10.213064   1.000000
    7       -6.670486   1.000000
    8       -6.451685   1.000000
    9       -6.440309   1.000000
   10        0.428447   1.000000
   11        5.725568   1.000000
   12        7.251623   1.000000
   13        7.402009   1.000000
   14        7.681727   1.000000
   15        7.904724   1.000000
   16        9.779744   1.000000
   17       10.799066   1.000000
   18       10.982203   1.000000
   19       12.310126   1.000000
   20       13.074241   0.241804
   21       13.119586   0.000000
   22       13.397068   0.000000
   23       13.627780   0.000000
   24       13.967548   0.000000

  0.3846154E+00  0.2307692E+00  0.4110782E-17  0.1092399E-01
    1      -30.867583   1.000000
    2      -10.314261   1.000000
    3      -10.273394   1.000000
    4      -10.238119   1.000000
    5      -10.214074   1.000000
    6      -10.210939   1.000000
    7       -6.749185   1.000000
    8       -6.423290   1.000000
    9       -6.421276   1.000000
   10        0.584946   1.000000
   11        5.897215   1.000000
   12        6.938683   1.000000
   13        7.232180   1.000000
   14        7.684824   1.000000
   15        8.006048   1.000000
   16        9.431284   1.000000
   17       10.596220   1.000000
   18       11.086025   1.000000
   19       12.457996   1.000000
   20       13.083495   0.022256
   21       13.156471   0.000000
   22       13.459632   0.000000
   23       13.620409   0.000000
   24       13.923991   0.000000

  0.4615385E+00  0.2307692E+00  0.4514445E-17  0.1092399E-01
    1      -30.865307   1.000000
    2      -10.307064   1.000000
    3      -10.291704   1.000000
    4      -10.239781   1.000000
    5      -10.215483   1.000000
    6      -10.209722   1.000000
    7       -6.799856   1.000000
    8       -6.425869   1.000000
    9       -6.380853   1.000000
   10        0.700448   1.000000
   11        6.180666   1.000000
   12        6.752303   1.000000
   13        7.000086   1.000000
   14        7.741637   1.000000
   15        8.026513   1.000000
   16        9.059026   1.000000
   17       10.455635   1.000000
   18       11.137766   1.000000
   19       12.517499   1.000000
   20       13.131964   0.000000
   21       13.214311   0.000000
   22       13.521887   0.000000
   23       13.587654   0.000000
   24       13.855374   0.000000

 -0.4615385E+00  0.2307692E+00 -0.2687731E-16  0.1092399E-01
    1      -30.864055   1.000000
    2      -10.311619   1.000000
    3      -10.299849   1.000000
    4      -10.239119   1.000000
    5      -10.217578   1.000000
    6      -10.209632   1.000000
    7       -6.815264   1.000000
    8       -6.454194   1.000000
    9       -6.333928   1.000000
   10        0.785229   1.000000
   11        6.411359   1.000000
   12        6.704804   1.000000
   13        6.743649   1.000000
   14        7.874288   1.000000
   15        7.948945   1.000000
   16        8.828730   1.000000
   17       10.355036   1.000000
   18       11.107406   1.000000
   19       12.561874   1.000000
   20       13.129194   0.000000
   21       13.286491   0.000000
   22       13.530817   0.000000
   23       13.616310   0.000000
   24       13.795370   0.000000

 -0.3846154E+00  0.2307692E+00  0.1059449E-16  0.1092399E-01
    1      -30.864110   1.000000
    2      -10.328844   1.000000
    3      -10.294638   1.000000
    4      -10.235809   1.000000
    5      -10.219484   1.000000
    6      -10.210517   1.000000
    7       -6.800231   1.000000
    8       -6.495146   1.000000
    9       -6.292933   1.000000
   10        0.848750   1.000000
   11        6.435524   1.000000
   12        6.516530   1.000000
   13        6.735638   1.000000
   14        7.830103   1.000000
   15        8.054456   1.000000
   16        8.883054   1.000000
   17       10.238436   1.000000
   18       11.035560   1.000000
   19       12.596021   1.000000
   20       13.080145   0.062327
   21       13.348790   0.000000
   22       13.460270   0.000000