       N       E                     dE             d eps       ncg     rms          rms(c)
DAV:   1     0.438928534300E+03    0.43893E+03   -0.22684E+04  4032   0.245E+03
DAV:   2     0.339736882202E+02   -0.40495E+03   -0.39610E+03  4152   0.517E+02
DAV:   3    -0.192967539231E+02   -0.53270E+02   -0.52216E+02  4928   0.188E+02
DAV:   4    -0.248976298294E+02   -0.56009E+01   -0.55753E+01  7280   0.487E+01
DAV:   5    -0.250657461900E+02   -0.16812E+00   -0.16803E+00  5440   0.726E+00    0.186E+01
DAV:   6    -0.289846998503E+02   -0.39190E+01   -0.14647E+02  6184   0.890E+01    0.237E+01
DAV:   7    -0.228968792556E+02    0.60878E+01   -0.23539E+01  5824   0.295E+01    0.940E+00
DAV:   8    -0.229446667212E+02   -0.47787E-01   -0.16816E+01  6016   0.213E+01    0.603E+00
DAV:   9    -0.224250852879E+02    0.51958E+00   -0.50675E+00  6200   0.146E+01    0.938E-01
DAV:  10    -0.224321420846E+02   -0.70568E-02   -0.14398E-01  5784   0.227E+00    0.404E-01
DAV:  11    -0.224318290799E+02    0.31300E-03   -0.42731E-02  6864   0.136E+00    0.389E-01
DAV:  12    -0.224307800885E+02    0.10490E-02   -0.57783E-03  6504   0.529E-01    0.795E-02
DAV:  13    -0.224307646111E+02    0.15477E-04   -0.24808E-03  6976   0.295E-01    0.629E-02
DAV:  14    -0.224307103630E+02    0.54248E-04   -0.62603E-04  5768   0.151E-01    0.110E-02
DAV:  15    -0.224307113740E+02   -0.10110E-05   -0.35447E-05  6920   0.398E-02    0.644E-03
DAV:  16    -0.224307107854E+02    0.58859E-06   -0.31598E-06  5936   0.118E-02    0.976E-04
DAV:  17    -0.224307107595E+02    0.25898E-07   -0.23169E-07  3680   0.270E-03
   1 F= -.22430711E+02 E0= -.22429987E+02  d E =-.144766E-02
