 vasp.6.0.8 29Jun18 (build Jun 13 2019 12:54:44) complex

 executed on      IFC18_CrayMPICH date 2021.12.05  14:21:49
 running   64 mpi-ranks, with    1 threads/rank
 distrk:  each k-point on   16 cores,    4 groups
 distr:  one band on NCORES_PER_BAND=   4 cores,    4 groups


--------------------------------------------------------------------------------------------------------


 INCAR:
 POTCAR:    PAW_PBE U 06Sep2000
 POTCAR:    PAW_PBE Bi_d 06Sep2000
 POTCAR:    PAW_PBE Pt 04Feb2005
 POTCAR:    PAW_PBE U 06Sep2000
   VRHFIN =U:  [Xe,5d,4f]
   LEXCH  = PE
   EATOM  =  1405.3058 eV,  103.2871 Ry

   TITEL  = PAW_PBE U 06Sep2000
   LULTRA =        F    use ultrasoft PP ?
   IUNSCR =        1    unscreen: 0-lin 1-nonlin 2-no
   RPACOR =    2.200    partial core radius
   POMASS =  238.029; ZVAL   =   14.000    mass and valenz
   RCORE  =    2.800    outmost cutoff radius
   RWIGS  =    3.000; RWIGS  =    1.588    wigner-seitz radius (au A)
   ENMAX  =  252.502; ENMIN  =  189.376 eV
   RCLOC  =    1.811    cutoff for local pot
   LCOR   =        T    correct aug charges
   LPAW   =        T    paw PP
   EAUG   =  526.410
   DEXC   =    0.000
   RMAX   =    2.863    core radius for proj-oper
   RAUG   =    1.300    factor for augmentation sphere
   RDEP   =    2.950    radius for radial grids
   RDEPT  =    2.270    core radius for aug-charge

   Atomic configuration
   18 entries
     n  l   j            E        occ.
     1  0  0.50   -116038.1941   2.0000
     2  0  0.50    -21694.8835   2.0000
     2  1  1.50    -18009.1553   6.0000
     3  0  0.50     -5481.2929   2.0000
     3  1  1.50     -4458.9283   6.0000
     3  2  2.50     -3575.9978  10.0000
     4  0  0.50     -1400.5351   2.0000
     4  1  1.50     -1066.7807   6.0000
     4  2  2.50      -732.1336  10.0000
     4  3  3.50      -377.4393  14.0000
     5  0  0.50      -314.7366   2.0000
     5  1  1.50      -211.6057   6.0000
     5  2  2.50      -103.2045  10.0000
     6  0  0.50       -50.6026   2.0000
     7  0  0.50        -4.5896   2.0000
     6  1  1.50       -25.2884   6.0000
     6  2  1.50        -3.1039   2.0000
     5  3  2.50        -6.3670   2.0000
   Description
     l       E           TYP  RCUT    TYP  RCUT
     0    -50.6026097     23  2.600
     0     -4.5896371     23  2.600
     1    -25.2883770     23  2.500
     1     27.2116520     23  2.500
     2     -3.1038686     23  2.500
     2      0.8290654     23  2.500
     3     -6.3670133     23  2.800
     3     -7.7275959     23  2.800
  local pseudopotential read in
  partial core-charges read in
  partial kinetic energy density read in
  atomic valenz-charges read in
  non local Contribution for L=           0  read in
    real space projection operators read in
  non local Contribution for L=           0  read in
    real space projection operators read in
  non local Contribution for L=           1  read in
    real space projection operators read in
  non local Contribution for L=           1  read in
    real space projection operators read in
  non local Contribution for L=           2  read in
    real space projection operators read in
  non local Contribution for L=           2  read in
    real space projection operators read in
  non local Contribution for L=           3  read in
    real space projection operators read in
  non local Contribution for L=           3  read in
    real space projection operators read in
    PAW grid and wavefunctions read in

   number of l-projection  operators is LMAX  =           8
   number of lm-projection operators is LMMAX =          32

 POTCAR:    PAW_PBE Bi_d 06Sep2000
   VRHFIN =Bi:
   LEXCH  = PE
   EATOM  =  1959.2045 eV,  143.9975 Ry

   TITEL  = PAW_PBE Bi_d 06Sep2000
   LULTRA =        F    use ultrasoft PP ?
   IUNSCR =        1    unscreen: 0-lin 1-nonlin 2-no
   RPACOR =    2.200    partial core radius
   POMASS =  208.980; ZVAL   =   15.000    mass and valenz
   RCORE  =    2.500    outmost cutoff radius
   RWIGS  =    3.090; RWIGS  =    1.635    wigner-seitz radius (au A)
   ENMAX  =  242.839; ENMIN  =  182.129 eV
   ICORE  =        3    local potential
   LCOR   =        T    correct aug charges
   LPAW   =        T    paw PP
   EAUG   =  442.899
   DEXC   =    0.000
   RMAX   =    2.551    core radius for proj-oper
   RAUG   =    1.300    factor for augmentation sphere
   RDEP   =    2.650    radius for radial grids
   RDEPT  =    2.039    core radius for aug-charge

   Atomic configuration
   16 entries
     n  l   j            E        occ.
     1  0  0.50    -90639.6581   2.0000
     2  0  0.50    -16282.4666   2.0000
     2  1  1.50    -13922.8286   6.0000
     3  0  0.50     -3930.4763   2.0000
     3  1  1.50     -3256.7013   6.0000
     3  2  2.50     -2581.6168  10.0000
     4  0  0.50      -902.2614   2.0000
     4  1  1.50      -681.5915   6.0000
     4  2  2.50      -429.8249  10.0000
     4  3  3.50      -152.6004  14.0000
     5  0  0.50      -157.7156   2.0000
     5  1  1.50       -95.8054   6.0000
     5  2  2.50       -27.0806  10.0000
     6  0  0.50       -14.4732   2.0000
     6  1  1.50        -4.5702   3.0000
     5  3  2.50        -2.7212   0.0000
   Description
     l       E           TYP  RCUT    TYP  RCUT
     2    -27.0805982     23  2.500
     2     -1.3605826     23  2.500
     0    -14.4732271     23  2.500
     0      6.8029130     23  2.500
     1     -4.5701651     23  2.500
     1     13.6058260     23  2.500
     3     -1.3605826      7  2.500
  local pseudopotential read in
  partial core-charges read in
  partial kinetic energy density read in
  atomic valenz-charges read in
  non local Contribution for L=           2  read in
    real space projection operators read in
  non local Contribution for L=           2  read in
    real space projection operators read in
  non local Contribution for L=           0  read in
    real space projection operators read in
  non local Contribution for L=           0  read in
    real space projection operators read in
  non local Contribution for L=           1  read in
    real space projection operators read in
  non local Contribution for L=           1  read in
    real space projection operators read in
    PAW grid and wavefunctions read in

   number of l-projection  operators is LMAX  =           6
   number of lm-projection operators is LMMAX =          18

 POTCAR:    PAW_PBE Pt 04Feb2005
   VRHFIN =Pt: s1d9
   LEXCH  = PE
   EATOM  =   729.1176 eV,   53.5886 Ry

   TITEL  = PAW_PBE Pt 04Feb2005
   LULTRA =        F    use ultrasoft PP ?
   IUNSCR =        1    unscreen: 0-lin 1-nonlin 2-no
   RPACOR =    2.330    partial core radius
   POMASS =  195.080; ZVAL   =   10.000    mass and valenz
   RCORE  =    2.600    outmost cutoff radius
   RWIGS  =    2.750; RWIGS  =    1.455    wigner-seitz radius (au A)
   ENMAX  =  230.283; ENMIN  =  172.712 eV
   ICORE  =        3    local potential
   LCOR   =        T    correct aug charges
   LPAW   =        T    paw PP
   EAUG   =  358.966
   DEXC   =    0.000
   RMAX   =    2.658    core radius for proj-oper
   RAUG   =    1.300    factor for augmentation sphere
   RDEP   =    2.761    radius for radial grids
   RDEPT  =    2.203    core radius for aug-charge

   Atomic configuration
   16 entries
     n  l   j            E        occ.
     1  0  0.50    -78401.1885   2.0000
     2  0  0.50    -13770.7750   2.0000
     2  1  1.50    -11931.0468   6.0000
     3  0  0.50     -3234.7234   2.0000
     3  1  1.50     -2699.2216   6.0000
     3  2  2.50     -2119.5714  10.0000
     4  0  0.50      -695.1528   2.0000
     4  1  1.50      -519.6034   6.0000
     4  2  2.50      -306.6786  10.0000
     4  3  3.50       -70.1041  14.0000
     5  0  0.50      -101.7747   2.0000
     5  1  1.50       -55.9873   6.0000
     5  2  2.50        -6.1423   9.0000
     6  0  0.50        -5.6573   1.0000
     6  1  1.50        -6.8029   0.0000
     5  3  2.50        -1.3606   0.0000
   Description
     l       E           TYP  RCUT    TYP  RCUT
     2     -6.1423404     23  2.500
     2     -7.5029230     23  2.500
     0     -5.6573207     23  2.500
     0      0.7416693     23  2.500
     1     -2.7211652     23  2.600
     1     20.4087390     23  2.600
     3     -1.3605826     23  2.500
  local pseudopotential read in
  partial core-charges read in
  partial kinetic energy density read in
  atomic valenz-charges read in
  non local Contribution for L=           2  read in
    real space projection operators read in
  non local Contribution for L=           2  read in
    real space projection operators read in
  non local Contribution for L=           0  read in
    real space projection operators read in
  non local Contribution for L=           0  read in
    real space projection operators read in
  non local Contribution for L=           1  read in
    real space projection operators read in
  non local Contribution for L=           1  read in
    real space projection operators read in
    PAW grid and wavefunctions read in

   number of l-projection  operators is LMAX  =           6
   number of lm-projection operators is LMMAX =          18

 WARNING: PSMAXN for non-local potential too small
          PSMAXN should be >   13.5545592237991       NTYP=           1

 -----------------------------------------------------------------------------
|                                                                             |
|  ADVICE TO THIS USER RUNNING 'VASP/VAMP'   (HEAR YOUR MASTER'S VOICE ...):  |
|                                                                             |
|      You enforced a specific xc-type in the INCAR file,                     |
|      a different type was found on the POTCAR file                          |
|          I HOPE YOU KNOW, WHAT YOU ARE  DOING                               |
|                                                                             |
 -----------------------------------------------------------------------------

  PAW_PBE U 06Sep2000                   :
 energy of atom  1       EATOM=-1405.3058
 kinetic energy error for atom=    0.0006 (will be added to EATOM!!)
  PAW_PBE Bi_d 06Sep2000                :
 energy of atom  2       EATOM=-1959.2045
 kinetic energy error for atom=    0.0012 (will be added to EATOM!!)
  PAW_PBE Pt 04Feb2005                  :
 energy of atom  3       EATOM= -729.1176
 kinetic energy error for atom=    0.0010 (will be added to EATOM!!)


 POSCAR: U1 Bi1 Pt1
  positions in direct lattice
  No initial velocities read in
 exchange correlation table for  LEXCH =       14
   RHO(1)=    0.500       N(1)  =     2000
   RHO(2)=  100.500       N(2)  =     4000



--------------------------------------------------------------------------------------------------------


 ion  position               nearest neighbor table
   1  0.250  0.250  0.250-   3 2.69   3 2.69   3 2.69   3 2.69   2 3.11   2 3.11   2 3.11   2 3.11
                             2 3.11   2 3.11
   2  0.750  0.750  0.750-   3 2.69   3 2.69   3 2.69   3 2.69   1 3.11   1 3.11   1 3.11   1 3.11
                             1 3.11   1 3.11
   3  0.000  0.000  0.000-   2 2.69   2 2.69   1 2.69   2 2.69   1 2.69   1 2.69   1 2.69   2 2.69


  LATTYP: Found a face centered cubic cell.
 ALAT       =     6.2105586762

  Lattice vectors:

 A1 = (   0.0000000000,   3.1052793381,   3.1052793381)
 A2 = (   3.1052793381,   0.0000000000,   3.1052793381)
 A3 = (   3.1052793381,   3.1052793381,   0.0000000000)


Analysis of symmetry for initial positions (statically):
=====================================================================
 Subroutine PRICEL returns:
 Original cell was already a primitive cell.


 Routine SETGRP: Setting up the symmetry group for a
 face centered cubic supercell.


 Subroutine GETGRP returns: Found 24 space group operations
 (whereof 24 operations were pure point group operations)
 out of a pool of 48 trial point group operations.


The static configuration has the point symmetry T_d .


Analysis of symmetry for dynamics (positions and initial velocities):
=====================================================================
 Subroutine PRICEL returns:
 Original cell was already a primitive cell.


 Routine SETGRP: Setting up the symmetry group for a
 face centered cubic supercell.


 Subroutine GETGRP returns: Found 24 space group operations
 (whereof 24 operations were pure point group operations)
 out of a pool of 48 trial point group operations.


The dynamic configuration has the point symmetry T_d .


 Subroutine INISYM returns: Found 24 space group operations
 (whereof 24 operations are pure point group operations),
 and found     1 'primitive' translations


----------------------------------------------------------------------------------------

                                     Primitive cell

  volume of cell :      59.8869

  direct lattice vectors                    reciprocal lattice vectors
     0.000000000  3.105279338  3.105279338    -0.161016110  0.161016110  0.161016110
     3.105279338  0.000000000  3.105279338     0.161016110 -0.161016110  0.161016110
     3.105279338  3.105279338  0.000000000     0.161016110  0.161016110 -0.161016110

  length of vectors
     4.391528155  4.391528155  4.391528155     0.278888084  0.278888084  0.278888084

  position of ions in fractional coordinates (direct lattice)
     0.250000000  0.250000000  0.250000000
     0.750000000  0.750000000  0.750000000
     0.000000000  0.000000000  0.000000000

  ion indices of the primitive-cell ions
   primitive index   ion index
                 1           1
                 2           2
                 3           3

----------------------------------------------------------------------------------------



 KPOINTS: KPOINTS

Automatic generation of k-mesh.
Space group operators:
 irot       det(A)        alpha          n_x          n_y          n_z        tau_x        tau_y        tau_z
    1     1.000000     0.000000     1.000000     0.000000     0.000000     0.000000     0.000000     0.000000
    2     1.000000   120.000000    -0.577350    -0.577350    -0.577350     0.000000     0.000000     0.000000
    3     1.000000   120.000000     0.577350     0.577350     0.577350     0.000000     0.000000     0.000000
    4    -1.000000    90.000000     0.000000     0.000000    -1.000000     0.000000     0.000000     0.000000
    5    -1.000000   180.000000    -0.000000     0.707107     0.707107     0.000000     0.000000     0.000000
    6    -1.000000    90.000000     0.000000     1.000000     0.000000     0.000000     0.000000     0.000000
    7     1.000000   180.000000    -0.000000    -0.000000    -1.000000     0.000000     0.000000     0.000000
    8     1.000000   120.000000    -0.577350     0.577350     0.577350     0.000000     0.000000     0.000000
    9     1.000000   120.000000    -0.577350     0.577350    -0.577350     0.000000     0.000000     0.000000
   10    -1.000000    90.000000     0.000000     0.000000     1.000000     0.000000     0.000000     0.000000
   11    -1.000000    90.000000    -1.000000    -0.000000    -0.000000     0.000000     0.000000     0.000000
   12    -1.000000   180.000000     0.707107     0.000000     0.707107     0.000000     0.000000     0.000000
   13     1.000000   120.000000     0.577350    -0.577350     0.577350     0.000000     0.000000     0.000000
   14     1.000000   120.000000    -0.577350    -0.577350     0.577350     0.000000     0.000000     0.000000
   15     1.000000   180.000000     1.000000     0.000000     0.000000     0.000000     0.000000     0.000000
   16    -1.000000    90.000000     0.000000    -1.000000     0.000000     0.000000     0.000000     0.000000
   17    -1.000000   180.000000     0.707107     0.707107     0.000000     0.000000     0.000000     0.000000
   18    -1.000000    90.000000     1.000000     0.000000    -0.000000     0.000000     0.000000     0.000000
   19     1.000000   120.000000     0.577350    -0.577350    -0.577350     0.000000     0.000000     0.000000
   20     1.000000   180.000000     0.000000    -1.000000     0.000000     0.000000     0.000000     0.000000
   21     1.000000   120.000000     0.577350     0.577350    -0.577350     0.000000     0.000000     0.000000
   22    -1.000000   180.000000     0.000000    -0.707107     0.707107     0.000000     0.000000     0.000000
   23    -1.000000   180.000000     0.707107    -0.707107    -0.000000     0.000000     0.000000     0.000000
   24    -1.000000   180.000000     0.707107     0.000000    -0.707107     0.000000     0.000000     0.000000

 Subroutine IBZKPT returns following result:
 ===========================================

 Found     84 irreducible k-points:

 Following reciprocal coordinates:
            Coordinates               Weight
  0.000000  0.000000  0.000000      1.000000
  0.076923 -0.000000  0.000000      8.000000
  0.153846 -0.000000  0.000000      8.000000
  0.230769 -0.000000  0.000000      8.000000
  0.307692 -0.000000  0.000000      8.000000
  0.384615 -0.000000  0.000000      8.000000
  0.461538  0.000000  0.000000      8.000000
  0.076923  0.076923  0.000000      6.000000
  0.153846  0.076923  0.000000     24.000000
  0.230769  0.076923  0.000000     24.000000
  0.307692  0.076923  0.000000     24.000000
  0.384615  0.076923  0.000000     24.000000
  0.461538  0.076923  0.000000     24.000000
 -0.461538  0.076923  0.000000     24.000000
 -0.384615  0.076923  0.000000     24.000000
 -0.307692  0.076923 -0.000000     24.000000
 -0.230769  0.076923 -0.000000     24.000000
 -0.153846  0.076923  0.000000     24.000000
 -0.076923  0.076923 -0.000000     12.000000
  0.153846  0.153846  0.000000      6.000000
  0.230769  0.153846  0.000000     24.000000
  0.307692  0.153846  0.000000     24.000000
  0.384615  0.153846  0.000000     24.000000
  0.461538  0.153846  0.000000     24.000000
 -0.461538  0.153846 -0.000000     24.000000
 -0.384615  0.153846 -0.000000     24.000000
 -0.307692  0.153846 -0.000000     24.000000
 -0.230769  0.153846 -0.000000     24.000000
 -0.153846  0.153846 -0.000000     12.000000
  0.230769  0.230769  0.000000      6.000000
  0.307692  0.230769  0.000000     24.000000
  0.384615  0.230769  0.000000     24.000000
  0.461538  0.230769  0.000000     24.000000
 -0.461538  0.230769 -0.000000     24.000000
 -0.384615  0.230769  0.000000     24.000000
 -0.307692  0.230769  0.000000     24.000000
 -0.230769  0.230769 -0.000000     12.000000
  0.307692  0.307692  0.000000      6.000000
  0.384615  0.307692 -0.000000     24.000000
  0.461538  0.307692  0.000000     24.000000
 -0.461538  0.307692  0.000000     24.000000
 -0.384615  0.307692 -0.000000     24.000000
 -0.307692  0.307692 -0.000000     12.000000
  0.384615  0.384615  0.000000      6.000000
  0.461538  0.384615  0.000000     24.000000
 -0.461538  0.384615 -0.000000     24.000000
 -0.384615  0.384615 -0.000000     12.000000
  0.461538  0.461538  0.000000      6.000000
 -0.461538  0.461538  0.000000     12.000000
  0.230769  0.153846  0.076923     24.000000
  0.307692  0.153846  0.076923     48.000000
  0.384615  0.153846  0.076923     48.000000
  0.461538  0.153846  0.076923     48.000000
 -0.461538  0.153846  0.076923     48.000000
  0.307692  0.230769  0.076923     24.000000
  0.384615  0.230769  0.076923     48.000000
  0.461538  0.230769  0.076923     48.000000
 -0.461538  0.230769  0.076923     48.000000
 -0.384615  0.230769  0.076923     48.000000
 -0.307692  0.230769  0.076923     48.000000
 -0.230769  0.230769  0.076923     48.000000
 -0.153846  0.230769  0.076923     24.000000
  0.384615  0.307692  0.076923     24.000000
  0.461538  0.307692  0.076923     48.000000
 -0.461538  0.307692  0.076923     48.000000
 -0.384615  0.307692  0.076923     48.000000
 -0.307692  0.307692  0.076923     48.000000
 -0.230769  0.307692  0.076923     24.000000
  0.461538  0.384615  0.076923     24.000000
 -0.461538  0.384615  0.076923     48.000000
 -0.384615  0.384615  0.076923     48.000000
 -0.307692  0.384615  0.076923     24.000000
 -0.461538  0.461538  0.076923     24.000000
 -0.384615  0.461538  0.076923     24.000000
  0.461538  0.307692  0.153846     24.000000
 -0.461538  0.307692  0.153846     48.000000
 -0.384615  0.307692  0.153846     48.000000
 -0.461538  0.384615  0.153846     24.000000
 -0.384615  0.384615  0.153846     48.000000
 -0.307692  0.384615  0.153846     48.000000
 -0.230769  0.384615  0.153846     24.000000
 -0.384615  0.461538  0.153846     24.000000
 -0.307692  0.461538  0.153846     24.000000
 -0.307692  0.461538  0.230769     24.000000

 Following cartesian coordinates:
            Coordinates               Weight
  0.000000  0.000000  0.000000      1.000000
 -0.011593  0.011593  0.011593      8.000000
 -0.023186  0.023186  0.023186      8.000000
 -0.034779  0.034779  0.034779      8.000000
 -0.046372  0.046372  0.046372      8.000000
 -0.057965  0.057965  0.057965      8.000000
 -0.069558  0.069558  0.069558      8.000000
  0.000000 -0.000000  0.023186      6.000000
 -0.011593  0.011593  0.034779     24.000000
 -0.023186  0.023186  0.046372     24.000000
 -0.034779  0.034779  0.057965     24.000000
 -0.046372  0.046372  0.069558     24.000000
 -0.057965  0.057965  0.081151     24.000000
  0.081151 -0.081151 -0.057965     24.000000
  0.069558 -0.069558 -0.046372     24.000000
  0.057965 -0.057965 -0.034779     24.000000
  0.046372 -0.046372 -0.023186     24.000000
  0.034779 -0.034779 -0.011593     24.000000
  0.023186 -0.023186  0.000000     12.000000
 -0.000000  0.000000  0.046372      6.000000
 -0.011593  0.011593  0.057965     24.000000
 -0.023186  0.023186  0.069558     24.000000
 -0.034779  0.034779  0.081151     24.000000
 -0.046372  0.046372  0.092744     24.000000
  0.092744 -0.092744 -0.046372     24.000000
  0.081151 -0.081151 -0.034779     24.000000
  0.069558 -0.069558 -0.023186     24.000000
  0.057965 -0.057965 -0.011593     24.000000
  0.046372 -0.046372  0.000000     12.000000
  0.000000 -0.000000  0.069558      6.000000
 -0.011593  0.011593  0.081151     24.000000
 -0.023186  0.023186  0.092744     24.000000
 -0.034779  0.034779  0.104337     24.000000
  0.104337 -0.104337 -0.034779     24.000000
  0.092744 -0.092744 -0.023186     24.000000
  0.081151 -0.081151 -0.011593     24.000000
  0.069558 -0.069558  0.000000     12.000000
 -0.000000  0.000000  0.092744      6.000000
 -0.011593  0.011593  0.104337     24.000000
 -0.023186  0.023186  0.115930     24.000000
  0.115930 -0.115930 -0.023186     24.000000
  0.104337 -0.104337 -0.011593     24.000000
  0.092744 -0.092744  0.000000     12.000000
 -0.000000  0.000000  0.115930      6.000000
 -0.011593  0.011593  0.127523     24.000000
  0.127523 -0.127523 -0.011593     24.000000
  0.115930 -0.115930  0.000000     12.000000
 -0.000000  0.000000  0.139116      6.000000
  0.139116 -0.139116  0.000000     12.000000
  0.000000  0.023186  0.046372     24.000000
 -0.011593  0.034779  0.057965     48.000000
 -0.023186  0.046372  0.069558     48.000000
 -0.034779  0.057965  0.081151     48.000000
  0.104337 -0.081151 -0.057965     48.000000
  0.000000  0.023186  0.069558     24.000000
 -0.011593  0.034779  0.081151     48.000000
 -0.023186  0.046372  0.092744     48.000000
  0.115930 -0.092744 -0.046372     48.000000
  0.104337 -0.081151 -0.034779     48.000000
  0.092744 -0.069558 -0.023186     48.000000
  0.081151 -0.057965 -0.011593     48.000000
  0.069558 -0.046372  0.000000     24.000000
  0.000000  0.023186  0.092744     24.000000
 -0.011593  0.034779  0.104337     48.000000
  0.127523 -0.104337 -0.034779     48.000000
  0.115930 -0.092744 -0.023186     48.000000
  0.104337 -0.081151 -0.011593     48.000000
  0.092744 -0.069558 -0.000000     24.000000
  0.000000  0.023186  0.115930     24.000000
  0.139116 -0.115930 -0.023186     48.000000
  0.127523 -0.104337 -0.011593     48.000000
  0.115930 -0.092744  0.000000     24.000000
  0.150709 -0.127523 -0.011593     24.000000
  0.139116 -0.115930 -0.000000     24.000000
  0.000000  0.046372  0.092744     24.000000
  0.139116 -0.092744 -0.046372     48.000000
  0.127523 -0.081151 -0.034779     48.000000
  0.150709 -0.104337 -0.034779     24.000000
  0.139116 -0.092744 -0.023186     48.000000
  0.127523 -0.081151 -0.011593     48.000000
  0.115930 -0.069558  0.000000     24.000000
  0.150709 -0.104337 -0.011593     24.000000
  0.139116 -0.092744  0.000000     24.000000
  0.150709 -0.081151 -0.011593     24.000000



--------------------------------------------------------------------------------------------------------




 Dimension of arrays:
   k-points           NKPTS =     84   k-points in BZ     NKDIM =     84   number of bands    NBANDS=     24
   number of dos      NEDOS =    301   number of ions     NIONS =      3
   non local maximal  LDIM  =      8   non local SUM 2l+1 LMDIM =     32
   total plane-waves  NPLWV =  64000
   max r-space proj   IRMAX =      1   max aug-charges    IRDMAX= 521585
   dimension x,y,z NGX =    40 NGY =   40 NGZ =   40
   dimension x,y,z NGXF=    80 NGYF=   80 NGZF=   80
   support grid    NGXF=   160 NGYF=  160 NGZF=  160
   ions per type =               1   1   1
   NGX,Y,Z   is equivalent  to a cutoff of  15.14, 15.14, 15.14 a.u.
   NGXF,Y,Z  is equivalent  to a cutoff of  30.28, 30.28, 30.28 a.u.

 SYSTEM =  unknown system
 POSCAR =  U1 Bi1 Pt1

 Startparameter for this run:
   NWRITE =      2    write-flag & timer
   PREC   = acc       normal or accurate (medium, high low for compatibility)
   ISTART =      0    job   : 0-new  1-cont  2-samecut
   ICHARG =      2    charge: 1-file 2-atom 10-const
   ISPIN  =      1    spin polarized calculation?
   LNONCOLLINEAR =      F non collinear calculations
   LSORBIT =      F    spin-orbit coupling
   INIWAV =      1    electr: 0-lowe 1-rand  2-diag
   LASPH  =      F    aspherical Exc in radial PAW
   METAGGA=      F    non-selfconsistent MetaGGA calc.

 Electronic Relaxation 1
   ENCUT  =  700.0 eV  51.45 Ry    7.17 a.u.   9.47  9.47  9.47*2*pi/ulx,y,z
   ENINI  =  700.0     initial cutoff
   ENAUG  =  526.4 eV  augmentation charge cutoff
   NELM   =     60;   NELMIN=  5; NELMDL= -5     # of ELM steps
   EDIFF  = 0.1E-06   stopping-criterion for ELM
   LREAL  =      F    real-space projection
   NLSPLINE    = F    spline interpolate recip. space projectors
   LCOMPAT=      F    compatible to vasp.4.4
   GGA_COMPAT  = T    GGA compatible to vasp.4.4-vasp.4.6
   LMAXPAW     = -100 max onsite density
   LMAXMIX     =    2 max onsite mixed and CHGCAR
   VOSKOWN=      0    Vosko Wilk Nusair interpolation
   ROPT   =    0.00000   0.00000   0.00000
 Ionic relaxation
   EDIFFG = 0.1E-05   stopping-criterion for IOM
   NSW    =      0    number of steps for IOM
   NBLOCK =      1;   KBLOCK =      1    inner block; outer block
   IBRION =     -1    ionic relax: 0-MD 1-quasi-New 2-CG
   NFREE  =      0    steps in history (QN), initial steepest desc. (CG)
   ISIF   =      3    stress and relaxation
   IWAVPR =     10    prediction:  0-non 1-charg 2-wave 3-comb
   ISYM   =      2    0-nonsym 1-usesym 2-fastsym
   LCORR  =      T    Harris-Foulkes like correction to forces

   POTIM  = 0.5000    time-step for ionic-motion
   TEIN   =    0.0    initial temperature
   TEBEG  =    0.0;   TEEND  =   0.0 temperature during run
   SMASS  =  -3.00    Nose mass-parameter (am)
   estimated Nose-frequenzy (Omega)   =  0.10E-29 period in steps = 0.13E+47 mass=  -0.441E-27a.u.
   SCALEE = 1.0000    scale energy and forces
   NPACO  =    256;   APACO  = 16.0  distance and # of slots for P.C.
   PSTRESS=    0.0 pullay stress

  Mass of Ions in am
   POMASS = 238.03208.98195.08
  Ionic Valenz
   ZVAL   =  14.00 15.00 10.00
  Atomic Wigner-Seitz radii
   RWIGS  =  -1.00 -1.00 -1.00
  virtual crystal weights
   VCA    =   1.00  1.00  1.00
   NELECT =      39.0000    total number of electrons
   NUPDOWN=      -1.0000    fix difference up-down

 DOS related values:
   EMIN   =  10.00;   EMAX   =-10.00  energy-range for DOS
   EFERMI =   0.00
   ISMEAR =     0;   SIGMA  =   0.01  broadening in eV -4-tet -1-fermi 0-gaus

 Electronic relaxation 2 (details)
   IALGO  =     38    algorithm
   LDIAG  =      T    sub-space diagonalisation (order eigenvalues)
   LSUBROT=      F    optimize rotation matrix (better conditioning)
   TURBO    =      0    0=normal 1=particle mesh
   IRESTART =      0    0=no restart 2=restart with 2 vectors
   NREBOOT  =      0    no. of reboots
   NMIN     =      0    reboot dimension
   EREF     =   0.00    reference energy to select bands
   IMIX   =      4    mixing-type and parameters
     AMIX     =   0.40;   BMIX     =  1.00
     AMIX_MAG =   1.60;   BMIX_MAG =  1.00
     AMIN     =   0.10
     WC   =   100.;   INIMIX=   1;  MIXPRE=   1;  MAXMIX= -45

 Intra band minimization:
   WEIMIN = 0.0000     energy-eigenvalue tresh-hold
   EBREAK =  0.10E-08  absolut break condition
   DEPER  =   0.30     relativ break condition

   TIME   =   0.40     timestep for ELM

  volume/ion in A,a.u.               =      19.96       134.71
  Fermi-wavevector in a.u.,A,eV,Ry     =   1.419011  2.681542 27.396577  2.013592
  Thomas-Fermi vector in A             =   2.540076

 Write flags
   LWAVE        =      F    write WAVECAR
   LDOWNSAMPLE  =      F    k-point downsampling of WAVECAR
   LCHARG       =      F    write CHGCAR
   LVTOT        =      F    write LOCPOT, total local potential
   LVHAR        =      F    write LOCPOT, Hartree potential only
   LELF         =      F    write electronic localiz. function (ELF)
   LORBIT       =      0    0 simple, 1 ext, 2 COOP (PROOUT), +10 PAW based schemes


 Dipole corrections
   LMONO  =      F    monopole corrections only (constant potential shift)
   LDIPOL =      F    correct potential (dipole corrections)
   IDIPOL =      0    1-x, 2-y, 3-z, 4-all directions
   EPSILON=  1.0000000 bulk dielectric constant

 Exchange correlation treatment:
   GGA     =    PS    GGA type
   LEXCH   =    14    internal setting for exchange type
   VOSKOWN=      0    Vosko Wilk Nusair interpolation
   LHFCALC =     F    Hartree Fock is set to
   LHFONE  =     F    Hartree Fock one center treatment
   AEXX    =    0.0000 exact exchange contribution

 Linear response parameters
   LEPSILON=     F    determine dielectric tensor
   LRPA    =     F    only Hartree local field effects (RPA)
   LNABLA  =     F    use nabla operator in PAW spheres
   LVEL    =     F    velocity operator in full k-point grid
   LINTERFAST=   F  fast interpolation
   KINTER  =     0    interpolate to denser k-point grid
   CSHIFT  =0.1000    complex shift for real part using Kramers Kronig
   OMEGAMAX=  -1.0    maximum frequency
   DEG_THRESHOLD= 0.2000000E-02 threshold for treating states as degnerate
   RTIME   =   -0.100 relaxation time in fs
  (WPLASMAI=    0.000 imaginary part of plasma frequency in eV, 0.658/RTIME)
   DFIELD  = 0.0000000 0.0000000 0.0000000 field for delta impulse in time

 Orbital magnetization related:
   ORBITALMAG=     F  switch on orbital magnetization
   LCHIMAG   =     F  perturbation theory with respect to B field
   DQ        =  0.001000  dq finite difference perturbation B field
   LLRAUG    =     F  two centre corrections for induced B field



--------------------------------------------------------------------------------------------------------


 Static calculation
 charge density and potential will be updated during run
 non-spin polarized calculation
 Variant of blocked Davidson
 Davidson routine will perform the subspace rotation
 perform sub-space diagonalisation
    after iterative eigenvector-optimisation
 modified Broyden-mixing scheme, WC =      100.0
 initial mixing is a Kerker type mixing with AMIX =  0.4000 and BMIX =      1.0000
 Hartree-type preconditioning will be used
 using additional bands            4
 reciprocal scheme for non local part
 use partial core corrections
 calculate Harris-corrections to forces
   (improved forces if not selfconsistent)
 use gradient corrections
 use of overlap-Matrix (Vanderbilt PP)
 Gauss-broadening in eV      SIGMA  =   0.01


--------------------------------------------------------------------------------------------------------


  energy-cutoff  :      700.00
  volume of cell :       59.89
      direct lattice vectors                 reciprocal lattice vectors
     0.000000000  3.105279338  3.105279338    -0.161016110  0.161016110  0.161016110
     3.105279338  0.000000000  3.105279338     0.161016110 -0.161016110  0.161016110
     3.105279338  3.105279338  0.000000000     0.161016110  0.161016110 -0.161016110

  length of vectors
     4.391528155  4.391528155  4.391528155     0.278888084  0.278888084  0.278888084



 k-points in units of 2pi/SCALE and weight: KPOINTS
   0.00000000  0.00000000  0.00000000       0.000
  -0.01159304  0.01159304  0.01159304       0.004
  -0.02318608  0.02318608  0.02318608       0.004
  -0.03477911  0.03477911  0.03477911       0.004
  -0.04637215  0.04637215  0.04637215       0.004
  -0.05796519  0.05796519  0.05796519       0.004
  -0.06955823  0.06955823  0.06955823       0.004
   0.00000000 -0.00000000  0.02318608       0.003
  -0.01159304  0.01159304  0.03477911       0.011
  -0.02318608  0.02318608  0.04637215       0.011
  -0.03477911  0.03477911  0.05796519       0.011
  -0.04637215  0.04637215  0.06955823       0.011
  -0.05796519  0.05796519  0.08115127       0.011
   0.08115127 -0.08115127 -0.05796519       0.011
   0.06955823 -0.06955823 -0.04637215       0.011
   0.05796519 -0.05796519 -0.03477911       0.011
   0.04637215 -0.04637215 -0.02318608       0.011
   0.03477911 -0.03477911 -0.01159304       0.011
   0.02318608 -0.02318608  0.00000000       0.005
  -0.00000000  0.00000000  0.04637215       0.003
  -0.01159304  0.01159304  0.05796519       0.011
  -0.02318608  0.02318608  0.06955823       0.011
  -0.03477911  0.03477911  0.08115127       0.011
  -0.04637215  0.04637215  0.09274430       0.011
   0.09274430 -0.09274430 -0.04637215       0.011
   0.08115127 -0.08115127 -0.03477911       0.011
   0.06955823 -0.06955823 -0.02318608       0.011
   0.05796519 -0.05796519 -0.01159304       0.011
   0.04637215 -0.04637215  0.00000000       0.005
   0.00000000 -0.00000000  0.06955823       0.003
  -0.01159304  0.01159304  0.08115127       0.011
  -0.02318608  0.02318608  0.09274430       0.011
  -0.03477911  0.03477911  0.10433734       0.011
   0.10433734 -0.10433734 -0.03477911       0.011
   0.09274430 -0.09274430 -0.02318608       0.011
   0.08115127 -0.08115127 -0.01159304       0.011
   0.06955823 -0.06955823  0.00000000       0.005
  -0.00000000  0.00000000  0.09274430       0.003
  -0.01159304  0.01159304  0.10433734       0.011
  -0.02318608  0.02318608  0.11593038       0.011
   0.11593038 -0.11593038 -0.02318608       0.011
   0.10433734 -0.10433734 -0.01159304       0.011
   0.09274430 -0.09274430  0.00000000       0.005
  -0.00000000  0.00000000  0.11593038       0.003
  -0.01159304  0.01159304  0.12752342       0.011
   0.12752342 -0.12752342 -0.01159304       0.011
   0.11593038 -0.11593038  0.00000000       0.005
  -0.00000000  0.00000000  0.13911646       0.003
   0.13911646 -0.13911646  0.00000000       0.005
   0.00000000  0.02318608  0.04637215       0.011
  -0.01159304  0.03477911  0.05796519       0.022
  -0.02318608  0.04637215  0.06955823       0.022
  -0.03477911  0.05796519  0.08115127       0.022
   0.10433734 -0.08115127 -0.05796519       0.022
   0.00000000  0.02318608  0.06955823       0.011
  -0.01159304  0.03477911  0.08115127       0.022
  -0.02318608  0.04637215  0.09274430       0.022
   0.11593038 -0.09274430 -0.04637215       0.022
   0.10433734 -0.08115127 -0.03477911       0.022
   0.09274430 -0.06955823 -0.02318608       0.022
   0.08115127 -0.05796519 -0.01159304       0.022
   0.06955823 -0.04637215  0.00000000       0.011
   0.00000000  0.02318608  0.09274430       0.011
  -0.01159304  0.03477911  0.10433734       0.022
   0.12752342 -0.10433734 -0.03477911       0.022
   0.11593038 -0.09274430 -0.02318608       0.022
   0.10433734 -0.08115127 -0.01159304       0.022
   0.09274430 -0.06955823 -0.00000000       0.011
   0.00000000  0.02318608  0.11593038       0.011
   0.13911646 -0.11593038 -0.02318608       0.022
   0.12752342 -0.10433734 -0.01159304       0.022
   0.11593038 -0.09274430  0.00000000       0.011
   0.15070950 -0.12752342 -0.01159304       0.011
   0.13911646 -0.11593038 -0.00000000       0.011
   0.00000000  0.04637215  0.09274430       0.011
   0.13911646 -0.09274430 -0.04637215       0.022
   0.12752342 -0.08115127 -0.03477911       0.022
   0.15070950 -0.10433734 -0.03477911       0.011
   0.13911646 -0.09274430 -0.02318608       0.022
   0.12752342 -0.08115127 -0.01159304       0.022
   0.11593038 -0.06955823  0.00000000       0.011
   0.15070950 -0.10433734 -0.01159304       0.011
   0.13911646 -0.09274430  0.00000000       0.011
   0.15070950 -0.08115127 -0.01159304       0.011

 k-points in reciprocal lattice and weights: KPOINTS
   0.00000000  0.00000000  0.00000000       0.000
   0.07692308 -0.00000000  0.00000000       0.004
   0.15384615 -0.00000000  0.00000000       0.004
   0.23076923 -0.00000000  0.00000000       0.004
   0.30769231 -0.00000000  0.00000000       0.004
   0.38461538 -0.00000000  0.00000000       0.004
   0.46153846  0.00000000  0.00000000       0.004
   0.07692308  0.07692308  0.00000000       0.003
   0.15384615  0.07692308  0.00000000       0.011
   0.23076923  0.07692308  0.00000000       0.011
   0.30769231  0.07692308  0.00000000       0.011
   0.38461538  0.07692308  0.00000000       0.011
   0.46153846  0.07692308  0.00000000       0.011
  -0.46153846  0.07692308  0.00000000       0.011
  -0.38461538  0.07692308  0.00000000       0.011
  -0.30769231  0.07692308 -0.00000000       0.011
  -0.23076923  0.07692308 -0.00000000       0.011
  -0.15384615  0.07692308  0.00000000       0.011
  -0.07692308  0.07692308 -0.00000000       0.005
   0.15384615  0.15384615  0.00000000       0.003
   0.23076923  0.15384615  0.00000000       0.011
   0.30769231  0.15384615  0.00000000       0.011
   0.38461538  0.15384615  0.00000000       0.011
   0.46153846  0.15384615  0.00000000       0.011
  -0.46153846  0.15384615 -0.00000000       0.011
  -0.38461538  0.15384615 -0.00000000       0.011
  -0.30769231  0.15384615 -0.00000000       0.011
  -0.23076923  0.15384615 -0.00000000       0.011
  -0.15384615  0.15384615 -0.00000000       0.005
   0.23076923  0.23076923  0.00000000       0.003
   0.30769231  0.23076923  0.00000000       0.011
   0.38461538  0.23076923  0.00000000       0.011
   0.46153846  0.23076923  0.00000000       0.011
  -0.46153846  0.23076923 -0.00000000       0.011
  -0.38461538  0.23076923  0.00000000       0.011
  -0.30769231  0.23076923  0.00000000       0.011
  -0.23076923  0.23076923 -0.00000000       0.005
   0.30769231  0.30769231  0.00000000       0.003
   0.38461538  0.30769231 -0.00000000       0.011
   0.46153846  0.30769231  0.00000000       0.011
  -0.46153846  0.30769231  0.00000000       0.011
  -0.38461538  0.30769231 -0.00000000       0.011
  -0.30769231  0.30769231 -0.00000000       0.005
   0.38461538  0.38461538  0.00000000       0.003
   0.46153846  0.38461538  0.00000000       0.011
  -0.46153846  0.38461538 -0.00000000       0.011
  -0.38461538  0.38461538 -0.00000000       0.005
   0.46153846  0.46153846  0.00000000       0.003
  -0.46153846  0.46153846  0.00000000       0.005
   0.23076923  0.15384615  0.07692308       0.011
   0.30769231  0.15384615  0.07692308       0.022
   0.38461538  0.15384615  0.07692308       0.022
   0.46153846  0.15384615  0.07692308       0.022
  -0.46153846  0.15384615  0.07692308       0.022
   0.30769231  0.23076923  0.07692308       0.011
   0.38461538  0.23076923  0.07692308       0.022
   0.46153846  0.23076923  0.07692308       0.022
  -0.46153846  0.23076923  0.07692308       0.022
  -0.38461538  0.23076923  0.07692308       0.022
  -0.30769231  0.23076923  0.07692308       0.022
  -0.23076923  0.23076923  0.07692308       0.022
  -0.15384615  0.23076923  0.07692308       0.011
   0.38461538  0.30769231  0.07692308       0.011
   0.46153846  0.30769231  0.07692308       0.022
  -0.46153846  0.30769231  0.07692308       0.022
  -0.38461538  0.30769231  0.07692308       0.022
  -0.30769231  0.30769231  0.07692308       0.022
  -0.23076923  0.30769231  0.07692308       0.011
   0.46153846  0.38461538  0.07692308       0.011
  -0.46153846  0.38461538  0.07692308       0.022
  -0.38461538  0.38461538  0.07692308       0.022
  -0.30769231  0.38461538  0.07692308       0.011
  -0.46153846  0.46153846  0.07692308       0.011
  -0.38461538  0.46153846  0.07692308       0.011
   0.46153846  0.30769231  0.15384615       0.011
  -0.46153846  0.30769231  0.15384615       0.022
  -0.38461538  0.30769231  0.15384615       0.022
  -0.46153846  0.38461538  0.15384615       0.011
  -0.38461538  0.38461538  0.15384615       0.022
  -0.30769231  0.38461538  0.15384615       0.022
  -0.23076923  0.38461538  0.15384615       0.011
  -0.38461538  0.46153846  0.15384615       0.011
  -0.30769231  0.46153846  0.15384615       0.011
  -0.30769231  0.46153846  0.23076923       0.011

 position of ions in fractional coordinates (direct lattice)
   0.25000000  0.25000000  0.25000000
   0.75000000  0.75000000  0.75000000
   0.00000000  0.00000000  0.00000000

 position of ions in cartesian coordinates  (Angst):
   1.55263967  1.55263967  1.55263967
   4.65791901  4.65791901  4.65791901
   0.00000000  0.00000000  0.00000000



--------------------------------------------------------------------------------------------------------


 k-point  1 :   0.0000 0.0000 0.0000  plane waves:    2565
 k-point  2 :   0.0769-0.0000 0.0000  plane waves:    2541
 k-point  3 :   0.1538-0.0000 0.0000  plane waves:    2550
 k-point  4 :   0.2308-0.0000 0.0000  plane waves:    2535
 k-point  5 :   0.3077-0.0000 0.0000  plane waves:    2533
 k-point  6 :   0.3846-0.0000 0.0000  plane waves:    2506
 k-point  7 :   0.4615 0.0000 0.0000  plane waves:    2509
 k-point  8 :   0.0769 0.0769 0.0000  plane waves:    2541
 k-point  9 :   0.1538 0.0769 0.0000  plane waves:    2543
 k-point 10 :   0.2308 0.0769 0.0000  plane waves:    2540
 k-point 11 :   0.3077 0.0769 0.0000  plane waves:    2523
 k-point 12 :   0.3846 0.0769 0.0000  plane waves:    2516
 k-point 13 :   0.4615 0.0769 0.0000  plane waves:    2517
 k-point 14 :  -0.4615 0.0769 0.0000  plane waves:    2510
 k-point 15 :  -0.3846 0.0769 0.0000  plane waves:    2504
 k-point 16 :  -0.3077 0.0769-0.0000  plane waves:    2516
 k-point 17 :  -0.2308 0.0769-0.0000  plane waves:    2516
 k-point 18 :  -0.1538 0.0769 0.0000  plane waves:    2548
 k-point 19 :  -0.0769 0.0769-0.0000  plane waves:    2543
 k-point 20 :   0.1538 0.1538 0.0000  plane waves:    2545
 k-point 21 :   0.2308 0.1538 0.0000  plane waves:    2535
 k-point 22 :   0.3077 0.1538 0.0000  plane waves:    2525
 k-point 23 :   0.3846 0.1538 0.0000  plane waves:    2522
 k-point 24 :   0.4615 0.1538 0.0000  plane waves:    2508
 k-point 25 :  -0.4615 0.1538-0.0000  plane waves:    2507
 k-point 26 :  -0.3846 0.1538-0.0000  plane waves:    2514
 k-point 27 :  -0.3077 0.1538-0.0000  plane waves:    2511
 k-point 28 :  -0.2308 0.1538-0.0000  plane waves:    2527
 k-point 29 :  -0.1538 0.1538-0.0000  plane waves:    2539
 k-point 30 :   0.2308 0.2308 0.0000  plane waves:    2525
 k-point 31 :   0.3077 0.2308 0.0000  plane waves:    2524
 k-point 32 :   0.3846 0.2308 0.0000  plane waves:    2521
 k-point 33 :   0.4615 0.2308 0.0000  plane waves:    2514
 k-point 34 :  -0.4615 0.2308-0.0000  plane waves:    2516
 k-point 35 :  -0.3846 0.2308 0.0000  plane waves:    2519
 k-point 36 :  -0.3077 0.2308 0.0000  plane waves:    2523
 k-point 37 :  -0.2308 0.2308-0.0000  plane waves:    2531
 k-point 38 :   0.3077 0.3077 0.0000  plane waves:    2510
 k-point 39 :   0.3846 0.3077-0.0000  plane waves:    2508
 k-point 40 :   0.4615 0.3077 0.0000  plane waves:    2509
 k-point 41 :  -0.4615 0.3077 0.0000  plane waves:    2527
 k-point 42 :  -0.3846 0.3077-0.0000  plane waves:    2535
 k-point 43 :  -0.3077 0.3077-0.0000  plane waves:    2524
 k-point 44 :   0.3846 0.3846 0.0000  plane waves:    2510
 k-point 45 :   0.4615 0.3846 0.0000  plane waves:    2501
 k-point 46 :  -0.4615 0.3846-0.0000  plane waves:    2523
 k-point 47 :  -0.3846 0.3846-0.0000  plane waves:    2514
 k-point 48 :   0.4615 0.4615 0.0000  plane waves:    2490
 k-point 49 :  -0.4615 0.4615 0.0000  plane waves:    2504
 k-point 50 :   0.2308 0.1538 0.0769  plane waves:    2546
 k-point 51 :   0.3077 0.1538 0.0769  plane waves:    2542
 k-point 52 :   0.3846 0.1538 0.0769  plane waves:    2521
 k-point 53 :   0.4615 0.1538 0.0769  plane waves:    2511
 k-point 54 :  -0.4615 0.1538 0.0769  plane waves:    2516
 k-point 55 :   0.3077 0.2308 0.0769  plane waves:    2527
 k-point 56 :   0.3846 0.2308 0.0769  plane waves:    2524
 k-point 57 :   0.4615 0.2308 0.0769  plane waves:    2513
 k-point 58 :  -0.4615 0.2308 0.0769  plane waves:    2507
 k-point 59 :  -0.3846 0.2308 0.0769  plane waves:    2527
 k-point 60 :  -0.3077 0.2308 0.0769  plane waves:    2517
 k-point 61 :  -0.2308 0.2308 0.0769  plane waves:    2509
 k-point 62 :  -0.1538 0.2308 0.0769  plane waves:    2527
 k-point 63 :   0.3846 0.3077 0.0769  plane waves:    2514
 k-point 64 :   0.4615 0.3077 0.0769  plane waves:    2513
 k-point 65 :  -0.4615 0.3077 0.0769  plane waves:    2509
 k-point 66 :  -0.3846 0.3077 0.0769  plane waves:    2523
 k-point 67 :  -0.3077 0.3077 0.0769  plane waves:    2517
 k-point 68 :  -0.2308 0.3077 0.0769  plane waves:    2519
 k-point 69 :   0.4615 0.3846 0.0769  plane waves:    2516
 k-point 70 :  -0.4615 0.3846 0.0769  plane waves:    2506
 k-point 71 :  -0.3846 0.3846 0.0769  plane waves:    2518
 k-point 72 :  -0.3077 0.3846 0.0769  plane waves:    2524
 k-point 73 :  -0.4615 0.4615 0.0769  plane waves:    2506
 k-point 74 :  -0.3846 0.4615 0.0769  plane waves:    2507
 k-point 75 :   0.4615 0.3077 0.1538  plane waves:    2517
 k-point 76 :  -0.4615 0.3077 0.1538  plane waves:    2507
 k-point 77 :  -0.3846 0.3077 0.1538  plane waves:    2505
 k-point 78 :  -0.4615 0.3846 0.1538  plane waves:    2509
 k-point 79 :  -0.3846 0.3846 0.1538  plane waves:    2511
 k-point 80 :  -0.3077 0.3846 0.1538  plane waves:    2514
 k-point 81 :  -0.2308 0.3846 0.1538  plane waves:    2513
 k-point 82 :  -0.3846 0.4615 0.1538  plane waves:    2513
 k-point 83 :  -0.3077 0.4615 0.1538  plane waves:    2520
 k-point 84 :  -0.3077 0.4615 0.2308  plane waves:    2507

 maximum and minimum number of plane-waves per node :       651      618

 maximum number of plane-waves:      2565
 maximum index in each direction:
   IXMAX=    9   IYMAX=    9   IZMAX=    9
   IXMIN=   -9   IYMIN=   -9   IZMIN=   -9


 parallel 3D FFT for wavefunctions:
    minimum data exchange during FFTs selected (reduces bandwidth)
 parallel 3D FFT for charge:
    minimum data exchange during FFTs selected (reduces bandwidth)


 total amount of memory used by VASP MPI-rank0    85592. kBytes
=======================================================================

   base      :      30000. kBytes
   nonl-proj :      42093. kBytes
   fftplans  :       5203. kBytes
   grid      :       2732. kBytes
   one-center:         49. kBytes
   wavefun   :       5515. kBytes

     INWAV:  cpu time    0.0003: real time    0.1084
 Broyden mixing: mesh for mixing (old mesh)
   NGX = 19   NGY = 19   NGZ = 19
  (NGX  = 80   NGY  = 80   NGZ  = 80)
  gives a total of   6859 points

 initial charge density was supplied:
 charge density of overlapping atoms calculated
 number of electron      39.0000000 magnetization
 keeping initial charge density in first step


--------------------------------------------------------------------------------------------------------


 Maximum index for augmentation-charges        31641 (set IRDMAX)


--------------------------------------------------------------------------------------------------------


 First call to EWALD:  gamma=   0.453
 Maximum number of real-space cells 3x 3x 3
 Maximum number of reciprocal cells 3x 3x 3

    FEWALD:  cpu time    0.0054: real time    0.0067


--------------------------------------- Iteration      1(   1)  ---------------------------------------


    POTLOK:  cpu time    0.0513: real time    0.4722
    SETDIJ:  cpu time    0.0894: real time    0.0898
     EDDAV:  cpu time    1.4013: real time    1.4093
       DOS:  cpu time    0.0044: real time    0.0048
    --------------------------------------------
      LOOP:  cpu time    1.5467: real time    1.9767

 eigenvalue-minimisations  :  4032
 total energy-change (2. order) : 0.4389285E+03  (-0.2268387E+04)
 number of electron      39.0000000 magnetization
 augmentation part       39.0000000 magnetization

 Free energy of the ion-electron system (eV)
  ---------------------------------------------------
  alpha Z        PSCENC =       262.57458677
  Ewald energy   TEWEN  =     -3839.04584479
  -Hartree energ DENC   =      -685.83125271
  -exchange      EXHF   =         0.00000000
  -V(xc)+E(xc)   XCENC  =        93.03001098
  PAW double counting   =      3513.29252893    -3436.88002192
  entropy T*S    EENTRO =        -0.00017973
  eigenvalues    EBANDS =       436.43662046
  atomic energy  EATOM  =      4095.35208632
  Solvation  Ediel_sol  =         0.00000000
  ---------------------------------------------------
  free energy    TOTEN  =       438.92853430 eV

  energy without entropy =      438.92871403  energy(sigma->0) =      438.92862417


--------------------------------------------------------------------------------------------------------




--------------------------------------- Iteration      1(   2)  ---------------------------------------


     EDDAV:  cpu time    1.4247: real time    1.4520
       DOS:  cpu time    0.0030: real time    0.0032
    --------------------------------------------
      LOOP:  cpu time    1.4277: real time    1.4556

 eigenvalue-minimisations  :  4152
 total energy-change (2. order) :-0.4049548E+03  (-0.3961032E+03)
 number of electron      39.0000000 magnetization
 augmentation part       39.0000000 magnetization

 Free energy of the ion-electron system (eV)
  ---------------------------------------------------
  alpha Z        PSCENC =       262.57458677
  Ewald energy   TEWEN  =     -3839.04584479
  -Hartree energ DENC   =      -685.83125271
  -exchange      EXHF   =         0.00000000
  -V(xc)+E(xc)   XCENC  =        93.03001098
  PAW double counting   =      3513.29252893    -3436.88002192
  entropy T*S    EENTRO =        -0.00053229
  eigenvalues    EBANDS =        31.48212693
  atomic energy  EATOM  =      4095.35208632
  Solvation  Ediel_sol  =         0.00000000
  ---------------------------------------------------
  free energy    TOTEN  =        33.97368822 eV

  energy without entropy =       33.97422051  energy(sigma->0) =       33.97395436


--------------------------------------------------------------------------------------------------------




--------------------------------------- Iteration      1(   3)  ---------------------------------------


     EDDAV:  cpu time    1.6017: real time    1.6259
       DOS:  cpu time    0.0030: real time    0.0049
    --------------------------------------------
      LOOP:  cpu time    1.6048: real time    1.6326

 eigenvalue-minimisations  :  4928
 total energy-change (2. order) :-0.5327044E+02  (-0.5221556E+02)
 number of electron      39.0000000 magnetization
 augmentation part       39.0000000 magnetization

 Free energy of the ion-electron system (eV)
  ---------------------------------------------------
  alpha Z        PSCENC =       262.57458677
  Ewald energy   TEWEN  =     -3839.04584479
  -Hartree energ DENC   =      -685.83125271
  -exchange      EXHF   =         0.00000000
  -V(xc)+E(xc)   XCENC  =        93.03001098
  PAW double counting   =      3513.29252893    -3436.88002192
  entropy T*S    EENTRO =        -0.00029162
  eigenvalues    EBANDS =       -21.78855588
  atomic energy  EATOM  =      4095.35208632
  Solvation  Ediel_sol  =         0.00000000
  ---------------------------------------------------
  free energy    TOTEN  =       -19.29675392 eV

  energy without entropy =      -19.29646231  energy(sigma->0) =      -19.29660812


--------------------------------------------------------------------------------------------------------




--------------------------------------- Iteration      1(   4)  ---------------------------------------


     EDDAV:  cpu time    2.1865: real time    2.2196
       DOS:  cpu time    0.0033: real time    0.0035
    --------------------------------------------
      LOOP:  cpu time    2.1898: real time    2.2242

 eigenvalue-minimisations  :  7280
 total energy-change (2. order) :-0.5600876E+01  (-0.5575320E+01)
 number of electron      39.0000000 magnetization
 augmentation part       39.0000000 magnetization

 Free energy of the ion-electron system (eV)
  ---------------------------------------------------
  alpha Z        PSCENC =       262.57458677
  Ewald energy   TEWEN  =     -3839.04584479
  -Hartree energ DENC   =      -685.83125271
  -exchange      EXHF   =         0.00000000
  -V(xc)+E(xc)   XCENC  =        93.03001098
  PAW double counting   =      3513.29252893    -3436.88002192
  entropy T*S    EENTRO =        -0.00065106
  eigenvalues    EBANDS =       -27.38907235
  atomic energy  EATOM  =      4095.35208632
  Solvation  Ediel_sol  =         0.00000000
  ---------------------------------------------------
  free energy    TOTEN  =       -24.89762983 eV

  energy without entropy =      -24.89697877  energy(sigma->0) =      -24.89730430


--------------------------------------------------------------------------------------------------------




--------------------------------------- Iteration      1(   5)  ---------------------------------------


     EDDAV:  cpu time    1.7647: real time    1.7816
       DOS:  cpu time    0.0032: real time    0.0039
    CHARGE:  cpu time    0.3480: real time    0.3488
    MIXING:  cpu time    0.0070: real time    0.0077
    --------------------------------------------
      LOOP:  cpu time    2.1228: real time    2.1394

 eigenvalue-minimisations  :  5440
 total energy-change (2. order) :-0.1681164E+00  (-0.1680275E+00)
 number of electron      39.0000000 magnetization
 augmentation part        8.5346330 magnetization

 Broyden mixing:
  rms(total) = 0.18559E+01    rms(broyden)= 0.18559E+01
  rms(prec ) = 0.44959E+01
  weight for this iteration     100.00

 Free energy of the ion-electron system (eV)
  ---------------------------------------------------
  alpha Z        PSCENC =       262.57458677
  Ewald energy   TEWEN  =     -3839.04584479
  -Hartree energ DENC   =      -685.83125271
  -exchange      EXHF   =         0.00000000
  -V(xc)+E(xc)   XCENC  =        93.03001098
  PAW double counting   =      3513.29252893    -3436.88002192
  entropy T*S    EENTRO =        -0.00074893
  eigenvalues    EBANDS =       -27.55709084
  atomic energy  EATOM  =      4095.35208632
  Solvation  Ediel_sol  =         0.00000000
  ---------------------------------------------------
  free energy    TOTEN  =       -25.06574619 eV

  energy without entropy =      -25.06499726  energy(sigma->0) =      -25.06537173


--------------------------------------------------------------------------------------------------------




--------------------------------------- Iteration      1(   6)  ---------------------------------------


    POTLOK:  cpu time    0.0350: real time    0.0587
    SETDIJ:  cpu time    0.1120: real time    0.1121
     EDDAV:  cpu time    1.9201: real time    1.9204
       DOS:  cpu time    0.0031: real time    0.0033
    CHARGE:  cpu time    0.3126: real time    0.3126
    MIXING:  cpu time    0.0042: real time    0.0046
    --------------------------------------------
      LOOP:  cpu time    2.3871: real time    2.4124

 eigenvalue-minimisations  :  6184
 total energy-change (2. order) :-0.3918954E+01  (-0.1464692E+02)
 number of electron      39.0000000 magnetization
 augmentation part        7.0719112 magnetization

 Broyden mixing:
  rms(total) = 0.23747E+01    rms(broyden)= 0.23747E+01
  rms(prec ) = 0.54915E+01
  weight for this iteration     100.00

 eigenvalues of (default mixing * dielectric matrix)
  average eigenvalue GAMMA=   0.3391
  0.3391

 Free energy of the ion-electron system (eV)
  ---------------------------------------------------
  alpha Z        PSCENC =       262.57458677
  Ewald energy   TEWEN  =     -3839.04584479
  -Hartree energ DENC   =      -687.19683581
  -exchange      EXHF   =         0.00000000
  -V(xc)+E(xc)   XCENC  =        93.35356855
  PAW double counting   =      4052.25891661    -3978.05615998
  entropy T*S    EENTRO =        -0.00021559
  eigenvalues    EBANDS =       -28.22480192
  atomic energy  EATOM  =      4095.35208632
  Solvation  Ediel_sol  =         0.00000000
  ---------------------------------------------------
  free energy    TOTEN  =       -28.98469985 eV

  energy without entropy =      -28.98448426  energy(sigma->0) =      -28.98459205


--------------------------------------------------------------------------------------------------------




--------------------------------------- Iteration      1(   7)  ---------------------------------------


    POTLOK:  cpu time    0.0457: real time    0.0765
    SETDIJ:  cpu time    0.0979: real time    0.0981
     EDDAV:  cpu time    1.8073: real time    1.8076
       DOS:  cpu time    0.0031: real time    0.0033
    CHARGE:  cpu time    0.2879: real time    0.2881
    MIXING:  cpu time    0.0065: real time    0.0075
    --------------------------------------------
      LOOP:  cpu time    2.2483: real time    2.2805

 eigenvalue-minimisations  :  5824
 total energy-change (2. order) : 0.6087821E+01  (-0.2353940E+01)
 number of electron      39.0000000 magnetization
 augmentation part        7.6373627 magnetization

 Broyden mixing:
  rms(total) = 0.93969E+00    rms(broyden)= 0.93968E+00
  rms(prec ) = 0.20682E+01
  weight for this iteration     100.00

 eigenvalues of (default mixing * dielectric matrix)
  average eigenvalue GAMMA=   0.8793
  1.0971  0.6616

 Free energy of the ion-electron system (eV)
  ---------------------------------------------------
  alpha Z        PSCENC =       262.57458677
  Ewald energy   TEWEN  =     -3839.04584479
  -Hartree energ DENC   =      -676.17523350
  -exchange      EXHF   =         0.00000000
  -V(xc)+E(xc)   XCENC  =        92.80695283
  PAW double counting   =      4243.65237634    -4173.77781130
  entropy T*S    EENTRO =        -0.00079494
  eigenvalues    EBANDS =       -28.28319699
  atomic energy  EATOM  =      4095.35208632
  Solvation  Ediel_sol  =         0.00000000
  ---------------------------------------------------
  free energy    TOTEN  =       -22.89687926 eV

  energy without entropy =      -22.89608432  energy(sigma->0) =      -22.89648179


--------------------------------------------------------------------------------------------------------




--------------------------------------- Iteration      1(   8)  ---------------------------------------


    POTLOK:  cpu time    0.0451: real time    0.0653
    SETDIJ:  cpu time    0.0975: real time    0.0976
     EDDAV:  cpu time    1.8656: real time    1.8659
       DOS:  cpu time    0.0032: real time    0.0040
    CHARGE:  cpu time    0.2927: real time    0.2929
    MIXING:  cpu time    0.0054: real time    0.0055
    --------------------------------------------
      LOOP:  cpu time    2.3097: real time    2.3365

 eigenvalue-minimisations  :  6016
 total energy-change (2. order) :-0.4778747E-01  (-0.1681585E+01)
 number of electron      39.0000000 magnetization
 augmentation part        8.4024800 magnetization

 Broyden mixing:
  rms(total) = 0.60294E+00    rms(broyden)= 0.60294E+00
  rms(prec ) = 0.20273E+01
  weight for this iteration     100.00

 eigenvalues of (default mixing * dielectric matrix)
  average eigenvalue GAMMA=   1.0797
  2.0363  0.6014  0.6014

 Free energy of the ion-electron system (eV)
  ---------------------------------------------------
  alpha Z        PSCENC =       262.57458677
  Ewald energy   TEWEN  =     -3839.04584479
  -Hartree energ DENC   =      -665.99760364
  -exchange      EXHF   =         0.00000000
  -V(xc)+E(xc)   XCENC  =        92.38972192
  PAW double counting   =      4548.07928944    -4482.84867117
  entropy T*S    EENTRO =        -0.00133331
  eigenvalues    EBANDS =       -33.44689825
  atomic energy  EATOM  =      4095.35208632
  Solvation  Ediel_sol  =         0.00000000
  ---------------------------------------------------
  free energy    TOTEN  =       -22.94466672 eV

  energy without entropy =      -22.94333341  energy(sigma->0) =      -22.94400007


--------------------------------------------------------------------------------------------------------




--------------------------------------- Iteration      1(   9)  ---------------------------------------


    POTLOK:  cpu time    0.0751: real time    0.1189
    SETDIJ:  cpu time    0.0931: real time    0.0934
     EDDAV:  cpu time    1.8898: real time    1.8901
       DOS:  cpu time    0.0031: real time    0.0036
    CHARGE:  cpu time    0.2919: real time    0.2924
    MIXING:  cpu time    0.0039: real time    0.0040
    --------------------------------------------
      LOOP:  cpu time    2.3568: real time    2.3974

 eigenvalue-minimisations  :  6200
 total energy-change (2. order) : 0.5195814E+00  (-0.5067454E+00)
 number of electron      39.0000000 magnetization
 augmentation part        7.8562303 magnetization

 Broyden mixing:
  rms(total) = 0.93790E-01    rms(broyden)= 0.93789E-01
  rms(prec ) = 0.15838E+00
  weight for this iteration     100.00

 eigenvalues of (default mixing * dielectric matrix)
  average eigenvalue GAMMA=   1.0431
  2.2827  0.5968  0.5968  0.6961

 Free energy of the ion-electron system (eV)
  ---------------------------------------------------
  alpha Z        PSCENC =       262.57458677
  Ewald energy   TEWEN  =     -3839.04584479
  -Hartree energ DENC   =      -667.39944800
  -exchange      EXHF   =         0.00000000
  -V(xc)+E(xc)   XCENC  =        92.49997263
  PAW double counting   =      4772.41887528    -4708.69089867
  entropy T*S    EENTRO =        -0.00125719
  eigenvalues    EBANDS =       -30.13315763
  atomic energy  EATOM  =      4095.35208632
  Solvation  Ediel_sol  =         0.00000000
  ---------------------------------------------------
  free energy    TOTEN  =       -22.42508529 eV

  energy without entropy =      -22.42382810  energy(sigma->0) =      -22.42445669


--------------------------------------------------------------------------------------------------------




--------------------------------------- Iteration      1(  10)  ---------------------------------------


    POTLOK:  cpu time    0.0536: real time    0.1197
    SETDIJ:  cpu time    0.0763: real time    0.0764
     EDDAV:  cpu time    1.8190: real time    1.8193
       DOS:  cpu time    0.0032: real time    0.0034
    CHARGE:  cpu time    0.2885: real time    0.2887
    MIXING:  cpu time    0.0068: real time    0.0069
    --------------------------------------------
      LOOP:  cpu time    2.2474: real time    2.3145

 eigenvalue-minimisations  :  5784
 total energy-change (2. order) :-0.7056797E-02  (-0.1439773E-01)
 number of electron      39.0000000 magnetization
 augmentation part        7.8685631 magnetization

 Broyden mixing:
  rms(total) = 0.40361E-01    rms(broyden)= 0.40361E-01
  rms(prec ) = 0.95131E-01
  weight for this iteration     100.00

 eigenvalues of (default mixing * dielectric matrix)
  average eigenvalue GAMMA=   1.0077
  2.0156  0.5925  0.5925  0.9190  0.9190

 Free energy of the ion-electron system (eV)
  ---------------------------------------------------
  alpha Z        PSCENC =       262.57458677
  Ewald energy   TEWEN  =     -3839.04584479
  -Hartree energ DENC   =      -666.38053902
  -exchange      EXHF   =         0.00000000
  -V(xc)+E(xc)   XCENC  =        92.46409446
  PAW double counting   =      4835.74773492    -4772.52882186
  entropy T*S    EENTRO =        -0.00134152
  eigenvalues    EBANDS =       -30.61409735
  atomic energy  EATOM  =      4095.35208632
  Solvation  Ediel_sol  =         0.00000000
  ---------------------------------------------------
  free energy    TOTEN  =       -22.43214208 eV

  energy without entropy =      -22.43080056  energy(sigma->0) =      -22.43147132


--------------------------------------------------------------------------------------------------------




--------------------------------------- Iteration      1(  11)  ---------------------------------------


    POTLOK:  cpu time    0.0412: real time    0.0718
    SETDIJ:  cpu time    0.0962: real time    0.0964
     EDDAV:  cpu time    2.0527: real time    2.0529
       DOS:  cpu time    0.0033: real time    0.0035
    CHARGE:  cpu time    0.2908: real time    0.2910
    MIXING:  cpu time    0.0080: real time    0.0081
    --------------------------------------------
      LOOP:  cpu time    2.4922: real time    2.5238

 eigenvalue-minimisations  :  6864
 total energy-change (2. order) : 0.3130046E-03  (-0.4273064E-02)
 number of electron      39.0000000 magnetization
 augmentation part        7.9075924 magnetization

 Broyden mixing:
  rms(total) = 0.38943E-01    rms(broyden)= 0.38943E-01
  rms(prec ) = 0.10518E+00
  weight for this iteration     100.00

 eigenvalues of (default mixing * dielectric matrix)
  average eigenvalue GAMMA=   1.2899
  2.6255  2.3579  0.5883  0.5883  0.8311  0.7481

 Free energy of the ion-electron system (eV)
  ---------------------------------------------------
  alpha Z        PSCENC =       262.57458677
  Ewald energy   TEWEN  =     -3839.04584479
  -Hartree energ DENC   =      -666.22105094
  -exchange      EXHF   =         0.00000000
  -V(xc)+E(xc)   XCENC  =        92.44916887
  PAW double counting   =      4835.07087148    -4771.83954020
  entropy T*S    EENTRO =        -0.00147452
  eigenvalues    EBANDS =       -30.77063206
  atomic energy  EATOM  =      4095.35208632
  Solvation  Ediel_sol  =         0.00000000
  ---------------------------------------------------
  free energy    TOTEN  =       -22.43182908 eV

  energy without entropy =      -22.43035456  energy(sigma->0) =      -22.43109182


--------------------------------------------------------------------------------------------------------




--------------------------------------- Iteration      1(  12)  ---------------------------------------


    POTLOK:  cpu time    0.0391: real time    0.0598
    SETDIJ:  cpu time    0.0978: real time    0.0980
     EDDAV:  cpu time    1.9660: real time    1.9663
       DOS:  cpu time    0.0033: real time    0.0036
    CHARGE:  cpu time    0.2886: real time    0.2887
    MIXING:  cpu time    0.0076: real time    0.0078
    --------------------------------------------
      LOOP:  cpu time    2.4024: real time    2.4251

 eigenvalue-minimisations  :  6504
 total energy-change (2. order) : 0.1048991E-02  (-0.5778275E-03)
 number of electron      39.0000000 magnetization
 augmentation part        7.8940094 magnetization

 Broyden mixing:
  rms(total) = 0.79465E-02    rms(broyden)= 0.79464E-02
  rms(prec ) = 0.25089E-01
  weight for this iteration     100.00

 eigenvalues of (default mixing * dielectric matrix)
  average eigenvalue GAMMA=   1.2230
  2.6841  2.0154  0.5917  0.5917  0.9770  0.9770  0.7238

 Free energy of the ion-electron system (eV)
  ---------------------------------------------------
  alpha Z        PSCENC =       262.57458677
  Ewald energy   TEWEN  =     -3839.04584479
  -Hartree energ DENC   =      -666.37105765
  -exchange      EXHF   =         0.00000000
  -V(xc)+E(xc)   XCENC  =        92.45073392
  PAW double counting   =      4857.74387171    -4794.44669632
  entropy T*S    EENTRO =        -0.00146151
  eigenvalues    EBANDS =       -30.68699853
  atomic energy  EATOM  =      4095.35208632
  Solvation  Ediel_sol  =         0.00000000
  ---------------------------------------------------
  free energy    TOTEN  =       -22.43078009 eV

  energy without entropy =      -22.42931858  energy(sigma->0) =      -22.43004933


--------------------------------------------------------------------------------------------------------




--------------------------------------- Iteration      1(  13)  ---------------------------------------


    POTLOK:  cpu time    0.0687: real time    0.1030
    SETDIJ:  cpu time    0.0926: real time    0.0928
     EDDAV:  cpu time    2.0858: real time    2.0862
       DOS:  cpu time    0.0033: real time    0.0036
    CHARGE:  cpu time    0.2939: real time    0.2941
    MIXING:  cpu time    0.0048: real time    0.0050
    --------------------------------------------
      LOOP:  cpu time    2.5492: real time    2.5833

 eigenvalue-minimisations  :  6976
 total energy-change (2. order) : 0.1547744E-04  (-0.2480834E-03)
 number of electron      39.0000000 magnetization
 augmentation part        7.8845330 magnetization

 Broyden mixing:
  rms(total) = 0.62913E-02    rms(broyden)= 0.62913E-02
  rms(prec ) = 0.20425E-01
  weight for this iteration     100.00

 eigenvalues of (default mixing * dielectric matrix)
  average eigenvalue GAMMA=   1.2046
  2.6048  1.8615  1.1890  1.1890  0.5922  0.5922  0.8040  0.8040

 Free energy of the ion-electron system (eV)
  ---------------------------------------------------
  alpha Z        PSCENC =       262.57458677
  Ewald energy   TEWEN  =     -3839.04584479
  -Hartree energ DENC   =      -666.38815534
  -exchange      EXHF   =         0.00000000
  -V(xc)+E(xc)   XCENC  =        92.45277718
  PAW double counting   =      4859.31818171    -4796.00614327
  entropy T*S    EENTRO =        -0.00143409
  eigenvalues    EBANDS =       -30.68681909
  atomic energy  EATOM  =      4095.35208632
  Solvation  Ediel_sol  =         0.00000000
  ---------------------------------------------------
  free energy    TOTEN  =       -22.43076461 eV

  energy without entropy =      -22.42933052  energy(sigma->0) =      -22.43004757


--------------------------------------------------------------------------------------------------------




--------------------------------------- Iteration      1(  14)  ---------------------------------------


    POTLOK:  cpu time    0.0666: real time    0.0897
    SETDIJ:  cpu time    0.0969: real time    0.0971
     EDDAV:  cpu time    1.8026: real time    1.8028
       DOS:  cpu time    0.0031: real time    0.0034
    CHARGE:  cpu time    0.2889: real time    0.2893
    MIXING:  cpu time    0.0064: real time    0.0066
    --------------------------------------------
      LOOP:  cpu time    2.2645: real time    2.2896

 eigenvalue-minimisations  :  5768
 total energy-change (2. order) : 0.5424810E-04  (-0.6260324E-04)
 number of electron      39.0000000 magnetization
 augmentation part        7.8894305 magnetization

 Broyden mixing:
  rms(total) = 0.10992E-02    rms(broyden)= 0.10992E-02
  rms(prec ) = 0.26975E-02
  weight for this iteration     100.00

 eigenvalues of (default mixing * dielectric matrix)
  average eigenvalue GAMMA=   1.3007
  2.6644  2.1219  1.5510  1.5510  0.5922  0.5922  0.9416  0.9416  0.7506

 Free energy of the ion-electron system (eV)
  ---------------------------------------------------
  alpha Z        PSCENC =       262.57458677
  Ewald energy   TEWEN  =     -3839.04584479
  -Hartree energ DENC   =      -666.33402793
  -exchange      EXHF   =         0.00000000
  -V(xc)+E(xc)   XCENC  =        92.45052375
  PAW double counting   =      4858.88832169    -4795.57351280
  entropy T*S    EENTRO =        -0.00144948
  eigenvalues    EBANDS =       -30.74139388
  atomic energy  EATOM  =      4095.35208632
  Solvation  Ediel_sol  =         0.00000000
  ---------------------------------------------------
  free energy    TOTEN  =       -22.43071036 eV

  energy without entropy =      -22.42926089  energy(sigma->0) =      -22.42998562


--------------------------------------------------------------------------------------------------------




--------------------------------------- Iteration      1(  15)  ---------------------------------------


    POTLOK:  cpu time    0.0462: real time    0.0736
    SETDIJ:  cpu time    0.0957: real time    0.0967
     EDDAV:  cpu time    2.0771: real time    2.0774
       DOS:  cpu time    0.0032: real time    0.0047
    CHARGE:  cpu time    0.2922: real time    0.2924
    MIXING:  cpu time    0.0050: real time    0.0051
    --------------------------------------------
      LOOP:  cpu time    2.5193: real time    2.5520

 eigenvalue-minimisations  :  6920
 total energy-change (2. order) :-0.1011038E-05  (-0.3544670E-05)
 number of electron      39.0000000 magnetization
 augmentation part        7.8885007 magnetization

 Broyden mixing:
  rms(total) = 0.64430E-03    rms(broyden)= 0.64427E-03
  rms(prec ) = 0.19067E-02
  weight for this iteration     100.00

 eigenvalues of (default mixing * dielectric matrix)
  average eigenvalue GAMMA=   1.3077
  2.6259  2.3688  1.8553  1.3590  0.5922  0.5922  1.0043  1.0043  0.9211  0.7539

 Free energy of the ion-electron system (eV)
  ---------------------------------------------------
  alpha Z        PSCENC =       262.57458677
  Ewald energy   TEWEN  =     -3839.04584479
  -Hartree energ DENC   =      -666.34645484
  -exchange      EXHF   =         0.00000000
  -V(xc)+E(xc)   XCENC  =        92.45106867
  PAW double counting   =      4858.92081312    -4795.60136944
  entropy T*S    EENTRO =        -0.00144674
  eigenvalues    EBANDS =       -30.73415042
  atomic energy  EATOM  =      4095.35208632
  Solvation  Ediel_sol  =         0.00000000
  ---------------------------------------------------
  free energy    TOTEN  =       -22.43071137 eV

  energy without entropy =      -22.42926463  energy(sigma->0) =      -22.42998800


--------------------------------------------------------------------------------------------------------




--------------------------------------- Iteration      1(  16)  ---------------------------------------


    POTLOK:  cpu time    0.0646: real time    0.0968
    SETDIJ:  cpu time    0.0980: real time    0.0981
     EDDAV:  cpu time    1.8712: real time    1.8714
       DOS:  cpu time    0.0033: real time    0.0035
    CHARGE:  cpu time    0.2894: real time    0.2895
    MIXING:  cpu time    0.0069: real time    0.0070
    --------------------------------------------
      LOOP:  cpu time    2.3333: real time    2.3644

 eigenvalue-minimisations  :  5936
 total energy-change (2. order) : 0.5885886E-06  (-0.3159847E-06)
 number of electron      39.0000000 magnetization
 augmentation part        7.8888495 magnetization

 Broyden mixing:
  rms(total) = 0.97584E-04    rms(broyden)= 0.97367E-04
  rms(prec ) = 0.31971E-03
  weight for this iteration     100.00

 eigenvalues of (default mixing * dielectric matrix)
  average eigenvalue GAMMA=   1.3348
  2.6847  2.3945  2.0360  0.5922  0.5922  1.3874  1.3874  0.7515  0.9343  0.9343
  0.9880

 Free energy of the ion-electron system (eV)
  ---------------------------------------------------
  alpha Z        PSCENC =       262.57458677
  Ewald energy   TEWEN  =     -3839.04584479
  -Hartree energ DENC   =      -666.34281533
  -exchange      EXHF   =         0.00000000
  -V(xc)+E(xc)   XCENC  =        92.45099788
  PAW double counting   =      4858.72485210    -4795.40485166
  entropy T*S    EENTRO =        -0.00144768
  eigenvalues    EBANDS =       -30.73827439
  atomic energy  EATOM  =      4095.35208632
  Solvation  Ediel_sol  =         0.00000000
  ---------------------------------------------------
  free energy    TOTEN  =       -22.43071079 eV

  energy without entropy =      -22.42926311  energy(sigma->0) =      -22.42998695


--------------------------------------------------------------------------------------------------------




--------------------------------------- Iteration      1(  17)  ---------------------------------------


    POTLOK:  cpu time    0.0554: real time    0.0791
    SETDIJ:  cpu time    0.0972: real time    0.0974
     EDDAV:  cpu time    1.3220: real time    1.3222
       DOS:  cpu time    0.0032: real time    0.0033
    --------------------------------------------
      LOOP:  cpu time    1.4778: real time    1.4998

 eigenvalue-minimisations  :  3680
 total energy-change (2. order) : 0.2589786E-07  (-0.2316879E-07)
 number of electron      39.0000000 magnetization
 augmentation part        7.8888495 magnetization

 Free energy of the ion-electron system (eV)
  ---------------------------------------------------
  alpha Z        PSCENC =       262.57458677
  Ewald energy   TEWEN  =     -3839.04584479
  -Hartree energ DENC   =      -666.34327481
  -exchange      EXHF   =         0.00000000
  -V(xc)+E(xc)   XCENC  =        92.45102383
  PAW double counting   =      4858.71455682    -4795.39481296
  entropy T*S    EENTRO =        -0.00144766
  eigenvalues    EBANDS =       -30.73758428
  atomic energy  EATOM  =      4095.35208632
  Solvation  Ediel_sol  =         0.00000000
  ---------------------------------------------------
  free energy    TOTEN  =       -22.43071076 eV

  energy without entropy =      -22.42926310  energy(sigma->0) =      -22.42998693


--------------------------------------------------------------------------------------------------------




 average (electrostatic) potential at core
  the test charge radii are     1.2087  1.0856  1.2059
  (the norm of the test charge is              1.0000)
       1 -80.3128       2 -97.9705       3 -62.2297



 E-fermi :  13.0693     XC(G=0): -12.5882     alpha+bet :-19.5652


 k-point     1 :       0.0000    0.0000    0.0000
  band No.  band energies     occupation
      1     -30.8821      2.00000
      2     -10.2663      2.00000
      3     -10.2663      2.00000
      4     -10.2208      2.00000
      5     -10.2208      2.00000
      6     -10.2208      2.00000
      7      -6.4470      2.00000
      8      -6.4470      2.00000
      9      -6.4470      2.00000
     10      -0.7156      2.00000
     11       7.5476      2.00000
     12       7.5476      2.00000
     13       7.5693      2.00000
     14       7.5693      2.00000
     15       7.5693      2.00000
     16      11.5509      2.00000
     17      11.5509      2.00000
     18      11.5509      2.00000
     19      11.9238      2.00000
     20      12.8504      2.00000
     21      12.8504      2.00000
     22      12.8504      2.00000
     23      13.4552      0.00000
     24      13.4552      0.00000

 k-point     2 :       0.0769   -0.0000    0.0000
  band No.  band energies     occupation
      1     -30.8811      2.00000
      2     -10.2710      2.00000
      3     -10.2710      2.00000
      4     -10.2216      2.00000
      5     -10.2202      2.00000
      6     -10.2202      2.00000
      7      -6.4856      2.00000
      8      -6.4361      2.00000
      9      -6.4361      2.00000
     10      -0.5966      2.00000
     11       7.2547      2.00000
     12       7.2547      2.00000
     13       7.4342      2.00000
     14       7.8453      2.00000
     15       7.8453      2.00000
     16      10.9441      2.00000
     17      11.4761      2.00000
     18      11.4761      2.00000
     19      12.1467      2.00000
     20      12.8781      2.00000
     21      12.8781      2.00000
     22      13.0137      2.00000
     23      13.4702      0.00000
     24      13.5278      0.00000

 k-point     3 :       0.1538   -0.0000    0.0000
  band No.  band energies     occupation
      1     -30.8786      2.00000
      2     -10.2837      2.00000
      3     -10.2837      2.00000
      4     -10.2244      2.00000
      5     -10.2189      2.00000
      6     -10.2189      2.00000
      7      -6.5841      2.00000
      8      -6.4059      2.00000
[...]
  212              fftbas_plan_mpi                       0.065231                     12   6
  213                dfftw_execute                         0.027110                   36   7
  214                map_backward                          0.004886                   12   7
  215                  map_gather                            0.000957                  6   8
  216                  m_alltoallv_z                         0.002512                  6   8
  217                  map_scatter                           0.001154                  6   8
  218                map_forward                           0.029921                   12   7
  219                  map_gather                            0.016733                  6   8
  220                  m_alltoallv_z                         0.006682                  6   8
  221                  map_scatter                           0.006208                  6   8
  222            M_sumb_d                              0.007052                        6   5
  223          M_sumb_d                              0.000028                          1   4
  224        setdij_                               1.621734                           20   3
  225          fft3d_mpi                             0.236362                         40   4
  226            fftbas_plan_mpi                       0.217289                       40   5
  227              dfftw_execute                         0.085208                    120   6
  228              map_backward                          0.020565                     40   6
  229                map_gather                            0.002468                   20   7
  230                m_alltoallv_z                         0.013377                   20   7
  231                map_scatter                           0.003782                   20   7
  232              map_forward                           0.101068                     40   6
  233                map_gather                            0.055587                   20   7
  234                m_alltoallv_z                         0.020924                   20   7
  235                map_scatter                           0.023571                   20   7
  236          M_sumb_d                              0.013077                         20   4
  237        set_dd_magatom                        0.000003                            1   3
  238        set_dd_paw                            0.007096                            1   3
  239          set_rsgf_all                          0.000005                          1   4
  240          M_sumb_d                              0.006935                          8   4
  241        strkin                                0.000555                            1   3
  242          M_sumb_d                              0.000041                          1   4
  243        strelo                                0.002768                            1   3
  244          M_sumb_d                              0.000263                          2   4
  245        strenl                                0.955210                            1   3
  246          spher                                 0.668157                         19   4
  247          phase                                 0.010638                        189   4
  248          proj1                                 0.196028                       1134   4
  249            crexp_mul_wave                        0.028430                     3402   5
  250            M_sumb_d                              0.053042                     1134   5
  251          M_sumb_d                              0.059537                          1   4
  252        M_sumb_d                              0.000566                            6   3
  253        fft3d_mpi                             0.018488                           11   3
  254          fftbas_plan_mpi                       0.017493                         11   4
  255            dfftw_execute                         0.004891                       33   5
  256            map_forward                           0.003962                       10   5
  257              map_gather                            0.000594                      5   6
  258              m_alltoallv_z                         0.002493                      5   6
  259              map_scatter                           0.000650                      5   6
  260            map_backward                          0.006194                       12   5
  261              map_gather                            0.000741                      6   6
  262              m_alltoallv_z                         0.004091                      6   6
  263              map_scatter                           0.001082                      6   6
  264        ggaall_grid                           0.001531                            1   3
  265        forhar                                0.006094                            2   3
  266          M_sumb_d                              0.000268                          2   4
  267        strehar                               0.002589                            1   3
  268          M_sumb_d                              0.000193                          1   4
  269        chggra                                0.005883                            1   3
  270          fft3d_mpi                             0.004214                          3   4
  271            fftbas_plan_mpi                       0.003944                        3   5
  272              dfftw_execute                         0.001573                      9   6
  273              map_backward                          0.000600                      2   6
  274                map_gather                            0.000119                    1   7
  275                m_alltoallv_z                         0.000238                    1   7
  276                map_scatter                           0.000189                    1   7
  277              map_forward                           0.001026                      4   6
  278                map_gather                            0.000224                    2   7
  279                m_alltoallv_z                         0.000433                    2   7
  280                map_scatter                           0.000274                    2   7
  281          M_sumb_d                              0.000143                          3   4
  282        brmix                                 0.005081                            1   3
  283          M_sumb_d                              0.000281                          6   4
  284          brpre                                 0.000051                          1   4
  285          setg0                                 0.001101                          1   4
  286          broyd                                 0.002564                          1   4
  287            M_sumb_d                              0.000783                       19   5
  288            brget                                 0.000328                       69   5
  289            brsav                                 0.000122                       17   5
  290          M_bcast_z                             0.000140                          1   4
  291          M_bcast_d                             0.000054                          1   4
  292        M_bcast_d                             0.000365                            2   3
  293      potlok                                0.026168                              1   2
  294        fft3d_mpi                             0.017941                           13   3
  295          fftbas_plan_mpi                       0.016697                         13   4
  296            dfftw_execute                         0.005604                       39   5
  297            map_forward                           0.004215                       14   5
  298              map_gather                            0.000855                      8   6
  299              m_alltoallv_z                         0.002014                      8   6
  300              map_scatter                           0.001002                      8   6
  301            map_backward                          0.003762                       12   5
  302              map_gather                            0.000780                      6   6
  303              m_alltoallv_z                         0.001580                      6   6
  304              map_scatter                           0.001116                      6   6
  305        ggaall_grid                           0.001526                            1   3
  306        M_sumb_d                              0.000378                            6   3
  307        M_bcast_d                             0.000109                            1   3
  308      potlok_metagga                        0.000003                              1   2
  309      set_dd_magatom                        0.000003                              1   2
  310      set_dd_paw                            0.000462                              1   2
  311        set_rsgf_all                          0.000005                            1   3
  312        M_sumb_d                              0.000261                            8   3
  313      densta                                0.002634                              1   2
  314        M_sumb_d                              0.001036                           43   3
  315      lprj_proall                           0.000008                              1   2

 Flat profile
 ============

             routine name                   CPU           calls
 ---------------------------------------------------------------
 total_time                             19.770385           1
 eddav                                   5.550471          17
 dfftw_execute                           5.273281       55023
 fftbas_plan_mpi                         3.700148       18343
 setdij_                                 2.954942          41
 M_sumb_d                                2.948536       50653
 set_charge                              2.422302          13
 m_alltoallv_z                           2.056434       18368
 elmin                                   1.925386           1
 pdssyex_zheevx                          1.593357         357
 M_alltoall_d                            1.400499       60858
 orth1                                   0.934124       12468
 proj1                                   0.886628        7416
 vhamil                                  0.836214        8298
 gemm                                    0.795127       24894
 spher                                   0.771630          20
 fftwav_mpi                              0.699402        9738
 map_forward                             0.694947       19770
 map_gather                              0.656349       18368
 map_scatter                             0.587744       18368
 vnlac0                                  0.543213        8298
 redis_pw                                0.499873       23508
 M_bcast_z                               0.487985        6702
 redis_proj                              0.453511       29685
 hamiltmu                                0.445171        4149
 w1_copy                                 0.324467       24894
 crpa_reader                             0.318773           1
 map_backward                            0.293889       16912
 fft3d_mpi                               0.291022       18341
 work_mul_crexp                          0.258494       24894
 fftext_mpi                              0.256795        8298
 crexp_mul_wave                          0.200991       22248
 eccp                                    0.189011        2142
 overl                                   0.162375       14475
 kinhamil                                0.161863        8298
 M_bcast_d                               0.135194        4183
 overl1                                  0.104362        8298
 potlok                                  0.088449          14
 pw_charge                               0.087315        1440
 apply_precond                           0.079903        6156
 setup_precond                           0.068389        2142
 w1_projall                              0.066675        3078
 force_and_stress                        0.059048           1
 lincom                                  0.058643         378
 fornl                                   0.039855           1
 soft_charge                             0.035712          13
 truncate_high_frequency_w1              0.035246       10440
 phase                                   0.033190         589
 densta                                  0.028558          18
 brmix                                   0.027283          13
 ggaall_grid                             0.023342          15
 strenl                                  0.020850           1
 setg0                                   0.015775          14
 broyd                                   0.010078          13
 forhar                                  0.005826           2
 depsum                                  0.005649          13
 forloc                                  0.003363           1
 set_dd_paw                              0.003079          15
 brgrid                                  0.002574           1
 strelo                                  0.002505           1
 strehar                                 0.002396           1
 brget                                   0.002282         501
 orthch                                  0.002061           1
 choleski                                0.001711          21
 chggra                                  0.001526           1
 proj                                    0.001463          21
 brsav                                   0.001312         145
 brpre                                   0.000874          13
 strkin                                  0.000514           1
 fordep                                  0.000137           1
 vectorpot                               0.000079          14
 set_rsgf_all                            0.000075          15
 potlok_metagga                          0.000054          14
 set_dd_magatom                          0.000051          15
 set_kineden                             0.000043          12
 rotate_active_occupied_orbital          0.000015           1
 lprj_proall                             0.000008           1
 redis_pw_over_bands                     0.000003           1
 ---------------------------------------------------------------
  summed up times    62.4008059501648

 Accumulative profile
 ====================

             routine name                   CPU           calls
 ---------------------------------------------------------------
 total_time                             62.400806           1
 elmin                                  37.982781           1
 eddav                                  30.797946          17
 fft3d_mpi                              13.505778       18341
 fftbas_plan_mpi                        13.262793       18343
 hamiltmu                                9.507414        4149
 fftwav_mpi                              7.641074        9738
 kinhamil                                6.004668        8298
 fftext_mpi                              5.842806        8298
 dfftw_execute                           5.273281       55023
 set_charge                              3.848602          13
 force_and_stress                        3.538661           1
 setdij_                                 3.503175          41
 M_sumb_d                                2.948536       50653
 map_forward                             2.502223       19770
 vnlac0                                  2.116998        8298
 m_alltoallv_z                           2.056434       18368
 map_backward                            1.787141       16912
 pdssyex_zheevx                          1.593357         357
 proj1                                   1.537513        7416
 M_alltoall_d                            1.400499       60858
 w1_projall                              1.386063        3078
 redis_pw                                1.245213       23508
 soft_charge                             1.219694          13
 redis_proj                              1.108670       29685
 strenl                                  0.955210           1
 orth1                                   0.934124       12468
 vhamil                                  0.836214        8298
 gemm                                    0.795127       24894
 spher                                   0.771630          20
 map_gather                              0.656349       18368
 map_scatter                             0.587744       18368
 fordep                                  0.504646           1
 M_bcast_z                               0.487985        6702
 potlok                                  0.368427          14
 w1_copy                                 0.324467       24894
 crpa_reader                             0.318773           1
 eccp                                    0.314181        2142
 work_mul_crexp                          0.258494       24894
 crexp_mul_wave                          0.200991       22248
 overl                                   0.162375       14475
 M_bcast_d                               0.135194        4183
 set_dd_paw                              0.134567          15
 setup_precond                           0.118756        2142
 overl1                                  0.104362        8298
 pw_charge                               0.087315        1440
 apply_precond                           0.079903        6156
 brmix                                   0.075130          13
 lincom                                  0.058643         378
 fornl                                   0.053751           1
 densta                                  0.043515          18
 truncate_high_frequency_w1              0.035246       10440
 orthch                                  0.033665           1
 phase                                   0.033190         589
 proj                                    0.023560          21
 ggaall_grid                             0.023342          15
 broyd                                   0.019423          13
 setg0                                   0.015775          14
 depsum                                  0.009068          13
 forhar                                  0.006094           2
 chggra                                  0.005883           1
 forloc                                  0.005846           1
 strelo                                  0.002768           1
 strehar                                 0.002589           1
 brgrid                                  0.002574           1
 brget                                   0.002282         501
 choleski                                0.001711          21
 brsav                                   0.001312         145
 brpre                                   0.000874          13
 strkin                                  0.000555           1
 vectorpot                               0.000079          14
 set_rsgf_all                            0.000075          15
 potlok_metagga                          0.000054          14
 set_dd_magatom                          0.000051          15
 set_kineden                             0.000043          12
 rotate_active_occupied_orbital          0.000015           1
 lprj_proall                             0.000008           1
 redis_pw_over_bands                     0.000003           1
 ---------------------------------------------------------------

Profiling took   1.431956  1.742282  0.006731  0.005346 seconds
Profiling took   1.383995 seconds
