 ----------------------------------------------------
    OOO  PPPP  EEEEE N   N M   M PPPP
   O   O P   P E     NN  N MM MM P   P
   O   O PPPP  EEEEE N N N M M M PPPP   -- VERSION
   O   O P     E     N  NN M   M P
    OOO  P     EEEEE N   N M   M P
 ----------------------------------------------------
 running   64 mpi-ranks, with    1 threads/rank
 distrk:  each k-point on   16 cores,    4 groups
 distr:  one band on    4 cores,    4 groups
 using from now: INCAR
 vasp.6.0.8 29Jun18 (build Jun 13 2019 12:54:44) complex

 POSCAR found type information on POSCAR  U  Bi Pt
 POSCAR found :  3 types and       3 ions
 scaLAPACK will be used
 WARNING: PSMAXN for non-local potential too small

 -----------------------------------------------------------------------------
|                                                                             |
|  ADVICE TO THIS USER RUNNING 'VASP/VAMP'   (HEAR YOUR MASTER'S VOICE ...):  |
|                                                                             |
|      You enforced a specific xc-type in the INCAR file,                     |
|      a different type was found on the POTCAR file                          |
|          I HOPE YOU KNOW, WHAT YOU ARE  DOING                               |
|                                                                             |
 -----------------------------------------------------------------------------

 LDA part: xc-table for Pade appr. of Perdew
 POSCAR, INCAR and KPOINTS ok, starting setup
 FFT: planning ...
 WAVECAR not read
 entering main loop
       N       E                     dE             d eps       ncg     rms          rms(c)
 ELPA: falling back to scaLAPACK
 ELPA: falling back to scaLAPACK
 ELPA: falling back to scaLAPACK
 ELPA: falling back to scaLAPACK
DAV:   1     0.438928534300E+03    0.43893E+03   -0.22684E+04  4032   0.245E+03
DAV:   2     0.339736882202E+02   -0.40495E+03   -0.39610E+03  4152   0.517E+02
DAV:   3    -0.192967539231E+02   -0.53270E+02   -0.52216E+02  4928   0.188E+02
DAV:   4    -0.248976298294E+02   -0.56009E+01   -0.55753E+01  7280   0.487E+01
DAV:   5    -0.250657461900E+02   -0.16812E+00   -0.16803E+00  5440   0.726E+00    0.186E+01
DAV:   6    -0.289846998503E+02   -0.39190E+01   -0.14647E+02  6184   0.890E+01    0.237E+01
DAV:   7    -0.228968792556E+02    0.60878E+01   -0.23539E+01  5824   0.295E+01    0.940E+00
DAV:   8    -0.229446667212E+02   -0.47787E-01   -0.16816E+01  6016   0.213E+01    0.603E+00
DAV:   9    -0.224250852879E+02    0.51958E+00   -0.50675E+00  6200   0.146E+01    0.938E-01
DAV:  10    -0.224321420846E+02   -0.70568E-02   -0.14398E-01  5784   0.227E+00    0.404E-01
DAV:  11    -0.224318290799E+02    0.31300E-03   -0.42731E-02  6864   0.136E+00    0.389E-01
DAV:  12    -0.224307800885E+02    0.10490E-02   -0.57783E-03  6504   0.529E-01    0.795E-02
DAV:  13    -0.224307646111E+02    0.15477E-04   -0.24808E-03  6976   0.295E-01    0.629E-02
DAV:  14    -0.224307103630E+02    0.54248E-04   -0.62603E-04  5768   0.151E-01    0.110E-02
DAV:  15    -0.224307113740E+02   -0.10110E-05   -0.35447E-05  6920   0.398E-02    0.644E-03
DAV:  16    -0.224307107854E+02    0.58859E-06   -0.31598E-06  5936   0.118E-02    0.976E-04
DAV:  17    -0.224307107595E+02    0.25898E-07   -0.23169E-07  3680   0.270E-03
   1 F= -.22430711E+02 E0= -.22429987E+02  d E =-.144766E-02
