<?xml version="1.0" encoding="ISO-8859-1"?>
<modeling>
 <generator>
  <i name="program" type="string">vasp </i>
  <i name="version" type="string">6.0.8  </i>
  <i name="subversion" type="string">29Jun18 (build Jun 13 2019 12:54:44) complex                          parallel </i>
  <i name="platform" type="string">IFC18_CrayMPICH </i>
  <i name="date" type="string">2021 12 05 </i>
  <i name="time" type="string">14:21:49 </i>
 </generator>
 <incar>
  <i type="int" name="KPAR">     4</i>
  <i type="int" name="NPAR">     4</i>
  <i type="int" name="ISTART">     0</i>
  <i type="string" name="PREC"> ACC</i>
  <i type="string" name="ALGO"> Normal</i>
  <i type="logical" name="ADDGRID"> T  </i>
  <i type="int" name="ISPIN">     1</i>
  <i type="int" name="NELMIN">     5</i>
  <i type="int" name="IBRION">    -1</i>
  <i name="EDIFF">      0.00000010</i>
  <i type="int" name="NSW">     0</i>
  <i type="int" name="ISIF">     3</i>
  <i name="ENCUT">    700.00000000</i>
  <i type="logical" name="LREAL"> F  </i>
  <i type="int" name="ISMEAR">     0</i>
  <i name="SIGMA">      0.01000000</i>
  <i type="logical" name="LWAVE"> F  </i>
  <i type="logical" name="LCHARG"> F  </i>
  <i type="logical" name="LVTOT"> F  </i>
  <i type="string" name="ALGO"> Normal</i>
  <i type="string" name="GGA"> PS</i>
  <i name="EDIFF">      0.00000010</i>
  <i type="int" name="ISPIN">     1</i>
 </incar>
 <structure name="primitive_cell" >
  <crystal>
   <varray name="basis" >
    <v>       0.00000000       3.10527934       3.10527934 </v>
    <v>       3.10527934       0.00000000       3.10527934 </v>
    <v>       3.10527934       3.10527934       0.00000000 </v>
   </varray>
   <i name="volume">     59.88692534 </i>
   <varray name="rec_basis" >
    <v>      -0.16101611       0.16101611       0.16101611 </v>
    <v>       0.16101611      -0.16101611       0.16101611 </v>
    <v>       0.16101611       0.16101611      -0.16101611 </v>
   </varray>
  </crystal>
  <varray name="positions" >
   <v>       0.25000000       0.25000000       0.25000000 </v>
   <v>       0.75000000       0.75000000       0.75000000 </v>
   <v>       0.00000000       0.00000000       0.00000000 </v>
  </varray>
 </structure>
 <varray name="primitive_index" >
  <v type="int" >        1 </v>
  <v type="int" >        2 </v>
  <v type="int" >        3 </v>
 </varray>
 <kpoints>
  <generation param="Gamma">
   <v type="int" name="divisions">      13       13       13 </v>
   <v name="usershift">      0.00000000       0.00000000       0.00000000 </v>
   <v name="genvec1">      0.07692308      -0.00000000       0.00000000 </v>
   <v name="genvec2">     -0.00000000       0.07692308      -0.00000000 </v>
   <v name="genvec3">      0.00000000       0.00000000       0.07692308 </v>
   <v name="shift">      0.00000000       0.00000000       0.00000000 </v>
  </generation>
  <varray name="kpointlist" >
   <v>       0.00000000       0.00000000       0.00000000 </v>
   <v>       0.07692308      -0.00000000       0.00000000 </v>
   <v>       0.15384615      -0.00000000       0.00000000 </v>
   <v>       0.23076923      -0.00000000       0.00000000 </v>
   <v>       0.30769231      -0.00000000       0.00000000 </v>
   <v>       0.38461538      -0.00000000       0.00000000 </v>
   <v>       0.46153846       0.00000000       0.00000000 </v>
   <v>       0.07692308       0.07692308       0.00000000 </v>
   <v>       0.15384615       0.07692308       0.00000000 </v>
   <v>       0.23076923       0.07692308       0.00000000 </v>
   <v>       0.30769231       0.07692308       0.00000000 </v>
   <v>       0.38461538       0.07692308       0.00000000 </v>
   <v>       0.46153846       0.07692308       0.00000000 </v>
   <v>      -0.46153846       0.07692308       0.00000000 </v>
   <v>      -0.38461538       0.07692308       0.00000000 </v>
   <v>      -0.30769231       0.07692308      -0.00000000 </v>
   <v>      -0.23076923       0.07692308      -0.00000000 </v>
   <v>      -0.15384615       0.07692308       0.00000000 </v>
   <v>      -0.07692308       0.07692308      -0.00000000 </v>
   <v>       0.15384615       0.15384615       0.00000000 </v>
   <v>       0.23076923       0.15384615       0.00000000 </v>
   <v>       0.30769231       0.15384615       0.00000000 </v>
   <v>       0.38461538       0.15384615       0.00000000 </v>
   <v>       0.46153846       0.15384615       0.00000000 </v>
   <v>      -0.46153846       0.15384615      -0.00000000 </v>
   <v>      -0.38461538       0.15384615      -0.00000000 </v>
   <v>      -0.30769231       0.15384615      -0.00000000 </v>
   <v>      -0.23076923       0.15384615      -0.00000000 </v>
   <v>      -0.15384615       0.15384615      -0.00000000 </v>
   <v>       0.23076923       0.23076923       0.00000000 </v>
   <v>       0.30769231       0.23076923       0.00000000 </v>
   <v>       0.38461538       0.23076923       0.00000000 </v>
   <v>       0.46153846       0.23076923       0.00000000 </v>
   <v>      -0.46153846       0.23076923      -0.00000000 </v>
   <v>      -0.38461538       0.23076923       0.00000000 </v>
   <v>      -0.30769231       0.23076923       0.00000000 </v>
   <v>      -0.23076923       0.23076923      -0.00000000 </v>
   <v>       0.30769231       0.30769231       0.00000000 </v>
   <v>       0.38461538       0.30769231      -0.00000000 </v>
   <v>       0.46153846       0.30769231       0.00000000 </v>
   <v>      -0.46153846       0.30769231       0.00000000 </v>
   <v>      -0.38461538       0.30769231      -0.00000000 </v>
   <v>      -0.30769231       0.30769231      -0.00000000 </v>
   <v>       0.38461538       0.38461538       0.00000000 </v>
   <v>       0.46153846       0.38461538       0.00000000 </v>
   <v>      -0.46153846       0.38461538      -0.00000000 </v>
   <v>      -0.38461538       0.38461538      -0.00000000 </v>
   <v>       0.46153846       0.46153846       0.00000000 </v>
   <v>      -0.46153846       0.46153846       0.00000000 </v>
   <v>       0.23076923       0.15384615       0.07692308 </v>
   <v>       0.30769231       0.15384615       0.07692308 </v>
   <v>       0.38461538       0.15384615       0.07692308 </v>
   <v>       0.46153846       0.15384615       0.07692308 </v>
   <v>      -0.46153846       0.15384615       0.07692308 </v>
   <v>       0.30769231       0.23076923       0.07692308 </v>
   <v>       0.38461538       0.23076923       0.07692308 </v>
   <v>       0.46153846       0.23076923       0.07692308 </v>
   <v>      -0.46153846       0.23076923       0.07692308 </v>
   <v>      -0.38461538       0.23076923       0.07692308 </v>
   <v>      -0.30769231       0.23076923       0.07692308 </v>
   <v>      -0.23076923       0.23076923       0.07692308 </v>
   <v>      -0.15384615       0.23076923       0.07692308 </v>
   <v>       0.38461538       0.30769231       0.07692308 </v>
   <v>       0.46153846       0.30769231       0.07692308 </v>
   <v>      -0.46153846       0.30769231       0.07692308 </v>
   <v>      -0.38461538       0.30769231       0.07692308 </v>
   <v>      -0.30769231       0.30769231       0.07692308 </v>
   <v>      -0.23076923       0.30769231       0.07692308 </v>
   <v>       0.46153846       0.38461538       0.07692308 </v>
   <v>      -0.46153846       0.38461538       0.07692308 </v>
   <v>      -0.38461538       0.38461538       0.07692308 </v>
   <v>      -0.30769231       0.38461538       0.07692308 </v>
   <v>      -0.46153846       0.46153846       0.07692308 </v>
   <v>      -0.38461538       0.46153846       0.07692308 </v>
   <v>       0.46153846       0.30769231       0.15384615 </v>
   <v>      -0.46153846       0.30769231       0.15384615 </v>
   <v>      -0.38461538       0.30769231       0.15384615 </v>
   <v>      -0.46153846       0.38461538       0.15384615 </v>
   <v>      -0.38461538       0.38461538       0.15384615 </v>
   <v>      -0.30769231       0.38461538       0.15384615 </v>
   <v>      -0.23076923       0.38461538       0.15384615 </v>
   <v>      -0.38461538       0.46153846       0.15384615 </v>
   <v>      -0.30769231       0.46153846       0.15384615 </v>
   <v>      -0.30769231       0.46153846       0.23076923 </v>
  </varray>
  <varray name="weights" >
   <v>       0.00045517 </v>
   <v>       0.00364133 </v>
   <v>       0.00364133 </v>
   <v>       0.00364133 </v>
   <v>       0.00364133 </v>
   <v>       0.00364133 </v>
   <v>       0.00364133 </v>
   <v>       0.00273100 </v>
   <v>       0.01092399 </v>
   <v>       0.01092399 </v>
   <v>       0.01092399 </v>
   <v>       0.01092399 </v>
   <v>       0.01092399 </v>
   <v>       0.01092399 </v>
   <v>       0.01092399 </v>
   <v>       0.01092399 </v>
   <v>       0.01092399 </v>
   <v>       0.01092399 </v>
   <v>       0.00546199 </v>
   <v>       0.00273100 </v>
   <v>       0.01092399 </v>
   <v>       0.01092399 </v>
   <v>       0.01092399 </v>
   <v>       0.01092399 </v>
   <v>       0.01092399 </v>
   <v>       0.01092399 </v>
   <v>       0.01092399 </v>
   <v>       0.01092399 </v>
   <v>       0.00546199 </v>
   <v>       0.00273100 </v>
   <v>       0.01092399 </v>
   <v>       0.01092399 </v>
   <v>       0.01092399 </v>
   <v>       0.01092399 </v>
   <v>       0.01092399 </v>
   <v>       0.01092399 </v>
   <v>       0.00546199 </v>
   <v>       0.00273100 </v>
   <v>       0.01092399 </v>
   <v>       0.01092399 </v>
   <v>       0.01092399 </v>
   <v>       0.01092399 </v>
   <v>       0.00546199 </v>
   <v>       0.00273100 </v>
   <v>       0.01092399 </v>
   <v>       0.01092399 </v>
   <v>       0.00546199 </v>
   <v>       0.00273100 </v>
   <v>       0.00546199 </v>
   <v>       0.01092399 </v>
   <v>       0.02184797 </v>
   <v>       0.02184797 </v>
   <v>       0.02184797 </v>
   <v>       0.02184797 </v>
   <v>       0.01092399 </v>
   <v>       0.02184797 </v>
   <v>       0.02184797 </v>
   <v>       0.02184797 </v>
   <v>       0.02184797 </v>
   <v>       0.02184797 </v>
   <v>       0.02184797 </v>
   <v>       0.01092399 </v>
   <v>       0.01092399 </v>
   <v>       0.02184797 </v>
   <v>       0.02184797 </v>
   <v>       0.02184797 </v>
   <v>       0.02184797 </v>
   <v>       0.01092399 </v>
   <v>       0.01092399 </v>
   <v>       0.02184797 </v>
   <v>       0.02184797 </v>
   <v>       0.01092399 </v>
   <v>       0.01092399 </v>
   <v>       0.01092399 </v>
   <v>       0.01092399 </v>
   <v>       0.02184797 </v>
   <v>       0.02184797 </v>
   <v>       0.01092399 </v>
   <v>       0.02184797 </v>
   <v>       0.02184797 </v>
   <v>       0.01092399 </v>
   <v>       0.01092399 </v>
   <v>       0.01092399 </v>
   <v>       0.01092399 </v>
  </varray>
 </kpoints>
 <parameters>
  <separator name="general" >
   <i type="string" name="SYSTEM">unknown system</i>
   <i type="logical" name="LCOMPAT"> F  </i>
  </separator>
  <separator name="electronic" >
   <i type="string" name="PREC">acc</i>
   <i name="ENMAX">    700.00000000</i>
   <i name="ENAUG">    526.41000000</i>
   <i name="EDIFF">      0.00000010</i>
   <i type="int" name="IALGO">    38</i>
   <i type="int" name="IWAVPR">    10</i>
   <i type="int" name="NBANDS">    24</i>
   <i type="int" name="NBANDSLOW">    -1</i>
   <i type="int" name="NBANDSHIGH">    -1</i>
   <i name="NELECT">     39.00000000</i>
   <i type="int" name="TURBO">     0</i>
   <i type="int" name="IRESTART">     0</i>
   <i type="int" name="NREBOOT">     0</i>
   <i type="int" name="NMIN">     0</i>
   <i name="EREF">      0.00000000</i>
   <separator name="electronic smearing" >
    <i type="int" name="ISMEAR">     0</i>
    <i name="SIGMA">      0.01000000</i>
    <i name="KSPACING">      0.50000000</i>
    <i type="logical" name="KGAMMA"> T  </i>
    <i type="logical" name="KBLOWUP"> T  </i>
   </separator>
   <separator name="electronic projectors" >
    <i type="logical" name="LREAL"> F  </i>
    <v name="ROPT">      0.00000000      0.00000000      0.00000000</v>
    <i type="int" name="LMAXPAW">  -100</i>
    <i type="int" name="LMAXMIX">     2</i>
    <i type="logical" name="NLSPLINE"> F  </i>
   </separator>
   <separator name="electronic startup" >
    <i type="int" name="ISTART">     0</i>
    <i type="int" name="ICHARG">     2</i>
    <i type="int" name="INIWAV">     1</i>
   </separator>
   <separator name="electronic spin" >
    <i type="int" name="ISPIN">     1</i>
    <i type="logical" name="LNONCOLLINEAR"> F  </i>
    <v name="MAGMOM">      1.00000000      1.00000000      1.00000000</v>
    <i name="NUPDOWN">     -1.00000000</i>
    <i type="logical" name="LSORBIT"> F  </i>
    <v name="SAXIS">      0.00000000      0.00000000      1.00000000</v>
    <i type="logical" name="LSPIRAL"> F  </i>
    <v name="QSPIRAL">      0.00000000      0.00000000      0.00000000</v>
    <i type="logical" name="LZEROZ"> F  </i>
   </separator>
   <separator name="electronic exchange-correlation" >
    <i type="logical" name="LASPH"> F  </i>
    <i type="logical" name="LMETAGGA"> F  </i>
   </separator>
   <separator name="electronic convergence" >
    <i type="int" name="NELM">    60</i>
    <i type="int" name="NELMDL">    -5</i>
    <i type="int" name="NELMIN">     5</i>
    <i name="ENINI">    700.00000000</i>
    <separator name="electronic convergence detail" >
     <i type="logical" name="LDIAG"> T  </i>
     <i type="logical" name="LSUBROT"> F  </i>
     <i name="WEIMIN">      0.00000000</i>
     <i name="EBREAK">      0.00000000</i>
     <i name="DEPER">      0.30000000</i>
     <i type="int" name="NRMM">     4</i>
     <i name="TIME">      0.40000000</i>
    </separator>
   </separator>
   <separator name="electronic mixer" >
    <i name="AMIX">      0.40000000</i>
    <i name="BMIX">      1.00000000</i>
    <i name="AMIN">      0.10000000</i>
    <i name="AMIX_MAG">      1.60000000</i>
    <i name="BMIX_MAG">      1.00000000</i>
    <separator name="electronic mixer details" >
     <i type="int" name="IMIX">     4</i>
     <i type="logical" name="MIXFIRST"> F  </i>
     <i type="int" name="MAXMIX">   -45</i>
     <i name="WC">    100.00000000</i>
     <i type="int" name="INIMIX">     1</i>
     <i type="int" name="MIXPRE">     1</i>
     <i type="int" name="MREMOVE">     5</i>
    </separator>
   </separator>
   <separator name="electronic dipolcorrection" >
    <i type="logical" name="LDIPOL"> F  </i>
    <i type="logical" name="LMONO"> F  </i>
    <i type="int" name="IDIPOL">     0</i>
    <i name="EPSILON">      1.00000000</i>
    <v name="DIPOL">   -100.00000000   -100.00000000   -100.00000000</v>
    <i name="EFIELD">      0.00000000</i>
   </separator>
  </separator>
  <separator name="grids" >
   <i type="int" name="NGX">    40</i>
   <i type="int" name="NGY">    40</i>
   <i type="int" name="NGZ">    40</i>
   <i type="int" name="NGXF">    80</i>
   <i type="int" name="NGYF">    80</i>
   <i type="int" name="NGZF">    80</i>
   <i type="logical" name="ADDGRID"> T  </i>
  </separator>
  <separator name="ionic" >
   <i type="int" name="NSW">     0</i>
   <i type="int" name="IBRION">    -1</i>
   <i type="int" name="MDALGO">     0</i>
   <i type="int" name="ISIF">     3</i>
   <i name="PSTRESS">      0.00000000</i>
   <i name="EDIFFG">      0.00000100</i>
   <i type="int" name="NFREE">     0</i>
   <i name="POTIM">      0.50000000</i>
   <i name="SMASS">     -3.00000000</i>
   <i name="SCALEE">      1.00000000</i>
  </separator>
  <separator name="ionic md" >
   <i name="TEBEG">      0.00010000</i>
   <i name="TEEND">      0.00010000</i>
   <i type="int" name="NBLOCK">     1</i>
   <i type="int" name="KBLOCK">     1</i>
   <i type="int" name="NPACO">   256</i>
   <i name="APACO">     16.00000000</i>
  </separator>
  <separator name="symmetry" >
   <i type="int" name="ISYM">     2</i>
   <i name="SYMPREC">      0.00001000</i>
  </separator>
  <separator name="dos" >
   <i type="int" name="LORBIT">     0</i>
   <v name="RWIGS">     -1.00000000     -1.00000000     -1.00000000</v>
   <i type="int" name="NEDOS">   301</i>
   <i name="EMIN">     10.00000000</i>
   <i name="EMAX">    -10.00000000</i>
   <i name="EFERMI">      0.00000000</i>
  </separator>
  <separator name="writing" >
   <i type="int" name="NWRITE">     2</i>
   <i type="logical" name="LWAVE"> F  </i>
   <i type="logical" name="LDOWNSAMPLE"> F  </i>
   <i type="logical" name="LCHARG"> F  </i>
   <i type="logical" name="LPARD"> F  </i>
   <i type="logical" name="LVTOT"> F  </i>
   <i type="logical" name="LVHAR"> F  </i>
   <i type="logical" name="LELF"> F  </i>
   <i type="logical" name="LOPTICS"> F  </i>
   <v name="STM">      0.00000000      0.00000000      0.00000000      0.00000000      0.00000000      0.00000000      0.00000000</v>
  </separator>
  <separator name="performance" >
   <i type="int" name="NPAR">     4</i>
   <i type="int" name="NSIM">     4</i>
   <i type="int" name="NBLK">    -1</i>
   <i type="logical" name="LPLANE"> T  </i>
   <i type="logical" name="LSCALAPACK"> T  </i>
   <i type="logical" name="LSCAAWARE"> F  </i>
   <i type="logical" name="LSCALU"> F  </i>
   <i type="logical" name="LASYNC"> F  </i>
   <i type="logical" name="LORBITALREAL"> F  </i>
  </separator>
  <separator name="miscellaneous" >
   <i type="int" name="IDIOT">     3</i>
   <i type="int" name="PHON_NSTRUCT">    -1</i>
   <i type="logical" name="LMUSIC"> F  </i>
   <v name="POMASS">    238.02900000    208.98000000    195.08000000</v>
   <v name="DARWINR">      0.00000000      0.00000000      0.00000000</v>
   <v name="DARWINV">      1.00000000      1.00000000      1.00000000</v>
   <i type="logical" name="LCORR"> T  </i>
  </separator>
  <i type="logical" name="GGA_COMPAT"> T  </i>
  <i type="logical" name="LBERRY"> F  </i>
  <i type="int" name="ICORELEVEL">     0</i>
  <i type="logical" name="LDAU"> F  </i>
  <i type="int" name="I_CONSTRAINED_M">     0</i>
  <separator name="electronic exchange-correlation" >
   <i type="string" name="GGA">PS</i>
   <i type="int" name="VOSKOWN">     0</i>
   <i type="logical" name="LHFCALC"> F  </i>
   <i type="string" name="PRECFOCK"></i>
   <i type="logical" name="LSYMGRAD"> F  </i>
   <i type="logical" name="LHFONE"> F  </i>
   <i type="logical" name="LRHFCALC"> F  </i>
   <i type="logical" name="LTHOMAS"> F  </i>
   <i type="logical" name="LMODELHF"> F  </i>
   <i type="logical" name="LFOCKACE"> F  </i>
   <i name="ENCUT4O">     -1.00000000</i>
   <i type="int" name="EXXOEP">     0</i>
   <i type="int" name="FOURORBIT">     0</i>
   <i name="AEXX">      0.00000000</i>
   <i name="HFALPHA">      0.00000000</i>
   <i name="MCALPHA">      0.00000000</i>
   <i name="ALDAX">      1.00000000</i>
   <i name="AGGAX">      1.00000000</i>
   <i name="ALDAC">      1.00000000</i>
   <i name="AGGAC">      1.00000000</i>
   <i type="int" name="NKREDX">     1</i>
   <i type="int" name="NKREDY">     1</i>
   <i type="int" name="NKREDZ">     1</i>
   <i type="logical" name="SHIFTRED"> F  </i>
   <i type="logical" name="ODDONLY"> F  </i>
   <i type="logical" name="EVENONLY"> F  </i>
   <i type="int" name="LMAXFOCK">     0</i>
   <i type="int" name="NMAXFOCKAE">     0</i>
   <i type="logical" name="LFOCKAEDFT"> F  </i>
   <i name="HFSCREEN">      0.00000000</i>
   <i name="HFSCREENC">      0.00000000</i>
   <i type="int" name="NBANDSGWLOW">     0</i>
  </separator>
  <separator name="vdW DFT" >
   <i type="logical" name="LUSE_VDW"> F  </i>
   <i name="Zab_VDW">     -0.84910000</i>
   <i name="PARAM1">      0.12340000</i>
   <i name="PARAM2">      1.00000000</i>
   <i name="PARAM3">      0.00000000</i>
  </separator>
  <separator name="model GW" >
   <i type="int" name="MODEL_GW">     0</i>
   <i name="MODEL_EPS0">     11.97738507</i>
   <i name="MODEL_ALPHA">      1.00000000</i>
  </separator>
  <separator name="linear response parameters" >
   <i type="logical" name="LEPSILON"> F  </i>
   <i type="logical" name="LRPA"> F  </i>
   <i type="logical" name="LNABLA"> F  </i>
   <i type="logical" name="LVEL"> F  </i>
   <i type="int" name="KINTER">     0</i>
   <i name="CSHIFT">      0.10000000</i>
   <i name="OMEGAMAX">     -1.00000000</i>
   <i name="DEG_THRESHOLD">      0.00200000</i>
   <i name="RTIME">     -0.10000000</i>
   <i name="WPLASMAI">      0.00000000</i>
   <v name="DFIELD">      0.00000000      0.00000000      0.00000000</v>
   <v name="WPLASMA">      0.00000000      0.00000000      0.00000000      0.00000000      0.00000000      0.00000000      0.00000000      0.00000000      0.00000000</v>
  </separator>
  <separator name="orbital magnetization" >
   <i type="logical" name="NUCIND"> F  </i>
   <v name="MAGPOS">      0.00000000      0.00000000      0.00000000</v>
   <i type="logical" name="LNICSALL"> T  </i>
   <i type="logical" name="ORBITALMAG"> F  </i>
   <i type="logical" name="LMAGBLOCH"> F  </i>
   <i type="logical" name="LCHIMAG"> F  </i>
   <i type="logical" name="LGAUGE"> T  </i>
   <i type="int" name="MAGATOM">     0</i>
   <v name="MAGDIPOL">      0.00000000      0.00000000      0.00000000</v>
   <v name="AVECCONST">      0.00000000      0.00000000      0.00000000</v>
  </separator>
  <separator name="response functions" >
   <i type="logical" name="LFINITE_TEMPERATURE"> F  </i>
   <i type="logical" name="LADDER"> F  </i>
   <i type="logical" name="LRPAFORCE"> F  </i>
   <i type="logical" name="LFXC"> F  </i>
   <i type="logical" name="LHARTREE"> T  </i>
   <i type="int" name="IBSE">     0</i>
   <v type="int" name="KPOINT">    -1     0     0     0</v>
   <i type="logical" name="LTCTC"> F  </i>
   <i type="logical" name="LTCTE"> F  </i>
   <i type="logical" name="LTETE"> F  </i>
   <i type="logical" name="LTRIPLET"> F  </i>
   <i type="logical" name="LFXCEPS"> F  </i>
   <i type="logical" name="LFXHEG"> F  </i>
   <i type="int" name="NATURALO">     2</i>
   <i type="logical" name="L2ORDER"> F  </i>
   <i type="logical" name="LDMP1"> F  </i>
   <i type="logical" name="LMP2LT"> F  </i>
   <i type="logical" name="LSMP2LT"> F  </i>
   <i type="logical" name="LUSEW"> F  </i>
   <i name="ENCUTGW">     -2.00000000</i>
   <i name="ENCUTGWSOFT">     -2.00000000</i>
   <i name="ENCUTLF">     -1.00000000</i>
   <i type="int" name="LMAXMP2">    -1</i>
   <i name="SCISSOR">      0.00000000</i>
   <i type="int" name="NOMEGA">     0</i>
   <i type="int" name="NOMEGAR">     0</i>
   <i type="int" name="NBANDSGW">    -1</i>
   <i type="int" name="NBANDSO">    -1</i>
   <i type="int" name="NBANDSV">    -1</i>
   <i type="int" name="NELM">     1</i>
   <i type="int" name="NELMHF">     1</i>
   <i type="int" name="DIM">     3</i>
   <i type="int" name="IESPILON">     4</i>
   <i type="int" name="ANTIRES">     0</i>
   <i name="OMEGAMAX">    -30.00000000</i>
   <i name="OMEGAMIN">    -30.00000000</i>
   <i name="OMEGATL">   -200.00000000</i>
   <i type="int" name="OMEGAGRID">   145</i>
   <i name="CSHIFT">     -0.10000000</i>
   <i type="logical" name="LSELFENERGY"> F  </i>
   <i type="logical" name="LSPECTRAL"> F  </i>
   <i type="logical" name="LSPECTRALGW"> F  </i>
   <i type="logical" name="LSINGLES"> F  </i>
   <i type="logical" name="LFERMIGW"> F  </i>
   <i type="logical" name="ODDONLYGW"> F  </i>
   <i type="logical" name="EVENONLYGW"> F  </i>
   <i type="int" name="NKREDLFX">     1</i>
   <i type="int" name="NKREDLFY">     1</i>
   <i type="int" name="NKREDLFZ">     1</i>
   <i type="int" name="MAXMEM">  2800</i>
   <i type="int" name="TELESCOPE">     0</i>
   <i type="int" name="NTAUPAR">     1</i>
   <i type="int" name="NOMEGAPAR">    -1</i>
   <i name="LAMBDA">      1.00000000</i>
  </separator>
  <separator name="External order field" >
   <i name="OFIELD_KAPPA">      0.00000000</i>
   <v name="OFIELD_K">      0.00000000      0.00000000      0.00000000</v>
   <i name="OFIELD_Q6_NEAR">      0.00000000</i>
   <i name="OFIELD_Q6_FAR">      0.00000000</i>
   <i name="OFIELD_A">      0.00000000</i>
  </separator>
 </parameters>
 <atominfo>
  <atoms>       3 </atoms>
  <types>       3 </types>
  <array name="atoms" >
   <dimension dim="1">ion</dimension>
   <field type="string">element</field>
   <field type="int">atomtype</field>
   <set>
    <rc><c>U </c><c>   1</c></rc>
    <rc><c>Bi</c><c>   2</c></rc>
    <rc><c>Pt</c><c>   3</c></rc>
   </set>
  </array>
  <array name="atomtypes" >
   <dimension dim="1">type</dimension>
   <field type="int">atomspertype</field>
   <field type="string">element</field>
   <field>mass</field>
   <field>valence</field>
   <field type="string">pseudopotential</field>
   <set>
    <rc><c>   1</c><c>U </c><c>    238.02900000</c><c>     14.00000000</c><c>  PAW_PBE U 06Sep2000                   </c></rc>
    <rc><c>   1</c><c>Bi</c><c>    208.98000000</c><c>     15.00000000</c><c>  PAW_PBE Bi_d 06Sep2000                </c></rc>
    <rc><c>   1</c><c>Pt</c><c>    195.08000000</c><c>     10.00000000</c><c>  PAW_PBE Pt 04Feb2005                  </c></rc>
   </set>
  </array>
 </atominfo>
 <structure name="initialpos" >
  <crystal>
   <varray name="basis" >
    <v>       0.00000000       3.10527934       3.10527934 </v>
    <v>       3.10527934       0.00000000       3.10527934 </v>
    <v>       3.10527934       3.10527934       0.00000000 </v>
   </varray>
   <i name="volume">     59.88692534 </i>
   <varray name="rec_basis" >
    <v>      -0.16101611       0.16101611       0.16101611 </v>
    <v>       0.16101611      -0.16101611       0.16101611 </v>
    <v>       0.16101611       0.16101611      -0.16101611 </v>
   </varray>
  </crystal>
  <varray name="positions" >
   <v>       0.25000000       0.25000000       0.25000000 </v>
   <v>       0.75000000       0.75000000       0.75000000 </v>
   <v>       0.00000000       0.00000000       0.00000000 </v>
  </varray>
 </structure>
 <calculation>
  <scstep>
   <time name="dav">    1.40    1.41</time>
   <time name="total">    1.55    1.98</time>
   <energy>
    <i name="alphaZ">    262.57458677 </i>
    <i name="ewald">  -3839.04584479 </i>
    <i name="hartreedc">   -685.83125271 </i>
    <i name="XCdc">     93.03001098 </i>
    <i name="pawpsdc">   3513.29252893 </i>
    <i name="pawaedc">  -3436.88002192 </i>
    <i name="eentropy">     -0.00017973 </i>
    <i name="bandstr">    436.43662046 </i>
    <i name="atom">   4095.35208632 </i>
    <i name="e_fr_energy">    438.92853430 </i>
    <i name="e_wo_entrp">    438.92871403 </i>
    <i name="e_0_energy">    438.92862417 </i>
   </energy>
  </scstep>
  <scstep>
   <time name="dav">    1.42    1.45</time>
   <time name="total">    1.43    1.46</time>
   <energy>
    <i name="e_fr_energy">     33.97368822 </i>
    <i name="e_wo_entrp">     33.97422051 </i>
    <i name="e_0_energy">     33.97395436 </i>
   </energy>
  </scstep>
  <scstep>
   <time name="dav">    1.60    1.63</time>
   <time name="total">    1.60    1.63</time>
   <energy>
    <i name="e_fr_energy">    -19.29675392 </i>
    <i name="e_wo_entrp">    -19.29646231 </i>
    <i name="e_0_energy">    -19.29660812 </i>
   </energy>
  </scstep>
  <scstep>
   <time name="dav">    2.19    2.22</time>
   <time name="total">    2.19    2.22</time>
   <energy>
    <i name="e_fr_energy">    -24.89762983 </i>
    <i name="e_wo_entrp">    -24.89697877 </i>
    <i name="e_0_energy">    -24.89730430 </i>
   </energy>
  </scstep>
  <scstep>
   <time name="dav">    1.76    1.78</time>
   <time name="total">    2.12    2.14</time>
   <energy>
    <i name="e_fr_energy">    -25.06574619 </i>
    <i name="e_wo_entrp">    -25.06499726 </i>
    <i name="e_0_energy">    -25.06537173 </i>
   </energy>
  </scstep>
  <scstep>
   <time name="dav">    1.92    1.92</time>
   <time name="total">    2.39    2.41</time>
   <energy>
    <i name="e_fr_energy">    -28.98469985 </i>
    <i name="e_wo_entrp">    -28.98448426 </i>
    <i name="e_0_energy">    -28.98459205 </i>
   </energy>
  </scstep>
  <scstep>
   <time name="dav">    1.81    1.81</time>
   <time name="total">    2.25    2.28</time>
   <energy>
    <i name="e_fr_energy">    -22.89687926 </i>
    <i name="e_wo_entrp">    -22.89608432 </i>
    <i name="e_0_energy">    -22.89648179 </i>
   </energy>
  </scstep>
  <scstep>
   <time name="dav">    1.87    1.87</time>
   <time name="total">    2.31    2.34</time>
   <energy>
    <i name="e_fr_energy">    -22.94466672 </i>
    <i name="e_wo_entrp">    -22.94333341 </i>
    <i name="e_0_energy">    -22.94400007 </i>
   </energy>
  </scstep>
  <scstep>
   <time name="dav">    1.89    1.89</time>
   <time name="total">    2.36    2.40</time>
   <energy>
    <i name="e_fr_energy">    -22.42508529 </i>
    <i name="e_wo_entrp">    -22.42382810 </i>
    <i name="e_0_energy">    -22.42445669 </i>
   </energy>
  </scstep>
  <scstep>
   <time name="dav">    1.82    1.82</time>
   <time name="total">    2.25    2.31</time>
   <energy>
    <i name="e_fr_energy">    -22.43214208 </i>
    <i name="e_wo_entrp">    -22.43080056 </i>
    <i name="e_0_energy">    -22.43147132 </i>
   </energy>
  </scstep>
  <scstep>
   <time name="dav">    2.05    2.05</time>
   <time name="total">    2.49    2.52</time>
   <energy>
    <i name="e_fr_energy">    -22.43182908 </i>
    <i name="e_wo_entrp">    -22.43035456 </i>
    <i name="e_0_energy">    -22.43109182 </i>
   </energy>
  </scstep>
  <scstep>
   <time name="dav">    1.97    1.97</time>
   <time name="total">    2.40    2.43</time>
   <energy>
    <i name="e_fr_energy">    -22.43078009 </i>
    <i name="e_wo_entrp">    -22.42931858 </i>
    <i name="e_0_energy">    -22.43004933 </i>
   </energy>
  </scstep>
  <scstep>
   <time name="dav">    2.09    2.09</time>
   <time name="total">    2.55    2.58</time>
   <energy>
    <i name="e_fr_energy">    -22.43076461 </i>
    <i name="e_wo_entrp">    -22.42933052 </i>
    <i name="e_0_energy">    -22.43004757 </i>
   </energy>
  </scstep>
  <scstep>
   <time name="dav">    1.80    1.80</time>
   <time name="total">    2.26    2.29</time>
   <energy>
    <i name="e_fr_energy">    -22.43071036 </i>
    <i name="e_wo_entrp">    -22.42926089 </i>
    <i name="e_0_energy">    -22.42998562 </i>
   </energy>
  </scstep>
  <scstep>
   <time name="dav">    2.08    2.08</time>
   <time name="total">    2.52    2.55</time>
   <energy>
    <i name="e_fr_energy">    -22.43071137 </i>
    <i name="e_wo_entrp">    -22.42926463 </i>
    <i name="e_0_energy">    -22.42998800 </i>
   </energy>
  </scstep>
  <scstep>
   <time name="dav">    1.87    1.87</time>
   <time name="total">    2.33    2.36</time>
   <energy>
    <i name="e_fr_energy">    -22.43071079 </i>
    <i name="e_wo_entrp">    -22.42926311 </i>
    <i name="e_0_energy">    -22.42998695 </i>
   </energy>
  </scstep>
  <scstep>
   <time name="dav">    1.32    1.32</time>
   <time name="total">    1.48    1.50</time>
   <energy>
    <i name="alphaZ">    262.57458677 </i>
    <i name="ewald">  -3839.04584479 </i>
    <i name="hartreedc">   -666.34327481 </i>
    <i name="XCdc">     92.45102383 </i>
    <i name="pawpsdc">   4858.71455682 </i>
    <i name="pawaedc">  -4795.39481296 </i>
    <i name="eentropy">     -0.00144766 </i>
    <i name="bandstr">    -30.73758428 </i>
    <i name="atom">   4095.35208632 </i>
    <i name="e_fr_energy">    -22.43071076 </i>
    <i name="e_wo_entrp">    -22.42926310 </i>
    <i name="e_0_energy">    -22.42998693 </i>
   </energy>
  </scstep>
  <structure>
   <crystal>
    <varray name="basis" >
     <v>       0.00000000       3.10527934       3.10527934 </v>
     <v>       3.10527934       0.00000000       3.10527934 </v>
     <v>       3.10527934       3.10527934       0.00000000 </v>
    </varray>
    <i name="volume">     59.88692534 </i>
    <varray name="rec_basis" >
     <v>      -0.16101611       0.16101611       0.16101611 </v>
     <v>       0.16101611      -0.16101611       0.16101611 </v>
     <v>       0.16101611       0.16101611      -0.16101611 </v>
    </varray>
   </crystal>
   <varray name="positions" >
    <v>       0.25000000       0.25000000       0.25000000 </v>
    <v>       0.75000000       0.75000000       0.75000000 </v>
    <v>       0.00000000       0.00000000       0.00000000 </v>
   </varray>
  </structure>
  <varray name="forces" >
   <v>       0.00000000       0.00000000       0.00000000 </v>
   <v>       0.00000000       0.00000000       0.00000000 </v>
   <v>      -0.00000000      -0.00000000      -0.00000000 </v>
  </varray>
  <varray name="stress" >
   <v>     395.12296692       0.00000000      -0.00000000 </v>
   <v>       0.00000000     395.12296692      -0.00000000 </v>
   <v>      -0.00000000       0.00000000     395.12296692 </v>
  </varray>
  <energy>
   <i name="e_fr_energy">    -22.43071076 </i>
   <i name="e_wo_entrp">    -22.42998693 </i>
   <i name="e_0_energy">     -0.00144766 </i>
  </energy>
  <time name="totalsc">   40.28   41.70</time>
  <eigenvalues>
   <array>
    <dimension dim="1">band</dimension>
    <dimension dim="2">kpoint</dimension>
    <dimension dim="3">spin</dimension>
    <field>eigene</field>
    <field>occ</field>
    <set>
     <set comment="spin 1">
      <set comment="kpoint 1">
       <r>  -30.8821    1.0000 </r>
       <r>  -10.2663    1.0000 </r>
       <r>  -10.2663    1.0000 </r>
       <r>  -10.2208    1.0000 </r>
       <r>  -10.2208    1.0000 </r>
       <r>  -10.2208    1.0000 </r>
       <r>   -6.4470    1.0000 </r>
       <r>   -6.4470    1.0000 </r>
       <r>   -6.4470    1.0000 </r>
       <r>   -0.7156    1.0000 </r>
       <r>    7.5476    1.0000 </r>
       <r>    7.5476    1.0000 </r>
       <r>    7.5693    1.0000 </r>
       <r>    7.5693    1.0000 </r>
       <r>    7.5693    1.0000 </r>
       <r>   11.5509    1.0000 </r>
       <r>   11.5509    1.0000 </r>
       <r>   11.5509    1.0000 </r>
       <r>   11.9238    1.0000 </r>
       <r>   12.8504    1.0000 </r>
       <r>   12.8504    1.0000 </r>
       <r>   12.8504    1.0000 </r>
       <r>   13.4552    0.0000 </r>
       <r>   13.4552    0.0000 </r>
      </set>
      <set comment="kpoint 2">
       <r>  -30.8811    1.0000 </r>
       <r>  -10.2710    1.0000 </r>
       <r>  -10.2710    1.0000 </r>
       <r>  -10.2216    1.0000 </r>
       <r>  -10.2202    1.0000 </r>
       <r>  -10.2202    1.0000 </r>
       <r>   -6.4856    1.0000 </r>
       <r>   -6.4361    1.0000 </r>
       <r>   -6.4361    1.0000 </r>
       <r>   -0.5966    1.0000 </r>
       <r>    7.2547    1.0000 </r>
       <r>    7.2547    1.0000 </r>
       <r>    7.4342    1.0000 </r>
       <r>    7.8453    1.0000 </r>
       <r>    7.8453    1.0000 </r>
       <r>   10.9441    1.0000 </r>
       <r>   11.4761    1.0000 </r>
       <r>   11.4761    1.0000 </r>
       <r>   12.1467    1.0000 </r>
       <r>   12.8781    1.0000 </r>
       <r>   12.8781    1.0000 </r>
       <r>   13.0137    1.0000 </r>
       <r>   13.4702    0.0000 </r>
       <r>   13.5278    0.0000 </r>
      </set>
      <set comment="kpoint 3">
       <r>  -30.8786    1.0000 </r>
       <r>  -10.2837    1.0000 </r>
       <r>  -10.2837    1.0000 </r>
       <r>  -10.2244    1.0000 </r>
       <r>  -10.2189    1.0000 </r>
       <r>  -10.2189    1.0000 </r>
       <r>   -6.5841    1.0000 </r>
       <r>   -6.4059    1.0000 </r>
       <r>   -6.4059    1.0000 </r>
       <r>   -0.2709    1.0000 </r>
       <r>    6.9894    1.0000 </r>
       <r>    6.9894    1.0000 </r>
       <r>    7.0791    1.0000 </r>
       <r>    8.0421    1.0000 </r>
       <r>    8.0421    1.0000 </r>
       <r>   10.1364    1.0000 </r>
       <r>   11.3308    1.0000 </r>
       <r>   11.3308    1.0000 </r>
       <r>   12.1213    1.0000 </r>
       <r>   12.9331    1.0000 </r>
       <r>   12.9331    1.0000 </r>
       <r>   13.3484    0.0000 </r>
       <r>   13.4634    0.0000 </r>
       <r>   13.6979    0.0000 </r>
      </set>
      <set comment="kpoint 4">
       <r>  -30.8750    1.0000 </r>
       <r>  -10.3013    1.0000 </r>
       <r>  -10.3013    1.0000 </r>
       <r>  -10.2295    1.0000 </r>
       <r>  -10.2171    1.0000 </r>
       <r>  -10.2171    1.0000 </r>
       <r>   -6.7050    1.0000 </r>
       <r>   -6.3637    1.0000 </r>
       <r>   -6.3637    1.0000 </r>
       <r>    0.1802    1.0000 </r>
       <r>    6.6230    1.0000 </r>
       <r>    6.7975    1.0000 </r>
       <r>    6.7975    1.0000 </r>
       <r>    8.0839    1.0000 </r>
       <r>    8.0839    1.0000 </r>
       <r>    9.4260    1.0000 </r>
       <r>   11.2391    1.0000 </r>
       <r>   11.2391    1.0000 </r>
       <r>   12.0812    1.0000 </r>
       <r>   12.9952    1.0000 </r>
       <r>   12.9952    1.0000 </r>
       <r>   13.4718    0.0000 </r>
       <r>   13.5619    0.0000 </r>
       <r>   13.8374    0.0000 </r>
      </set>
      <set comment="kpoint 5">
       <r>  -30.8712    1.0000 </r>
       <r>  -10.3195    1.0000 </r>
       <r>  -10.3195    1.0000 </r>
       <r>  -10.2363    1.0000 </r>
       <r>  -10.2152    1.0000 </r>
       <r>  -10.2152    1.0000 </r>
       <r>   -6.8141    1.0000 </r>
       <r>   -6.3194    1.0000 </r>
       <r>   -6.3194    1.0000 </r>
       <r>    0.6495    1.0000 </r>
       <r>    6.1965    1.0000 </r>
       <r>    6.6949    1.0000 </r>
       <r>    6.6949    1.0000 </r>
       <r>    7.9685    1.0000 </r>
       <r>    7.9685    1.0000 </r>
       <r>    8.8797    1.0000 </r>
       <r>   11.2428    1.0000 </r>
       <r>   11.2428    1.0000 </r>
       <r>   12.1150    1.0000 </r>
       <r>   13.0684    0.5509 </r>
       <r>   13.0684    0.5509 </r>
       <r>   13.4808    0.0000 </r>
       <r>   13.6812    0.0000 </r>
       <r>   13.8390    0.0000 </r>
      </set>
      <set comment="kpoint 6">
       <r>  -30.8681    1.0000 </r>
       <r>  -10.3342    1.0000 </r>
       <r>  -10.3342    1.0000 </r>
       <r>  -10.2431    1.0000 </r>
       <r>  -10.2136    1.0000 </r>
       <r>  -10.2136    1.0000 </r>
       <r>   -6.8916    1.0000 </r>
       <r>   -6.2831    1.0000 </r>
       <r>   -6.2831    1.0000 </r>
       <r>    1.0282    1.0000 </r>
       <r>    5.8949    1.0000 </r>
       <r>    6.6747    1.0000 </r>
       <r>    6.6747    1.0000 </r>
       <r>    7.7759    1.0000 </r>
       <r>    7.7759    1.0000 </r>
       <r>    8.5116    1.0000 </r>
       <r>   11.2980    1.0000 </r>
       <r>   11.2980    1.0000 </r>
       <r>   12.2123    1.0000 </r>
       <r>   13.1543    0.0000 </r>
       <r>   13.1543    0.0000 </r>
       <r>   13.4883    0.0000 </r>
       <r>   13.7404    0.0000 </r>
       <r>   13.7599    0.0000 </r>
      </set>
      <set comment="kpoint 7">
       <r>  -30.8663    1.0000 </r>
       <r>  -10.3424    1.0000 </r>
       <r>  -10.3424    1.0000 </r>
       <r>  -10.2474    1.0000 </r>
       <r>  -10.2127    1.0000 </r>
       <r>  -10.2127    1.0000 </r>
       <r>   -6.9307    1.0000 </r>
       <r>   -6.2627    1.0000 </r>
       <r>   -6.2627    1.0000 </r>
       <r>    1.2351    1.0000 </r>
       <r>    5.7505    1.0000 </r>
       <r>    6.6965    1.0000 </r>
       <r>    6.6965    1.0000 </r>
       <r>    7.6257    1.0000 </r>
       <r>    7.6257    1.0000 </r>
       <r>    8.3253    1.0000 </r>
       <r>   11.3428    1.0000 </r>
       <r>   11.3428    1.0000 </r>
       <r>   12.3077    1.0000 </r>
       <r>   13.2306    0.0000 </r>
       <r>   13.2306    0.0000 </r>
       <r>   13.4929    0.0000 </r>
       <r>   13.6413    0.0000 </r>
       <r>   13.6413    0.0000 </r>
      </set>
      <set comment="kpoint 8">
       <r>  -30.8808    1.0000 </r>
       <r>  -10.2790    1.0000 </r>
       <r>  -10.2652    1.0000 </r>
       <r>  -10.2219    1.0000 </r>
       <r>  -10.2201    1.0000 </r>
       <r>  -10.2201    1.0000 </r>
       <r>   -6.4672    1.0000 </r>
       <r>   -6.4485    1.0000 </r>
       <r>   -6.4485    1.0000 </r>
       <r>   -0.5593    1.0000 </r>
       <r>    6.9453    1.0000 </r>
       <r>    7.5608    1.0000 </r>
       <r>    7.5785    1.0000 </r>
       <r>    7.5785    1.0000 </r>
       <r>    7.9184    1.0000 </r>
       <r>   10.9685    1.0000 </r>
       <r>   11.3505    1.0000 </r>
       <r>   11.3505    1.0000 </r>
       <r>   12.2353    1.0000 </r>
       <r>   12.9280    1.0000 </r>
       <r>   12.9417    1.0000 </r>
       <r>   12.9417    1.0000 </r>
       <r>   13.4708    0.0000 </r>
       <r>   13.5467    0.0000 </r>
      </set>
      <set comment="kpoint 9">
       <r>  -30.8789    1.0000 </r>
       <r>  -10.2929    1.0000 </r>
       <r>  -10.2690    1.0000 </r>
       <r>  -10.2240    1.0000 </r>
       <r>  -10.2192    1.0000 </r>
       <r>  -10.2190    1.0000 </r>
       <r>   -6.5427    1.0000 </r>
       <r>   -6.4389    1.0000 </r>
       <r>   -6.4159    1.0000 </r>
       <r>   -0.3105    1.0000 </r>
       <r>    6.6051    1.0000 </r>
       <r>    7.3132    1.0000 </r>
       <r>    7.3996    1.0000 </r>
       <r>    7.8118    1.0000 </r>
       <r>    8.0815    1.0000 </r>
       <r>   10.3958    1.0000 </r>
       <r>   11.1931    1.0000 </r>
       <r>   11.2132    1.0000 </r>
       <r>   12.2525    1.0000 </r>
       <r>   12.9070    1.0000 </r>
       <r>   12.9922    1.0000 </r>
       <r>   13.2425    0.0000 </r>
       <r>   13.4797    0.0000 </r>
       <r>   13.6739    0.0000 </r>
      </set>
      <set comment="kpoint 10">
       <r>  -30.8757    1.0000 </r>
       <r>  -10.3095    1.0000 </r>
       <r>  -10.2813    1.0000 </r>
       <r>  -10.2280    1.0000 </r>
       <r>  -10.2179    1.0000 </r>
       <r>  -10.2170    1.0000 </r>
       <r>   -6.6572    1.0000 </r>
       <r>   -6.4098    1.0000 </r>
       <r>   -6.3701    1.0000 </r>
       <r>    0.0831    1.0000 </r>
       <r>    6.3131    1.0000 </r>
       <r>    7.0530    1.0000 </r>
       <r>    7.1098    1.0000 </r>
       <r>    7.9048    1.0000 </r>
       <r>    8.1964    1.0000 </r>
       <r>    9.7197    1.0000 </r>
       <r>   11.0817    1.0000 </r>
       <r>   11.1150    1.0000 </r>
       <r>   12.2258    1.0000 </r>
       <r>   12.9550    1.0000 </r>
       <r>   13.0286    1.0000 </r>
       <r>   13.4844    0.0000 </r>
       <r>   13.4855    0.0000 </r>
       <r>   13.8043    0.0000 </r>
      </set>
      <set comment="kpoint 11">
       <r>  -30.8720    1.0000 </r>
       <r>  -10.3248    1.0000 </r>
       <r>  -10.2988    1.0000 </r>
       <r>  -10.2337    1.0000 </r>
       <r>  -10.2165    1.0000 </r>
       <r>  -10.2149    1.0000 </r>
       <r>   -6.7699    1.0000 </r>
       <r>   -6.3681    1.0000 </r>
       <r>   -6.3268    1.0000 </r>
       <r>    0.5215    1.0000 </r>
       <r>    6.0824    1.0000 </r>
       <r>    6.7476    1.0000 </r>
       <r>    6.9731    1.0000 </r>
       <r>    7.8354    1.0000 </r>
       <r>    8.1698    1.0000 </r>
       <r>    9.1308    1.0000 </r>
       <r>   11.0366    1.0000 </r>
       <r>   11.1455    1.0000 </r>
       <r>   12.2152    1.0000 </r>
       <r>   13.0410    1.0000 </r>
       <r>   13.0735    0.2761 </r>
       <r>   13.4909    0.0000 </r>
       <r>   13.6109    0.0000 </r>
       <r>   13.8347    0.0000 </r>
      </set>
      <set comment="kpoint 12">
       <r>  -30.8686    1.0000 </r>
       <r>  -10.3355    1.0000 </r>
       <r>  -10.3173    1.0000 </r>
       <r>  -10.2401    1.0000 </r>
       <r>  -10.2150    1.0000 </r>
       <r>  -10.2132    1.0000 </r>
       <r>   -6.8567    1.0000 </r>
       <r>   -6.3236    1.0000 </r>
       <r>   -6.2957    1.0000 </r>
       <r>    0.8981    1.0000 </r>
       <r>    5.9202    1.0000 </r>
       <r>    6.5963    1.0000 </r>
       <r>    6.8859    1.0000 </r>
       <r>    7.6901    1.0000 </r>
       <r>    8.0191    1.0000 </r>
       <r>    8.6893    1.0000 </r>
       <r>   11.0751    1.0000 </r>
       <r>   11.2263    1.0000 </r>
       <r>   12.2607    1.0000 </r>
       <r>   13.1358    0.0000 </r>
       <r>   13.1387    0.0000 </r>
       <r>   13.4932    0.0000 </r>
       <r>   13.6585    0.0000 </r>
       <r>   13.7987    0.0000 </r>
      </set>
      <set comment="kpoint 13">
       <r>  -30.8664    1.0000 </r>
       <r>  -10.3394    1.0000 </r>
       <r>  -10.3327    1.0000 </r>
       <r>  -10.2451    1.0000 </r>
       <r>  -10.2140    1.0000 </r>
       <r>  -10.2123    1.0000 </r>
       <r>   -6.9071    1.0000 </r>
       <r>   -6.2862    1.0000 </r>
       <r>   -6.2835    1.0000 </r>
       <r>    1.1340    1.0000 </r>
       <r>    5.8374    1.0000 </r>
       <r>    6.6059    1.0000 </r>
       <r>    6.7902    1.0000 </r>
       <r>    7.6133    1.0000 </r>
       <r>    7.8207    1.0000 </r>
       <r>    8.4243    1.0000 </r>
       <r>   11.1366    1.0000 </r>
       <r>   11.2857    1.0000 </r>
       <r>   12.3408    1.0000 </r>
       <r>   13.2147    0.0000 </r>
       <r>   13.2190    0.0000 </r>
       <r>   13.4866    0.0000 </r>
       <r>   13.6296    0.0000 </r>
       <r>   13.7285    0.0000 </r>
      </set>
      <set comment="kpoint 14">
       <r>  -30.8658    1.0000 </r>
       <r>  -10.3417    1.0000 </r>
       <r>  -10.3359    1.0000 </r>
       <r>  -10.2464    1.0000 </r>
       <r>  -10.2135    1.0000 </r>
       <r>  -10.2123    1.0000 </r>
       <r>   -6.9193    1.0000 </r>
       <r>   -6.2923    1.0000 </r>
       <r>   -6.2641    1.0000 </r>
       <r>    1.1969    1.0000 </r>
       <r>    5.8196    1.0000 </r>
       <r>    6.6531    1.0000 </r>
       <r>    6.7158    1.0000 </r>
       <r>    7.6676    1.0000 </r>
       <r>    7.6927    1.0000 </r>
       <r>    8.3582    1.0000 </r>
       <r>   11.1576    1.0000 </r>
       <r>   11.2927    1.0000 </r>
       <r>   12.3762    1.0000 </r>
       <r>   13.2269    0.0000 </r>
       <r>   13.2680    0.0000 </r>
       <r>   13.4720    0.0000 </r>
       <r>   13.6389    0.0000 </r>
       <r>   13.6556    0.0000 </r>
      </set>
      <set comment="kpoint 15">
       <r>  -30.8670    1.0000 </r>
       <r>  -10.3426    1.0000 </r>
       <r>  -10.3257    1.0000 </r>
       <r>  -10.2435    1.0000 </r>
       <r>  -10.2137    1.0000 </r>
       <r>  -10.2132    1.0000 </r>
       <r>   -6.8935    1.0000 </r>
       <r>   -6.3199    1.0000 </r>
       <r>   -6.2622    1.0000 </r>
       <r>    1.0813    1.0000 </r>
       <r>    5.8658    1.0000 </r>
       <r>    6.5301    1.0000 </r>
       <r>    6.8483    1.0000 </r>
       <r>    7.6388    1.0000 </r>
       <r>    7.8849    1.0000 </r>
       <r>    8.4963    1.0000 </r>
       <r>   11.1040    1.0000 </r>
       <r>   11.2591    1.0000 </r>
       <r>   12.3254    1.0000 </r>
       <r>   13.1702    0.0000 </r>
       <r>   13.2172    0.0000 </r>
       <r>   13.4804    0.0000 </r>
       <r>   13.6836    0.0000 </r>
       <r>   13.7066    0.0000 </r>
      </set>
      <set comment="kpoint 16">
       <r>  -30.8697    1.0000 </r>
       <r>  -10.3351    1.0000 </r>
       <r>  -10.3108    1.0000 </r>
       <r>  -10.2377    1.0000 </r>
       <r>  -10.2147    1.0000 </r>
       <r>  -10.2147    1.0000 </r>
       <r>   -6.8303    1.0000 </r>
       <r>   -6.3599    1.0000 </r>
       <r>   -6.2811    1.0000 </r>
       <r>    0.7948    1.0000 </r>
       <r>    6.0207    1.0000 </r>
       <r>    6.4810    1.0000 </r>
       <r>    6.9731    1.0000 </r>
       <r>    7.7361    1.0000 </r>
       <r>    8.0990    1.0000 </r>
       <r>    8.8211    1.0000 </r>
       <r>   10.9878    1.0000 </r>
       <r>   11.2260    1.0000 </r>
       <r>   12.2520    1.0000 </r>
       <r>   13.1033    0.0000 </r>
       <r>   13.1183    0.0000 </r>
       <r>   13.4863    0.0000 </r>
       <r>   13.6821    0.0000 </r>
       <r>   13.7627    0.0000 </r>
      </set>
      <set comment="kpoint 17">
       <r>  -30.8732    1.0000 </r>
       <r>  -10.3207    1.0000 </r>
       <r>  -10.2942    1.0000 </r>
       <r>  -10.2313    1.0000 </r>
       <r>  -10.2166    1.0000 </r>
       <r>  -10.2163    1.0000 </r>
       <r>   -6.7346    1.0000 </r>
       <r>   -6.4029    1.0000 </r>
       <r>   -6.3168    1.0000 </r>
       <r>    0.3851    1.0000 </r>
       <r>    6.3038    1.0000 </r>
       <r>    6.5339    1.0000 </r>
       <r>    7.1372    1.0000 </r>
       <r>    7.8455    1.0000 </r>
       <r>    8.2401    1.0000 </r>
       <r>    9.3121    1.0000 </r>
       <r>   10.8757    1.0000 </r>
       <r>   11.2480    1.0000 </r>
       <r>   12.2191    1.0000 </r>
       <r>   13.0174    1.0000 </r>
       <r>   13.0518    0.9932 </r>
       <r>   13.4829    0.0000 </r>
       <r>   13.5946    0.0000 </r>
       <r>   13.8076    0.0000 </r>
      </set>
      <set comment="kpoint 18">
       <r>  -30.8768    1.0000 </r>
       <r>  -10.3026    1.0000 </r>
       <r>  -10.2798    1.0000 </r>
       <r>  -10.2262    1.0000 </r>
       <r>  -10.2183    1.0000 </r>
       <r>  -10.2181    1.0000 </r>
       <r>   -6.6222    1.0000 </r>
       <r>   -6.4377    1.0000 </r>
       <r>   -6.3614    1.0000 </r>
       <r>   -0.0534    1.0000 </r>
       <r>    6.6632    1.0000 </r>
       <r>    6.6932    1.0000 </r>
       <r>    7.3747    1.0000 </r>
       <r>    7.8380    1.0000 </r>
       <r>    8.2381    1.0000 </r>
       <r>    9.9339    1.0000 </r>
       <r>   10.8747    1.0000 </r>
       <r>   11.3489    1.0000 </r>
       <r>   12.2349    1.0000 </r>
       <r>   12.9265    1.0000 </r>
       <r>   13.0128    1.0000 </r>
       <r>   13.4427    0.0000 </r>
       <r>   13.4757    0.0000 </r>
       <r>   13.7446    0.0000 </r>
      </set>
      <set comment="kpoint 19">
       <r>  -30.8797    1.0000 </r>
       <r>  -10.2846    1.0000 </r>
       <r>  -10.2712    1.0000 </r>
       <r>  -10.2230    1.0000 </r>
       <r>  -10.2196    1.0000 </r>
       <r>  -10.2195    1.0000 </r>
       <r>   -6.5270    1.0000 </r>
       <r>   -6.4507    1.0000 </r>
       <r>   -6.4045    1.0000 </r>
       <r>   -0.4114    1.0000 </r>
       <r>    6.9445    1.0000 </r>
       <r>    7.0262    1.0000 </r>
       <r>    7.5870    1.0000 </r>
       <r>    7.7167    1.0000 </r>
       <r>    8.0891    1.0000 </r>
       <r>   10.5514    1.0000 </r>
       <r>   11.1072    1.0000 </r>
       <r>   11.4656    1.0000 </r>
       <r>   12.2381    1.0000 </r>
       <r>   12.8669    1.0000 </r>
       <r>   12.9642    1.0000 </r>
       <r>   13.2014    0.0000 </r>
       <r>   13.4665    0.0000 </r>
       <r>   13.6117    0.0000 </r>
      </set>
      <set comment="kpoint 20">
       <r>  -30.8775    1.0000 </r>
       <r>  -10.3048    1.0000 </r>
       <r>  -10.2622    1.0000 </r>
       <r>  -10.2258    1.0000 </r>
       <r>  -10.2183    1.0000 </r>
       <r>  -10.2183    1.0000 </r>
       <r>   -6.5216    1.0000 </r>
       <r>   -6.4527    1.0000 </r>
       <r>   -6.4527    1.0000 </r>
       <r>   -0.1646    1.0000 </r>
       <r>    6.2323    1.0000 </r>
       <r>    7.5789    1.0000 </r>
       <r>    7.5789    1.0000 </r>
       <r>    7.5978    1.0000 </r>
       <r>    7.9984    1.0000 </r>
       <r>   10.3825    1.0000 </r>
       <r>   11.0402    1.0000 </r>
       <r>   11.0402    1.0000 </r>
       <r>   12.2118    1.0000 </r>
       <r>   13.0403    1.0000 </r>
       <r>   13.0403    1.0000 </r>
       <r>   13.1992    0.0000 </r>
       <r>   13.5185    0.0000 </r>
       <r>   13.7491    0.0000 </r>
      </set>
      <set comment="kpoint 21">
       <r>  -30.8749    1.0000 </r>
       <r>  -10.3163    1.0000 </r>
       <r>  -10.2654    1.0000 </r>
       <r>  -10.2289    1.0000 </r>
       <r>  -10.2171    1.0000 </r>
       <r>  -10.2165    1.0000 </r>
       <r>   -6.6055    1.0000 </r>
       <r>   -6.4443    1.0000 </r>
       <r>   -6.4194    1.0000 </r>
       <r>    0.1175    1.0000 </r>
       <r>    5.9585    1.0000 </r>
       <r>    7.3620    1.0000 </r>
       <r>    7.3971    1.0000 </r>
       <r>    7.7346    1.0000 </r>
       <r>    8.0773    1.0000 </r>
       <r>   10.0226    1.0000 </r>
       <r>   10.8797    1.0000 </r>
       <r>   10.9751    1.0000 </r>
       <r>   12.2591    1.0000 </r>
       <r>   13.0100    1.0000 </r>
       <r>   13.0686    0.5404 </r>
       <r>   13.3812    0.0000 </r>
       <r>   13.5377    0.0000 </r>
       <r>   13.8485    0.0000 </r>
      </set>
      <set comment="kpoint 22">
       <r>  -30.8716    1.0000 </r>
       <r>  -10.3249    1.0000 </r>
       <r>  -10.2776    1.0000 </r>
       <r>  -10.2329    1.0000 </r>
       <r>  -10.2163    1.0000 </r>
       <r>  -10.2142    1.0000 </r>
       <r>   -6.7125    1.0000 </r>
       <r>   -6.4159    1.0000 </r>
       <r>   -6.3770    1.0000 </r>
       <r>    0.4493    1.0000 </r>
       <r>    5.8289    1.0000 </r>
       <r>    7.0157    1.0000 </r>
       <r>    7.2469    1.0000 </r>
       <r>    7.7252    1.0000 </r>
       <r>    8.1609    1.0000 </r>
       <r>    9.5335    1.0000 </r>
       <r>   10.7404    1.0000 </r>
       <r>   11.0234    1.0000 </r>
       <r>   12.3351    1.0000 </r>
       <r>   13.0320    1.0000 </r>
       <r>   13.0983    0.0000 </r>
       <r>   13.5054    0.0000 </r>
       <r>   13.5401    0.0000 </r>
       <r>   13.8811    0.0000 </r>
      </set>
      <set comment="kpoint 23">
       <r>  -30.8684    1.0000 </r>
       <r>  -10.3287    1.0000 </r>
       <r>  -10.2954    1.0000 </r>
       <r>  -10.2374    1.0000 </r>
       <r>  -10.2160    1.0000 </r>
       <r>  -10.2123    1.0000 </r>
       <r>   -6.8010    1.0000 </r>
       <r>   -6.3743    1.0000 </r>
       <r>   -6.3506    1.0000 </r>
       <r>    0.7404    1.0000 </r>
       <r>    5.8571    1.0000 </r>
       <r>    6.7462    1.0000 </r>
       <r>    7.1009    1.0000 </r>
       <r>    7.6535    1.0000 </r>
       <r>    8.1378    1.0000 </r>
       <r>    9.0553    1.0000 </r>
       <r>   10.7042    1.0000 </r>
       <r>   11.1195    1.0000 </r>
       <r>   12.3707    1.0000 </r>
       <r>   13.1125    0.0000 </r>
       <r>   13.1465    0.0000 </r>
       <r>   13.5328    0.0000 </r>
       <r>   13.5598    0.0000 </r>
       <r>   13.8529    0.0000 </r>
      </set>
      <set comment="kpoint 24">
       <r>  -30.8661    1.0000 </r>
       <r>  -10.3271    1.0000 </r>
       <r>  -10.3144    1.0000 </r>
       <r>  -10.2412    1.0000 </r>
       <r>  -10.2159    1.0000 </r>
       <r>  -10.2112    1.0000 </r>
       <r>   -6.8566    1.0000 </r>
       <r>   -6.3464    1.0000 </r>
       <r>   -6.3289    1.0000 </r>
       <r>    0.9359    1.0000 </r>
       <r>    5.9876    1.0000 </r>
       <r>    6.6204    1.0000 </r>
       <r>    6.9016    1.0000 </r>
       <r>    7.6619    1.0000 </r>
       <r>    8.0160    1.0000 </r>
       <r>    8.6963    1.0000 </r>
       <r>   10.7290    1.0000 </r>
       <r>   11.1811    1.0000 </r>
       <r>   12.4194    1.0000 </r>
       <r>   13.1820    0.0000 </r>
       <r>   13.2182    0.0000 </r>
       <r>   13.5122    0.0000 </r>
       <r>   13.5876    0.0000 </r>
       <r>   13.8172    0.0000 </r>
      </set>
      <set comment="kpoint 25">
       <r>  -30.8650    1.0000 </r>
       <r>  -10.3306    1.0000 </r>
       <r>  -10.3209    1.0000 </r>
       <r>  -10.2427    1.0000 </r>
       <r>  -10.2158    1.0000 </r>
       <r>  -10.2112    1.0000 </r>
       <r>   -6.8758    1.0000 </r>
       <r>   -6.3640    1.0000 </r>
       <r>   -6.2899    1.0000 </r>
       <r>    1.0272    1.0000 </r>
       <r>    6.0776    1.0000 </r>
       <r>    6.6584    1.0000 </r>
       <r>    6.6716    1.0000 </r>
       <r>    7.7890    1.0000 </r>
       <r>    7.8518    1.0000 </r>
       <r>    8.5455    1.0000 </r>
       <r>   10.7401    1.0000 </r>
       <r>   11.1789    1.0000 </r>
       <r>   12.4706    1.0000 </r>
       <r>   13.1882    0.0000 </r>
       <r>   13.2967    0.0000 </r>
       <r>   13.4688    0.0000 </r>
       <r>   13.6368    0.0000 </r>
       <r>   13.7448    0.0000 </r>
      </set>
      <set comment="kpoint 26">
       <r>  -30.8656    1.0000 </r>
       <r>  -10.3406    1.0000 </r>
       <r>  -10.3117    1.0000 </r>
       <r>  -10.2407    1.0000 </r>
       <r>  -10.2159    1.0000 </r>
       <r>  -10.2121    1.0000 </r>
       <r>   -6.8602    1.0000 </r>
       <r>   -6.3975    1.0000 </r>
       <r>   -6.2658    1.0000 </r>
       <r>    1.0163    1.0000 </r>
       <r>    6.0425    1.0000 </r>
       <r>    6.4775    1.0000 </r>
       <r>    6.8254    1.0000 </r>
       <r>    7.7241    1.0000 </r>
       <r>    7.9897    1.0000 </r>
       <r>    8.6437    1.0000 </r>
       <r>   10.6746    1.0000 </r>
       <r>   11.1372    1.0000 </r>
       <r>   12.4727    1.0000 </r>
       <r>   13.1463    0.0000 </r>
       <r>   13.3083    0.0000 </r>
       <r>   13.4462    0.0000 </r>
       <r>   13.6834    0.0000 </r>
       <r>   13.7038    0.0000 </r>
      </set>
      <set comment="kpoint 27">
       <r>  -30.8676    1.0000 </r>
       <r>  -10.3423    1.0000 </r>
       <r>  -10.3010    1.0000 </r>
       <r>  -10.2363    1.0000 </r>
       <r>  -10.2162    1.0000 </r>
       <r>  -10.2137    1.0000 </r>
       <r>   -6.8137    1.0000 </r>
       <r>   -6.4363    1.0000 </r>
       <r>   -6.2623    1.0000 </r>
       <r>    0.8850    1.0000 </r>
       <r>    5.9898    1.0000 </r>
       <r>    6.3662    1.0000 </r>
       <r>    7.0476    1.0000 </r>
       <r>    7.6761    1.0000 </r>
       <r>    8.1976    1.0000 </r>
       <r>    8.9449    1.0000 </r>
       <r>   10.5214    1.0000 </r>
       <r>   11.1082    1.0000 </r>
       <r>   12.4313    1.0000 </r>
       <r>   13.1049    0.0000 </r>
       <r>   13.2175    0.0000 </r>
       <r>   13.4771    0.0000 </r>
       <r>   13.6668    0.0000 </r>
       <r>   13.7248    0.0000 </r>
      </set>
      <set comment="kpoint 28">
       <r>  -30.8706    1.0000 </r>
       <r>  -10.3354    1.0000 </r>
       <r>  -10.2903    1.0000 </r>
       <r>  -10.2319    1.0000 </r>
       <r>  -10.2166    1.0000 </r>
       <r>  -10.2154    1.0000 </r>
       <r>   -6.7448    1.0000 </r>
       <r>   -6.4663    1.0000 </r>
       <r>   -6.2803    1.0000 </r>
       <r>    0.6233    1.0000 </r>
       <r>    6.0641    1.0000 </r>
       <r>    6.3629    1.0000 </r>
       <r>    7.2870    1.0000 </r>
       <r>    7.6759    1.0000 </r>
       <r>    8.3365    1.0000 </r>
       <r>    9.3739    1.0000 </r>
       <r>   10.3479    1.0000 </r>
       <r>   11.1436    1.0000 </r>
       <r>   12.3833    1.0000 </r>
       <r>   13.0794    0.0761 </r>
       <r>   13.1053    0.0000 </r>
       <r>   13.4921    0.0000 </r>
       <r>   13.6158    0.0000 </r>
       <r>   13.7671    0.0000 </r>
      </set>
      <set comment="kpoint 29">
       <r>  -30.8739    1.0000 </r>
       <r>  -10.3211    1.0000 </r>
       <r>  -10.2823    1.0000 </r>
       <r>  -10.2285    1.0000 </r>
       <r>  -10.2172    1.0000 </r>
       <r>  -10.2171    1.0000 </r>
       <r>   -6.6732    1.0000 </r>
       <r>   -6.4694    1.0000 </r>
       <r>   -6.3160    1.0000 </r>
       <r>    0.2780    1.0000 </r>
       <r>    6.3074    1.0000 </r>
       <r>    6.4750    1.0000 </r>
       <r>    7.5158    1.0000 </r>
       <r>    7.6444    1.0000 </r>
       <r>    8.3502    1.0000 </r>
       <r>    9.7722    1.0000 </r>
       <r>   10.3823    1.0000 </r>
       <r>   11.2502    1.0000 </r>
       <r>   12.3333    1.0000 </r>
       <r>   12.9973    1.0000 </r>
       <r>   13.0580    0.9449 </r>
       <r>   13.4895    0.0000 </r>
       <r>   13.5394    0.0000 </r>
       <r>   13.7818    0.0000 </r>
      </set>
      <set comment="kpoint 30">
       <r>  -30.8730    1.0000 </r>
       <r>  -10.3197    1.0000 </r>
       <r>  -10.2578    1.0000 </r>
       <r>  -10.2319    1.0000 </r>
       <r>  -10.2152    1.0000 </r>
       <r>  -10.2152    1.0000 </r>
       <r>   -6.5980    1.0000 </r>
       <r>   -6.4594    1.0000 </r>
       <r>   -6.4594    1.0000 </r>
       <r>    0.2534    1.0000 </r>
       <r>    5.7461    1.0000 </r>
       <r>    7.5159    1.0000 </r>
       <r>    7.5159    1.0000 </r>
       <r>    7.6512    1.0000 </r>
       <r>    7.8455    1.0000 </r>
       <r>   10.0102    1.0000 </r>
       <r>   10.9214    1.0000 </r>
       <r>   10.9214    1.0000 </r>
       <r>   12.1786    1.0000 </r>
       <r>   13.0954    0.0001 </r>
       <r>   13.0954    0.0001 </r>
       <r>   13.3333    0.0000 </r>
       <r>   13.5997    0.0000 </r>
       <r>   13.9327    0.0000 </r>
      </set>
      <set comment="kpoint 31">
       <r>  -30.8704    1.0000 </r>
       <r>  -10.3190    1.0000 </r>
       <r>  -10.2609    1.0000 </r>
       <r>  -10.2352    1.0000 </r>
       <r>  -10.2140    1.0000 </r>
       <r>  -10.2131    1.0000 </r>
       <r>   -6.6705    1.0000 </r>
       <r>   -6.4517    1.0000 </r>
       <r>   -6.4403    1.0000 </r>
       <r>    0.4284    1.0000 </r>
       <r>    5.7256    1.0000 </r>
       <r>    7.2516    1.0000 </r>
       <r>    7.4020    1.0000 </r>
       <r>    7.6817    1.0000 </r>
       <r>    7.9047    1.0000 </r>
       <r>    9.7797    1.0000 </r>
       <r>   10.7991    1.0000 </r>
       <r>   10.9822    1.0000 </r>
       <r>   12.3101    1.0000 </r>
       <r>   13.0742    0.2418 </r>
       <r>   13.1196    0.0000 </r>
       <r>   13.3971    0.0000 </r>
       <r>   13.6278    0.0000 </r>
       <r>   13.9675    0.0000 </r>
      </set>
      <set comment="kpoint 32">
       <r>  -30.8676    1.0000 </r>
       <r>  -10.3143    1.0000 </r>
       <r>  -10.2734    1.0000 </r>
       <r>  -10.2381    1.0000 </r>
       <r>  -10.2141    1.0000 </r>
       <r>  -10.2109    1.0000 </r>
       <r>   -6.7492    1.0000 </r>
       <r>   -6.4233    1.0000 </r>
       <r>   -6.4213    1.0000 </r>
       <r>    0.5849    1.0000 </r>
       <r>    5.8972    1.0000 </r>
       <r>    6.9387    1.0000 </r>
       <r>    7.2322    1.0000 </r>
       <r>    7.6848    1.0000 </r>
       <r>    8.0060    1.0000 </r>
       <r>    9.4313    1.0000 </r>
       <r>   10.5962    1.0000 </r>
       <r>   11.0860    1.0000 </r>
       <r>   12.4580    1.0000 </r>
       <r>   13.0835    0.0223 </r>
       <r>   13.1565    0.0000 </r>
       <r>   13.4596    0.0000 </r>
       <r>   13.6204    0.0000 </r>
       <r>   13.9240    0.0000 </r>
      </set>
      <set comment="kpoint 33">
       <r>  -30.8653    1.0000 </r>
       <r>  -10.3071    1.0000 </r>
       <r>  -10.2917    1.0000 </r>
       <r>  -10.2398    1.0000 </r>
       <r>  -10.2155    1.0000 </r>
       <r>  -10.2097    1.0000 </r>
       <r>   -6.7999    1.0000 </r>
       <r>   -6.4259    1.0000 </r>
       <r>   -6.3809    1.0000 </r>
       <r>    0.7004    1.0000 </r>
       <r>    6.1807    1.0000 </r>
       <r>    6.7523    1.0000 </r>
       <r>    7.0001    1.0000 </r>
       <r>    7.7416    1.0000 </r>
       <r>    8.0265    1.0000 </r>
       <r>    9.0590    1.0000 </r>
       <r>   10.4556    1.0000 </r>
       <r>   11.1378    1.0000 </r>
       <r>   12.5175    1.0000 </r>
       <r>   13.1320    0.0000 </r>
       <r>   13.2143    0.0000 </r>
       <r>   13.5219    0.0000 </r>
       <r>   13.5877    0.0000 </r>
       <r>   13.8554    0.0000 </r>
      </set>
      <set comment="kpoint 34">
       <r>  -30.8641    1.0000 </r>
       <r>  -10.3116    1.0000 </r>
       <r>  -10.2998    1.0000 </r>
       <r>  -10.2391    1.0000 </r>
       <r>  -10.2176    1.0000 </r>
       <r>  -10.2096    1.0000 </r>
       <r>   -6.8153    1.0000 </r>
       <r>   -6.4542    1.0000 </r>
       <r>   -6.3339    1.0000 </r>
       <r>    0.7852    1.0000 </r>
       <r>    6.4114    1.0000 </r>
       <r>    6.7048    1.0000 </r>
       <r>    6.7436    1.0000 </r>
       <r>    7.8743    1.0000 </r>
       <r>    7.9489    1.0000 </r>
       <r>    8.8287    1.0000 </r>
       <r>   10.3550    1.0000 </r>
       <r>   11.1074    1.0000 </r>
       <r>   12.5619    1.0000 </r>
       <r>   13.1292    0.0000 </r>
       <r>   13.2865    0.0000 </r>
       <r>   13.5308    0.0000 </r>
       <r>   13.6163    0.0000 </r>
       <r>   13.7954    0.0000 </r>
      </set>
      <set comment="kpoint 35">
       <r>  -30.8641    1.0000 </r>
       <r>  -10.3288    1.0000 </r>
       <r>  -10.2946    1.0000 </r>
       <r>  -10.2358    1.0000 </r>
       <r>  -10.2195    1.0000 </r>
       <r>  -10.2105    1.0000 </r>
       <r>   -6.8002    1.0000 </r>
       <r>   -6.4951    1.0000 </r>
       <r>   -6.2929    1.0000 </r>
       <r>    0.8488    1.0000 </r>
       <r>    6.4355    1.0000 </r>
       <r>    6.5165    1.0000 </r>
       <r>    6.7356    1.0000 </r>
       <r>    7.8301    1.0000 </r>
       <r>    8.0545    1.0000 </r>
       <r>    8.8831    1.0000 </r>
       <r>   10.2384    1.0000 </r>
       <r>   11.0356    1.0000 </r>
       <r>   12.5960    1.0000 </r>
       <r>   13.0801    0.0623 </r>
       <r>   13.3488    0.0000 </r>
       <r>   13.4603    0.0000 </r>
       <r>   13.6781    0.0000 </r>
       <r>   13.7674    0.0000 </r>
      </set>
      <set comment="kpoint 36">
       <r>  -30.8655    1.0000 </r>
       <r>  -10.3398    1.0000 </r>
       <r>  -10.2915    1.0000 </r>
       <r>  -10.2323    1.0000 </r>
       <r>  -10.2199    1.0000 </r>
       <r>  -10.2120    1.0000 </r>
       <r>   -6.7698    1.0000 </r>
       <r>   -6.5268    1.0000 </r>
       <r>   -6.2671    1.0000 </r>
       <r>    0.8698    1.0000 </r>
       <r>    6.2172    1.0000 </r>
       <r>    6.3608    1.0000 </r>
       <r>    6.8987    1.0000 </r>
       <r>    7.7484    1.0000 </r>
       <r>    8.2293    1.0000 </r>
       <r>    9.1610    1.0000 </r>
       <r>   10.0761    1.0000 </r>
       <r>   10.9911    1.0000 </r>
       <r>   12.5785    1.0000 </r>
       <r>   13.0529    0.9899 </r>
       <r>   13.3207    0.0000 </r>
       <r>   13.4504    0.0000 </r>
       <r>   13.6639    0.0000 </r>
       <r>   13.7360    0.0000 </r>
      </set>
      <set comment="kpoint 37">
       <r>  -30.8678    1.0000 </r>
       <r>  -10.3421    1.0000 </r>
       <r>  -10.2898    1.0000 </r>
       <r>  -10.2315    1.0000 </r>
       <r>  -10.2183    1.0000 </r>
       <r>  -10.2138    1.0000 </r>
       <r>   -6.7492    1.0000 </r>
       <r>   -6.5189    1.0000 </r>
       <r>   -6.2624    1.0000 </r>
       <r>    0.8016    1.0000 </r>
       <r>    6.0356    1.0000 </r>
       <r>    6.3047    1.0000 </r>
       <r>    7.1218    1.0000 </r>
       <r>    7.6959    1.0000 </r>
       <r>    8.3361    1.0000 </r>
       <r>    9.4272    1.0000 </r>
       <r>    9.9994    1.0000 </r>
       <r>   11.0289    1.0000 </r>
       <r>   12.5001    1.0000 </r>
       <r>   13.0679    0.5801 </r>
       <r>   13.2183    0.0000 </r>
       <r>   13.4810    0.0000 </r>
       <r>   13.6396    0.0000 </r>
       <r>   13.7387    0.0000 </r>
      </set>
      <set comment="kpoint 38">
       <r>  -30.8684    1.0000 </r>
       <r>  -10.3082    1.0000 </r>
       <r>  -10.2533    1.0000 </r>
       <r>  -10.2386    1.0000 </r>
       <r>  -10.2114    1.0000 </r>
       <r>  -10.2114    1.0000 </r>
       <r>   -6.6849    1.0000 </r>
       <r>   -6.4673    1.0000 </r>
       <r>   -6.4673    1.0000 </r>
       <r>    0.4344    1.0000 </r>
       <r>    5.8284    1.0000 </r>
       <r>    7.3794    1.0000 </r>
       <r>    7.3794    1.0000 </r>
       <r>    7.5938    1.0000 </r>
       <r>    7.7097    1.0000 </r>
       <r>    9.6962    1.0000 </r>
       <r>   11.0589    1.0000 </r>
       <r>   11.0589    1.0000 </r>
       <r>   12.2831    1.0000 </r>
       <r>   13.1395    0.0000 </r>
       <r>   13.1395    0.0000 </r>
       <r>   13.3206    0.0000 </r>
       <r>   13.7143    0.0000 </r>
       <r>   14.0738    0.0000 </r>
      </set>
      <set comment="kpoint 39">
       <r>  -30.8662    1.0000 </r>
       <r>  -10.2952    1.0000 </r>
       <r>  -10.2566    1.0000 </r>
       <r>  -10.2413    1.0000 </r>
       <r>  -10.2105    1.0000 </r>
       <r>  -10.2095    1.0000 </r>
       <r>   -6.7367    1.0000 </r>
       <r>   -6.4661    1.0000 </r>
       <r>   -6.4594    1.0000 </r>
       <r>    0.4506    1.0000 </r>
       <r>    6.1153    1.0000 </r>
       <r>    7.1153    1.0000 </r>
       <r>    7.2633    1.0000 </r>
       <r>    7.6825    1.0000 </r>
       <r>    7.7358    1.0000 </r>
       <r>    9.4608    1.0000 </r>
       <r>   10.9764    1.0000 </r>
       <r>   11.1799    1.0000 </r>
       <r>   12.4739    1.0000 </r>
       <r>   13.1107    0.0000 </r>
       <r>   13.1682    0.0000 </r>
       <r>   13.3552    0.0000 </r>
       <r>   13.7458    0.0000 </r>
       <r>   14.0259    0.0000 </r>
      </set>
      <set comment="kpoint 40">
       <r>  -30.8644    1.0000 </r>
       <r>  -10.2833    1.0000 </r>
       <r>  -10.2697    1.0000 </r>
       <r>  -10.2422    1.0000 </r>
       <r>  -10.2119    1.0000 </r>
       <r>  -10.2081    1.0000 </r>
       <r>   -6.7726    1.0000 </r>
       <r>   -6.4799    1.0000 </r>
       <r>   -6.4300    1.0000 </r>
       <r>    0.4814    1.0000 </r>
       <r>    6.4516    1.0000 </r>
       <r>    6.9394    1.0000 </r>
       <r>    7.0770    1.0000 </r>
       <r>    7.7942    1.0000 </r>
       <r>    7.8252    1.0000 </r>
       <r>    9.1495    1.0000 </r>
       <r>   10.6831    1.0000 </r>
       <r>   11.2283    1.0000 </r>
       <r>   12.6269    1.0000 </r>
       <r>   13.0931    0.0004 </r>
       <r>   13.2124    0.0000 </r>
       <r>   13.4423    0.0000 </r>
       <r>   13.7145    0.0000 </r>
       <r>   13.9034    0.0000 </r>
      </set>
      <set comment="kpoint 41">
       <r>  -30.8632    1.0000 </r>
       <r>  -10.2888    1.0000 </r>
       <r>  -10.2767    1.0000 </r>
       <r>  -10.2396    1.0000 </r>
       <r>  -10.2155    1.0000 </r>
       <r>  -10.2079    1.0000 </r>
       <r>   -6.7725    1.0000 </r>
       <r>   -6.5205    1.0000 </r>
       <r>   -6.3859    1.0000 </r>
       <r>    0.5426    1.0000 </r>
       <r>    6.5555    1.0000 </r>
       <r>    6.8508    1.0000 </r>
       <r>    7.0689    1.0000 </r>
       <r>    7.9024    1.0000 </r>
       <r>    7.9063    1.0000 </r>
       <r>    8.8866    1.0000 </r>
       <r>   10.3587    1.0000 </r>
       <r>   11.1632    1.0000 </r>
       <r>   12.6667    1.0000 </r>
       <r>   13.0811    0.0467 </r>
       <r>   13.2680    0.0000 </r>
       <r>   13.5719    0.0000 </r>
       <r>   13.6362    0.0000 </r>
       <r>   13.7958    0.0000 </r>
      </set>
      <set comment="kpoint 42">
       <r>  -30.8630    1.0000 </r>
       <r>  -10.3099    1.0000 </r>
       <r>  -10.2774    1.0000 </r>
       <r>  -10.2333    1.0000 </r>
       <r>  -10.2208    1.0000 </r>
       <r>  -10.2087    1.0000 </r>
       <r>   -6.7407    1.0000 </r>
       <r>   -6.5768    1.0000 </r>
       <r>   -6.3370    1.0000 </r>
       <r>    0.6436    1.0000 </r>
       <r>    6.5880    1.0000 </r>
       <r>    6.6303    1.0000 </r>
       <r>    7.0542    1.0000 </r>
       <r>    7.8658    1.0000 </r>
       <r>    8.0486    1.0000 </r>
       <r>    8.9187    1.0000 </r>
       <r>   10.0767    1.0000 </r>
       <r>   11.0442    1.0000 </r>
       <r>   12.6911    1.0000 </r>
       <r>   13.0281    1.0000 </r>
       <r>   13.3223    0.0000 </r>
       <r>   13.5450    0.0000 </r>
       <r>   13.6730    0.0000 </r>
       <r>   13.7593    0.0000 </r>
      </set>
      <set comment="kpoint 43">
       <r>  -30.8638    1.0000 </r>
       <r>  -10.3281    1.0000 </r>
       <r>  -10.2832    1.0000 </r>
       <r>  -10.2272    1.0000 </r>
       <r>  -10.2255    1.0000 </r>
       <r>  -10.2103    1.0000 </r>
       <r>   -6.7245    1.0000 </r>
       <r>   -6.5953    1.0000 </r>
       <r>   -6.2941    1.0000 </r>
       <r>    0.7689    1.0000 </r>
       <r>    6.4562    1.0000 </r>
       <r>    6.5888    1.0000 </r>
       <r>    6.7836    1.0000 </r>
       <r>    7.8103    1.0000 </r>
       <r>    8.1732    1.0000 </r>
       <r>    9.1664    1.0000 </r>
       <r>    9.9030    1.0000 </r>
       <r>   10.9656    1.0000 </r>
       <r>   12.6788    1.0000 </r>
       <r>   13.0007    1.0000 </r>
       <r>   13.3596    0.0000 </r>
       <r>   13.4664    0.0000 </r>
       <r>   13.6726    0.0000 </r>
       <r>   13.7746    0.0000 </r>
      </set>
      <set comment="kpoint 44">
       <r>  -30.8648    1.0000 </r>
       <r>  -10.2760    1.0000 </r>
       <r>  -10.2495    1.0000 </r>
       <r>  -10.2442    1.0000 </r>
       <r>  -10.2079    1.0000 </r>
       <r>  -10.2079    1.0000 </r>
       <r>   -6.7665    1.0000 </r>
       <r>   -6.4744    1.0000 </r>
       <r>   -6.4744    1.0000 </r>
       <r>    0.3557    1.0000 </r>
       <r>    6.4838    1.0000 </r>
       <r>    7.2293    1.0000 </r>
       <r>    7.2293    1.0000 </r>
       <r>    7.3909    1.0000 </r>
       <r>    7.7597    1.0000 </r>
       <r>    9.2461    1.0000 </r>
       <r>   11.3375    1.0000 </r>
       <r>   11.3375    1.0000 </r>
       <r>   12.5192    1.0000 </r>
       <r>   13.1877    0.0000 </r>
       <r>   13.1877    0.0000 </r>
       <r>   13.2684    0.0000 </r>
       <r>   13.8523    0.0000 </r>
       <r>   14.0866    0.0000 </r>
      </set>
      <set comment="kpoint 45">
       <r>  -30.8634    1.0000 </r>
       <r>  -10.2616    1.0000 </r>
       <r>  -10.2535    1.0000 </r>
       <r>  -10.2455    1.0000 </r>
       <r>  -10.2078    1.0000 </r>
       <r>  -10.2067    1.0000 </r>
       <r>   -6.7924    1.0000 </r>
       <r>   -6.4852    1.0000 </r>
       <r>   -6.4653    1.0000 </r>
       <r>    0.3185    1.0000 </r>
       <r>    6.7774    1.0000 </r>
       <r>    7.1288    1.0000 </r>
       <r>    7.1743    1.0000 </r>
       <r>    7.5216    1.0000 </r>
       <r>    7.7962    1.0000 </r>
       <r>    8.9236    1.0000 </r>
       <r>   11.2364    1.0000 </r>
       <r>   11.4164    1.0000 </r>
       <r>   12.7012    1.0000 </r>
       <r>   13.1280    0.0000 </r>
       <r>   13.2179    0.0000 </r>
       <r>   13.3540    0.0000 </r>
       <r>   13.8791    0.0000 </r>
       <r>   13.8974    0.0000 </r>
      </set>
      <set comment="kpoint 46">
       <r>  -30.8626    1.0000 </r>
       <r>  -10.2674    1.0000 </r>
       <r>  -10.2573    1.0000 </r>
       <r>  -10.2429    1.0000 </r>
       <r>  -10.2109    1.0000 </r>
       <r>  -10.2064    1.0000 </r>
       <r>   -6.7852    1.0000 </r>
       <r>   -6.5209    1.0000 </r>
       <r>   -6.4341    1.0000 </r>
       <r>    0.3534    1.0000 </r>
       <r>    6.6726    1.0000 </r>
       <r>    6.9712    1.0000 </r>
       <r>    7.5178    1.0000 </r>
       <r>    7.7147    1.0000 </r>
       <r>    7.8756    1.0000 </r>
       <r>    8.6040    1.0000 </r>
       <r>   10.8302    1.0000 </r>
       <r>   11.3401    1.0000 </r>
       <r>   12.7713    1.0000 </r>
       <r>   13.0722    0.3392 </r>
       <r>   13.2542    0.0000 </r>
       <r>   13.5215    0.0000 </r>
       <r>   13.7536    0.0000 </r>
       <r>   13.8000    0.0000 </r>
      </set>
      <set comment="kpoint 47">
       <r>  -30.8624    1.0000 </r>
       <r>  -10.2878    1.0000 </r>
       <r>  -10.2639    1.0000 </r>
       <r>  -10.2372    1.0000 </r>
       <r>  -10.2162    1.0000 </r>
       <r>  -10.2072    1.0000 </r>
       <r>   -6.7479    1.0000 </r>
       <r>   -6.5728    1.0000 </r>
       <r>   -6.3879    1.0000 </r>
       <r>    0.4658    1.0000 </r>
       <r>    6.5912    1.0000 </r>
       <r>    6.7925    1.0000 </r>
       <r>    7.5204    1.0000 </r>
       <r>    7.8270    1.0000 </r>
       <r>    7.9755    1.0000 </r>
       <r>    8.6380    1.0000 </r>
       <r>   10.3601    1.0000 </r>
       <r>   11.1735    1.0000 </r>
       <r>   12.7474    1.0000 </r>
       <r>   13.0337    1.0000 </r>
       <r>   13.2895    0.0000 </r>
       <r>   13.6556    0.0000 </r>
       <r>   13.6617    0.0000 </r>
       <r>   13.7034    0.0000 </r>
      </set>
      <set comment="kpoint 48">
       <r>  -30.8627    1.0000 </r>
       <r>  -10.2480    1.0000 </r>
       <r>  -10.2473    1.0000 </r>
       <r>  -10.2473    1.0000 </r>
       <r>  -10.2058    1.0000 </r>
       <r>  -10.2058    1.0000 </r>
       <r>   -6.8182    1.0000 </r>
       <r>   -6.4787    1.0000 </r>
       <r>   -6.4787    1.0000 </r>
       <r>    0.2365    1.0000 </r>
       <r>    7.0749    1.0000 </r>
       <r>    7.1355    1.0000 </r>
       <r>    7.1355    1.0000 </r>
       <r>    7.6147    1.0000 </r>
       <r>    7.7886    1.0000 </r>
       <r>    8.5690    1.0000 </r>
       <r>   11.5562    1.0000 </r>
       <r>   11.5562    1.0000 </r>
       <r>   12.7787    1.0000 </r>
       <r>   13.2298    0.0000 </r>
       <r>   13.2298    0.0000 </r>
       <r>   13.2664    0.0000 </r>
       <r>   13.7652    0.0000 </r>
       <r>   13.9684    0.0000 </r>
      </set>
      <set comment="kpoint 49">
       <r>  -30.8624    1.0000 </r>
       <r>  -10.2524    1.0000 </r>
       <r>  -10.2480    1.0000 </r>
       <r>  -10.2448    1.0000 </r>
       <r>  -10.2069    1.0000 </r>
       <r>  -10.2056    1.0000 </r>
       <r>   -6.8152    1.0000 </r>
       <r>   -6.4920    1.0000 </r>
       <r>   -6.4675    1.0000 </r>
       <r>    0.2476    1.0000 </r>
       <r>    6.8551    1.0000 </r>
       <r>    7.0774    1.0000 </r>
       <r>    7.4091    1.0000 </r>
       <r>    7.8191    1.0000 </r>
       <r>    7.8693    1.0000 </r>
       <r>    8.3124    1.0000 </r>
       <r>   11.3589    1.0000 </r>
       <r>   11.5206    1.0000 </r>
       <r>   12.8275    1.0000 </r>
       <r>   13.1321    0.0000 </r>
       <r>   13.2427    0.0000 </r>
       <r>   13.4179    0.0000 </r>
       <r>   13.6898    0.0000 </r>
       <r>   13.9754    0.0000 </r>
      </set>
      <set comment="kpoint 50">
       <r>  -30.8766    1.0000 </r>
       <r>  -10.3079    1.0000 </r>
       <r>  -10.2711    1.0000 </r>
       <r>  -10.2265    1.0000 </r>
       <r>  -10.2180    1.0000 </r>
       <r>  -10.2179    1.0000 </r>
       <r>   -6.5955    1.0000 </r>
       <r>   -6.4571    1.0000 </r>
       <r>   -6.3811    1.0000 </r>
       <r>   -0.0380    1.0000 </r>
       <r>    6.2753    1.0000 </r>
       <r>    7.0617    1.0000 </r>
       <r>    7.5823    1.0000 </r>
       <r>    7.6730    1.0000 </r>
       <r>    8.1976    1.0000 </r>
       <r>   10.1096    1.0000 </r>
       <r>   10.7560    1.0000 </r>
       <r>   11.2246    1.0000 </r>
       <r>   12.2940    1.0000 </r>
       <r>   12.9387    1.0000 </r>
       <r>   13.0414    1.0000 </r>
       <r>   13.3894    0.0000 </r>
       <r>   13.4974    0.0000 </r>
       <r>   13.7629    0.0000 </r>
      </set>
      <set comment="kpoint 51">
       <r>  -30.8733    1.0000 </r>
       <r>  -10.3226    1.0000 </r>
       <r>  -10.2805    1.0000 </r>
       <r>  -10.2301    1.0000 </r>
       <r>  -10.2170    1.0000 </r>
       <r>  -10.2160    1.0000 </r>
       <r>   -6.6875    1.0000 </r>
       <r>   -6.4478    1.0000 </r>
       <r>   -6.3363    1.0000 </r>
       <r>    0.3269    1.0000 </r>
       <r>    6.0376    1.0000 </r>
       <r>    6.7871    1.0000 </r>
       <r>    7.3751    1.0000 </r>
       <r>    7.7280    1.0000 </r>
       <r>    8.2691    1.0000 </r>
       <r>    9.6440    1.0000 </r>
       <r>   10.5897    1.0000 </r>
       <r>   11.1639    1.0000 </r>
       <r>   12.3256    1.0000 </r>
       <r>   12.9998    1.0000 </r>
       <r>   13.0730    0.2974 </r>
       <r>   13.5055    0.0000 </r>
       <r>   13.5258    0.0000 </r>
       <r>   13.8217    0.0000 </r>
      </set>
      <set comment="kpoint 52">
       <r>  -30.8699    1.0000 </r>
       <r>  -10.3333    1.0000 </r>
       <r>  -10.2948    1.0000 </r>
       <r>  -10.2348    1.0000 </r>
       <r>  -10.2162    1.0000 </r>
       <r>  -10.2140    1.0000 </r>
       <r>   -6.7808    1.0000 </r>
       <r>   -6.4156    1.0000 </r>
       <r>   -6.3011    1.0000 </r>
       <r>    0.6821    1.0000 </r>
       <r>    5.9233    1.0000 </r>
       <r>    6.5873    1.0000 </r>
       <r>    7.1677    1.0000 </r>
       <r>    7.6890    1.0000 </r>
       <r>    8.2207    1.0000 </r>
       <r>    9.1355    1.0000 </r>
       <r>   10.6500    1.0000 </r>
       <r>   11.1458    1.0000 </r>
       <r>   12.3468    1.0000 </r>
       <r>   13.0841    0.0184 </r>
[...]
       <r>   12.7331    1.0000 </r>
       <r>   13.0651    0.7236 </r>
       <r>   13.4093    0.0000 </r>
       <r>   13.4811    0.0000 </r>
       <r>   13.6753    0.0000 </r>
       <r>   13.7704    0.0000 </r>
      </set>
      <set comment="kpoint 81">
       <r>  -30.8633    1.0000 </r>
       <r>  -10.3171    1.0000 </r>
       <r>  -10.2707    1.0000 </r>
       <r>  -10.2330    1.0000 </r>
       <r>  -10.2234    1.0000 </r>
       <r>  -10.2073    1.0000 </r>
       <r>   -6.7226    1.0000 </r>
       <r>   -6.5792    1.0000 </r>
       <r>   -6.3486    1.0000 </r>
       <r>    0.6491    1.0000 </r>
       <r>    6.3487    1.0000 </r>
       <r>    6.9343    1.0000 </r>
       <r>    6.9920    1.0000 </r>
       <r>    7.7743    1.0000 </r>
       <r>    8.1490    1.0000 </r>
       <r>    9.1669    1.0000 </r>
       <r>    9.5507    1.0000 </r>
       <r>   11.3308    1.0000 </r>
       <r>   12.7114    1.0000 </r>
       <r>   13.0424    0.9999 </r>
       <r>   13.3925    0.0000 </r>
       <r>   13.4710    0.0000 </r>
       <r>   13.6326    0.0000 </r>
       <r>   13.8030    0.0000 </r>
      </set>
      <set comment="kpoint 82">
       <r>  -30.8624    1.0000 </r>
       <r>  -10.2890    1.0000 </r>
       <r>  -10.2492    1.0000 </r>
       <r>  -10.2417    1.0000 </r>
       <r>  -10.2174    1.0000 </r>
       <r>  -10.2048    1.0000 </r>
       <r>   -6.7527    1.0000 </r>
       <r>   -6.5376    1.0000 </r>
       <r>   -6.4321    1.0000 </r>
       <r>    0.4195    1.0000 </r>
       <r>    6.4477    1.0000 </r>
       <r>    7.1402    1.0000 </r>
       <r>    7.5613    1.0000 </r>
       <r>    7.6447    1.0000 </r>
       <r>    8.0690    1.0000 </r>
       <r>    8.6571    1.0000 </r>
       <r>    9.9917    1.0000 </r>
       <r>   11.6065    1.0000 </r>
       <r>   12.8034    1.0000 </r>
       <r>   13.0667    0.6403 </r>
       <r>   13.3128    0.0000 </r>
       <r>   13.6068    0.0000 </r>
       <r>   13.6647    0.0000 </r>
       <r>   13.7590    0.0000 </r>
      </set>
      <set comment="kpoint 83">
       <r>  -30.8622    1.0000 </r>
       <r>  -10.3009    1.0000 </r>
       <r>  -10.2504    1.0000 </r>
       <r>  -10.2366    1.0000 </r>
       <r>  -10.2231    1.0000 </r>
       <r>  -10.2046    1.0000 </r>
       <r>   -6.7197    1.0000 </r>
       <r>   -6.5749    1.0000 </r>
       <r>   -6.4141    1.0000 </r>
       <r>    0.4740    1.0000 </r>
       <r>    6.3698    1.0000 </r>
       <r>    7.0921    1.0000 </r>
       <r>    7.6487    1.0000 </r>
       <r>    7.6941    1.0000 </r>
       <r>    8.1625    1.0000 </r>
       <r>    8.6852    1.0000 </r>
       <r>    9.5733    1.0000 </r>
       <r>   11.5829    1.0000 </r>
       <r>   12.7867    1.0000 </r>
       <r>   13.0784    0.0983 </r>
       <r>   13.3641    0.0000 </r>
       <r>   13.5721    0.0000 </r>
       <r>   13.6897    0.0000 </r>
       <r>   13.7295    0.0000 </r>
      </set>
      <set comment="kpoint 84">
       <r>  -30.8622    1.0000 </r>
       <r>  -10.3075    1.0000 </r>
       <r>  -10.2501    1.0000 </r>
       <r>  -10.2345    1.0000 </r>
       <r>  -10.2269    1.0000 </r>
       <r>  -10.2044    1.0000 </r>
       <r>   -6.7009    1.0000 </r>
       <r>   -6.5882    1.0000 </r>
       <r>   -6.4100    1.0000 </r>
       <r>    0.5076    1.0000 </r>
       <r>    6.3226    1.0000 </r>
       <r>    7.1255    1.0000 </r>
       <r>    7.5811    1.0000 </r>
       <r>    7.6822    1.0000 </r>
       <r>    8.2215    1.0000 </r>
       <r>    8.9221    1.0000 </r>
       <r>    9.2019    1.0000 </r>
       <r>   11.6064    1.0000 </r>
       <r>   12.7765    1.0000 </r>
       <r>   13.0979    0.0000 </r>
       <r>   13.4236    0.0000 </r>
       <r>   13.4939    0.0000 </r>
       <r>   13.6773    0.0000 </r>
       <r>   13.7733    0.0000 </r>
      </set>
     </set>
    </set>
   </array>
  </eigenvalues>
  <separator name="orbital magnetization" >
   <v name="MAGDIPOLOUT">      0.00000000      0.00000000      0.00000000</v>
  </separator>
  <dos>
   <i name="efermi">     13.06928716 </i>
   <total>
    <array>
     <dimension dim="1">gridpoints</dimension>
     <dimension dim="2">spin</dimension>
     <field>energy</field>
     <field>total</field>
     <field>integrated</field>
     <set>
      <set comment="spin 1">
       <r>   -33.1305     0.0000     0.0000 </r>
       <r>   -32.9656     0.0000     0.0000 </r>
       <r>   -32.8007     0.0000     0.0000 </r>
       <r>   -32.6358     0.0000     0.0000 </r>
       <r>   -32.4709     0.0000     0.0000 </r>
       <r>   -32.3061     0.0000     0.0000 </r>
       <r>   -32.1412     0.0000     0.0000 </r>
       <r>   -31.9763     0.0000     0.0000 </r>
       <r>   -31.8114     0.0000     0.0000 </r>
       <r>   -31.6465     0.0000     0.0000 </r>
       <r>   -31.4816     0.0000     0.0000 </r>
       <r>   -31.3168     0.0000     0.0000 </r>
       <r>   -31.1519     0.0000     0.0000 </r>
       <r>   -30.9870     0.0000     0.0000 </r>
       <r>   -30.8221    12.1296     2.0000 </r>
       <r>   -30.6572     0.0000     2.0000 </r>
       <r>   -30.4923     0.0000     2.0000 </r>
       <r>   -30.3274     0.0000     2.0000 </r>
       <r>   -30.1626     0.0000     2.0000 </r>
       <r>   -29.9977     0.0000     2.0000 </r>
       <r>   -29.8328     0.0000     2.0000 </r>
       <r>   -29.6679     0.0000     2.0000 </r>
       <r>   -29.5030     0.0000     2.0000 </r>
       <r>   -29.3381     0.0000     2.0000 </r>
       <r>   -29.1732     0.0000     2.0000 </r>
       <r>   -29.0084     0.0000     2.0000 </r>
       <r>   -28.8435     0.0000     2.0000 </r>
       <r>   -28.6786     0.0000     2.0000 </r>
       <r>   -28.5137     0.0000     2.0000 </r>
       <r>   -28.3488     0.0000     2.0000 </r>
       <r>   -28.1839     0.0000     2.0000 </r>
       <r>   -28.0190     0.0000     2.0000 </r>
       <r>   -27.8542     0.0000     2.0000 </r>
       <r>   -27.6893     0.0000     2.0000 </r>
       <r>   -27.5244     0.0000     2.0000 </r>
       <r>   -27.3595     0.0000     2.0000 </r>
       <r>   -27.1946     0.0000     2.0000 </r>
       <r>   -27.0297     0.0000     2.0000 </r>
       <r>   -26.8649     0.0000     2.0000 </r>
       <r>   -26.7000     0.0000     2.0000 </r>
       <r>   -26.5351     0.0000     2.0000 </r>
       <r>   -26.3702     0.0000     2.0000 </r>
       <r>   -26.2053     0.0000     2.0000 </r>
       <r>   -26.0404     0.0000     2.0000 </r>
       <r>   -25.8755     0.0000     2.0000 </r>
       <r>   -25.7107     0.0000     2.0000 </r>
       <r>   -25.5458     0.0000     2.0000 </r>
       <r>   -25.3809     0.0000     2.0000 </r>
       <r>   -25.2160     0.0000     2.0000 </r>
       <r>   -25.0511     0.0000     2.0000 </r>
       <r>   -24.8862     0.0000     2.0000 </r>
       <r>   -24.7213     0.0000     2.0000 </r>
       <r>   -24.5565     0.0000     2.0000 </r>
       <r>   -24.3916     0.0000     2.0000 </r>
       <r>   -24.2267     0.0000     2.0000 </r>
       <r>   -24.0618     0.0000     2.0000 </r>
       <r>   -23.8969     0.0000     2.0000 </r>
       <r>   -23.7320     0.0000     2.0000 </r>
       <r>   -23.5671     0.0000     2.0000 </r>
       <r>   -23.4023     0.0000     2.0000 </r>
       <r>   -23.2374     0.0000     2.0000 </r>
       <r>   -23.0725     0.0000     2.0000 </r>
       <r>   -22.9076     0.0000     2.0000 </r>
       <r>   -22.7427     0.0000     2.0000 </r>
       <r>   -22.5778     0.0000     2.0000 </r>
       <r>   -22.4130     0.0000     2.0000 </r>
       <r>   -22.2481     0.0000     2.0000 </r>
       <r>   -22.0832     0.0000     2.0000 </r>
       <r>   -21.9183     0.0000     2.0000 </r>
       <r>   -21.7534     0.0000     2.0000 </r>
       <r>   -21.5885     0.0000     2.0000 </r>
       <r>   -21.4236     0.0000     2.0000 </r>
       <r>   -21.2588     0.0000     2.0000 </r>
       <r>   -21.0939     0.0000     2.0000 </r>
       <r>   -20.9290     0.0000     2.0000 </r>
       <r>   -20.7641     0.0000     2.0000 </r>
       <r>   -20.5992     0.0000     2.0000 </r>
       <r>   -20.4343     0.0000     2.0000 </r>
       <r>   -20.2694     0.0000     2.0000 </r>
       <r>   -20.1046     0.0000     2.0000 </r>
       <r>   -19.9397     0.0000     2.0000 </r>
       <r>   -19.7748     0.0000     2.0000 </r>
       <r>   -19.6099     0.0000     2.0000 </r>
       <r>   -19.4450     0.0000     2.0000 </r>
       <r>   -19.2801     0.0000     2.0000 </r>
       <r>   -19.1152     0.0000     2.0000 </r>
       <r>   -18.9504     0.0000     2.0000 </r>
       <r>   -18.7855     0.0000     2.0000 </r>
       <r>   -18.6206     0.0000     2.0000 </r>
       <r>   -18.4557     0.0000     2.0000 </r>
       <r>   -18.2908     0.0000     2.0000 </r>
       <r>   -18.1259     0.0000     2.0000 </r>
       <r>   -17.9610     0.0000     2.0000 </r>
       <r>   -17.7962     0.0000     2.0000 </r>
       <r>   -17.6313     0.0000     2.0000 </r>
       <r>   -17.4664     0.0000     2.0000 </r>
       <r>   -17.3015     0.0000     2.0000 </r>
       <r>   -17.1366     0.0000     2.0000 </r>
       <r>   -16.9717     0.0000     2.0000 </r>
       <r>   -16.8069     0.0000     2.0000 </r>
       <r>   -16.6420     0.0000     2.0000 </r>
       <r>   -16.4771     0.0000     2.0000 </r>
       <r>   -16.3122     0.0000     2.0000 </r>
       <r>   -16.1473     0.0000     2.0000 </r>
       <r>   -15.9824     0.0000     2.0000 </r>
       <r>   -15.8175     0.0000     2.0000 </r>
       <r>   -15.6527     0.0000     2.0000 </r>
       <r>   -15.4878     0.0000     2.0000 </r>
       <r>   -15.3229     0.0000     2.0000 </r>
       <r>   -15.1580     0.0000     2.0000 </r>
       <r>   -14.9931     0.0000     2.0000 </r>
       <r>   -14.8282     0.0000     2.0000 </r>
       <r>   -14.6633     0.0000     2.0000 </r>
       <r>   -14.4985     0.0000     2.0000 </r>
       <r>   -14.3336     0.0000     2.0000 </r>
       <r>   -14.1687     0.0000     2.0000 </r>
       <r>   -14.0038     0.0000     2.0000 </r>
       <r>   -13.8389     0.0000     2.0000 </r>
       <r>   -13.6740     0.0000     2.0000 </r>
       <r>   -13.5091     0.0000     2.0000 </r>
       <r>   -13.3443     0.0000     2.0000 </r>
       <r>   -13.1794     0.0000     2.0000 </r>
       <r>   -13.0145     0.0000     2.0000 </r>
       <r>   -12.8496     0.0000     2.0000 </r>
       <r>   -12.6847     0.0000     2.0000 </r>
       <r>   -12.5198     0.0000     2.0000 </r>
       <r>   -12.3550     0.0000     2.0000 </r>
       <r>   -12.1901     0.0000     2.0000 </r>
       <r>   -12.0252     0.0000     2.0000 </r>
       <r>   -11.8603     0.0000     2.0000 </r>
       <r>   -11.6954     0.0000     2.0000 </r>
       <r>   -11.5305     0.0000     2.0000 </r>
       <r>   -11.3656     0.0000     2.0000 </r>
       <r>   -11.2008     0.0000     2.0000 </r>
       <r>   -11.0359     0.0000     2.0000 </r>
       <r>   -10.8710     0.0000     2.0000 </r>
       <r>   -10.7061     0.0000     2.0000 </r>
       <r>   -10.5412     0.0000     2.0000 </r>
       <r>   -10.3763     0.0000     2.0000 </r>
       <r>   -10.2114    36.9148    10.4445 </r>
       <r>   -10.0466     0.0000    12.0000 </r>
       <r>    -9.8817     0.0000    12.0000 </r>
       <r>    -9.7168     0.0000    12.0000 </r>
       <r>    -9.5519     0.0000    12.0000 </r>
       <r>    -9.3870     0.0000    12.0000 </r>
       <r>    -9.2221     0.0000    12.0000 </r>
       <r>    -9.0572     0.0000    12.0000 </r>
       <r>    -8.8924     0.0000    12.0000 </r>
       <r>    -8.7275     0.0000    12.0000 </r>
       <r>    -8.5626     0.0000    12.0000 </r>
       <r>    -8.3977     0.0000    12.0000 </r>
       <r>    -8.2328     0.0000    12.0000 </r>
       <r>    -8.0679     0.0000    12.0000 </r>
       <r>    -7.9030     0.0000    12.0000 </r>
       <r>    -7.7382     0.0000    12.0000 </r>
       <r>    -7.5733     0.0000    12.0000 </r>
       <r>    -7.4084     0.0000    12.0000 </r>
       <r>    -7.2435     0.0000    12.0000 </r>
       <r>    -7.0786     0.0000    12.0000 </r>
       <r>    -6.9137     0.1713    12.0282 </r>
       <r>    -6.7489     5.3420    13.2449 </r>
       <r>    -6.5840     1.1717    14.0193 </r>
       <r>    -6.4191     7.4731    15.8849 </r>
       <r>    -6.2542     5.9548    17.9878 </r>
       <r>    -6.0893     0.0000    18.0000 </r>
       <r>    -5.9244     0.0000    18.0000 </r>
       <r>    -5.7595     0.0000    18.0000 </r>
       <r>    -5.5947     0.0000    18.0000 </r>
       <r>    -5.4298     0.0000    18.0000 </r>
       <r>    -5.2649     0.0000    18.0000 </r>
       <r>    -5.1000     0.0000    18.0000 </r>
       <r>    -4.9351     0.0000    18.0000 </r>
       <r>    -4.7702     0.0000    18.0000 </r>
       <r>    -4.6053     0.0000    18.0000 </r>
       <r>    -4.4405     0.0000    18.0000 </r>
       <r>    -4.2756     0.0000    18.0000 </r>
       <r>    -4.1107     0.0000    18.0000 </r>
       <r>    -3.9458     0.0000    18.0000 </r>
       <r>    -3.7809     0.0000    18.0000 </r>
       <r>    -3.6160     0.0000    18.0000 </r>
       <r>    -3.4511     0.0000    18.0000 </r>
       <r>    -3.2863     0.0000    18.0000 </r>
       <r>    -3.1214     0.0000    18.0000 </r>
       <r>    -2.9565     0.0000    18.0000 </r>
       <r>    -2.7916     0.0000    18.0000 </r>
       <r>    -2.6267     0.0000    18.0000 </r>
       <r>    -2.4618     0.0000    18.0000 </r>
       <r>    -2.2970     0.0000    18.0000 </r>
       <r>    -2.1321     0.0000    18.0000 </r>
       <r>    -1.9672     0.0000    18.0000 </r>
       <r>    -1.8023     0.0000    18.0000 </r>
       <r>    -1.6374     0.0000    18.0000 </r>
       <r>    -1.4725     0.0000    18.0000 </r>
       <r>    -1.3076     0.0000    18.0000 </r>
       <r>    -1.1428     0.0000    18.0000 </r>
       <r>    -0.9779     0.0000    18.0000 </r>
       <r>    -0.8130     0.0000    18.0000 </r>
       <r>    -0.6481     0.0055    18.0009 </r>
       <r>    -0.4832     0.0331    18.0137 </r>
       <r>    -0.3183     0.0179    18.0275 </r>
       <r>    -0.1534     0.0312    18.0589 </r>
       <r>     0.0114     0.2650    18.1029 </r>
       <r>     0.1763     0.1455    18.1487 </r>
       <r>     0.3412     0.6160    18.2773 </r>
       <r>     0.5061     1.1244    18.6396 </r>
       <r>     0.6710     1.0004    19.0944 </r>
       <r>     0.8359     1.3298    19.5493 </r>
       <r>     1.0008     0.3994    19.8328 </r>
       <r>     1.1656     0.1325    19.9709 </r>
       <r>     1.3305     0.0000    20.0000 </r>
       <r>     1.4954     0.0000    20.0000 </r>
       <r>     1.6603     0.0000    20.0000 </r>
       <r>     1.8252     0.0000    20.0000 </r>
       <r>     1.9901     0.0000    20.0000 </r>
       <r>     2.1549     0.0000    20.0000 </r>
       <r>     2.3198     0.0000    20.0000 </r>
       <r>     2.4847     0.0000    20.0000 </r>
       <r>     2.6496     0.0000    20.0000 </r>
       <r>     2.8145     0.0000    20.0000 </r>
       <r>     2.9794     0.0000    20.0000 </r>
       <r>     3.1443     0.0000    20.0000 </r>
       <r>     3.3091     0.0000    20.0000 </r>
       <r>     3.4740     0.0000    20.0000 </r>
       <r>     3.6389     0.0000    20.0000 </r>
       <r>     3.8038     0.0000    20.0000 </r>
       <r>     3.9687     0.0000    20.0000 </r>
       <r>     4.1336     0.0000    20.0000 </r>
       <r>     4.2985     0.0000    20.0000 </r>
       <r>     4.4633     0.0000    20.0000 </r>
       <r>     4.6282     0.0000    20.0000 </r>
       <r>     4.7931     0.0000    20.0000 </r>
       <r>     4.9580     0.0000    20.0000 </r>
       <r>     5.1229     0.0000    20.0000 </r>
       <r>     5.2878     0.0000    20.0000 </r>
       <r>     5.4527     0.0000    20.0000 </r>
       <r>     5.6175     0.0000    20.0000 </r>
       <r>     5.7824     0.2254    20.0372 </r>
       <r>     5.9473     0.9773    20.3978 </r>
       <r>     6.1122     0.9052    20.7865 </r>
       <r>     6.2771     0.9021    21.0664 </r>
       <r>     6.4420     1.9586    21.6174 </r>
       <r>     6.6069     2.5477    22.4410 </r>
       <r>     6.7717     1.7546    23.0749 </r>
       <r>     6.9366     1.8388    23.9081 </r>
       <r>     7.1015     2.4595    24.6968 </r>
       <r>     7.2664     1.3995    25.3650 </r>
       <r>     7.4313     1.3732    25.7576 </r>
       <r>     7.5962     1.0130    25.9950 </r>
       <r>     7.7610     5.5510    27.3686 </r>
       <r>     7.9259     2.2330    28.3909 </r>
       <r>     8.0908     2.9401    29.1011 </r>
       <r>     8.2557     1.4137    29.8617 </r>
       <r>     8.4206     0.2830    30.0540 </r>
       <r>     8.5855     0.5900    30.2029 </r>
       <r>     8.7504     1.1870    30.4779 </r>
       <r>     8.9152     1.0604    30.7411 </r>
       <r>     9.0801     0.7540    31.1129 </r>
       <r>     9.2450     0.7434    31.4171 </r>
       <r>     9.4099     0.3987    31.5732 </r>
       <r>     9.5748     0.8794    31.8018 </r>
       <r>     9.7397     0.4303    31.9681 </r>
       <r>     9.9046     0.5729    32.1172 </r>
       <r>    10.0694     0.8336    32.3678 </r>
       <r>    10.2343     0.6997    32.6097 </r>
       <r>    10.3992     1.2292    32.8718 </r>
       <r>    10.5641     0.3289    33.1221 </r>
       <r>    10.7290     0.8757    33.3542 </r>
       <r>    10.8939     0.9235    33.6461 </r>
       <r>    11.0588     1.4587    33.9656 </r>
       <r>    11.2236     3.9110    35.1128 </r>
       <r>    11.3885     1.1984    35.6705 </r>
       <r>    11.5534     0.3195    35.9043 </r>
       <r>    11.7183     0.0000    36.0000 </r>
       <r>    11.8832     0.0000    36.0000 </r>
       <r>    12.0481     0.0000    36.0009 </r>
       <r>    12.2129     0.1994    36.0556 </r>
       <r>    12.3778     1.5332    36.5195 </r>
       <r>    12.5427     1.7538    37.0766 </r>
       <r>    12.7076     1.5375    37.6254 </r>
       <r>    12.8725     0.5514    38.0145 </r>
       <r>    13.0374     2.1350    38.4986 </r>
       <r>    13.2023     3.6677    40.6230 </r>
       <r>    13.3671     3.7905    41.9450 </r>
       <r>    13.5320     8.8334    43.8762 </r>
       <r>    13.6969     6.9613    45.8779 </r>
       <r>    13.8618     4.7684    47.6301 </r>
       <r>    14.0267     0.5688    47.9791 </r>
       <r>    14.1916     0.0000    48.0000 </r>
       <r>    14.3565     0.0000    48.0000 </r>
       <r>    14.5213     0.0000    48.0000 </r>
       <r>    14.6862     0.0000    48.0000 </r>
       <r>    14.8511     0.0000    48.0000 </r>
       <r>    15.0160     0.0000    48.0000 </r>
       <r>    15.1809     0.0000    48.0000 </r>
       <r>    15.3458     0.0000    48.0000 </r>
       <r>    15.5107     0.0000    48.0000 </r>
       <r>    15.6755     0.0000    48.0000 </r>
       <r>    15.8404     0.0000    48.0000 </r>
       <r>    16.0053     0.0000    48.0000 </r>
       <r>    16.1702     0.0000    48.0000 </r>
       <r>    16.3351     0.0000    48.0000 </r>
      </set>
     </set>
    </array>
   </total>
  </dos>
 </calculation>
 <structure name="finalpos" >
  <crystal>
   <varray name="basis" >
    <v>       0.00000000       3.10527934       3.10527934 </v>
    <v>       3.10527934       0.00000000       3.10527934 </v>
    <v>       3.10527934       3.10527934       0.00000000 </v>
   </varray>
   <i name="volume">     59.88692534 </i>
   <varray name="rec_basis" >
    <v>      -0.16101611       0.16101611       0.16101611 </v>
    <v>       0.16101611      -0.16101611       0.16101611 </v>
    <v>       0.16101611       0.16101611      -0.16101611 </v>
   </varray>
  </crystal>
  <varray name="positions" >
   <v>       0.25000000       0.25000000       0.25000000 </v>
   <v>       0.75000000       0.75000000       0.75000000 </v>
   <v>       0.00000000       0.00000000       0.00000000 </v>
  </varray>
 </structure>
</modeling>
