   2   2   0   0
  0.2827041E+02  0.4308165E-09  0.4308165E-09  0.4308165E-09  0.0000000E+00
  1.000000000000000E-004
  CAR 
 unknown system                          
     11.83762670     -9.53923459  301      2.22694614      1.00000000
     -9.539  0.0000E+00  0.0000E+00
     -9.468  0.0000E+00  0.0000E+00
     -9.397  0.0000E+00  0.0000E+00
     -9.325  0.0000E+00  0.0000E+00
     -9.254  0.0000E+00  0.0000E+00
     -9.183  0.0000E+00  0.0000E+00
     -9.112  0.0000E+00  0.0000E+00
     -9.040  0.0000E+00  0.0000E+00
     -8.969  0.0000E+00  0.0000E+00
     -8.898  0.0000E+00  0.0000E+00
     -8.827  0.0000E+00  0.0000E+00
     -8.755  0.0000E+00  0.0000E+00
     -8.684  0.0000E+00  0.0000E+00
     -8.613  0.0000E+00  0.0000E+00
     -8.542  0.1205E+00  0.1467E-02
     -8.470  0.2535E+00  0.1520E-01
     -8.399  0.3567E+00  0.3731E-01
     -8.328  0.4499E+00  0.6594E-01
     -8.257  0.5295E+00  0.1007E+00
     -8.185  0.6179E+00  0.1417E+00
     -8.114  0.7082E+00  0.1888E+00
     -8.043  0.8085E+00  0.2428E+00
     -7.972  0.9209E+00  0.3044E+00
     -7.900  0.1052E+01  0.3744E+00
     -7.829  0.1216E+01  0.4551E+00
     -7.758  0.1421E+01  0.5485E+00
     -7.687  0.1733E+01  0.6603E+00
     -7.615  0.2300E+01  0.8004E+00
     -7.544  0.2757E+01  0.9940E+00
     -7.473  0.2868E+01  0.1194E+01
     -7.402  0.2977E+01  0.1401E+01
     -7.330  0.3199E+01  0.1619E+01
     -7.259  0.4183E+01  0.1872E+01
     -7.188  0.0000E+00  0.2000E+01
     -7.117  0.0000E+00  0.2000E+01
     -7.045  0.0000E+00  0.2000E+01
     -6.974  0.0000E+00  0.2000E+01
     -6.903  0.0000E+00  0.2000E+01
     -6.831  0.0000E+00  0.2000E+01
     -6.760  0.0000E+00  0.2000E+01
     -6.689  0.0000E+00  0.2000E+01
     -6.618  0.0000E+00  0.2000E+01
     -6.546  0.0000E+00  0.2000E+01
     -6.475  0.0000E+00  0.2000E+01
     -6.404  0.0000E+00  0.2000E+01
     -6.333  0.0000E+00  0.2000E+01
     -6.261  0.0000E+00  0.2000E+01
     -6.190  0.0000E+00  0.2000E+01
     -6.119  0.0000E+00  0.2000E+01
     -6.048  0.0000E+00  0.2000E+01
     -5.976  0.0000E+00  0.2000E+01
     -5.905  0.0000E+00  0.2000E+01
     -5.834  0.0000E+00  0.2000E+01
     -5.763  0.0000E+00  0.2000E+01
     -5.691  0.0000E+00  0.2000E+01
     -5.620  0.0000E+00  0.2000E+01
     -5.549  0.0000E+00  0.2000E+01
     -5.478  0.0000E+00  0.2000E+01
     -5.406  0.0000E+00  0.2000E+01
     -5.335  0.0000E+00  0.2000E+01
     -5.264  0.0000E+00  0.2000E+01
     -5.193  0.0000E+00  0.2000E+01
     -5.121  0.0000E+00  0.2000E+01
     -5.050  0.0000E+00  0.2000E+01
     -4.979  0.0000E+00  0.2000E+01
     -4.908  0.0000E+00  0.2000E+01
     -4.836  0.0000E+00  0.2000E+01
     -4.765  0.0000E+00  0.2000E+01
     -4.694  0.0000E+00  0.2000E+01
     -4.623  0.0000E+00  0.2000E+01
     -4.551  0.0000E+00  0.2000E+01
     -4.480  0.0000E+00  0.2000E+01
     -4.409  0.0000E+00  0.2000E+01
     -4.338  0.0000E+00  0.2000E+01
     -4.266  0.0000E+00  0.2000E+01
     -4.195  0.0000E+00  0.2000E+01
     -4.124  0.0000E+00  0.2000E+01
     -4.053  0.0000E+00  0.2000E+01
     -3.981  0.0000E+00  0.2000E+01
     -3.910  0.0000E+00  0.2000E+01
     -3.839  0.0000E+00  0.2000E+01
     -3.767  0.0000E+00  0.2000E+01
     -3.696  0.0000E+00  0.2000E+01
     -3.625  0.0000E+00  0.2000E+01
     -3.554  0.0000E+00  0.2000E+01
     -3.482  0.0000E+00  0.2000E+01
     -3.411  0.0000E+00  0.2000E+01
     -3.340  0.0000E+00  0.2000E+01
     -3.269  0.0000E+00  0.2000E+01
     -3.197  0.0000E+00  0.2000E+01
     -3.126  0.0000E+00  0.2000E+01
     -3.055  0.0000E+00  0.2000E+01
     -2.984  0.0000E+00  0.2000E+01
     -2.912  0.0000E+00  0.2000E+01
     -2.841  0.0000E+00  0.2000E+01
     -2.770  0.0000E+00  0.2000E+01
     -2.699  0.0000E+00  0.2000E+01
     -2.627  0.0000E+00  0.2000E+01
     -2.556  0.0000E+00  0.2000E+01
     -2.485  0.8515E+00  0.2021E+01
     -2.414  0.2130E+01  0.2125E+01
     -2.342  0.5837E+01  0.2365E+01
     -2.271  0.3307E+01  0.2756E+01
     -2.200  0.2026E+01  0.2939E+01
     -2.129  0.1549E+01  0.3065E+01
     -2.057  0.1220E+01  0.3162E+01
     -1.986  0.1046E+01  0.3243E+01
     -1.915  0.8835E+00  0.3311E+01
     -1.844  0.7755E+00  0.3370E+01
     -1.772  0.6985E+00  0.3422E+01
     -1.701  0.6229E+00  0.3469E+01
     -1.630  0.5492E+00  0.3511E+01
     -1.559  0.5079E+00  0.3549E+01
     -1.487  0.4687E+00  0.3584E+01
     -1.416  0.4309E+00  0.3616E+01
     -1.345  0.3895E+00  0.3645E+01
     -1.274  0.3559E+00  0.3671E+01
     -1.202  0.3347E+00  0.3696E+01
     -1.131  0.3134E+00  0.3719E+01
     -1.060  0.2904E+00  0.3740E+01
     -0.988  0.2681E+00  0.3760E+01
     -0.917  0.2434E+00  0.3779E+01
     -0.846  0.2292E+00  0.3795E+01
     -0.775  0.2162E+00  0.3811E+01
     -0.703  0.2032E+00  0.3826E+01
     -0.632  0.1901E+00  0.3840E+01
     -0.561  0.1751E+00  0.3853E+01
     -0.490  0.1790E+00  0.3865E+01
     -0.418  0.8235E+00  0.3904E+01
     -0.347  0.1428E+01  0.3981E+01
     -0.276  0.1854E+01  0.4109E+01
     -0.205  0.1573E+01  0.4235E+01
     -0.133  0.1512E+01  0.4344E+01
     -0.062  0.1454E+01  0.4449E+01
      0.009  0.1353E+01  0.4549E+01
      0.080  0.1342E+01  0.4644E+01
      0.152  0.1410E+01  0.4742E+01
      0.223  0.1528E+01  0.4848E+01
      0.294  0.1553E+01  0.4957E+01
      0.365  0.1679E+01  0.5074E+01
      0.437  0.1904E+01  0.5202E+01
      0.508  0.2374E+01  0.5356E+01
      0.579  0.2232E+01  0.5515E+01
      0.650  0.2181E+01  0.5673E+01
      0.722  0.2179E+01  0.5828E+01
      0.793  0.2148E+01  0.5983E+01
      0.864  0.2102E+01  0.6134E+01
      0.935  0.2104E+01  0.6284E+01
      1.007  0.2074E+01  0.6433E+01
      1.078  0.2046E+01  0.6579E+01
      1.149  0.2028E+01  0.6725E+01
      1.220  0.1990E+01  0.6868E+01
      1.292  0.2000E+01  0.7010E+01
      1.363  0.2004E+01  0.7153E+01
      1.434  0.1988E+01  0.7295E+01
      1.505  0.1978E+01  0.7436E+01
      1.577  0.1463E+01  0.7556E+01
      1.648  0.1203E+01  0.7651E+01
      1.719  0.1009E+01  0.7729E+01
      1.791  0.8614E+00  0.7796E+01
      1.862  0.7421E+00  0.7852E+01
      1.933  0.6198E+00  0.7901E+01
      2.004  0.5082E+00  0.7941E+01
      2.076  0.3820E+00  0.7973E+01
      2.147  0.1890E+00  0.7994E+01
      2.218  0.0000E+00  0.8000E+01
      2.289  0.0000E+00  0.8000E+01
      2.361  0.0000E+00  0.8000E+01
      2.432  0.0000E+00  0.8000E+01
      2.503  0.0000E+00  0.8000E+01
      2.574  0.0000E+00  0.8000E+01
      2.646  0.0000E+00  0.8000E+01
      2.717  0.7173E-04  0.8000E+01
      2.788  0.4151E-03  0.8000E+01
      2.859  0.1042E-02  0.8000E+01
      2.931  0.1952E-02  0.8000E+01
      3.002  0.3146E-02  0.8000E+01
      3.073  0.4624E-02  0.8001E+01
      3.144  0.6385E-02  0.8001E+01
      3.216  0.1005E-01  0.8002E+01
      3.287  0.1322E-01  0.8002E+01
      3.358  0.1603E-01  0.8003E+01
      3.429  0.1904E-01  0.8005E+01
      3.501  0.2223E-01  0.8006E+01
      3.572  0.2600E-01  0.8008E+01
      3.643  0.5023E-01  0.8010E+01
      3.714  0.1070E+00  0.8016E+01
      3.786  0.1823E+00  0.8026E+01
      3.857  0.2323E+00  0.8041E+01
      3.928  0.2879E+00  0.8060E+01
      3.999  0.4271E+00  0.8084E+01
      4.071  0.5846E+00  0.8121E+01
      4.142  0.6585E+00  0.8166E+01
      4.213  0.7475E+00  0.8215E+01
      4.284  0.8563E+00  0.8273E+01
      4.356  0.9676E+00  0.8338E+01
      4.427  0.1088E+01  0.8411E+01
      4.498  0.1267E+01  0.8494E+01
      4.569  0.1425E+01  0.8591E+01
      4.641  0.1620E+01  0.8698E+01
      4.712  0.2008E+01  0.8826E+01
      4.783  0.2367E+01  0.8984E+01
      4.855  0.2362E+01  0.9155E+01
      4.926  0.2206E+01  0.9317E+01
      4.997  0.1824E+01  0.9462E+01
      5.068  0.1630E+01  0.9585E+01
      5.140  0.1363E+01  0.9691E+01
      5.211  0.1213E+01  0.9783E+01
      5.282  0.1340E+01  0.9873E+01
      5.353  0.1126E+01  0.9960E+01
      5.425  0.1113E+01  0.1004E+02
      5.496  0.1016E+01  0.1012E+02
      5.567  0.9549E+00  0.1019E+02
      5.638  0.9260E+00  0.1025E+02
      5.710  0.9394E+00  0.1032E+02
      5.781  0.9269E+00  0.1039E+02
      5.852  0.8628E+00  0.1045E+02
      5.923  0.8926E+00  0.1051E+02
      5.995  0.9295E+00  0.1058E+02
      6.066  0.9692E+00  0.1065E+02
      6.137  0.9405E+00  0.1072E+02
      6.208  0.1100E+01  0.1079E+02
      6.280  0.1363E+01  0.1088E+02
      6.351  0.2138E+01  0.1100E+02
      6.422  0.2678E+01  0.1119E+02
      6.493  0.2584E+01  0.1137E+02
      6.565  0.2275E+01  0.1155E+02
      6.636  0.2055E+01  0.1170E+02
      6.707  0.1573E+01  0.1183E+02
      6.778  0.1475E+01  0.1194E+02
      6.850  0.1439E+01  0.1204E+02
      6.921  0.1376E+01  0.1214E+02
      6.992  0.1220E+01  0.1224E+02
      7.063  0.1171E+01  0.1232E+02
      7.135  0.1338E+01  0.1241E+02
      7.206  0.1638E+01  0.1251E+02
      7.277  0.2039E+01  0.1264E+02
      7.348  0.2340E+01  0.1280E+02
      7.420  0.2466E+01  0.1297E+02
      7.491  0.2260E+01  0.1314E+02
      7.562  0.1985E+01  0.1330E+02
      7.634  0.1915E+01  0.1343E+02
      7.705  0.1688E+01  0.1356E+02
      7.776  0.1549E+01  0.1368E+02
      7.847  0.1522E+01  0.1379E+02
      7.919  0.1447E+01  0.1390E+02
      7.990  0.1405E+01  0.1400E+02
      8.061  0.1289E+01  0.1409E+02
      8.132  0.1157E+01  0.1418E+02
      8.204  0.1013E+01  0.1426E+02
      8.275  0.9892E+00  0.1433E+02
      8.346  0.9957E+00  0.1440E+02
      8.417  0.1029E+01  0.1447E+02
      8.489  0.1117E+01  0.1455E+02
      8.560  0.1189E+01  0.1463E+02
      8.631  0.1258E+01  0.1472E+02
      8.702  0.1342E+01  0.1481E+02
      8.774  0.1400E+01  0.1491E+02
      8.845  0.1526E+01  0.1501E+02
      8.916  0.1457E+01  0.1512E+02
      8.987  0.1262E+01  0.1521E+02
      9.059  0.1122E+01  0.1530E+02
      9.130  0.9882E+00  0.1537E+02
      9.201  0.9125E+00  0.1544E+02
      9.272  0.9609E+00  0.1551E+02
      9.344  0.8761E+00  0.1557E+02
      9.415  0.7682E+00  0.1563E+02
      9.486  0.4783E+00  0.1568E+02
      9.557  0.4469E+00  0.1572E+02
      9.629  0.4194E+00  0.1575E+02
      9.700  0.3878E+00  0.1578E+02
      9.771  0.3613E+00  0.1580E+02
      9.842  0.3359E+00  0.1583E+02
      9.914  0.3132E+00  0.1585E+02
      9.985  0.2828E+00  0.1587E+02
     10.056  0.2727E+00  0.1589E+02
     10.127  0.2436E+00  0.1591E+02
     10.199  0.2124E+00  0.1593E+02
     10.270  0.1829E+00  0.1594E+02
     10.341  0.1609E+00  0.1595E+02
     10.413  0.1431E+00  0.1596E+02
     10.484  0.1282E+00  0.1597E+02
     10.555  0.1126E+00  0.1598E+02
     10.626  0.1084E+00  0.1599E+02
     10.698  0.6214E-01  0.1600E+02
     10.769  0.2067E-01  0.1600E+02
     10.840  0.1467E-02  0.1600E+02
     10.911  0.0000E+00  0.1600E+02
     10.983  0.0000E+00  0.1600E+02
     11.054  0.0000E+00  0.1600E+02
     11.125  0.0000E+00  0.1600E+02
     11.196  0.0000E+00  0.1600E+02
     11.268  0.0000E+00  0.1600E+02
     11.339  0.0000E+00  0.1600E+02
     11.410  0.0000E+00  0.1600E+02
     11.481  0.0000E+00  0.1600E+02
     11.553  0.0000E+00  0.1600E+02
     11.624  0.0000E+00  0.1600E+02
     11.695  0.0000E+00  0.1600E+02
     11.766  0.0000E+00  0.1600E+02
     11.838  0.0000E+00  0.1600E+02
