    2    2    1    1
  0.2827041E+02  0.4308165E-09  0.4308165E-09  0.4308165E-09  0.0000000E+00
  1.000000000000000E-004
  CAR 
 unknown system                          
      8    195      8
 
  0.0000000E+00  0.0000000E+00  0.0000000E+00  0.1714678E-03
    1       -8.567559   1.000000
    2        2.202487   1.000000
    3        2.202487   1.000000
    4        2.202487   1.000000
    5        2.666143   0.000000
    6        6.120308   0.000000
    7        6.120308   0.000000
    8        6.120308   0.000000
 
  0.5555556E-01  0.0000000E+00  0.0000000E+00  0.1371742E-02
    1       -8.545088   1.000000
    2        1.649147   1.000000
    3        2.174870   1.000000
    4        2.174870   1.000000
    5        3.150745   0.000000
    6        6.133530   0.000000
    7        6.170678   0.000000
    8        6.170678   0.000000
 
  0.1111111E+00  0.0000000E+00  0.0000000E+00  0.1371742E-02
    1       -8.478775   1.000000
    2        0.902545   1.000000
    3        2.099166   1.000000
    4        2.099166   1.000000
    5        3.653557   0.000000
    6        6.244215   0.000000
    7        6.305768   0.000000
    8        6.305768   0.000000
 
  0.1666667E+00  0.0000000E+00  0.0000000E+00  0.1371742E-02
    1       -8.372293   1.000000
    2        0.162029   1.000000
    3        1.992583   1.000000
    4        1.992583   1.000000
    5        3.914429   0.000000
    6        6.481353   0.000000
    7        6.481353   0.000000
    8        6.580919   0.000000
 
  0.2222222E+00  0.0000000E+00  0.0000000E+00  0.1371742E-02
    1       -8.232323   1.000000
    2       -0.538693   1.000000
    3        1.874409   1.000000
    4        1.874409   1.000000
    5        3.949494   0.000000
    6        6.637612   0.000000
    7        6.637613   0.000000
    8        7.151717   0.000000
 
  0.2777778E+00  0.0000000E+00  0.0000000E+00  0.1371742E-02
    1       -8.069725   1.000000
    2       -1.174494   1.000000
    3        1.760728   1.000000
    4        1.760728   1.000000
    5        3.871409   0.000000
    6        6.726721   0.000000
    7        6.726721   0.000000
    8        7.850078   0.000000
 
  0.3333333E+00  0.0000000E+00  0.0000000E+00  0.1371742E-02
    1       -7.900804   1.000000
    2       -1.719644   1.000000
    3        1.663058   1.000000
    4        1.663059   1.000000
    5        3.764655   0.000000
    6        6.743328   0.000000
    7        6.743328   0.000000
    8        8.555449   0.000000
 
  0.3888889E+00  0.0000000E+00  0.0000000E+00  0.1371742E-02
    1       -7.748290   1.000000
    2       -2.145011   1.000000
    3        1.588920   1.000000
    4        1.588920   1.000000
    5        3.670981   0.000000
    6        6.718619   0.000000
    7        6.718619   0.000000
    8        9.108173   0.000000
 
  0.4444444E+00  0.0000000E+00  0.0000000E+00  0.1371742E-02
    1       -7.639713   1.000000
    2       -2.418886   1.000000
    3        1.542856   1.000000
    4        1.542856   1.000000
    5        3.609403   0.000000
    6        6.688560   0.000000
    7        6.688560   0.000000
    8        9.371099   0.000000
 
  0.5000000E+00  0.0000000E+00  0.0000000E+00  0.6858711E-03
    1       -7.600016   1.000000
    2       -2.513927   1.000000
    3        1.527256   1.000000
    4        1.527256   1.000000
    5        3.588105   0.000000
    6        6.676065   0.000000
    7        6.676065   0.000000
    8        9.430785   0.000000
 
  0.5555556E-01  0.5555556E-01  0.0000000E+00  0.1028807E-02
    1       -8.537583   1.000000
    2        1.590896   1.000000
    3        2.116069   1.000000
    4        2.116069   1.000000
    5        3.293847   0.000000
    6        5.993066   0.000000
    7        6.257326   0.000000
    8        6.257326   0.000000
 
  0.1111111E+00  0.5555556E-01  0.0000000E+00  0.4115226E-02
    1       -8.485835   1.000000
    2        1.029874   1.000000
    3        2.015135   1.000000
    4        2.056844   1.000000
    5        3.734791   0.000000
    6        5.926672   0.000000
    7        6.426290   0.000000
    8        6.430004   0.000000
 
  0.1666667E+00  0.5555556E-01  0.0000000E+00  0.4115226E-02
    1       -8.392641   1.000000
    2        0.343105   1.000000
    3        1.892395   1.000000
    4        1.974533   1.000000
    5        4.061051   0.000000
    6        6.008613   0.000000
    7        6.632619   0.000000
    8        6.703489   0.000000
 
  0.2222222E+00  0.5555556E-01  0.0000000E+00  0.4115226E-02
    1       -8.263563   1.000000
    2       -0.343218   1.000000
    3        1.767384   1.000000
    4        1.856611   1.000000
    5        4.164253   0.000000
    6        6.229612   0.000000
    7        6.816527   0.000000
    8        7.094734   0.000000
 
  0.2777778E+00  0.5555556E-01  0.0000000E+00  0.4115226E-02
    1       -8.107962   1.000000
    2       -0.985023   1.000000
    3        1.655165   1.000000
    4        1.722559   1.000000
    5        4.118007   0.000000
    6        6.442716   0.000000
    7        6.924957   0.000000
    8        7.606900   0.000000
 
  0.3333333E+00  0.5555556E-01  0.0000000E+00  0.4115226E-02
    1       -7.940101   1.000000
    2       -1.551401   1.000000
    3        1.565911   1.000000
    4        1.590993   1.000000
    5        4.020087   0.000000
    6        6.551182   0.000000
    7        6.943484   0.000000
    8        8.206254   0.000000
 
  0.3888889E+00  0.5555556E-01  0.0000000E+00  0.4115226E-02
    1       -7.780479   1.000000
    2       -2.012077   1.000000
    3        1.475458   1.000000
    4        1.505808   1.000000
    5        3.923609   0.000000
    6        6.579648   0.000000
    7        6.900339   0.000000
    8        8.805797   0.000000
 
  0.4444444E+00  0.5555556E-01  0.0000000E+00  0.4115226E-02
    1       -7.655256   1.000000
    2       -2.334769   1.000000
    3        1.385023   1.000000
    4        1.478034   1.000000
    5        3.852629   0.000000
    6        6.583094   0.000000
    7        6.835991   0.000000
    8        9.257848   0.000000
 
  0.5000000E+00  0.5555556E-01  0.0000000E+00  0.4115226E-02
    1       -7.591144   1.000000
    2       -2.489223   1.000000
    3        1.325541   1.000000
    4        1.483534   1.000000
    5        3.817775   0.000000
    6        6.597809   0.000000
    7        6.780025   0.000000
    8        9.453226   0.000000
 
 -0.4444444E+00  0.5555556E-01  0.0000000E+00  0.4115226E-02
    1       -7.604464   1.000000
    2       -2.457607   1.000000
    3        1.300601   1.000000
    4        1.521450   1.000000
    5        3.822963   0.000000
    6        6.638249   0.000000
    7        6.746238   0.000000
    8        9.433676   0.000000
 
 -0.3888889E+00  0.5555556E-01  0.0000000E+00  0.4115226E-02
    1       -7.691643   1.000000
    2       -2.243832   1.000000
    3        1.312087   1.000000
    4        1.589248   1.000000
    5        3.867504   0.000000
    6        6.700995   0.000000
    7        6.733329   0.000000
    8        9.181374   0.000000
 
 -0.3333333E+00  0.5555556E-01  0.0000000E+00  0.4115226E-02
    1       -7.831525   1.000000
    2       -1.871372   1.000000
    3        1.360312   1.000000
    4        1.682583   1.000000
    5        3.945591   0.000000
    6        6.724692   0.000000
    7        6.763889   0.000000
    8        8.665121   0.000000
 
 -0.2777778E+00  0.5555556E-01  0.0000000E+00  0.4115226E-02
    1       -7.996568   1.000000
    2       -1.372296   1.000000
    3        1.443853   1.000000
    4        1.794770   1.000000
    5        4.042599   0.000000
    6        6.689644   0.000000
    7        6.778841   0.000000
    8        8.027675   0.000000
 
 -0.2222222E+00  0.5555556E-01  0.0000000E+00  0.4115226E-02
    1       -8.162283   1.000000
    2       -0.778861   1.000000
    3        1.559146   1.000000
    4        1.915977   1.000000
    5        4.125462   0.000000
    6        6.597807   0.000000
    7        6.666014   0.000000
    8        7.441852   0.000000
 
 -0.1666667E+00  0.5555556E-01  0.0000000E+00  0.4115226E-02
    1       -8.310306   1.000000
    2       -0.122225   1.000000
    3        1.700000   1.000000
    4        2.032355   1.000000
    5        4.123902   0.000000
    6        6.392827   0.000000
    7        6.450767   0.000000
    8        7.015189   0.000000
 
 -0.1111111E+00  0.5555556E-01  0.0000000E+00  0.4115226E-02
    1       -8.428195   1.000000
    2        0.561361   1.000000
    3        1.857896   1.000000
    4        2.126077   1.000000
    5        3.933205   0.000000
    6        6.150652   0.000000
    7        6.293849   0.000000
    8        6.686680   0.000000
 
 -0.5555556E-01  0.5555556E-01  0.0000000E+00  0.2057613E-02
    1       -8.507970   1.000000
    2        1.207699   1.000000
    3        2.026073   1.000000
    4        2.178081   1.000000
    5        3.534031   0.000000
    6        6.087706   0.000000
    7        6.186526   0.000000
    8        6.396204   0.000000
 
  0.1111111E+00  0.1111111E+00  0.0000000E+00  0.1028807E-02
    1       -8.449002   1.000000
    2        0.829119   1.000000
    3        1.892376   1.000000
    4        1.892376   1.000000
    5        4.083064   0.000000
    6        5.681280   0.000000
    7        6.631711   0.000000
    8        6.631711   0.000000
 
  0.1666667E+00  0.1111111E+00  0.0000000E+00  0.4115226E-02
    1       -8.370226   1.000000
    2        0.343665   1.000000
    3        1.753627   1.000000
    4        1.775739   1.000000
    5        4.427101   0.000000
    6        5.580501   0.000000
    7        6.877282   0.000000
    8        6.901047   0.000000
 
  0.2222222E+00  0.1111111E+00  0.0000000E+00  0.4115226E-02
    1       -8.254115   1.000000
    2       -0.247518   1.000000
    3        1.618853   1.000000
    4        1.644401   1.000000
    5        4.602824   0.000000
    6        5.684367   0.000000
    7        7.103922   0.000000
    8        7.197367   0.000000
 
  0.2777778E+00  0.1111111E+00  0.0000000E+00  0.4115226E-02
    1       -8.108670   1.000000
    2       -0.844807   1.000000
    3        1.482420   1.000000
    4        1.502749   1.000000
    5        4.593478   0.000000
    6        5.960911   0.000000
    7        7.252633   0.000000
    8        7.445053   0.000000
 
  0.3333333E+00  0.1111111E+00  0.0000000E+00  0.4115226E-02
    1       -7.946301   1.000000
    2       -1.397253   1.000000
    3        1.309342   1.000000
    4        1.414997   1.000000
    5        4.506202   0.000000
    6        6.230686   0.000000
    7        7.295699   0.000000
    8        7.719611   0.000000
 
  0.3888889E+00  0.1111111E+00  0.0000000E+00  0.4115226E-02
    1       -7.785153   1.000000
    2       -1.867221   1.000000
    3        1.146117   1.000000
    4        1.361298   1.000000
    5        4.410121   0.000000
    6        6.373652   0.000000
    7        7.253421   0.000000
    8        8.157850   0.000000
 
  0.4444444E+00  0.1111111E+00  0.0000000E+00  0.4115226E-02
    1       -7.649199   1.000000
    2       -2.219528   1.000000
    3        1.007721   1.000000
    4        1.344346   1.000000
    5        4.333774   0.000000
    6        6.425471   0.000000
    7        7.168974   0.000000
    8        8.722569   0.000000
 
  0.5000000E+00  0.1111111E+00  0.0000000E+00  0.4115226E-02
    1       -7.565017   1.000000
    2       -2.421232   1.000000
    3        0.903977   1.000000
    4        1.364460   1.000000
    5        4.289445   0.000000
    6        6.459892   0.000000
    7        7.078665   0.000000
    8        9.241194   0.000000
 
 -0.4444444E+00  0.1111111E+00  0.0000000E+00  0.4115226E-02
    1       -7.552749   1.000000
    2       -2.449165   1.000000
    3        0.841392   1.000000
    4        1.419906   1.000000
    5        4.281913   0.000000
    6        6.514119   0.000000
    7        7.002495   0.000000
    8        9.446257   0.000000
 
 -0.3888889E+00  0.1111111E+00  0.0000000E+00  0.4115226E-02
    1       -7.615606   1.000000
    2       -2.300087   1.000000
    3        0.824495   1.000000
    4        1.506924   1.000000
    5        4.311054   0.000000
    6        6.595621   0.000000
    7        6.944465   0.000000
    8        9.188309   0.000000
 
 -0.3333333E+00  0.1111111E+00  0.0000000E+00  0.4115226E-02
    1       -7.737852   1.000000
    2       -1.992766   1.000000
    3        0.856740   1.000000
    4        1.619491   1.000000
    5        4.371558   0.000000
    6        6.687495   0.000000
    7        6.892889   0.000000
    8        8.632292   0.000000
 
 -0.2777778E+00  0.1111111E+00  0.0000000E+00  0.4115226E-02
    1       -7.893759   1.000000
    2       -1.559918   1.000000
    3        0.941154   1.000000
    4        1.748730   1.000000
    5        4.449433   0.000000
    6        6.733484   0.000000
    7        6.821453   0.000000
    8        8.031720   0.000000
 
 -0.2222222E+00  0.1111111E+00  0.0000000E+00  0.4115226E-02
    1       -8.057941   1.000000
    2       -1.039904   1.000000
    3        1.081100   1.000000
    4        1.882102   1.000000
    5        4.511985   0.000000
    6        6.614512   0.000000
    7        6.702897   0.000000
    8        7.589754   0.000000
 
 -0.1666667E+00  0.1111111E+00  0.0000000E+00  0.4115226E-02
    1       -8.210340   1.000000
    2       -0.475597   1.000000
    3        1.281171   1.000000
    4        2.002804   1.000000
    5        4.488457   0.000000
    6        6.333010   0.000000
    7        6.541411   0.000000
    8        7.334914   0.000000
 
 -0.1111111E+00  0.1111111E+00  0.0000000E+00  0.2057613E-02
    1       -8.336847   1.000000
    2        0.080061   1.000000
    3        1.545592   1.000000
    4        2.090563   1.000000
    5        4.285978   0.000000
    6        6.145683   0.000000
    7        6.385122   0.000000
    8        7.058379   0.000000
 
  0.1666667E+00  0.1666667E+00  0.0000000E+00  0.1028807E-02
    1       -8.306246   1.000000
    2        0.100666   1.000000
    3        1.601049   1.000000
    4        1.601049   1.000000
    5        4.761221   0.000000
    6        5.314025   0.000000
    7        7.170611   0.000000
    8        7.170612   0.000000
 
  0.2222222E+00  0.1666667E+00  0.0000000E+00  0.4115226E-02
    1       -8.204459   1.000000
    2       -0.322552   1.000000
    3        1.446700   1.000000
    4        1.455478   1.000000
    5        4.946140   0.000000
    6        5.262270   0.000000
    7        7.437020   0.000000
    8        7.454645   0.000000
 
  0.2777778E+00  0.1666667E+00  0.0000000E+00  0.4115226E-02
    1       -8.071660   1.000000
    2       -0.816705   1.000000
    3        1.259241   1.000000
    4        1.331889   1.000000
    5        4.934541   0.000000
    6        5.486084   0.000000
    7        7.505637   0.000000
    8        7.665067   0.000000
 
  0.3333333E+00  0.1666667E+00  0.0000000E+00  0.4115226E-02
    1       -7.918662   1.000000
    2       -1.309054   1.000000
    3        1.042624   1.000000
    4        1.240066   1.000000
    5        4.850492   0.000000
    6        5.853795   0.000000
    7        7.472749   0.000000
    8        7.757907   0.000000
 
  0.3888889E+00  0.1666667E+00  0.0000000E+00  0.4115226E-02
    1       -7.761367   1.000000
    2       -1.751287   1.000000
    3        0.824960   1.000000
    4        1.185782   1.000000
    5        4.762370   0.000000
    6        6.210606   0.000000
    7        7.568780   0.000000
    8        7.739320   0.000000
 
  0.4444444E+00  0.1666667E+00  0.0000000E+00  0.4115226E-02
    1       -7.621221   1.000000
    2       -2.103603   1.000000
    3        0.630494   1.000000
    4        1.171781   1.000000
    5        4.695238   0.000000
    6        6.413318   0.000000
    7        7.652203   0.000000
    8        7.947431   0.000000
 
  0.5000000E+00  0.1666667E+00  0.0000000E+00  0.4115226E-02
    1       -7.523211   1.000000
    2       -2.330344   1.000000
    3        0.475267   1.000000
    4        1.198370   1.000000
    5        4.661257   0.000000
    6        6.490484   0.000000
    7        7.539787   0.000000
    8        8.542486   0.000000
 
 -0.4444444E+00  0.1666667E+00  0.0000000E+00  0.4115226E-02
    1       -7.489036   1.000000
    2       -2.404537   1.000000
    3        0.369834   1.000000
    4        1.263638   1.000000
    5        4.664521   0.000000
    6        6.542318   0.000000
    7        7.428522   0.000000
    8        9.108625   0.000000
 
 -0.3888889E+00  0.1666667E+00  0.0000000E+00  0.4115226E-02
    1       -7.527192   1.000000
    2       -2.317178   1.000000
    3        0.322298   1.000000
    4        1.363382   1.000000
    5        4.702835   0.000000
    6        6.613217   0.000000
    7        7.326653   0.000000
    8        9.114243   0.000000
 
 -0.3333333E+00  0.1666667E+00  0.0000000E+00  0.4115226E-02
    1       -7.628100   1.000000
    2       -2.082556   1.000000
    3        0.340591   1.000000
    4        1.490700   1.000000
    5        4.767268   0.000000
    6        6.705860   0.000000
    7        7.224906   0.000000
    8        8.551619   0.000000
 
 -0.2777778E+00  0.1666667E+00  0.0000000E+00  0.4115226E-02
    1       -7.769627   1.000000
    2       -1.734281   1.000000
    3        0.434457   1.000000
    4        1.635279   1.000000
    5        4.837655   0.000000
    6        6.777052   0.000000
    7        7.098578   0.000000
    8        7.932131   0.000000
 
 -0.2222222E+00  0.1666667E+00  0.0000000E+00  0.4115226E-02
    1       -7.926958   1.000000
    2       -1.317609   1.000000
    3        0.616771   1.000000
    4        1.782440   1.000000
    5        4.869061   0.000000
    6        6.686798   0.000000
    7        6.925058   0.000000
    8        7.547682   0.000000
 
 -0.1666667E+00  0.1666667E+00  0.0000000E+00  0.2057613E-02
    1       -8.079042   1.000000
    2       -0.882983   1.000000
    3        0.900414   1.000000
    4        1.912615   1.000000
    5        4.773702   0.000000
    6        6.441074   0.000000
    7        6.719881   0.000000
    8        7.453692   0.000000
 
  0.2222222E+00  0.2222222E+00  0.0000000E+00  0.1028807E-02
    1       -8.117541   1.000000
    2       -0.578647   1.000000
    3        1.299396   1.000000
    4        1.299396   1.000000
    5        4.861530   0.000000
    6        5.252969   0.000000
    7        7.812039   0.000000
    8        7.812040   0.000000
 
  0.2777778E+00  0.2222222E+00  0.0000000E+00  0.4115226E-02
    1       -7.999188   1.000000
    2       -0.944155   1.000000
    3        1.127536   1.000000
    4        1.166409   1.000000
    5        4.786292   0.000000
    6        5.317790   0.000000
    7        7.925666   0.000000
    8        8.108158   0.000000
 
  0.3333333E+00  0.2222222E+00  0.0000000E+00  0.4115226E-02
    1       -7.858859   1.000000
    2       -1.342364   1.000000
    3        0.894531   1.000000
    4        1.066845   1.000000
    5        4.788175   0.000000
    6        5.483233   0.000000
    7        7.785512   0.000000
    8        8.281189   0.000000
 
  0.3888889E+00  0.2222222E+00  0.0000000E+00  0.4115226E-02
    1       -7.710468   1.000000
    2       -1.719774   1.000000
    3        0.627980   1.000000
    4        1.006900   1.000000
    5        4.760703   0.000000
    6        5.856002   0.000000
    7        7.652799   0.000000
    8        8.314855   0.000000
 
  0.4444444E+00  0.2222222E+00  0.0000000E+00  0.4115226E-02
    1       -7.572923   1.000000
    2       -2.035668   1.000000
    3        0.369602   1.000000
    4        0.989663   1.000000
    5        4.725640   0.000000
    6        6.340199   0.000000
    7        7.626171   0.000000
    8        8.246028   0.000000
 
  0.5000000E+00  0.2222222E+00  0.0000000E+00  0.4115226E-02
    1       -7.468749   1.000000
    2       -2.255095   1.000000
    3        0.150240   1.000000
    4        1.015738   1.000000
    5        4.718071   0.000000
    6        6.725312   0.000000
    7        7.858707   0.000000
    8        8.125018   0.000000
 
 -0.4444444E+00  0.2222222E+00  0.0000000E+00  0.4115226E-02
    1       -7.419075   1.000000
    2       -2.350945   1.000000
    3       -0.010077   1.000000
    4        1.083462   1.000000
    5        4.750706   0.000000
    6        6.884709   0.000000
    7        7.985720   0.000000
    8        8.407625   0.000000
 
 -0.3888889E+00  0.2222222E+00  0.0000000E+00  0.4115226E-02
    1       -7.435341   1.000000
    2       -2.312161   1.000000
    3       -0.096382   1.000000
    4        1.188753   1.000000
    5        4.822267   0.000000
    6        6.953989   0.000000
    7        7.839509   0.000000
    8        8.854183   0.000000
 
 -0.3333333E+00  0.2222222E+00  0.0000000E+00  0.4115226E-02
    1       -7.513474   1.000000
    2       -2.150919   1.000000
    3       -0.093645   1.000000
    4        1.324623   1.000000
    5        4.919575   0.000000
    6        7.022326   0.000000
    7        7.675750   0.000000
    8        8.465816   0.000000
 
 -0.2777778E+00  0.2222222E+00  0.0000000E+00  0.4115226E-02
    1       -7.636154   1.000000
    2       -1.901705   1.000000
    3        0.016212   1.000000
    4        1.480278   1.000000
    5        5.011355   0.000000
    6        7.087465   0.000000
    7        7.467970   0.000000
    8        7.824949   0.000000
 
 -0.2222222E+00  0.2222222E+00  0.0000000E+00  0.2057613E-02
    1       -7.780934   1.000000
    2       -1.610748   1.000000
    3        0.251573   1.000000
    4        1.640004   1.000000
    5        5.030218   0.000000
    6        6.960750   0.000000
    7        7.204304   0.000000
    8        7.493363   0.000000
 
  0.2777778E+00  0.2777778E+00  0.0000000E+00  0.1028807E-02
    1       -7.896280   1.000000
    2       -1.196488   1.000000
    3        1.023381   1.000000
    4        1.023382   1.000000
    5        4.549687   0.000000
    6        5.234374   0.000000
    7        8.513897   0.000000
    8        8.514067   0.000000
 
  0.3333333E+00  0.2777778E+00  0.0000000E+00  0.4115226E-02
    1       -7.771254   1.000000
    2       -1.502790   1.000000
    3        0.849180   1.000000
    4        0.914025   1.000000
    5        4.497304   0.000000
    6        5.183068   0.000000
    7        8.504327   0.000000
    8        8.804359   0.000000
 
  0.3888889E+00  0.2777778E+00  0.0000000E+00  0.4115226E-02
    1       -7.636395   1.000000
    2       -1.804673   1.000000
    3        0.586572   1.000000
    4        0.845193   1.000000
    5        4.540672   0.000000
    6        5.321783   0.000000
    7        8.342178   0.000000
    8        8.929874   0.000000
 
  0.4444444E+00  0.2777778E+00  0.0000000E+00  0.4115226E-02
    1       -7.508252   1.000000
    2       -2.061666   1.000000
    3        0.284790   1.000000
    4        0.820504   1.000000
    5        4.557388   0.000000
    6        5.736572   0.000000
    7        8.200062   0.000000
    8        8.908147   0.000000
 
  0.5000000E+00  0.2777778E+00  0.0000000E+00  0.4115226E-02
    1       -7.406483   1.000000
    2       -2.243764   1.000000
    3       -0.000067   1.000000
    4        0.841025   1.000000
    5        4.574129   0.000000
    6        6.331924   0.000000
    7        8.113204   0.000000
    8        8.794496   0.000000
 
 -0.4444444E+00  0.2777778E+00  0.0000000E+00  0.4115226E-02
    1       -7.350020   1.000000
    2       -2.330300   1.000000
    3       -0.226822   1.000000
    4        0.905541   1.000000
    5        4.626417   0.000000
    6        6.963201   0.000000
    7        8.145771   0.000000
    8        8.631918   0.000000
 
 -0.3888889E+00  0.2777778E+00  0.0000000E+00  0.4115226E-02
    1       -7.350676   1.000000
    2       -2.315807   1.000000
    3       -0.364754   1.000000
    4        1.010394   1.000000
    5        4.721476   0.000000
    6        7.394668   0.000000
    7        8.420241   0.000000
    8        8.433269   0.000000
 
 -0.3333333E+00  0.2777778E+00  0.0000000E+00  0.4115226E-02
    1       -7.407888   1.000000
    2       -2.216445   1.000000
    3       -0.385729   1.000000
    4        1.148999   1.000000
    5        4.848174   0.000000
    6        7.553363   0.000000
    7        8.181886   0.000000
    8        8.397473   0.000000
 
 -0.2777778E+00  0.2777778E+00  0.0000000E+00  0.2057613E-02
    1       -7.509268   1.000000
    2       -2.066936   1.000000
    3       -0.263040   1.000000
    4        1.310864   1.000000
    5        4.971977   0.000000
    6        7.540146   0.000000
    7        7.853411   0.000000
    8        7.861427   0.000000
 
  0.3333333E+00  0.3333333E+00  0.0000000E+00  0.1028807E-02
    1       -7.663313   1.000000
    2       -1.734781   1.000000
    3        0.794006   1.000000
    4        0.794007   1.000000
    5        4.285538   0.000000
    6        4.976351   0.000000
    7        9.244604   0.000000
    8        9.245470   0.000000
 
  0.3888889E+00  0.3333333E+00  0.0000000E+00  0.4115226E-02
    1       -7.546004   1.000000
    2       -1.974511   1.000000
    3        0.629137   1.000000
    4        0.714481   1.000000
    5        4.267816   0.000000
    6        4.909543   0.000000
    7        9.225152   0.000000
    8        9.514129   0.000000
 
  0.4444444E+00  0.3333333E+00  0.0000000E+00  0.4115226E-02
    1       -7.433790   1.000000
    2       -2.176847   1.000000
    3        0.355393   1.000000
    4        0.679724   1.000000
    5        4.335625   0.000000
    6        5.101934   0.000000
    7        9.073146   0.000000
    8        9.583992   0.000000
 
  0.5000000E+00  0.3333333E+00  0.0000000E+00  0.4115226E-02
    1       -7.343358   1.000000
    2       -2.313494   1.000000
    3        0.041528   1.000000
    4        0.691355   1.000000
    5        4.384308   0.000000
    6        5.590328   0.000000
    7        8.933812   0.000000
    8        9.500352   0.000000
 
 -0.4444444E+00  0.3333333E+00  0.0000000E+00  0.4115226E-02
    1       -7.290404   1.000000
    2       -2.370898   1.000000
    3       -0.241973   1.000000
    4        0.748699   1.000000
    5        4.450042   0.000000
    6        6.261809   0.000000
    7        8.828705   0.000000
    8        9.315382   0.000000
 
 -0.3888889E+00  0.3333333E+00  0.0000000E+00  0.4115226E-02
    1       -7.284777   1.000000
    2       -2.354113   1.000000
    3       -0.438754   1.000000
    4        0.848680   1.000000
    5        4.556804   0.000000
    6        7.005474   0.000000
    7        8.768430   0.000000
    8        9.041831   0.000000
 
 -0.3333333E+00  0.3333333E+00  0.0000000E+00  0.2057613E-02
    1       -7.326890   1.000000
    2       -2.290177   1.000000
    3       -0.499396   1.000000
    4        0.985362   1.000000
    5        4.699874   0.000000
    6        7.623895   0.000000
    7        8.609610   0.000000
    8        8.660788   0.000000
 
  0.3888889E+00  0.3888889E+00  0.0000000E+00  0.1028807E-02
    1       -7.449231   1.000000
    2       -2.165446   1.000000
    3        0.623469   1.000000
    4        0.623469   1.000000
    5        4.095562   0.000000
    6        4.688223   0.000000
    7        9.965212   0.000000
    8        9.970218   0.000000
 
  0.4444444E+00  0.3888889E+00  0.0000000E+00  0.4115226E-02
    1       -7.358700   1.000000
    2       -2.325502   1.000000
    3        0.477671   1.000000
    4        0.577183   1.000000
    5        4.113034   0.000000
    6        4.667859   0.000000
    7        9.979210   0.000000
    8       10.186360   0.000000
 
  0.5000000E+00  0.3888889E+00  0.0000000E+00  0.4115226E-02
    1       -7.288124   1.000000
    2       -2.423752   1.000000
    3        0.212619   1.000000
    4        0.577868   1.000000
    5        4.203318   0.000000
    6        4.943099   0.000000
    7        9.835973   0.000000
    8       10.168295   0.000000
 
 -0.4444444E+00  0.3888889E+00  0.0000000E+00  0.4115226E-02
    1       -7.249292   1.000000
    2       -2.449227   1.000000
    3       -0.084264   1.000000
    4        0.625428   1.000000
    5        4.289259   0.000000
    6        5.504292   0.000000
    7        9.673457   0.000000
    8        9.957861   0.000000
 
 -0.3888889E+00  0.3888889E+00  0.0000000E+00  0.2057613E-02
    1       -7.248514   1.000000
    2       -2.413722   1.000000
    3       -0.326329   1.000000
    4        0.717426   1.000000
    5        4.404512   0.000000
    6        6.230915   0.000000
    7        9.402348   0.000000
    8        9.576775   0.000000
 
  0.4444444E+00  0.4444444E+00  0.0000000E+00  0.1028807E-02
    1       -7.293891   1.000000
    2       -2.450266   1.000000
    3        0.518751   1.000000
    4        0.518751   1.000000
    5        3.984314   0.000000
    6        4.482978   0.000000
    7       10.585155   0.000000
    8       10.588170   0.000000
 
  0.5000000E+00  0.4444444E+00  0.0000000E+00  0.4115226E-02
    1       -7.250012   1.000000
    2       -2.515909   1.000000
    3        0.400601   1.000000
    4        0.507357   1.000000
    5        4.036070   0.000000
    6        4.533136   0.000000
    7       10.589945   0.000000
    8       10.673771   0.000000
 
 -0.4444444E+00  0.4444444E+00  0.0000000E+00  0.2057613E-02
    1       -7.234512   1.000000
    2       -2.511057   1.000000
    3        0.164387   1.000000
    4        0.543509   1.000000
    5        4.157625   0.000000
    6        4.887133   0.000000
    7       10.316365   0.000000
    8       10.445753   0.000000
 
  0.5000000E+00  0.5000000E+00  0.0000000E+00  0.5144033E-03
    1       -7.236357   1.000000
    2       -2.550885   1.000000
    3        0.483474   1.000000
    4        0.483474   1.000000
    5        3.948393   0.000000
    6        4.409472   0.000000
    7       10.865783   0.000000
    8       10.865951   0.000000
 