 running on   48 total cores
 distrk:  each k-point on   12 cores,    4 groups
 distr:  one band on   12 cores,    1 groups
 using from now: INCAR     
 vasp.5.4.4.18Apr17-6-g9f103f2a35 (build Nov 04 2020 14:40:39) complex          
  
 POSCAR found type information on POSCAR  Al As
 POSCAR found :  2 types and       2 ions
 scaLAPACK will be used

 ----------------------------------------------------------------------------- 
|                                                                             |
|           W    W    AA    RRRRR   N    N  II  N    N   GGGG   !!!           |
|           W    W   A  A   R    R  NN   N  II  NN   N  G    G  !!!           |
|           W    W  A    A  R    R  N N  N  II  N N  N  G       !!!           |
|           W WW W  AAAAAA  RRRRR   N  N N  II  N  N N  G  GGG   !            |
|           WW  WW  A    A  R   R   N   NN  II  N   NN  G    G                |
|           W    W  A    A  R    R  N    N  II  N    N   GGGG   !!!           |
|                                                                             |
|      You have enabled k-point parallelism (KPAR>1).                         |
|      This developmental code was originally  written by Paul Kent at ORNL,  |
|      and carefully double checked in Vienna.                                |
|      GW as well as linear response parallelism added by Martijn Marsman     |
|      and Georg Kresse.                                                      |
|      Carefully verify results versus KPAR=1.                                |
|      Report problems to Paul Kent and Vienna.                               |
|                                                                             |
 ----------------------------------------------------------------------------- 

 LDA part: xc-table for Pade appr. of Perdew
 POSCAR found type information on POSCAR  Al As
 POSCAR found :  2 types and       2 ions
 generate k-points for:   18   18   18
 POSCAR, INCAR and KPOINTS ok, starting setup
 FFT: planning ...
 WAVECAR not read
 entering main loop
       N       E                     dE             d eps       ncg     rms          rms(c)
DAV:   1     0.139430225459E+02    0.13943E+02   -0.29112E+03  3144   0.726E+02
DAV:   2    -0.859670351106E+01   -0.22540E+02   -0.22268E+02  4360   0.853E+01
DAV:   3    -0.927603796913E+01   -0.67933E+00   -0.67933E+00  3680   0.196E+01
DAV:   4    -0.927998646298E+01   -0.39485E-02   -0.39485E-02  5032   0.172E+00
DAV:   5    -0.927999789234E+01   -0.11429E-04   -0.11429E-04  3840   0.771E-02    0.242E+00
RMM:   6    -0.910700547907E+01    0.17299E+00   -0.22186E-01  3133   0.233E+00    0.130E+00
RMM:   7    -0.908923508747E+01    0.17770E-01   -0.81521E-02  3312   0.152E+00    0.500E-01
RMM:   8    -0.908993270229E+01   -0.69761E-03   -0.58436E-03  3312   0.625E-01    0.458E-02
RMM:   9    -0.909024346488E+01   -0.31076E-03   -0.57020E-04  3587   0.156E-01    0.282E-02
RMM:  10    -0.909029392718E+01   -0.50462E-04   -0.12939E-04  3423   0.799E-02    0.552E-03
RMM:  11    -0.909029853083E+01   -0.46037E-05   -0.21021E-05  3677   0.257E-02    0.586E-03
RMM:  12    -0.909029641992E+01    0.21109E-05   -0.55980E-06  3593   0.122E-02    0.598E-04
RMM:  13    -0.909029652344E+01   -0.10352E-06   -0.89880E-08  2293   0.246E-03
   1 F= -.90902965E+01 E0= -.90902965E+01  d E =0.000000E+00
