unknown system                          
           1
     0.000000    3.046333    3.046333
     3.046333    0.000000    3.046333
     3.046333    3.046333    0.000000
   Al   As
   1   1
Direct configuration=     1
   0.00000000  0.00000000  0.00000000
   0.75000000  0.75000000  0.75000000
