unknown system                          
            1
    -1.409100    1.409100    1.409100
     1.409100   -1.409100    1.409100
     1.409100    1.409100   -1.409100
   Fe
     1
Direct configuration=     1
   0.00000000  0.00000000  0.00000000
unknown system                          
            1
    -1.410562    1.410562    1.410562
     1.410562   -1.410562    1.410562
     1.410562    1.410562   -1.410562
   Fe
     1
Direct configuration=     2
   1.00000000  0.00000000  0.00000000
unknown system                          
            1
    -1.414948    1.414948    1.414948
     1.414948   -1.414948    1.414948
     1.414948    1.414948   -1.414948
   Fe
     1
Direct configuration=     3
   0.00000000  0.00000000  0.00000000
unknown system                          
            1
    -1.416828    1.416828    1.416828
     1.416828   -1.416828    1.416828
     1.416828    1.416828   -1.416828
   Fe
     1
Direct configuration=     4
   1.00000000  0.00000000  0.00000000
