   3   3   0   0
  0.1712288E+02  0.4172577E-09  0.4172577E-09  0.4172577E-09  0.5000000E-15
  1.000000000000000E-004
  CAR
 unknown system
     17.35996536    -21.56203508  301     12.22378031      1.00000000
    -21.562  0.0000E+00  0.0000E+00
    -21.432  0.0000E+00  0.0000E+00
    -21.303  0.0000E+00  0.0000E+00
    -21.173  0.0000E+00  0.0000E+00
    -21.043  0.0000E+00  0.0000E+00
    -20.913  0.0000E+00  0.0000E+00
    -20.784  0.0000E+00  0.0000E+00
    -20.654  0.0000E+00  0.0000E+00
    -20.524  0.0000E+00  0.0000E+00
    -20.394  0.0000E+00  0.0000E+00
    -20.265  0.0000E+00  0.0000E+00
    -20.135  0.0000E+00  0.0000E+00
    -20.005  0.0000E+00  0.0000E+00
    -19.875  0.0000E+00  0.0000E+00
    -19.746  0.2052E+02  0.2662E+01
    -19.616  0.0000E+00  0.6000E+01
    -19.486  0.0000E+00  0.6000E+01
    -19.356  0.0000E+00  0.6000E+01
    -19.227  0.0000E+00  0.6000E+01
    -19.097  0.0000E+00  0.6000E+01
    -18.967  0.0000E+00  0.6000E+01
    -18.837  0.0000E+00  0.6000E+01
    -18.708  0.0000E+00  0.6000E+01
    -18.578  0.0000E+00  0.6000E+01
    -18.448  0.0000E+00  0.6000E+01
    -18.319  0.0000E+00  0.6000E+01
    -18.189  0.0000E+00  0.6000E+01
    -18.059  0.0000E+00  0.6000E+01
    -17.929  0.0000E+00  0.6000E+01
    -17.800  0.0000E+00  0.6000E+01
    -17.670  0.0000E+00  0.6000E+01
    -17.540  0.0000E+00  0.6000E+01
    -17.410  0.0000E+00  0.6000E+01
    -17.281  0.0000E+00  0.6000E+01
    -17.151  0.0000E+00  0.6000E+01
    -17.021  0.0000E+00  0.6000E+01
    -16.891  0.0000E+00  0.6000E+01
    -16.762  0.0000E+00  0.6000E+01
    -16.632  0.0000E+00  0.6000E+01
    -16.502  0.0000E+00  0.6000E+01
    -16.372  0.0000E+00  0.6000E+01
    -16.243  0.0000E+00  0.6000E+01
    -16.113  0.0000E+00  0.6000E+01
    -15.983  0.0000E+00  0.6000E+01
    -15.853  0.0000E+00  0.6000E+01
    -15.724  0.0000E+00  0.6000E+01
    -15.594  0.0000E+00  0.6000E+01
    -15.464  0.0000E+00  0.6000E+01
    -15.335  0.0000E+00  0.6000E+01
    -15.205  0.0000E+00  0.6000E+01
    -15.075  0.0000E+00  0.6000E+01
    -14.945  0.0000E+00  0.6000E+01
    -14.816  0.0000E+00  0.6000E+01
    -14.686  0.0000E+00  0.6000E+01
    -14.556  0.0000E+00  0.6000E+01
    -14.426  0.0000E+00  0.6000E+01
    -14.297  0.0000E+00  0.6000E+01
    -14.167  0.0000E+00  0.6000E+01
    -14.037  0.0000E+00  0.6000E+01
    -13.907  0.0000E+00  0.6000E+01
    -13.778  0.0000E+00  0.6000E+01
    -13.648  0.0000E+00  0.6000E+01
    -13.518  0.0000E+00  0.6000E+01
    -13.388  0.0000E+00  0.6000E+01
    -13.259  0.0000E+00  0.6000E+01
    -13.129  0.0000E+00  0.6000E+01
    -12.999  0.0000E+00  0.6000E+01
    -12.869  0.0000E+00  0.6000E+01
    -12.740  0.0000E+00  0.6000E+01
    -12.610  0.0000E+00  0.6000E+01
    -12.480  0.0000E+00  0.6000E+01
    -12.350  0.0000E+00  0.6000E+01
    -12.221  0.0000E+00  0.6000E+01
    -12.091  0.0000E+00  0.6000E+01
    -11.961  0.0000E+00  0.6000E+01
    -11.832  0.0000E+00  0.6000E+01
    -11.702  0.0000E+00  0.6000E+01
    -11.572  0.0000E+00  0.6000E+01
    -11.442  0.0000E+00  0.6000E+01
    -11.313  0.0000E+00  0.6000E+01
    -11.183  0.0000E+00  0.6000E+01
    -11.053  0.0000E+00  0.6000E+01
    -10.923  0.0000E+00  0.6000E+01
    -10.794  0.0000E+00  0.6000E+01
    -10.664  0.0000E+00  0.6000E+01
    -10.534  0.0000E+00  0.6000E+01
    -10.404  0.0000E+00  0.6000E+01
    -10.275  0.0000E+00  0.6000E+01
    -10.145  0.0000E+00  0.6000E+01
    -10.015  0.0000E+00  0.6000E+01
     -9.885  0.0000E+00  0.6000E+01
     -9.756  0.0000E+00  0.6000E+01
     -9.626  0.0000E+00  0.6000E+01
     -9.496  0.0000E+00  0.6000E+01
     -9.366  0.0000E+00  0.6000E+01
     -9.237  0.0000E+00  0.6000E+01
     -9.107  0.0000E+00  0.6000E+01
     -8.977  0.0000E+00  0.6000E+01
     -8.848  0.0000E+00  0.6000E+01
     -8.718  0.0000E+00  0.6000E+01
     -8.588  0.0000E+00  0.6000E+01
     -8.458  0.0000E+00  0.6000E+01
     -8.329  0.0000E+00  0.6000E+01
     -8.199  0.0000E+00  0.6000E+01
     -8.069  0.0000E+00  0.6000E+01
     -7.939  0.0000E+00  0.6000E+01
     -7.810  0.0000E+00  0.6000E+01
     -7.680  0.0000E+00  0.6000E+01
     -7.550  0.0000E+00  0.6000E+01
     -7.420  0.0000E+00  0.6000E+01
     -7.291  0.0000E+00  0.6000E+01
     -7.161  0.0000E+00  0.6000E+01
     -7.031  0.0000E+00  0.6000E+01
     -6.901  0.0000E+00  0.6000E+01
     -6.772  0.0000E+00  0.6000E+01
     -6.642  0.0000E+00  0.6000E+01
     -6.512  0.0000E+00  0.6000E+01
     -6.382  0.0000E+00  0.6000E+01
     -6.253  0.0000E+00  0.6000E+01
     -6.123  0.0000E+00  0.6000E+01
     -5.993  0.0000E+00  0.6000E+01
     -5.863  0.0000E+00  0.6000E+01
     -5.734  0.0000E+00  0.6000E+01
     -5.604  0.0000E+00  0.6000E+01
     -5.474  0.0000E+00  0.6000E+01
     -5.345  0.0000E+00  0.6000E+01
     -5.215  0.0000E+00  0.6000E+01
     -5.085  0.0000E+00  0.6000E+01
     -4.955  0.0000E+00  0.6000E+01
     -4.826  0.0000E+00  0.6000E+01
     -4.696  0.0000E+00  0.6000E+01
     -4.566  0.0000E+00  0.6000E+01
     -4.436  0.0000E+00  0.6000E+01
     -4.307  0.0000E+00  0.6000E+01
     -4.177  0.0000E+00  0.6000E+01
     -4.047  0.0000E+00  0.6000E+01
     -3.917  0.0000E+00  0.6000E+01
     -3.788  0.0000E+00  0.6000E+01
     -3.658  0.0000E+00  0.6000E+01
     -3.528  0.0000E+00  0.6000E+01
     -3.398  0.0000E+00  0.6000E+01
     -3.269  0.0000E+00  0.6000E+01
     -3.139  0.0000E+00  0.6000E+01
     -3.009  0.0000E+00  0.6000E+01
     -2.879  0.0000E+00  0.6000E+01
     -2.750  0.0000E+00  0.6000E+01
     -2.620  0.9093E-04  0.6000E+01
     -2.490  0.6593E-01  0.6009E+01
     -2.361  0.7398E-01  0.6023E+01
     -2.231  0.2245E+00  0.6054E+01
     -2.101  0.4210E-01  0.6059E+01
     -1.971  0.1684E+00  0.6103E+01
     -1.842  0.2236E+00  0.6154E+01
     -1.712  0.8419E-01  0.6165E+01
     -1.582  0.2145E+00  0.6236E+01
     -1.452  0.3368E+00  0.6301E+01
     -1.323  0.3913E+00  0.6352E+01
     -1.193  0.6523E+00  0.6459E+01
     -1.063  0.2201E+00  0.6517E+01
     -0.933  0.4563E+00  0.6635E+01
     -0.804  0.1046E+01  0.6839E+01
     -0.674  0.1162E+01  0.7035E+01
     -0.544  0.3453E+01  0.7720E+01
     -0.414  0.0000E+00  0.8000E+01
     -0.285  0.0000E+00  0.8000E+01
     -0.155  0.0000E+00  0.8000E+01
     -0.025  0.0000E+00  0.8000E+01
      0.105  0.0000E+00  0.8000E+01
      0.234  0.0000E+00  0.8000E+01
      0.364  0.0000E+00  0.8000E+01
      0.494  0.0000E+00  0.8000E+01
      0.624  0.0000E+00  0.8000E+01
      0.753  0.0000E+00  0.8000E+01
      0.883  0.0000E+00  0.8000E+01
      1.013  0.0000E+00  0.8000E+01
      1.142  0.0000E+00  0.8000E+01
      1.272  0.0000E+00  0.8000E+01
      1.402  0.0000E+00  0.8000E+01
      1.532  0.0000E+00  0.8000E+01
      1.661  0.0000E+00  0.8000E+01
      1.791  0.0000E+00  0.8000E+01
      1.921  0.0000E+00  0.8000E+01
      2.051  0.0000E+00  0.8000E+01
      2.180  0.0000E+00  0.8000E+01
      2.310  0.0000E+00  0.8000E+01
      2.440  0.0000E+00  0.8000E+01
      2.570  0.0000E+00  0.8000E+01
      2.699  0.0000E+00  0.8000E+01
      2.829  0.0000E+00  0.8000E+01
      2.959  0.4216E-01  0.8005E+01
      3.089  0.6832E+00  0.8167E+01
      3.218  0.1403E+01  0.8572E+01
      3.348  0.2687E+01  0.9079E+01
      3.478  0.1030E+01  0.9246E+01
      3.608  0.1988E+01  0.9594E+01
      3.737  0.6328E+00  0.9732E+01
      3.867  0.8420E+00  0.9917E+01
      3.997  0.3497E+00  0.9963E+01
      4.126  0.2298E+01  0.1041E+02
      4.256  0.2526E+01  0.1112E+02
      4.386  0.3075E+01  0.1165E+02
      4.516  0.2954E+01  0.1215E+02
      4.645  0.2354E+01  0.1266E+02
      4.775  0.2581E+01  0.1317E+02
      4.905  0.1624E+01  0.1353E+02
      5.035  0.1014E+01  0.1383E+02
      5.164  0.6064E+00  0.1400E+02
      5.294  0.2605E-12  0.1401E+02
      5.424  0.2955E+00  0.1405E+02
      5.554  0.1615E+01  0.1432E+02
      5.683  0.4782E+01  0.1506E+02
      5.813  0.5901E+01  0.1636E+02
      5.943  0.4556E+01  0.1718E+02
      6.073  0.2381E+01  0.1777E+02
      6.202  0.1739E+01  0.1814E+02
      6.332  0.9425E+00  0.1838E+02
      6.462  0.1094E+01  0.1865E+02
      6.592  0.2127E+01  0.1895E+02
      6.721  0.1072E+01  0.1916E+02
      6.851  0.6736E+00  0.1937E+02
      6.981  0.5943E+00  0.1953E+02
      7.111  0.4766E+00  0.1966E+02
      7.240  0.8310E+00  0.1980E+02
      7.370  0.6737E+00  0.1991E+02
      7.500  0.5615E+00  0.2002E+02
      7.629  0.7088E+00  0.2016E+02
      7.759  0.7746E+00  0.2037E+02
      7.889  0.1010E+01  0.2053E+02
      8.019  0.5052E+00  0.2060E+02
      8.148  0.1659E+01  0.2082E+02
      8.278  0.9353E+00  0.2099E+02
      8.408  0.7669E+00  0.2120E+02
      8.538  0.1016E+01  0.2135E+02
      8.667  0.1506E+01  0.2167E+02
      8.797  0.4058E+01  0.2229E+02
      8.927  0.6601E+00  0.2260E+02
      9.057  0.1769E+01  0.2301E+02
      9.186  0.1946E+01  0.2334E+02
      9.316  0.1430E+01  0.2359E+02
      9.446  0.7997E+00  0.2377E+02
      9.576  0.4219E+00  0.2388E+02
      9.705  0.1901E+00  0.2395E+02
      9.835  0.3999E-02  0.2397E+02
      9.965  0.2105E-01  0.2400E+02
     10.095  0.0000E+00  0.2400E+02
     10.224  0.0000E+00  0.2400E+02
     10.354  0.0000E+00  0.2400E+02
     10.484  0.0000E+00  0.2400E+02
     10.613  0.0000E+00  0.2400E+02
     10.743  0.0000E+00  0.2400E+02
     10.873  0.0000E+00  0.2400E+02
     11.003  0.0000E+00  0.2400E+02
     11.132  0.0000E+00  0.2400E+02
     11.262  0.2933E-09  0.2400E+02
     11.392  0.1540E+00  0.2403E+02
     11.522  0.1685E+00  0.2409E+02
     11.651  0.5255E+00  0.2423E+02
     11.781  0.6544E+00  0.2432E+02
     11.911  0.6771E+00  0.2446E+02
     12.041  0.7826E+00  0.2463E+02
     12.170  0.7377E+00  0.2482E+02
     12.300  0.6689E+00  0.2511E+02
     12.430  0.1985E+01  0.2548E+02
     12.560  0.2627E+01  0.2610E+02
     12.689  0.9222E+00  0.2634E+02
     12.819  0.2053E+01  0.2672E+02
     12.949  0.2491E+01  0.2715E+02
     13.079  0.2938E+01  0.2771E+02
     13.208  0.2065E+01  0.2810E+02
     13.338  0.1433E+01  0.2840E+02
     13.468  0.2195E+01  0.2883E+02
     13.598  0.2341E+01  0.2928E+02
     13.727  0.1406E+01  0.2950E+02
     13.857  0.1586E+00  0.2961E+02
     13.987  0.1261E+01  0.2985E+02
     14.116  0.1503E+01  0.3016E+02
     14.246  0.7863E+00  0.3033E+02
     14.376  0.1038E+01  0.3057E+02
     14.506  0.1471E+01  0.3080E+02
     14.635  0.1499E+01  0.3110E+02
     14.765  0.1641E+01  0.3155E+02
     14.895  0.6736E+00  0.3171E+02
     15.025  0.8770E+00  0.3187E+02
     15.154  0.6034E+00  0.3197E+02
     15.284  0.0000E+00  0.3199E+02
     15.414  0.0000E+00  0.3199E+02
     15.544  0.7082E-12  0.3199E+02
     15.673  0.0000E+00  0.3200E+02
     15.803  0.0000E+00  0.3200E+02
     15.933  0.0000E+00  0.3200E+02
     16.063  0.0000E+00  0.3200E+02
     16.192  0.0000E+00  0.3200E+02
     16.322  0.0000E+00  0.3200E+02
     16.452  0.0000E+00  0.3200E+02
     16.582  0.0000E+00  0.3200E+02
     16.711  0.0000E+00  0.3200E+02
     16.841  0.0000E+00  0.3200E+02
     16.971  0.0000E+00  0.3200E+02
     17.100  0.0000E+00  0.3200E+02
     17.230  0.0000E+00  0.3200E+02
     17.360  0.0000E+00  0.3200E+02
