    3    3    1    1
  0.1712288E+02  0.4172577E-09  0.4172577E-09  0.4172577E-09  0.5000000E-15
  1.000000000000000E-004
  CAR
 unknown system
     25     84     16

  0.0000000E+00  0.0000000E+00  0.0000000E+00  0.4551661E-03
    1      -19.736006   1.000000
    2      -19.736006   1.000000
    3      -19.736006   1.000000
    4       -2.604245   1.000000
    5        4.606405   1.000000
    6        4.606405   1.000000
    7        4.606405   1.000000
    8        5.349486   1.000000
    9        5.349486   1.000000
   10        9.912435   1.000000
   11        9.912435   1.000000
   12        9.912435   1.000000
   13       12.819235   0.000000
   14       13.353971   0.000000
   15       13.353971   0.000000
   16       13.353971   0.000000

  0.7692308E-01 -0.1949608E-17  0.1879544E-17  0.3641329E-02
    1      -19.739283   1.000000
    2      -19.735535   1.000000
    3      -19.735535   1.000000
    4       -2.514522   1.000000
    5        4.532940   1.000000
    6        4.532940   1.000000
    7        4.533505   1.000000
    8        5.438269   1.000000
    9        5.438269   1.000000
   10        9.419230   1.000000
   11        9.847801   1.000000
   12        9.847801   1.000000
   13       12.615588   0.000000
   14       13.151234   0.000000
   15       13.151234   0.000000
   16       14.117481   0.000000

  0.1538462E+00 -0.3235699E-17  0.3095571E-17  0.3641329E-02
    1      -19.748252   1.000000
    2      -19.734251   1.000000
    3      -19.734251   1.000000
    4       -2.255151   1.000000
    5        4.328455   1.000000
    6        4.396971   1.000000
    7        4.396971   1.000000
    8        5.607451   1.000000
    9        5.607451   1.000000
   10        8.438153   1.000000
   11        9.690046   1.000000
   12        9.690046   1.000000
   13       12.539925   0.000000
   14       12.997463   0.000000
   15       12.997463   0.000000
   16       14.789733   0.000000

  0.2307692E+00 -0.3364641E-17  0.3154448E-17  0.3641329E-02
    1      -19.760584   1.000000
    2      -19.732446   1.000000
    3      -19.732446   1.000000
    4       -1.856789   1.000000
    5        4.020122   1.000000
    6        4.286456   1.000000
    7        4.286456   1.000000
    8        5.738116   1.000000
    9        5.738116   1.000000
   10        7.476290   1.000000
   11        9.520638   1.000000
   12        9.520638   1.000000
   13       12.531267   0.000000
   14       12.989128   0.000000
   15       12.989128   0.000000
   16       15.590784   0.000000

  0.3076923E+00 -0.6471398E-17  0.6191141E-17  0.3641329E-02
    1      -19.773291   1.000000
    2      -19.730538   1.000000
    3      -19.730538   1.000000
    4       -1.375762   1.000000
    5        3.640729   1.000000
    6        4.228299   1.000000
    7        4.228299   1.000000
    8        5.778400   1.000000
    9        5.778400   1.000000
   10        6.724019   1.000000
   11        9.407975   1.000000
   12        9.407975   1.000000
   13       12.524524   0.000000
   14       13.099300   0.000000
   15       13.099300   0.000000
   16       15.089659   0.000000

  0.3846154E+00  0.7277448E-17 -0.7627769E-17  0.3641329E-02
    1      -19.783531   1.000000
    2      -19.728958   1.000000
    3      -19.728958   1.000000
    4       -0.905874   1.000000
    5        3.250720   1.000000
    6        4.216202   1.000000
    7        4.216202   1.000000
    8        5.743113   1.000000
    9        5.743113   1.000000
   10        6.241182   1.000000
   11        9.364976   1.000000
   12        9.364976   1.000000
   13       12.492949   0.000000
   14       13.276374   0.000000
   15       13.276374   0.000000
   16       14.213697   0.000000

  0.4615385E+00 -0.3111973E-17  0.2691588E-17  0.3641329E-02
    1      -19.789192   1.000000
    2      -19.728069   1.000000
    3      -19.728069   1.000000
    4       -0.593663   1.000000
    5        2.979640   1.000000
    6        4.223775   1.000000
    7        4.223775   1.000000
    8        5.696078   1.000000
    9        5.696078   1.000000
   10        6.015383   1.000000
   11        9.359441   1.000000
   12        9.359441   1.000000
   13       12.444779   0.000000
   14       13.423403   0.000000
   15       13.423403   0.000000
   16       13.761830   0.000000

  0.7692308E-01  0.7692308E-01  0.2674011E-17  0.2730997E-02
    1      -19.739157   1.000000
    2      -19.736006   1.000000
    3      -19.736006   1.000000
    4       -2.485105   1.000000
    5        4.288886   1.000000
    6        4.644732   1.000000
    7        4.644732   1.000000
    8        5.392328   1.000000
    9        5.495121   1.000000
   10        9.524132   1.000000
   11        9.693986   1.000000
   12        9.693986   1.000000
   13       12.418985   0.000000
   14       13.359651   0.000000
   15       13.631275   0.000000
   16       13.697513   0.000000

  0.1538462E+00  0.7692308E-01  0.1075898E-17  0.1092399E-01
    1      -19.745791   1.000000
    2      -19.735546   1.000000
    3      -19.734939   1.000000
    4       -2.283897   1.000000
    5        4.031378   1.000000
    6        4.605100   1.000000
    7        4.614771   1.000000
    8        5.505175   1.000000
    9        5.615067   1.000000
   10        8.756193   1.000000
   11        9.490275   1.000000
   12        9.620700   1.000000
   13       12.375475   0.000000
   14       13.126833   0.000000
   15       13.313043   0.000000
   16       14.364703   0.000000

  0.2307692E+00  0.7692308E-01 -0.6858898E-18  0.1092399E-01
    1      -19.756783   1.000000
    2      -19.734261   1.000000
    3      -19.733254   1.000000
    4       -1.934971   1.000000
    5        3.793449   1.000000
    6        4.453938   1.000000
    7        4.526073   1.000000
    8        5.651924   1.000000
    9        5.742788   1.000000
   10        7.810192   1.000000
   11        9.322673   1.000000
   12        9.472450   1.000000
   13       12.514835   0.000000
   14       13.029248   0.000000
   15       13.117072   0.000000
   16       15.120560   0.000000

  0.3076923E+00  0.7692308E-01 -0.1290529E-17  0.1092399E-01
    1      -19.769051   1.000000
    2      -19.732461   1.000000
    3      -19.731684   1.000000
    4       -1.486496   1.000000
    5        3.559218   1.000000
    6        4.282164   1.000000
    7        4.446517   1.000000
    8        5.726264   1.000000
    9        5.816017   1.000000
   10        6.997028   1.000000
   11        9.242491   1.000000
   12        9.316547   1.000000
   13       12.498778   0.000000
   14       13.073043   0.000000
   15       13.247867   0.000000
   16       15.190899   0.000000

  0.3846154E+00  0.7692308E-01  0.6051013E-17  0.1092399E-01
    1      -19.779748   1.000000
    2      -19.730602   1.000000
    3      -19.730555   1.000000
    4       -1.018843   1.000000
    5        3.299141   1.000000
    6        4.177095   1.000000
    7        4.383270   1.000000
    8        5.723760   1.000000
    9        5.813738   1.000000
   10        6.420397   1.000000
   11        9.218586   1.000000
   12        9.240232   1.000000
   13       12.440204   0.000000
   14       13.174405   0.000000
   15       13.459213   0.000000
   16       14.437688   0.000000

  0.4615385E+00  0.7692308E-01  0.1805041E-17  0.1092399E-01
    1      -19.786638   1.000000
    2      -19.730239   1.000000
    3      -19.728983   1.000000
    4       -0.656309   1.000000
    5        3.063849   1.000000
    6        4.168848   1.000000
    7        4.315555   1.000000
    8        5.709218   1.000000
    9        5.767996   1.000000
   10        6.095974   1.000000
   11        9.178015   1.000000
   12        9.265963   1.000000
   13       12.434377   0.000000
   14       13.254117   0.000000
   15       13.355921   0.000000
   16       14.230214   0.000000

 -0.4615385E+00  0.7692308E-01  0.1098719E-16  0.1092399E-01
    1      -19.788392   1.000000
    2      -19.730650   1.000000
    3      -19.728087   1.000000
    4       -0.548802   1.000000
    5        2.991007   1.000000
    6        4.229106   1.000000
    7        4.229698   1.000000
    8        5.720191   1.000000
    9        5.740479   1.000000
   10        6.016466   1.000000
   11        9.153498   1.000000
   12        9.287807   1.000000
   13       12.481091   0.000000
   14       13.055245   0.000000
   15       13.466213   0.000000
   16       14.256809   0.000000

 -0.3846154E+00  0.7692308E-01 -0.6449025E-17  0.1092399E-01
    1      -19.784706   1.000000
    2      -19.731733   1.000000
    3      -19.728073   1.000000
    4       -0.754784   1.000000
    5        3.146156   1.000000
    6        4.141922   1.000000
    7        4.325439   1.000000
    8        5.694331   1.000000
    9        5.811882   1.000000
   10        6.182894   1.000000
   11        9.109795   1.000000
   12        9.318920   1.000000
   13       12.498429   0.000000
   14       13.230288   0.000000
   15       13.386746   0.000000
   16       14.250571   0.000000

 -0.3076923E+00  0.7692308E-01  0.7487640E-17  0.1092399E-01
    1      -19.776294   1.000000
    2      -19.733217   1.000000
    3      -19.728947   1.000000
    4       -1.168907   1.000000
    5        3.438802   1.000000
    6        4.090471   1.000000
    7        4.438991   1.000000
    8        5.696094   1.000000
    9        5.867900   1.000000
   10        6.590225   1.000000
   11        9.056570   1.000000
   12        9.399045   1.000000
   13       12.560981   0.000000
   14       13.175459   0.000000
   15       13.328419   0.000000
   16       14.679012   0.000000

 -0.2307692E+00  0.7692308E-01 -0.4040995E-17  0.1092399E-01
    1      -19.764865   1.000000
    2      -19.734742   1.000000
    3      -19.730525   1.000000
    4       -1.641937   1.000000
    5        3.756362   1.000000
    6        4.103788   1.000000
    7        4.561358   1.000000
    8        5.670435   1.000000
    9        5.853194   1.000000
   10        7.247046   1.000000
   11        9.052918   1.000000
   12        9.551931   1.000000
   13       12.715671   0.000000
   14       12.950622   0.000000
   15       13.185869   0.000000
   16       15.084544   0.000000

 -0.1538462E+00  0.7692308E-01 -0.3294577E-17  0.1092399E-01
    1      -19.752977   1.000000
    2      -19.735873   1.000000
    3      -19.732434   1.000000
    4       -2.064730   1.000000
    5        4.052278   1.000000
    6        4.193427   1.000000
    7        4.664982   1.000000
    8        5.577133   1.000000
    9        5.751637   1.000000
   10        8.105829   1.000000
   11        9.165667   1.000000
   12        9.741290   1.000000
   13       12.790195   0.000000
   14       12.811575   0.000000
   15       13.169546   0.000000
   16       14.436929   0.000000

 -0.7692308E-01  0.7692308E-01 -0.3899216E-17  0.5461994E-02
    1      -19.743667   1.000000
    2      -19.736170   1.000000
    3      -19.734259   1.000000
    4       -2.368773   1.000000
    5        4.317690   1.000000
    6        4.350138   1.000000
    7        4.677705   1.000000
    8        5.468436   1.000000
    9        5.592219   1.000000
   10        8.959199   1.000000
   11        9.454235   1.000000
   12        9.868330   1.000000
   13       12.626947   0.000000
   14       12.856238   0.000000
   15       13.436592   0.000000
   16       13.855711   0.000000

  0.1538462E+00  0.1538462E+00  0.5348023E-17  0.2730997E-02
    1      -19.747990   1.000000
    2      -19.736016   1.000000
    3      -19.736016   1.000000
    4       -2.147596   1.000000
    5        3.712085   1.000000
    6        4.749678   1.000000
    7        4.749678   1.000000
    8        5.515653   1.000000
    9        5.610916   1.000000
   10        8.776594   1.000000
   11        9.246962   1.000000
   12        9.246962   1.000000
   13       12.031935   1.000000
   14       13.344576   0.000000
   15       13.497163   0.000000
   16       14.464847   0.000000

  0.2307692E+00  0.1538462E+00  0.1255517E-17  0.1092399E-01
    1      -19.756059   1.000000
    2      -19.735550   1.000000
    3      -19.735343   1.000000
    4       -1.864937   1.000000
    5        3.453433   1.000000
    6        4.723922   1.000000
    7        4.756326   1.000000
    8        5.631569   1.000000
    9        5.657023   1.000000
   10        8.119753   1.000000
   11        9.057958   1.000000
   12        9.115947   1.000000
   13       12.064887   1.000000
   14       13.118831   0.000000
   15       13.499589   0.000000
   16       14.946331   0.000000

  0.3076923E+00  0.1538462E+00  0.2815314E-17  0.1092399E-01
    1      -19.766378   1.000000
    2      -19.734641   1.000000
    3      -19.734285   1.000000
    4       -1.478621   1.000000
    5        3.273037   1.000000
    6        4.561706   1.000000
    7        4.699163   1.000000
    8        5.730512   1.000000
    9        5.743757   1.000000
   10        7.348917   1.000000
   11        8.965096   1.000000
   12        8.980573   1.000000
   13       12.209249   0.980062
   14       12.971672   0.000000
   15       13.662342   0.000000
   16       15.067622   0.000000

  0.3846154E+00  0.1538462E+00 -0.3720932E-17  0.1092399E-01
    1      -19.775858   1.000000
    2      -19.734730   1.000000
    3      -19.732496   1.000000
    4       -1.059549   1.000000
    5        3.171055   1.000000
    6        4.360332   1.000000
    7        4.612658   1.000000
    8        5.763225   1.000000
    9        5.808799   1.000000
   10        6.707983   1.000000
   11        8.823049   1.000000
   12        9.000299   1.000000
   13       12.218973   0.751689
   14       13.005201   0.000000
   15       13.956033   0.000000
   16       14.486704   0.000000

  0.4615385E+00  0.1538462E+00  0.5910884E-17  0.1092399E-01
    1      -19.782353   1.000000
    2      -19.735654   1.000000
    3      -19.730589   1.000000
    4       -0.708438   1.000000
    5        3.131389   1.000000
    6        4.207305   1.000000
    7        4.488887   1.000000
    8        5.780910   1.000000
    9        5.818328   1.000000
   10        6.289112   1.000000
   11        8.729591   1.000000
   12        9.048290   1.000000
   13       12.219931   0.706884
   14       13.218831   0.000000
   15       13.435674   0.000000
   16       14.677202   0.000000

 -0.4615385E+00  0.1538462E+00 -0.2722787E-16  0.1092399E-01
    1      -19.784678   1.000000
    2      -19.737118   1.000000
    3      -19.729005   1.000000
    4       -0.538514   1.000000
    5        3.132755   1.000000
    6        4.177483   1.000000
    7        4.329964   1.000000
    8        5.769811   1.000000
    9        5.835477   1.000000
   10        6.145920   1.000000
   11        8.664608   1.000000
   12        9.082960   1.000000
   13       12.356761   0.000000
   14       12.929598   0.000000
   15       13.471616   0.000000
   16       14.957427   0.000000

 -0.3846154E+00  0.1538462E+00  0.1084707E-16  0.1092399E-01
    1      -19.782581   1.000000
    2      -19.738649   1.000000
    3      -19.728101   1.000000
    4       -0.618970   1.000000
    5        3.180476   1.000000
    6        4.170237   1.000000
    7        4.293964   1.000000
    8        5.713741   1.000000
    9        5.916925   1.000000
   10        6.262966   1.000000
   11        8.579711   1.000000
   12        9.125946   1.000000
   13       12.513820   0.000000
   14       12.927867   0.000000
   15       13.525216   0.000000
   16       14.869861   0.000000

 -0.3076923E+00  0.1538462E+00 -0.2971845E-17  0.1092399E-01
    1      -19.776689   1.000000
    2      -19.739668   1.000000
    3      -19.728080   1.000000
    4       -0.918008   1.000000
    5        3.300297   1.000000
    6        4.053230   1.000000
    7        4.499530   1.000000
    8        5.676604   1.000000
    9        5.975347   1.000000
   10        6.606051   1.000000
   11        8.462519   1.000000
   12        9.226359   1.000000
   13       12.557848   0.000000
   14       13.348562   0.000000
   15       13.504965   0.000000
   16       14.641323   0.000000

 -0.2307692E+00  0.1538462E+00  0.7347512E-17  0.1092399E-01
    1      -19.768450   1.000000
    2      -19.739650   1.000000
    3      -19.728950   1.000000
    4       -1.328584   1.000000
    5        3.497918   1.000000
    6        4.010598   1.000000
    7        4.698254   1.000000
    8        5.633966   1.000000
    9        5.967272   1.000000
   10        7.138996   1.000000
   11        8.392701   1.000000
   12        9.405527   1.000000
   13       12.756910   0.000000
   14       13.085449   0.000000
   15       13.769617   0.000000
   16       14.601231   0.000000

 -0.1538462E+00  0.1538462E+00 -0.6471398E-17  0.5461994E-02
    1      -19.759906   1.000000
    2      -19.738254   1.000000
    3      -19.730522   1.000000
    4       -1.738536   1.000000
    5        3.757600   1.000000
    6        4.057677   1.000000
    7        4.784499   1.000000
    8        5.582469   1.000000
    9        5.884684   1.000000
   10        7.714985   1.000000
   11        8.573583   1.000000
   12        9.615231   1.000000
   13       12.865442   0.000000
   14       13.010363   0.000000
   15       13.419478   0.000000
   16       14.317714   0.000000

  0.2307692E+00  0.2307692E+00  0.8022034E-17  0.2730997E-02
    1      -19.760690   1.000000
    2      -19.736032   1.000000
    3      -19.736032   1.000000
    4       -1.659952   1.000000
    5        3.190072   1.000000
    6        4.891665   1.000000
    7        4.891665   1.000000
    8        5.541403   1.000000
    9        5.702710   1.000000
   10        8.069105   1.000000
   11        8.834352   1.000000
   12        8.834352   1.000000
   13       11.755947   1.000000
   14       12.932723   0.000000
   15       13.741859   0.000000
   16       15.111401   0.000000

  0.3076923E+00  0.2307692E+00  0.1250899E-16  0.1092399E-01
    1      -19.768458   1.000000
    2      -19.736156   1.000000
    3      -19.735590   1.000000
    4       -1.358293   1.000000
    5        3.041347   1.000000
    6        4.836020   1.000000
    7        4.912940   1.000000
    8        5.555663   1.000000
    9        5.805828   1.000000
   10        7.574766   1.000000
   11        8.670758   1.000000
   12        8.727539   1.000000
   13       11.785958   1.000000
   14       12.741347   0.000000
   15       13.923406   0.000000
   16       15.098050   0.000000

  0.3846154E+00  0.2307692E+00  0.2383564E-16  0.1092399E-01
    1      -19.775688   1.000000
    2      -19.737450   1.000000
    3      -19.734327   1.000000
    4       -1.022745   1.000000
    5        3.028059   1.000000
    6        4.618010   1.000000
    7        4.850099   1.000000
    8        5.686597   1.000000
    9        5.865464   1.000000
   10        6.986802   1.000000
   11        8.463704   1.000000
   12        8.739074   1.000000
   13       11.883298   1.000000
   14       12.716825   0.000000
   15       14.309841   0.000000
   16       14.512480   0.000000

  0.4615385E+00  0.2307692E+00 -0.8832455E-18  0.1092399E-01
    1      -19.780121   1.000000
    2      -19.740293   1.000000
    3      -19.732538   1.000000
    4       -0.731679   1.000000
    5        3.146189   1.000000
    6        4.383228   1.000000
    7        4.709656   1.000000
    8        5.786026   1.000000
    9        5.904303   1.000000
   10        6.520682   1.000000
   11        8.260764   1.000000
   12        8.791346   1.000000
   13       11.920042   1.000000
   14       12.946131   0.000000
   15       13.725610   0.000000
   16       14.789980   0.000000

 -0.4615385E+00  0.2307692E+00 -0.2673933E-16  0.1092399E-01
    1      -19.780900   1.000000
    2      -19.744025   1.000000
    3      -19.730639   1.000000
    4       -0.556508   1.000000
    5        3.329320   1.000000
    6        4.195224   1.000000
    7        4.508590   1.000000
    8        5.737619   1.000000
    9        5.965538   1.000000
   10        6.377098   1.000000
   11        8.096767   1.000000
   12        8.827342   1.000000
   13       12.020533   1.000000
   14       13.144153   0.000000
   15       13.368472   0.000000
   16       14.846355   0.000000

 -0.3846154E+00  0.2307692E+00 -0.3229729E-17  0.1092399E-01
    1      -19.778525   1.000000
    2      -19.747247   1.000000
    3      -19.729042   1.000000
    4       -0.540989   1.000000
    5        3.407742   1.000000
    6        4.167811   1.000000
    7        4.294648   1.000000
    8        5.673820   1.000000
    9        6.037137   1.000000
   10        6.503366   1.000000
   11        7.960463   1.000000
   12        8.872134   1.000000
   13       12.257218   0.000001
   14       12.889620   0.000000
   15       13.657650   0.000000
   16       14.693439   0.000000

 -0.3076923E+00  0.2307692E+00  0.1070694E-16  0.1092399E-01
    1      -19.774724   1.000000
    2      -19.748026   1.000000
    3      -19.728109   1.000000
    4       -0.694937   1.000000
    5        3.346828   1.000000
    6        4.118800   1.000000
    7        4.354260   1.000000
    8        5.677858   1.000000
    9        6.075270   1.000000
   10        6.769025   1.000000
   11        7.850189   1.000000
   12        8.982868   1.000000
   13       12.439214   0.000000
   14       13.221619   0.000000
   15       13.574728   0.000000
   16       14.587801   0.000000

 -0.2307692E+00  0.2307692E+00 -0.6729282E-17  0.5461994E-02
    1      -19.771390   1.000000
    2      -19.745049   1.000000
    3      -19.728083   1.000000
    4       -0.983608   1.000000
    5        3.351391   1.000000
    6        4.017392   1.000000
    7        4.585085   1.000000
    8        5.665444   1.000000
    9        6.050259   1.000000
   10        7.038144   1.000000
   11        7.921065   1.000000
   12        9.178572   1.000000
   13       12.596215   0.000000
   14       13.330288   0.000000
   15       13.919118   0.000000
   16       14.653177   0.000000

  0.3076923E+00  0.3076923E+00  0.1069605E-16  0.2730997E-02
    1      -19.774480   1.000000
    2      -19.736066   1.000000
    3      -19.736066   1.000000
    4       -1.157658   1.000000
    5        2.936860   1.000000
    6        5.027700   1.000000
    7        5.027700   1.000000
    8        5.342057   1.000000
    9        5.922097   1.000000
   10        7.400891   1.000000
   11        8.573043   1.000000
   12        8.573043   1.000000
   13       11.543895   1.000000
   14       12.481363   0.000000
   15       14.074396   0.000000
   16       15.017872   0.000000

  0.3846154E+00  0.3076923E+00  0.6437258E-17  0.1092399E-01
    1      -19.780412   1.000000
    2      -19.736964   1.000000
    3      -19.735621   1.000000
    4       -0.928473   1.000000
    5        2.989180   1.000000
    6        4.873344   1.000000
    7        5.033016   1.000000
    8        5.444594   1.000000
    9        6.007261   1.000000
   10        6.974246   1.000000
   11        8.405098   1.000000
   12        8.547172   1.000000
   13       11.553016   1.000000
   14       12.360863   0.000000
   15       14.337786   0.000000
   16       14.618276   0.000000

  0.4615385E+00  0.3076923E+00  0.2300797E-16  0.1092399E-01
    1      -19.783281   1.000000
    2      -19.740256   1.000000
    3      -19.734362   1.000000
    4       -0.725518   1.000000
    5        3.189272   1.000000
    6        4.618082   1.000000
    7        4.928861   1.000000
    8        5.645762   1.000000
    9        6.054892   1.000000
   10        6.541390   1.000000
   11        8.102216   1.000000
   12        8.583349   1.000000
   13       11.623761   1.000000
   14       12.527669   0.000000
   15       13.941075   0.000000
   16       14.579412   0.000000

 -0.4615385E+00  0.3076923E+00 -0.9443242E-17  0.1092399E-01
    1      -19.781977   1.000000
    2      -19.745728   1.000000
    3      -19.732571   1.000000
    4       -0.585892   1.000000
    5        3.468714   1.000000
    6        4.384669   1.000000
    7        4.731563   1.000000
    8        5.644943   1.000000
    9        6.102314   1.000000
   10        6.435042   1.000000
   11        7.768217   1.000000
   12        8.610471   1.000000
   13       11.720004   1.000000
   14       13.026594   0.000000
   15       13.387521   0.000000
   16       14.379997   0.000000

 -0.3846154E+00  0.3076923E+00 -0.4989662E-18  0.1092399E-01
    1      -19.777363   1.000000
    2      -19.751693   1.000000
    3      -19.730663   1.000000
    4       -0.526167   1.000000
    5        3.694888   1.000000
    6        4.134355   1.000000
    7        4.493742   1.000000
    8        5.557741   1.000000
    9        6.141646   1.000000
   10        6.704829   1.000000
   11        7.470312   1.000000
   12        8.652545   1.000000
   13       11.919473   1.000000
   14       13.025094   0.000000
   15       13.692444   0.000000
   16       14.296693   0.000000

 -0.3076923E+00  0.3076923E+00 -0.1294280E-16  0.5461994E-02
    1      -19.773504   1.000000
    2      -19.753771   1.000000
    3      -19.729040   1.000000
    4       -0.558770   1.000000
    5        3.573895   1.000000
    6        4.149224   1.000000
    7        4.274741   1.000000
    8        5.612363   1.000000
    9        6.137165   1.000000
   10        6.941958   1.000000
   11        7.388752   1.000000
   12        8.772135   1.000000
   13       12.207564   0.989087
   14       12.961933   0.000000
   15       13.782542   0.000000
   16       14.355492   0.000000

  0.3846154E+00  0.3846154E+00  0.1337006E-16  0.2730997E-02
    1      -19.786154   1.000000
    2      -19.736095   1.000000
    3      -19.736095   1.000000
    4       -0.810922   1.000000
    5        3.091959   1.000000
    6        5.121374   1.000000
    7        5.121374   1.000000
    8        5.158856   1.000000
    9        6.124924   1.000000
   10        6.643059   1.000000
   11        8.475234   1.000000
   12        8.475234   1.000000
   13       11.386522   1.000000
   14       12.091223   1.000000
   15       14.289041   0.000000
   16       14.491217   0.000000

  0.4615385E+00  0.3846154E+00  0.7110509E-17  0.1092399E-01
    1      -19.789095   1.000000
    2      -19.737534   1.000000
    3      -19.735649   1.000000
    4       -0.701439   1.000000
    5        3.309689   1.000000
    6        4.876028   1.000000
    7        5.094687   1.000000
    8        5.410492   1.000000
    9        6.183727   1.000000
   10        6.236821   1.000000
   11        8.317214   1.000000
   12        8.482686   1.000000
   13       11.397384   1.000000
   14       12.092647   1.000000
   15       14.048429   0.000000
   16       14.274064   0.000000

 -0.4615385E+00  0.3846154E+00  0.1742579E-16  0.1092399E-01
    1      -19.787615   1.000000
    2      -19.741939   1.000000
    3      -19.734385   1.000000
    4       -0.615540   1.000000
    5        3.546588   1.000000
    6        4.682462   1.000000
    7        4.951234   1.000000
    8        5.519873   1.000000
    9        6.098806   1.000000
   10        6.207540   1.000000
   11        7.953887   1.000000
   12        8.494037   1.000000
   13       11.489125   1.000000
   14       12.467456   0.000000
   15       13.627730   0.000000
   16       14.123997   0.000000

 -0.3846154E+00  0.3846154E+00  0.1455490E-16  0.5461994E-02
    1      -19.782373   1.000000
    2      -19.748036   1.000000
    3      -19.732584   1.000000
    4       -0.555926   1.000000
    5        3.703023   1.000000
    6        4.421393   1.000000
    7        4.730430   1.000000
    8        5.459020   1.000000
    9        6.200122   1.000000
   10        6.440439   1.000000
   11        7.565801   1.000000
   12        8.528811   1.000000
   13       11.655920   1.000000
   14       13.145956   0.000000
   15       13.266136   0.000000
   16       14.037963   0.000000

  0.4615385E+00  0.4615385E+00  0.1604407E-16  0.2730997E-02
    1      -19.792853   1.000000
    2      -19.736118   1.000000
    3      -19.736118   1.000000
    4       -0.671971   1.000000
    5        3.469914   1.000000
    6        5.163475   1.000000
    7        5.163791   1.000000
    8        5.163791   1.000000
    9        5.874490   1.000000
   10        6.250156   1.000000
   11        8.470121   1.000000
   12        8.470121   1.000000
   13       11.302308   1.000000
   14       11.862145   1.000000
   15       14.098903   0.000000
   16       14.112080   0.000000

 -0.4615385E+00  0.4615385E+00 -0.6223946E-17  0.5461994E-02
    1      -19.792277   1.000000
    2      -19.737746   1.000000
    3      -19.735670   1.000000
    4       -0.643468   1.000000
    5        3.564080   1.000000
    6        4.954103   1.000000
    7        5.111421   1.000000
    8        5.415929   1.000000
    9        5.749987   1.000000
   10        6.256355   1.000000
   11        8.308017   1.000000
   12        8.470871   1.000000
   13       11.344278   1.000000
   14       11.999147   1.000000
   15       13.865015   0.000000
   16       14.061002   0.000000

  0.2307692E+00  0.1538462E+00  0.7692308E-01  0.1092399E-01
    1      -19.752245   1.000000
    2      -19.736613   1.000000
    3      -19.733419   1.000000
    4       -2.039961   1.000000
    5        3.756957   1.000000
    6        4.462773   1.000000
    7        4.763791   1.000000
    8        5.553239   1.000000
    9        5.723020   1.000000
   10        8.288781   1.000000
   11        9.001675   1.000000
   12        9.573972   1.000000
   13       12.391717   0.000000
   14       13.152610   0.000000
   15       13.323195   0.000000
   16       14.365204   0.000000

  0.3076923E+00  0.1538462E+00  0.7692308E-01  0.2184797E-01
    1      -19.761931   1.000000
    2      -19.736952   1.000000
    3      -19.731579   1.000000
    4       -1.670256   1.000000
    5        3.528828   1.000000
    6        4.311549   1.000000
    7        4.743563   1.000000
    8        5.627373   1.000000