 vasp.6.0.8 29Jun18 (build Jun 13 2019 12:54:44) complex

 executed on      IFC18_CrayMPICH date 2021.12.05  14:21:49
 running   64 mpi-ranks, with    1 threads/rank
 distrk:  each k-point on   16 cores,    4 groups
 distr:  one band on NCORES_PER_BAND=   4 cores,    4 groups


--------------------------------------------------------------------------------------------------------


 INCAR:
 POTCAR:    PAW_PBE Hf_pv 06Sep2000
 POTCAR:    PAW_PBE Sb 06Sep2000
 POTCAR:    PAW_PBE Pt 04Feb2005
 POTCAR:    PAW_PBE Hf_pv 06Sep2000
   VRHFIN =Hf: 5p6s5d
   LEXCH  = PE
   EATOM  =   860.9206 eV,   63.2759 Ry

   TITEL  = PAW_PBE Hf_pv 06Sep2000
   LULTRA =        F    use ultrasoft PP ?
   IUNSCR =        1    unscreen: 0-lin 1-nonlin 2-no
   RPACOR =    2.500    partial core radius
   POMASS =  178.490; ZVAL   =   10.000    mass and valenz
   RCORE  =    2.600    outmost cutoff radius
   RWIGS  =    3.050; RWIGS  =    1.614    wigner-seitz radius (au A)
   ENMAX  =  220.334; ENMIN  =  165.250 eV
   RCLOC  =    2.212    cutoff for local pot
   LCOR   =        T    correct aug charges
   LPAW   =        T    paw PP
   EAUG   =  380.878
   DEXC   =    0.000
   RMAX   =    2.665    core radius for proj-oper
   RAUG   =    1.300    factor for augmentation sphere
   RDEP   =    2.681    radius for radial grids
   RDEPT  =    2.139    core radius for aug-charge

   Atomic configuration
   15 entries
     n  l   j            E        occ.
     1  0  0.50    -65259.4397   2.0000
     2  0  0.50    -11157.9884   2.0000
     2  1  1.50     -9795.2114   6.0000
     3  0  0.50     -2541.4060   2.0000
     3  1  1.50     -2134.4772   6.0000
     3  2  2.50     -1653.5420  10.0000
     4  0  0.50      -510.9577   2.0000
     4  1  1.50      -377.5024   6.0000
     4  2  2.50      -205.2086  10.0000
     4  3  3.50       -15.4906  14.0000
     5  0  0.50       -65.6020   2.0000
     5  1  1.50       -34.2798   6.0000
     5  2  2.50        -1.9877   3.0000
     6  0  0.50        -4.7357   1.0000
     5  3  2.50        -1.3606   0.0000
   Description
     l       E           TYP  RCUT    TYP  RCUT
     1    -34.2797769     23  2.500
     1    -35.6403595     23  2.500
     2     -1.9876655     23  2.500
     2      0.0744675     23  2.500
     0     -4.7356889     23  2.600
     0      3.2364748     23  2.600
  local pseudopotential read in
  partial core-charges read in
  partial kinetic energy density read in
  atomic valenz-charges read in
  non local Contribution for L=           1  read in
    real space projection operators read in
  non local Contribution for L=           1  read in
    real space projection operators read in
  non local Contribution for L=           2  read in
    real space projection operators read in
  non local Contribution for L=           2  read in
    real space projection operators read in
  non local Contribution for L=           0  read in
    real space projection operators read in
  non local Contribution for L=           0  read in
    real space projection operators read in
    PAW grid and wavefunctions read in

   number of l-projection  operators is LMAX  =           6
   number of lm-projection operators is LMMAX =          18

 POTCAR:    PAW_PBE Sb 06Sep2000
   VRHFIN =Sb: s2p3
   LEXCH  = PE
   EATOM  =   149.9515 eV,   11.0211 Ry

   TITEL  = PAW_PBE Sb 06Sep2000
   LULTRA =        F    use ultrasoft PP ?
   IUNSCR =        1    unscreen: 0-lin 1-nonlin 2-no
   RPACOR =    2.200    partial core radius
   POMASS =  121.750; ZVAL   =    5.000    mass and valenz
   RCORE  =    2.300    outmost cutoff radius
   RWIGS  =    2.980; RWIGS  =    1.577    wigner-seitz radius (au A)
   ENMAX  =  172.069; ENMIN  =  129.052 eV
   ICORE  =        3    local potential
   LCOR   =        T    correct aug charges
   LPAW   =        T    paw PP
   EAUG   =  380.513
   DEXC   =    0.000
   RMAX   =    2.346    core radius for proj-oper
   RAUG   =    1.300    factor for augmentation sphere
   RDEP   =    2.360    radius for radial grids
   RDEPT  =    2.192    core radius for aug-charge

   Atomic configuration
   13 entries
     n  l   j            E        occ.
     1  0  0.50    -30298.2797   2.0000
     2  0  0.50     -4610.2252   2.0000
     2  1  1.50     -4138.3407   6.0000
     3  0  0.50      -903.8815   2.0000
     3  1  1.50      -750.1337   6.0000
     3  2  2.50      -515.7092  10.0000
     4  0  0.50      -148.8034   2.0000
     4  1  1.50      -101.7581   6.0000
     4  2  2.50       -33.5048  10.0000
     5  0  0.50       -12.8298   2.0000
     5  1  0.50        -4.8276   3.0000
     5  2  1.50        -4.0817   0.0000
     4  3  2.50        -4.0817   0.0000
   Description
     l       E           TYP  RCUT    TYP  RCUT
     0    -12.8297861     23  2.300
     0     13.6058260     23  2.300
     1     -4.8275512     23  2.300
     1     -0.7245443     23  2.300
     2     -4.0817478     23  2.300
     3     -1.3605826     23  2.300
  local pseudopotential read in
  partial core-charges read in
  partial kinetic energy density read in
  atomic valenz-charges read in
  non local Contribution for L=           0  read in
    real space projection operators read in
  non local Contribution for L=           0  read in
    real space projection operators read in
  non local Contribution for L=           1  read in
    real space projection operators read in
  non local Contribution for L=           1  read in
    real space projection operators read in
  non local Contribution for L=           2  read in
    real space projection operators read in
    PAW grid and wavefunctions read in

   number of l-projection  operators is LMAX  =           5
   number of lm-projection operators is LMMAX =          13

 POTCAR:    PAW_PBE Pt 04Feb2005
   VRHFIN =Pt: s1d9
   LEXCH  = PE
   EATOM  =   729.1176 eV,   53.5886 Ry

   TITEL  = PAW_PBE Pt 04Feb2005
   LULTRA =        F    use ultrasoft PP ?
   IUNSCR =        1    unscreen: 0-lin 1-nonlin 2-no
   RPACOR =    2.330    partial core radius
   POMASS =  195.080; ZVAL   =   10.000    mass and valenz
   RCORE  =    2.600    outmost cutoff radius
   RWIGS  =    2.750; RWIGS  =    1.455    wigner-seitz radius (au A)
   ENMAX  =  230.283; ENMIN  =  172.712 eV
   ICORE  =        3    local potential
   LCOR   =        T    correct aug charges
   LPAW   =        T    paw PP
   EAUG   =  358.966
   DEXC   =    0.000
   RMAX   =    2.658    core radius for proj-oper
   RAUG   =    1.300    factor for augmentation sphere
   RDEP   =    2.761    radius for radial grids
   RDEPT  =    2.203    core radius for aug-charge

   Atomic configuration
   16 entries
     n  l   j            E        occ.
     1  0  0.50    -78401.1885   2.0000
     2  0  0.50    -13770.7750   2.0000
     2  1  1.50    -11931.0468   6.0000
     3  0  0.50     -3234.7234   2.0000
     3  1  1.50     -2699.2216   6.0000
     3  2  2.50     -2119.5714  10.0000
     4  0  0.50      -695.1528   2.0000
     4  1  1.50      -519.6034   6.0000
     4  2  2.50      -306.6786  10.0000
     4  3  3.50       -70.1041  14.0000
     5  0  0.50      -101.7747   2.0000
     5  1  1.50       -55.9873   6.0000
     5  2  2.50        -6.1423   9.0000
     6  0  0.50        -5.6573   1.0000
     6  1  1.50        -6.8029   0.0000
     5  3  2.50        -1.3606   0.0000
   Description
     l       E           TYP  RCUT    TYP  RCUT
     2     -6.1423404     23  2.500
     2     -7.5029230     23  2.500
     0     -5.6573207     23  2.500
     0      0.7416693     23  2.500
     1     -2.7211652     23  2.600
     1     20.4087390     23  2.600
     3     -1.3605826     23  2.500
  local pseudopotential read in
  partial core-charges read in
  partial kinetic energy density read in
  atomic valenz-charges read in
  non local Contribution for L=           2  read in
    real space projection operators read in
  non local Contribution for L=           2  read in
    real space projection operators read in
  non local Contribution for L=           0  read in
    real space projection operators read in
  non local Contribution for L=           0  read in
    real space projection operators read in
  non local Contribution for L=           1  read in
    real space projection operators read in
  non local Contribution for L=           1  read in
    real space projection operators read in
    PAW grid and wavefunctions read in

   number of l-projection  operators is LMAX  =           6
   number of lm-projection operators is LMMAX =          18


 -----------------------------------------------------------------------------
|                                                                             |
|  ADVICE TO THIS USER RUNNING 'VASP/VAMP'   (HEAR YOUR MASTER'S VOICE ...):  |
|                                                                             |
|      You enforced a specific xc-type in the INCAR file,                     |
|      a different type was found on the POTCAR file                          |
|          I HOPE YOU KNOW, WHAT YOU ARE  DOING                               |
|                                                                             |
 -----------------------------------------------------------------------------

  PAW_PBE Hf_pv 06Sep2000               :
 energy of atom  1       EATOM= -860.9206
 kinetic energy error for atom=    0.0004 (will be added to EATOM!!)
  PAW_PBE Sb 06Sep2000                  :
 energy of atom  2       EATOM= -149.9515
 kinetic energy error for atom=    0.0002 (will be added to EATOM!!)
  PAW_PBE Pt 04Feb2005                  :
 energy of atom  3       EATOM= -729.1176
 kinetic energy error for atom=    0.0010 (will be added to EATOM!!)


 POSCAR: Hf1 Sb1 Pt1
  positions in direct lattice
  No initial velocities read in
 exchange correlation table for  LEXCH =       14
   RHO(1)=    0.500       N(1)  =     2000
   RHO(2)=  100.500       N(2)  =     4000



--------------------------------------------------------------------------------------------------------


 ion  position               nearest neighbor table
   1  0.750  0.750  0.750-   3 2.56   3 2.56   3 2.56   3 2.56   2 2.95   2 2.95   2 2.95   2 2.95
                             2 2.95   2 2.95
   2  0.250  0.250  0.250-   3 2.56   3 2.56   3 2.56   3 2.56   1 2.95   1 2.95   1 2.95   1 2.95
                             1 2.95   1 2.95
   3  0.000  0.000  0.000-   1 2.56   1 2.56   2 2.56   2 2.56   2 2.56   2 2.56   1 2.56   1 2.56


  LATTYP: Found a face centered cubic cell.
 ALAT       =     5.9009150098

  Lattice vectors:

 A1 = (   0.0000000000,   2.9504575049,   2.9504575049)
 A2 = (   2.9504575049,   0.0000000000,   2.9504575049)
 A3 = (   2.9504575049,   2.9504575049,   0.0000000000)


Analysis of symmetry for initial positions (statically):
=====================================================================
 Subroutine PRICEL returns:
 Original cell was already a primitive cell.


 Routine SETGRP: Setting up the symmetry group for a
 face centered cubic supercell.


 Subroutine GETGRP returns: Found 24 space group operations
 (whereof 24 operations were pure point group operations)
 out of a pool of 48 trial point group operations.


The static configuration has the point symmetry T_d .


Analysis of symmetry for dynamics (positions and initial velocities):
=====================================================================
 Subroutine PRICEL returns:
 Original cell was already a primitive cell.


 Routine SETGRP: Setting up the symmetry group for a
 face centered cubic supercell.


 Subroutine GETGRP returns: Found 24 space group operations
 (whereof 24 operations were pure point group operations)
 out of a pool of 48 trial point group operations.


The dynamic configuration has the point symmetry T_d .


 Subroutine INISYM returns: Found 24 space group operations
 (whereof 24 operations are pure point group operations),
 and found     1 'primitive' translations


----------------------------------------------------------------------------------------

                                     Primitive cell

  volume of cell :      51.3686

  direct lattice vectors                    reciprocal lattice vectors
     0.000000000  2.950457505  2.950457505    -0.169465244  0.169465244  0.169465244
     2.950457505  0.000000000  2.950457505     0.169465244 -0.169465244  0.169465244
     2.950457505  2.950457505  0.000000000     0.169465244  0.169465244 -0.169465244

  length of vectors
     4.172577019  4.172577019  4.172577019     0.293522412  0.293522412  0.293522412

  position of ions in fractional coordinates (direct lattice)
     0.750000000  0.750000000  0.750000000
     0.250000000  0.250000000  0.250000000
     0.000000000  0.000000000  0.000000000

  ion indices of the primitive-cell ions
   primitive index   ion index
                 1           1
                 2           2
                 3           3

----------------------------------------------------------------------------------------



 KPOINTS: KPOINTS

Automatic generation of k-mesh.
Space group operators:
 irot       det(A)        alpha          n_x          n_y          n_z        tau_x        tau_y        tau_z
    1     1.000000     0.000001     1.000000     0.000000     0.000000     0.000000     0.000000     0.000000
    2     1.000000   120.000000    -0.577350    -0.577350    -0.577350     0.000000     0.000000     0.000000
    3     1.000000   120.000000     0.577350     0.577350     0.577350     0.000000     0.000000     0.000000
    4    -1.000000    90.000000    -0.000000    -0.000000    -1.000000     0.000000     0.000000     0.000000
    5    -1.000000   180.000000    -0.000000     0.707107     0.707107     0.000000     0.000000     0.000000
    6    -1.000000    90.000000    -0.000000     1.000000    -0.000000     0.000000     0.000000     0.000000
    7     1.000000   180.000000    -0.000000     0.000000     1.000000     0.000000     0.000000     0.000000
    8     1.000000   120.000000    -0.577350     0.577350     0.577350     0.000000     0.000000     0.000000
    9     1.000000   120.000000    -0.577350     0.577350    -0.577350     0.000000     0.000000     0.000000
   10    -1.000000    90.000000     0.000000     0.000000     1.000000     0.000000     0.000000     0.000000
   11    -1.000000    90.000000    -1.000000     0.000000     0.000000     0.000000     0.000000     0.000000
   12    -1.000000   180.000000     0.707107     0.000000     0.707107     0.000000     0.000000     0.000000
   13     1.000000   120.000000     0.577350    -0.577350     0.577350     0.000000     0.000000     0.000000
   14     1.000000   120.000000    -0.577350    -0.577350     0.577350     0.000000     0.000000     0.000000
   15     1.000000   180.000000     1.000000     0.000000     0.000000     0.000000     0.000000     0.000000
   16    -1.000000    90.000000     0.000000    -1.000000     0.000000     0.000000     0.000000     0.000000
   17    -1.000000   180.000000     0.707107     0.707107    -0.000000     0.000000     0.000000     0.000000
   18    -1.000000    90.000000     1.000000     0.000000     0.000000     0.000000     0.000000     0.000000
   19     1.000000   120.000000     0.577350    -0.577350    -0.577350     0.000000     0.000000     0.000000
   20     1.000000   180.000000     0.000000     1.000000     0.000000     0.000000     0.000000     0.000000
   21     1.000000   120.000000     0.577350     0.577350    -0.577350     0.000000     0.000000     0.000000
   22    -1.000000   180.000000    -0.000000    -0.707107     0.707107     0.000000     0.000000     0.000000
   23    -1.000000   180.000000     0.707107    -0.707107     0.000000     0.000000     0.000000     0.000000
   24    -1.000000   180.000000     0.707107     0.000000    -0.707107     0.000000     0.000000     0.000000

 Subroutine IBZKPT returns following result:
 ===========================================

 Found     84 irreducible k-points:

 Following reciprocal coordinates:
            Coordinates               Weight
  0.000000  0.000000  0.000000      1.000000
  0.076923 -0.000000  0.000000      8.000000
  0.153846 -0.000000  0.000000      8.000000
  0.230769 -0.000000  0.000000      8.000000
  0.307692 -0.000000  0.000000      8.000000
  0.384615  0.000000 -0.000000      8.000000
  0.461538 -0.000000  0.000000      8.000000
  0.076923  0.076923  0.000000      6.000000
  0.153846  0.076923  0.000000     24.000000
  0.230769  0.076923 -0.000000     24.000000
  0.307692  0.076923 -0.000000     24.000000
  0.384615  0.076923  0.000000     24.000000
  0.461538  0.076923  0.000000     24.000000
 -0.461538  0.076923  0.000000     24.000000
 -0.384615  0.076923 -0.000000     24.000000
 -0.307692  0.076923  0.000000     24.000000
 -0.230769  0.076923 -0.000000     24.000000
 -0.153846  0.076923 -0.000000     24.000000
 -0.076923  0.076923 -0.000000     12.000000
  0.153846  0.153846  0.000000      6.000000
  0.230769  0.153846  0.000000     24.000000
  0.307692  0.153846  0.000000     24.000000
  0.384615  0.153846 -0.000000     24.000000
  0.461538  0.153846  0.000000     24.000000
 -0.461538  0.153846 -0.000000     24.000000
 -0.384615  0.153846  0.000000     24.000000
 -0.307692  0.153846 -0.000000     24.000000
 -0.230769  0.153846  0.000000     24.000000
 -0.153846  0.153846 -0.000000     12.000000
  0.230769  0.230769  0.000000      6.000000
  0.307692  0.230769  0.000000     24.000000
  0.384615  0.230769  0.000000     24.000000
  0.461538  0.230769 -0.000000     24.000000
 -0.461538  0.230769 -0.000000     24.000000
 -0.384615  0.230769 -0.000000     24.000000
 -0.307692  0.230769  0.000000     24.000000
 -0.230769  0.230769 -0.000000     12.000000
  0.307692  0.307692  0.000000      6.000000
  0.384615  0.307692  0.000000     24.000000
  0.461538  0.307692  0.000000     24.000000
 -0.461538  0.307692 -0.000000     24.000000
 -0.384615  0.307692 -0.000000     24.000000
 -0.307692  0.307692 -0.000000     12.000000
  0.384615  0.384615  0.000000      6.000000
  0.461538  0.384615  0.000000     24.000000
 -0.461538  0.384615  0.000000     24.000000
 -0.384615  0.384615  0.000000     12.000000
  0.461538  0.461538  0.000000      6.000000
 -0.461538  0.461538 -0.000000     12.000000
  0.230769  0.153846  0.076923     24.000000
  0.307692  0.153846  0.076923     48.000000
  0.384615  0.153846  0.076923     48.000000
  0.461538  0.153846  0.076923     48.000000
 -0.461538  0.153846  0.076923     48.000000
  0.307692  0.230769  0.076923     24.000000
  0.384615  0.230769  0.076923     48.000000
  0.461538  0.230769  0.076923     48.000000
 -0.461538  0.230769  0.076923     48.000000
 -0.384615  0.230769  0.076923     48.000000
 -0.307692  0.230769  0.076923     48.000000
 -0.230769  0.230769  0.076923     48.000000
 -0.153846  0.230769  0.076923     24.000000
  0.384615  0.307692  0.076923     24.000000
  0.461538  0.307692  0.076923     48.000000
 -0.461538  0.307692  0.076923     48.000000
 -0.384615  0.307692  0.076923     48.000000
 -0.307692  0.307692  0.076923     48.000000
 -0.230769  0.307692  0.076923     24.000000
  0.461538  0.384615  0.076923     24.000000
 -0.461538  0.384615  0.076923     48.000000
 -0.384615  0.384615  0.076923     48.000000
 -0.307692  0.384615  0.076923     24.000000
 -0.461538  0.461538  0.076923     24.000000
 -0.384615  0.461538  0.076923     24.000000
  0.461538  0.307692  0.153846     24.000000
 -0.461538  0.307692  0.153846     48.000000
 -0.384615  0.307692  0.153846     48.000000
 -0.461538  0.384615  0.153846     24.000000
 -0.384615  0.384615  0.153846     48.000000
 -0.307692  0.384615  0.153846     48.000000
 -0.230769  0.384615  0.153846     24.000000
 -0.384615  0.461538  0.153846     24.000000
 -0.307692  0.461538  0.153846     24.000000
 -0.307692  0.461538  0.230769     24.000000

 Following cartesian coordinates:
            Coordinates               Weight
  0.000000  0.000000  0.000000      1.000000
 -0.012101  0.012101  0.012101      8.000000
 -0.024203  0.024203  0.024203      8.000000
 -0.036304  0.036304  0.036304      8.000000
 -0.048405  0.048405  0.048405      8.000000
 -0.060507  0.060507  0.060507      8.000000
 -0.072608  0.072608  0.072608      8.000000
  0.000000  0.000000  0.024203      6.000000
 -0.012101  0.012101  0.036304     24.000000
 -0.024203  0.024203  0.048405     24.000000
 -0.036304  0.036304  0.060507     24.000000
 -0.048405  0.048405  0.072608     24.000000
 -0.060507  0.060507  0.084709     24.000000
  0.084709 -0.084709 -0.060507     24.000000
  0.072608 -0.072608 -0.048405     24.000000
  0.060507 -0.060507 -0.036304     24.000000
  0.048405 -0.048405 -0.024203     24.000000
  0.036304 -0.036304 -0.012101     24.000000
  0.024203 -0.024203  0.000000     12.000000
  0.000000  0.000000  0.048405      6.000000
 -0.012101  0.012101  0.060507     24.000000
 -0.024203  0.024203  0.072608     24.000000
 -0.036304  0.036304  0.084709     24.000000
 -0.048405  0.048405  0.096811     24.000000
  0.096811 -0.096811 -0.048405     24.000000
  0.084709 -0.084709 -0.036304     24.000000
  0.072608 -0.072608 -0.024203     24.000000
  0.060507 -0.060507 -0.012101     24.000000
  0.048405 -0.048405  0.000000     12.000000
  0.000000 -0.000000  0.072608      6.000000
 -0.012101  0.012101  0.084709     24.000000
 -0.024203  0.024203  0.096811     24.000000
 -0.036304  0.036304  0.108912     24.000000
  0.108912 -0.108912 -0.036304     24.000000
  0.096811 -0.096811 -0.024203     24.000000
  0.084709 -0.084709 -0.012101     24.000000
  0.072608 -0.072608  0.000000     12.000000
  0.000000  0.000000  0.096811      6.000000
 -0.012101  0.012101  0.108912     24.000000
 -0.024203  0.024203  0.121014     24.000000
  0.121014 -0.121014 -0.024203     24.000000
  0.108912 -0.108912 -0.012101     24.000000
  0.096811 -0.096811  0.000000     12.000000
  0.000000  0.000000  0.121014      6.000000
 -0.012101  0.012101  0.133115     24.000000
  0.133115 -0.133115 -0.012101     24.000000
  0.121014 -0.121014  0.000000     12.000000
  0.000000 -0.000000  0.145216      6.000000
  0.145216 -0.145216  0.000000     12.000000
  0.000000  0.024203  0.048405     24.000000
 -0.012101  0.036304  0.060507     48.000000
 -0.024203  0.048405  0.072608     48.000000
 -0.036304  0.060507  0.084709     48.000000
  0.108912 -0.084709 -0.060507     48.000000
  0.000000  0.024203  0.072608     24.000000
 -0.012101  0.036304  0.084709     48.000000
 -0.024203  0.048405  0.096811     48.000000
  0.121014 -0.096811 -0.048405     48.000000
  0.108912 -0.084709 -0.036304     48.000000
  0.096811 -0.072608 -0.024203     48.000000
  0.084709 -0.060507 -0.012101     48.000000
  0.072608 -0.048405  0.000000     24.000000
  0.000000  0.024203  0.096811     24.000000
 -0.012101  0.036304  0.108912     48.000000
  0.133115 -0.108912 -0.036304     48.000000
  0.121014 -0.096811 -0.024203     48.000000
  0.108912 -0.084709 -0.012101     48.000000
  0.096811 -0.072608 -0.000000     24.000000
  0.000000  0.024203  0.121014     24.000000
  0.145216 -0.121014 -0.024203     48.000000
  0.133115 -0.108912 -0.012101     48.000000
  0.121014 -0.096811  0.000000     24.000000
  0.157318 -0.133115 -0.012101     24.000000
  0.145216 -0.121014 -0.000000     24.000000
  0.000000  0.048405  0.096811     24.000000
  0.145216 -0.096811 -0.048405     48.000000
  0.133115 -0.084709 -0.036304     48.000000
  0.157318 -0.108912 -0.036304     24.000000
  0.145216 -0.096811 -0.024203     48.000000
  0.133115 -0.084709 -0.012101     48.000000
  0.121014 -0.072608 -0.000000     24.000000
  0.157318 -0.108912 -0.012101     24.000000
  0.145216 -0.096811  0.000000     24.000000
  0.157318 -0.084709 -0.012101     24.000000



--------------------------------------------------------------------------------------------------------




 Dimension of arrays:
   k-points           NKPTS =     84   k-points in BZ     NKDIM =     84   number of bands    NBANDS=     16
   number of dos      NEDOS =    301   number of ions     NIONS =      3
   non local maximal  LDIM  =      6   non local SUM 2l+1 LMDIM =     18
   total plane-waves  NPLWV =  46656
   max r-space proj   IRMAX =      1   max aug-charges    IRDMAX= 440235
   dimension x,y,z NGX =    36 NGY =   36 NGZ =   36
   dimension x,y,z NGXF=    72 NGYF=   72 NGZF=   72
   support grid    NGXF=   144 NGYF=  144 NGZF=  144
   ions per type =               1   1   1
   NGX,Y,Z   is equivalent  to a cutoff of  14.34, 14.34, 14.34 a.u.
   NGXF,Y,Z  is equivalent  to a cutoff of  28.69, 28.69, 28.69 a.u.

 SYSTEM =  unknown system
 POSCAR =  Hf1 Sb1 Pt1

 Startparameter for this run:
   NWRITE =      2    write-flag & timer
   PREC   = acc       normal or accurate (medium, high low for compatibility)
   ISTART =      0    job   : 0-new  1-cont  2-samecut
   ICHARG =      2    charge: 1-file 2-atom 10-const
   ISPIN  =      1    spin polarized calculation?
   LNONCOLLINEAR =      F non collinear calculations
   LSORBIT =      F    spin-orbit coupling
   INIWAV =      1    electr: 0-lowe 1-rand  2-diag
   LASPH  =      F    aspherical Exc in radial PAW
   METAGGA=      F    non-selfconsistent MetaGGA calc.

 Electronic Relaxation 1
   ENCUT  =  700.0 eV  51.45 Ry    7.17 a.u.   9.00  9.00  9.00*2*pi/ulx,y,z
   ENINI  =  700.0     initial cutoff
   ENAUG  =  380.9 eV  augmentation charge cutoff
   NELM   =     60;   NELMIN=  5; NELMDL= -5     # of ELM steps
   EDIFF  = 0.1E-06   stopping-criterion for ELM
   LREAL  =      F    real-space projection
   NLSPLINE    = F    spline interpolate recip. space projectors
   LCOMPAT=      F    compatible to vasp.4.4
   GGA_COMPAT  = T    GGA compatible to vasp.4.4-vasp.4.6
   LMAXPAW     = -100 max onsite density
   LMAXMIX     =    2 max onsite mixed and CHGCAR
   VOSKOWN=      0    Vosko Wilk Nusair interpolation
   ROPT   =    0.00000   0.00000   0.00000
 Ionic relaxation
   EDIFFG = 0.1E-05   stopping-criterion for IOM
   NSW    =      0    number of steps for IOM
   NBLOCK =      1;   KBLOCK =      1    inner block; outer block
   IBRION =     -1    ionic relax: 0-MD 1-quasi-New 2-CG
   NFREE  =      0    steps in history (QN), initial steepest desc. (CG)
   ISIF   =      3    stress and relaxation
   IWAVPR =     10    prediction:  0-non 1-charg 2-wave 3-comb
   ISYM   =      2    0-nonsym 1-usesym 2-fastsym
   LCORR  =      T    Harris-Foulkes like correction to forces

   POTIM  = 0.5000    time-step for ionic-motion
   TEIN   =    0.0    initial temperature
   TEBEG  =    0.0;   TEEND  =   0.0 temperature during run
   SMASS  =  -3.00    Nose mass-parameter (am)
   estimated Nose-frequenzy (Omega)   =  0.10E-29 period in steps = 0.13E+47 mass=  -0.398E-27a.u.
   SCALEE = 1.0000    scale energy and forces
   NPACO  =    256;   APACO  = 16.0  distance and # of slots for P.C.
   PSTRESS=    0.0 pullay stress

  Mass of Ions in am
   POMASS = 178.49121.75195.08
  Ionic Valenz
   ZVAL   =  10.00  5.00 10.00
  Atomic Wigner-Seitz radii
   RWIGS  =  -1.00 -1.00 -1.00
  virtual crystal weights
   VCA    =   1.00  1.00  1.00
   NELECT =      25.0000    total number of electrons
   NUPDOWN=      -1.0000    fix difference up-down

 DOS related values:
   EMIN   =  10.00;   EMAX   =-10.00  energy-range for DOS
   EFERMI =   0.00
   ISMEAR =     0;   SIGMA  =   0.01  broadening in eV -4-tet -1-fermi 0-gaus

 Electronic relaxation 2 (details)
   IALGO  =     38    algorithm
   LDIAG  =      T    sub-space diagonalisation (order eigenvalues)
   LSUBROT=      F    optimize rotation matrix (better conditioning)
   TURBO    =      0    0=normal 1=particle mesh
   IRESTART =      0    0=no restart 2=restart with 2 vectors
   NREBOOT  =      0    no. of reboots
   NMIN     =      0    reboot dimension
   EREF     =   0.00    reference energy to select bands
   IMIX   =      4    mixing-type and parameters
     AMIX     =   0.40;   BMIX     =  1.00
     AMIX_MAG =   1.60;   BMIX_MAG =  1.00
     AMIN     =   0.10
     WC   =   100.;   INIMIX=   1;  MIXPRE=   1;  MAXMIX= -45

 Intra band minimization:
   WEIMIN = 0.0000     energy-eigenvalue tresh-hold
   EBREAK =  0.16E-08  absolut break condition
   DEPER  =   0.30     relativ break condition

   TIME   =   0.40     timestep for ELM

  volume/ion in A,a.u.               =      17.12       115.55
  Fermi-wavevector in a.u.,A,eV,Ry     =   1.287722  2.433442 22.561563  1.658228
  Thomas-Fermi vector in A             =   2.419719

 Write flags
   LWAVE        =      F    write WAVECAR
   LDOWNSAMPLE  =      F    k-point downsampling of WAVECAR
   LCHARG       =      F    write CHGCAR
   LVTOT        =      F    write LOCPOT, total local potential
   LVHAR        =      F    write LOCPOT, Hartree potential only
   LELF         =      F    write electronic localiz. function (ELF)
   LORBIT       =      0    0 simple, 1 ext, 2 COOP (PROOUT), +10 PAW based schemes


 Dipole corrections
   LMONO  =      F    monopole corrections only (constant potential shift)
   LDIPOL =      F    correct potential (dipole corrections)
   IDIPOL =      0    1-x, 2-y, 3-z, 4-all directions
   EPSILON=  1.0000000 bulk dielectric constant

 Exchange correlation treatment:
   GGA     =    PS    GGA type
   LEXCH   =    14    internal setting for exchange type
   VOSKOWN=      0    Vosko Wilk Nusair interpolation
   LHFCALC =     F    Hartree Fock is set to
   LHFONE  =     F    Hartree Fock one center treatment
   AEXX    =    0.0000 exact exchange contribution

 Linear response parameters
   LEPSILON=     F    determine dielectric tensor
   LRPA    =     F    only Hartree local field effects (RPA)
   LNABLA  =     F    use nabla operator in PAW spheres
   LVEL    =     F    velocity operator in full k-point grid
   LINTERFAST=   F  fast interpolation
   KINTER  =     0    interpolate to denser k-point grid
   CSHIFT  =0.1000    complex shift for real part using Kramers Kronig
   OMEGAMAX=  -1.0    maximum frequency
   DEG_THRESHOLD= 0.2000000E-02 threshold for treating states as degnerate
   RTIME   =   -0.100 relaxation time in fs
  (WPLASMAI=    0.000 imaginary part of plasma frequency in eV, 0.658/RTIME)
   DFIELD  = 0.0000000 0.0000000 0.0000000 field for delta impulse in time

 Orbital magnetization related:
   ORBITALMAG=     F  switch on orbital magnetization
   LCHIMAG   =     F  perturbation theory with respect to B field
   DQ        =  0.001000  dq finite difference perturbation B field
   LLRAUG    =     F  two centre corrections for induced B field



--------------------------------------------------------------------------------------------------------


 Static calculation
 charge density and potential will be updated during run
 non-spin polarized calculation
 Variant of blocked Davidson
 Davidson routine will perform the subspace rotation
 perform sub-space diagonalisation
    after iterative eigenvector-optimisation
 modified Broyden-mixing scheme, WC =      100.0
 initial mixing is a Kerker type mixing with AMIX =  0.4000 and BMIX =      1.0000
 Hartree-type preconditioning will be used
 using additional bands            3
 reciprocal scheme for non local part
 use partial core corrections
 calculate Harris-corrections to forces
   (improved forces if not selfconsistent)
 use gradient corrections
 use of overlap-Matrix (Vanderbilt PP)
 Gauss-broadening in eV      SIGMA  =   0.01


--------------------------------------------------------------------------------------------------------


  energy-cutoff  :      700.00
  volume of cell :       51.37
      direct lattice vectors                 reciprocal lattice vectors
     0.000000000  2.950457505  2.950457505    -0.169465244  0.169465244  0.169465244
     2.950457505  0.000000000  2.950457505     0.169465244 -0.169465244  0.169465244
     2.950457505  2.950457505  0.000000000     0.169465244  0.169465244 -0.169465244

  length of vectors
     4.172577019  4.172577019  4.172577019     0.293522412  0.293522412  0.293522412



 k-points in units of 2pi/SCALE and weight: KPOINTS
   0.00000000  0.00000000  0.00000000       0.000
  -0.01210135  0.01210135  0.01210135       0.004
  -0.02420271  0.02420271  0.02420271       0.004
  -0.03630406  0.03630406  0.03630406       0.004
  -0.04840541  0.04840541  0.04840541       0.004
  -0.06050677  0.06050677  0.06050677       0.004
  -0.07260812  0.07260812  0.07260812       0.004
   0.00000000  0.00000000  0.02420271       0.003
  -0.01210135  0.01210135  0.03630406       0.011
  -0.02420271  0.02420271  0.04840541       0.011
  -0.03630406  0.03630406  0.06050677       0.011
  -0.04840541  0.04840541  0.07260812       0.011
  -0.06050677  0.06050677  0.08470948       0.011
   0.08470948 -0.08470948 -0.06050677       0.011
   0.07260812 -0.07260812 -0.04840541       0.011
   0.06050677 -0.06050677 -0.03630406       0.011
   0.04840541 -0.04840541 -0.02420271       0.011
   0.03630406 -0.03630406 -0.01210135       0.011
   0.02420271 -0.02420271  0.00000000       0.005
   0.00000000  0.00000000  0.04840541       0.003
  -0.01210135  0.01210135  0.06050677       0.011
  -0.02420271  0.02420271  0.07260812       0.011
  -0.03630406  0.03630406  0.08470948       0.011
  -0.04840541  0.04840541  0.09681083       0.011
   0.09681083 -0.09681083 -0.04840541       0.011
   0.08470948 -0.08470948 -0.03630406       0.011
   0.07260812 -0.07260812 -0.02420271       0.011
   0.06050677 -0.06050677 -0.01210135       0.011
   0.04840541 -0.04840541  0.00000000       0.005
   0.00000000 -0.00000000  0.07260812       0.003
  -0.01210135  0.01210135  0.08470948       0.011
  -0.02420271  0.02420271  0.09681083       0.011
  -0.03630406  0.03630406  0.10891218       0.011
   0.10891218 -0.10891218 -0.03630406       0.011
   0.09681083 -0.09681083 -0.02420271       0.011
   0.08470948 -0.08470948 -0.01210135       0.011
   0.07260812 -0.07260812  0.00000000       0.005
   0.00000000  0.00000000  0.09681083       0.003
  -0.01210135  0.01210135  0.10891218       0.011
  -0.02420271  0.02420271  0.12101354       0.011
   0.12101354 -0.12101354 -0.02420271       0.011
   0.10891218 -0.10891218 -0.01210135       0.011
   0.09681083 -0.09681083  0.00000000       0.005
   0.00000000  0.00000000  0.12101354       0.003
  -0.01210135  0.01210135  0.13311489       0.011
   0.13311489 -0.13311489 -0.01210135       0.011
   0.12101354 -0.12101354  0.00000000       0.005
   0.00000000 -0.00000000  0.14521624       0.003
   0.14521624 -0.14521624  0.00000000       0.005
   0.00000000  0.02420271  0.04840541       0.011
  -0.01210135  0.03630406  0.06050677       0.022
  -0.02420271  0.04840541  0.07260812       0.022
  -0.03630406  0.06050677  0.08470948       0.022
   0.10891218 -0.08470948 -0.06050677       0.022
   0.00000000  0.02420271  0.07260812       0.011
  -0.01210135  0.03630406  0.08470948       0.022
  -0.02420271  0.04840541  0.09681083       0.022
   0.12101354 -0.09681083 -0.04840541       0.022
   0.10891218 -0.08470948 -0.03630406       0.022
   0.09681083 -0.07260812 -0.02420271       0.022
   0.08470948 -0.06050677 -0.01210135       0.022
   0.07260812 -0.04840541  0.00000000       0.011
   0.00000000  0.02420271  0.09681083       0.011
  -0.01210135  0.03630406  0.10891218       0.022
   0.13311489 -0.10891218 -0.03630406       0.022
   0.12101354 -0.09681083 -0.02420271       0.022
   0.10891218 -0.08470948 -0.01210135       0.022
   0.09681083 -0.07260812 -0.00000000       0.011
   0.00000000  0.02420271  0.12101354       0.011
   0.14521624 -0.12101354 -0.02420271       0.022
   0.13311489 -0.10891218 -0.01210135       0.022
   0.12101354 -0.09681083  0.00000000       0.011
   0.15731760 -0.13311489 -0.01210135       0.011
   0.14521624 -0.12101354 -0.00000000       0.011
   0.00000000  0.04840541  0.09681083       0.011
   0.14521624 -0.09681083 -0.04840541       0.022
   0.13311489 -0.08470948 -0.03630406       0.022
   0.15731760 -0.10891218 -0.03630406       0.011
   0.14521624 -0.09681083 -0.02420271       0.022
   0.13311489 -0.08470948 -0.01210135       0.022
   0.12101354 -0.07260812 -0.00000000       0.011
   0.15731760 -0.10891218 -0.01210135       0.011
   0.14521624 -0.09681083  0.00000000       0.011
   0.15731760 -0.08470948 -0.01210135       0.011

 k-points in reciprocal lattice and weights: KPOINTS
   0.00000000  0.00000000  0.00000000       0.000
   0.07692308 -0.00000000  0.00000000       0.004
   0.15384615 -0.00000000  0.00000000       0.004
   0.23076923 -0.00000000  0.00000000       0.004
   0.30769231 -0.00000000  0.00000000       0.004
   0.38461538  0.00000000 -0.00000000       0.004
   0.46153846 -0.00000000  0.00000000       0.004
   0.07692308  0.07692308  0.00000000       0.003
   0.15384615  0.07692308  0.00000000       0.011
   0.23076923  0.07692308 -0.00000000       0.011
   0.30769231  0.07692308 -0.00000000       0.011
   0.38461538  0.07692308  0.00000000       0.011
   0.46153846  0.07692308  0.00000000       0.011
  -0.46153846  0.07692308  0.00000000       0.011
  -0.38461538  0.07692308 -0.00000000       0.011
  -0.30769231  0.07692308  0.00000000       0.011
  -0.23076923  0.07692308 -0.00000000       0.011
  -0.15384615  0.07692308 -0.00000000       0.011
  -0.07692308  0.07692308 -0.00000000       0.005
   0.15384615  0.15384615  0.00000000       0.003
   0.23076923  0.15384615  0.00000000       0.011
   0.30769231  0.15384615  0.00000000       0.011
   0.38461538  0.15384615 -0.00000000       0.011
   0.46153846  0.15384615  0.00000000       0.011
  -0.46153846  0.15384615 -0.00000000       0.011
  -0.38461538  0.15384615  0.00000000       0.011
  -0.30769231  0.15384615 -0.00000000       0.011
  -0.23076923  0.15384615  0.00000000       0.011
  -0.15384615  0.15384615 -0.00000000       0.005
   0.23076923  0.23076923  0.00000000       0.003
   0.30769231  0.23076923  0.00000000       0.011
   0.38461538  0.23076923  0.00000000       0.011
   0.46153846  0.23076923 -0.00000000       0.011
  -0.46153846  0.23076923 -0.00000000       0.011
  -0.38461538  0.23076923 -0.00000000       0.011
  -0.30769231  0.23076923  0.00000000       0.011
  -0.23076923  0.23076923 -0.00000000       0.005
   0.30769231  0.30769231  0.00000000       0.003
   0.38461538  0.30769231  0.00000000       0.011
   0.46153846  0.30769231  0.00000000       0.011
  -0.46153846  0.30769231 -0.00000000       0.011
  -0.38461538  0.30769231 -0.00000000       0.011
  -0.30769231  0.30769231 -0.00000000       0.005
   0.38461538  0.38461538  0.00000000       0.003
   0.46153846  0.38461538  0.00000000       0.011
  -0.46153846  0.38461538  0.00000000       0.011
  -0.38461538  0.38461538  0.00000000       0.005
   0.46153846  0.46153846  0.00000000       0.003
  -0.46153846  0.46153846 -0.00000000       0.005
   0.23076923  0.15384615  0.07692308       0.011
   0.30769231  0.15384615  0.07692308       0.022
   0.38461538  0.15384615  0.07692308       0.022
   0.46153846  0.15384615  0.07692308       0.022
  -0.46153846  0.15384615  0.07692308       0.022
   0.30769231  0.23076923  0.07692308       0.011
   0.38461538  0.23076923  0.07692308       0.022
   0.46153846  0.23076923  0.07692308       0.022
  -0.46153846  0.23076923  0.07692308       0.022
  -0.38461538  0.23076923  0.07692308       0.022
  -0.30769231  0.23076923  0.07692308       0.022
  -0.23076923  0.23076923  0.07692308       0.022
  -0.15384615  0.23076923  0.07692308       0.011
   0.38461538  0.30769231  0.07692308       0.011
   0.46153846  0.30769231  0.07692308       0.022
  -0.46153846  0.30769231  0.07692308       0.022
  -0.38461538  0.30769231  0.07692308       0.022
  -0.30769231  0.30769231  0.07692308       0.022
  -0.23076923  0.30769231  0.07692308       0.011
   0.46153846  0.38461538  0.07692308       0.011
  -0.46153846  0.38461538  0.07692308       0.022
  -0.38461538  0.38461538  0.07692308       0.022
  -0.30769231  0.38461538  0.07692308       0.011
  -0.46153846  0.46153846  0.07692308       0.011
  -0.38461538  0.46153846  0.07692308       0.011
   0.46153846  0.30769231  0.15384615       0.011
  -0.46153846  0.30769231  0.15384615       0.022
  -0.38461538  0.30769231  0.15384615       0.022
  -0.46153846  0.38461538  0.15384615       0.011
  -0.38461538  0.38461538  0.15384615       0.022
  -0.30769231  0.38461538  0.15384615       0.022
  -0.23076923  0.38461538  0.15384615       0.011
  -0.38461538  0.46153846  0.15384615       0.011
  -0.30769231  0.46153846  0.15384615       0.011
  -0.30769231  0.46153846  0.23076923       0.011

 position of ions in fractional coordinates (direct lattice)
   0.75000000  0.75000000  0.75000000
   0.25000000  0.25000000  0.25000000
   0.00000000  0.00000000  0.00000000

 position of ions in cartesian coordinates  (Angst):
   4.42568626  4.42568626  4.42568626
   1.47522875  1.47522875  1.47522875
   0.00000000  0.00000000  0.00000000



--------------------------------------------------------------------------------------------------------


 k-point  1 :   0.0000 0.0000 0.0000  plane waves:    2109
 k-point  2 :   0.0769-0.0000 0.0000  plane waves:    2130
 k-point  3 :   0.1538-0.0000 0.0000  plane waves:    2139
 k-point  4 :   0.2308-0.0000 0.0000  plane waves:    2154
 k-point  5 :   0.3077-0.0000 0.0000  plane waves:    2145
 k-point  6 :   0.3846 0.0000-0.0000  plane waves:    2156
 k-point  7 :   0.4615-0.0000 0.0000  plane waves:    2150
 k-point  8 :   0.0769 0.0769 0.0000  plane waves:    2137
 k-point  9 :   0.1538 0.0769 0.0000  plane waves:    2148
 k-point 10 :   0.2308 0.0769-0.0000  plane waves:    2147
 k-point 11 :   0.3077 0.0769-0.0000  plane waves:    2150
 k-point 12 :   0.3846 0.0769 0.0000  plane waves:    2153
 k-point 13 :   0.4615 0.0769 0.0000  plane waves:    2154
 k-point 14 :  -0.4615 0.0769 0.0000  plane waves:    2159
 k-point 15 :  -0.3846 0.0769-0.0000  plane waves:    2160
 k-point 16 :  -0.3077 0.0769 0.0000  plane waves:    2155
 k-point 17 :  -0.2308 0.0769-0.0000  plane waves:    2153
 k-point 18 :  -0.1538 0.0769-0.0000  plane waves:    2147
 k-point 19 :  -0.0769 0.0769-0.0000  plane waves:    2143
 k-point 20 :   0.1538 0.1538 0.0000  plane waves:    2153
 k-point 21 :   0.2308 0.1538 0.0000  plane waves:    2156
 k-point 22 :   0.3077 0.1538 0.0000  plane waves:    2148
 k-point 23 :   0.3846 0.1538-0.0000  plane waves:    2146
 k-point 24 :   0.4615 0.1538 0.0000  plane waves:    2154
 k-point 25 :  -0.4615 0.1538-0.0000  plane waves:    2164
 k-point 26 :  -0.3846 0.1538 0.0000  plane waves:    2163
 k-point 27 :  -0.3077 0.1538-0.0000  plane waves:    2154
 k-point 28 :  -0.2308 0.1538 0.0000  plane waves:    2151
 k-point 29 :  -0.1538 0.1538-0.0000  plane waves:    2145
 k-point 30 :   0.2308 0.2308 0.0000  plane waves:    2157
 k-point 31 :   0.3077 0.2308 0.0000  plane waves:    2154
 k-point 32 :   0.3846 0.2308 0.0000  plane waves:    2145
 k-point 33 :   0.4615 0.2308-0.0000  plane waves:    2157
 k-point 34 :  -0.4615 0.2308-0.0000  plane waves:    2166
 k-point 35 :  -0.3846 0.2308-0.0000  plane waves:    2171
 k-point 36 :  -0.3077 0.2308 0.0000  plane waves:    2164
 k-point 37 :  -0.2308 0.2308-0.0000  plane waves:    2151
 k-point 38 :   0.3077 0.3077 0.0000  plane waves:    2161
 k-point 39 :   0.3846 0.3077 0.0000  plane waves:    2150
 k-point 40 :   0.4615 0.3077 0.0000  plane waves:    2153
 k-point 41 :  -0.4615 0.3077-0.0000  plane waves:    2162
 k-point 42 :  -0.3846 0.3077-0.0000  plane waves:    2159
 k-point 43 :  -0.3077 0.3077-0.0000  plane waves:    2157
 k-point 44 :   0.3846 0.3846 0.0000  plane waves:    2152
 k-point 45 :   0.4615 0.3846 0.0000  plane waves:    2167
 k-point 46 :  -0.4615 0.3846 0.0000  plane waves:    2164
 k-point 47 :  -0.3846 0.3846 0.0000  plane waves:    2153
 k-point 48 :   0.4615 0.4615 0.0000  plane waves:    2168
 k-point 49 :  -0.4615 0.4615-0.0000  plane waves:    2167
 k-point 50 :   0.2308 0.1538 0.0769  plane waves:    2147
 k-point 51 :   0.3077 0.1538 0.0769  plane waves:    2149
 k-point 52 :   0.3846 0.1538 0.0769  plane waves:    2151
 k-point 53 :   0.4615 0.1538 0.0769  plane waves:    2151
 k-point 54 :  -0.4615 0.1538 0.0769  plane waves:    2158
 k-point 55 :   0.3077 0.2308 0.0769  plane waves:    2160
 k-point 56 :   0.3846 0.2308 0.0769  plane waves:    2153
 k-point 57 :   0.4615 0.2308 0.0769  plane waves:    2161
 k-point 58 :  -0.4615 0.2308 0.0769  plane waves:    2164
 k-point 59 :  -0.3846 0.2308 0.0769  plane waves:    2166
 k-point 60 :  -0.3077 0.2308 0.0769  plane waves:    2166
 k-point 61 :  -0.2308 0.2308 0.0769  plane waves:    2156
 k-point 62 :  -0.1538 0.2308 0.0769  plane waves:    2154
 k-point 63 :   0.3846 0.3077 0.0769  plane waves:    2152
 k-point 64 :   0.4615 0.3077 0.0769  plane waves:    2159
 k-point 65 :  -0.4615 0.3077 0.0769  plane waves:    2166
 k-point 66 :  -0.3846 0.3077 0.0769  plane waves:    2165
 k-point 67 :  -0.3077 0.3077 0.0769  plane waves:    2173
 k-point 68 :  -0.2308 0.3077 0.0769  plane waves:    2157
 k-point 69 :   0.4615 0.3846 0.0769  plane waves:    2157
 k-point 70 :  -0.4615 0.3846 0.0769  plane waves:    2168
 k-point 71 :  -0.3846 0.3846 0.0769  plane waves:    2168
 k-point 72 :  -0.3077 0.3846 0.0769  plane waves:    2168
 k-point 73 :  -0.4615 0.4615 0.0769  plane waves:    2158
 k-point 74 :  -0.3846 0.4615 0.0769  plane waves:    2170
 k-point 75 :   0.4615 0.3077 0.1538  plane waves:    2153
 k-point 76 :  -0.4615 0.3077 0.1538  plane waves:    2166
 k-point 77 :  -0.3846 0.3077 0.1538  plane waves:    2178
 k-point 78 :  -0.4615 0.3846 0.1538  plane waves:    2164
 k-point 79 :  -0.3846 0.3846 0.1538  plane waves:    2170
 k-point 80 :  -0.3077 0.3846 0.1538  plane waves:    2176
 k-point 81 :  -0.2308 0.3846 0.1538  plane waves:    2177
 k-point 82 :  -0.3846 0.4615 0.1538  plane waves:    2170
 k-point 83 :  -0.3077 0.4615 0.1538  plane waves:    2175
 k-point 84 :  -0.3077 0.4615 0.2308  plane waves:    2177

 maximum and minimum number of plane-waves per node :       551      516

 maximum number of plane-waves:      2178
 maximum index in each direction:
   IXMAX=    9   IYMAX=    8   IZMAX=    9
   IXMIN=   -9   IYMIN=   -9   IZMIN=   -9


 parallel 3D FFT for wavefunctions:
    minimum data exchange during FFTs selected (reduces bandwidth)
 parallel 3D FFT for charge:
    minimum data exchange during FFTs selected (reduces bandwidth)


 total amount of memory used by VASP MPI-rank0    59156. kBytes
=======================================================================

   base      :      30000. kBytes
   nonl-proj :      20057. kBytes
   fftplans  :       3844. kBytes
   grid      :       2165. kBytes
   one-center:         15. kBytes
   wavefun   :       3075. kBytes

     INWAV:  cpu time    0.0003: real time    0.0123
 Broyden mixing: mesh for mixing (old mesh)
   NGX = 17   NGY = 17   NGZ = 17
  (NGX  = 72   NGY  = 72   NGZ  = 72)
  gives a total of   4913 points

 initial charge density was supplied:
 charge density of overlapping atoms calculated
 number of electron      25.0000000 magnetization
 keeping initial charge density in first step


--------------------------------------------------------------------------------------------------------


 Maximum index for augmentation-charges        26613 (set IRDMAX)


--------------------------------------------------------------------------------------------------------


 First call to EWALD:  gamma=   0.477
 Maximum number of real-space cells 3x 3x 3
 Maximum number of reciprocal cells 3x 3x 3

    FEWALD:  cpu time    0.0053: real time    0.0058


--------------------------------------- Iteration      1(   1)  ---------------------------------------


    POTLOK:  cpu time    0.0383: real time    0.1147
    SETDIJ:  cpu time    0.0674: real time    0.0676
     EDDAV:  cpu time    0.8281: real time    0.8415
       DOS:  cpu time    0.0037: real time    0.0042
    --------------------------------------------
      LOOP:  cpu time    0.9379: real time    1.0294

 eigenvalue-minimisations  :  2704
 total energy-change (2. order) : 0.1521760E+03  (-0.1475032E+04)
 number of electron      25.0000000 magnetization
 augmentation part       25.0000000 magnetization

 Free energy of the ion-electron system (eV)
  ---------------------------------------------------
  alpha Z        PSCENC =       132.62475349
  Ewald energy   TEWEN  =     -1685.18257128
  -Hartree energ DENC   =      -284.04567355
  -exchange      EXHF   =         0.00000000
  -V(xc)+E(xc)   XCENC  =       -16.92752344
  PAW double counting   =      1514.36848356    -1421.27055995
  entropy T*S    EENTRO =        -0.00008449
  eigenvalues    EBANDS =       171.50463923
  atomic energy  EATOM  =      1741.10451121
  Solvation  Ediel_sol  =         0.00000000
  ---------------------------------------------------
  free energy    TOTEN  =       152.17597477 eV

  energy without entropy =      152.17605926  energy(sigma->0) =      152.17601702


--------------------------------------------------------------------------------------------------------




--------------------------------------- Iteration      1(   2)  ---------------------------------------


     EDDAV:  cpu time    0.9862: real time    1.0168
       DOS:  cpu time    0.0025: real time    0.0028
    --------------------------------------------
      LOOP:  cpu time    0.9886: real time    1.0204

 eigenvalue-minimisations  :  3416
 total energy-change (2. order) :-0.1708478E+03  (-0.1693647E+03)
 number of electron      25.0000000 magnetization
 augmentation part       25.0000000 magnetization

 Free energy of the ion-electron system (eV)
  ---------------------------------------------------
  alpha Z        PSCENC =       132.62475349
  Ewald energy   TEWEN  =     -1685.18257128
  -Hartree energ DENC   =      -284.04567355
  -exchange      EXHF   =         0.00000000
  -V(xc)+E(xc)   XCENC  =       -16.92752344
  PAW double counting   =      1514.36848356    -1421.27055995
  entropy T*S    EENTRO =        -0.00023227
  eigenvalues    EBANDS =         0.65695088
  atomic energy  EATOM  =      1741.10451121
  Solvation  Ediel_sol  =         0.00000000
  ---------------------------------------------------
  free energy    TOTEN  =       -18.67186136 eV

  energy without entropy =      -18.67162909  energy(sigma->0) =      -18.67174522


--------------------------------------------------------------------------------------------------------




--------------------------------------- Iteration      1(   3)  ---------------------------------------


     EDDAV:  cpu time    1.0063: real time    1.0354
       DOS:  cpu time    0.0024: real time    0.0028
    --------------------------------------------
      LOOP:  cpu time    1.0087: real time    1.0374

 eigenvalue-minimisations  :  3480
 total energy-change (2. order) :-0.4347322E+01  (-0.4307523E+01)
 number of electron      25.0000000 magnetization
 augmentation part       25.0000000 magnetization

 Free energy of the ion-electron system (eV)
  ---------------------------------------------------
  alpha Z        PSCENC =       132.62475349
  Ewald energy   TEWEN  =     -1685.18257128
  -Hartree energ DENC   =      -284.04567355
  -exchange      EXHF   =         0.00000000
  -V(xc)+E(xc)   XCENC  =       -16.92752344
  PAW double counting   =      1514.36848356    -1421.27055995
  entropy T*S    EENTRO =        -0.00013043
  eigenvalues    EBANDS =        -3.69047270
  atomic energy  EATOM  =      1741.10451121
  Solvation  Ediel_sol  =         0.00000000
  ---------------------------------------------------
  free energy    TOTEN  =       -23.01918310 eV

  energy without entropy =      -23.01905267  energy(sigma->0) =      -23.01911788


--------------------------------------------------------------------------------------------------------




--------------------------------------- Iteration      1(   4)  ---------------------------------------


     EDDAV:  cpu time    1.0101: real time    1.0484
       DOS:  cpu time    0.0026: real time    0.0029
    --------------------------------------------
      LOOP:  cpu time    1.0128: real time    1.0511

 eigenvalue-minimisations  :  3440
 total energy-change (2. order) :-0.5842310E-01  (-0.5722386E-01)
 number of electron      25.0000000 magnetization
 augmentation part       25.0000000 magnetization

 Free energy of the ion-electron system (eV)
  ---------------------------------------------------
  alpha Z        PSCENC =       132.62475349
  Ewald energy   TEWEN  =     -1685.18257128
  -Hartree energ DENC   =      -284.04567355
  -exchange      EXHF   =         0.00000000
  -V(xc)+E(xc)   XCENC  =       -16.92752344
  PAW double counting   =      1514.36848356    -1421.27055995
  entropy T*S    EENTRO =        -0.00013795
  eigenvalues    EBANDS =        -3.74888828
  atomic energy  EATOM  =      1741.10451121
  Solvation  Ediel_sol  =         0.00000000
  ---------------------------------------------------
  free energy    TOTEN  =       -23.07760620 eV

  energy without entropy =      -23.07746825  energy(sigma->0) =      -23.07753722


--------------------------------------------------------------------------------------------------------




--------------------------------------- Iteration      1(   5)  ---------------------------------------


     EDDAV:  cpu time    1.0307: real time    1.0517
       DOS:  cpu time    0.0024: real time    0.0027
    CHARGE:  cpu time    0.1947: real time    0.1960
    MIXING:  cpu time    0.0057: real time    0.0063
    --------------------------------------------
      LOOP:  cpu time    1.2336: real time    1.2562

 eigenvalue-minimisations  :  3520
 total energy-change (2. order) :-0.1343066E-02  (-0.1342974E-02)
 number of electron      25.0000000 magnetization
 augmentation part        4.8348438 magnetization

 Broyden mixing:
  rms(total) = 0.61630E+01    rms(broyden)= 0.61630E+01
  rms(prec ) = 0.62827E+01
  weight for this iteration     100.00

 Free energy of the ion-electron system (eV)
  ---------------------------------------------------
  alpha Z        PSCENC =       132.62475349
  Ewald energy   TEWEN  =     -1685.18257128
  -Hartree energ DENC   =      -284.04567355
  -exchange      EXHF   =         0.00000000
  -V(xc)+E(xc)   XCENC  =       -16.92752344
  PAW double counting   =      1514.36848356    -1421.27055995
  entropy T*S    EENTRO =        -0.00013867
  eigenvalues    EBANDS =        -3.75023063
  atomic energy  EATOM  =      1741.10451121
  Solvation  Ediel_sol  =         0.00000000
  ---------------------------------------------------
  free energy    TOTEN  =       -23.07894927 eV

  energy without entropy =      -23.07881060  energy(sigma->0) =      -23.07887993


--------------------------------------------------------------------------------------------------------




--------------------------------------- Iteration      1(   6)  ---------------------------------------


    POTLOK:  cpu time    0.0314: real time    0.0537
    SETDIJ:  cpu time    0.0699: real time    0.0700
     EDDAV:  cpu time    0.9185: real time    0.9186
       DOS:  cpu time    0.0025: real time    0.0027
    CHARGE:  cpu time    0.1536: real time    0.1538
    MIXING:  cpu time    0.0038: real time    0.0040
    --------------------------------------------
      LOOP:  cpu time    1.1796: real time    1.2033

 eigenvalue-minimisations  :  3192
 total energy-change (2. order) : 0.5022305E+00  (-0.1069319E+00)
 number of electron      25.0000000 magnetization
 augmentation part        4.9924349 magnetization

 Broyden mixing:
  rms(total) = 0.35970E+01    rms(broyden)= 0.35970E+01
  rms(prec ) = 0.36334E+01
  weight for this iteration     100.00

 eigenvalues of (default mixing * dielectric matrix)
  average eigenvalue GAMMA=   2.3798
  2.3798

 Free energy of the ion-electron system (eV)
  ---------------------------------------------------
  alpha Z        PSCENC =       132.62475349
  Ewald energy   TEWEN  =     -1685.18257128
  -Hartree energ DENC   =      -272.71677652
  -exchange      EXHF   =         0.00000000
  -V(xc)+E(xc)   XCENC  =       -17.25777070
  PAW double counting   =      2325.72268544    -2235.73416623
  entropy T*S    EENTRO =        -0.00011815
  eigenvalues    EBANDS =       -11.13726602
  atomic energy  EATOM  =      1741.10451121
  Solvation  Ediel_sol  =         0.00000000
  ---------------------------------------------------
  free energy    TOTEN  =       -22.57671877 eV

  energy without entropy =      -22.57660062  energy(sigma->0) =      -22.57665969


--------------------------------------------------------------------------------------------------------




--------------------------------------- Iteration      1(   7)  ---------------------------------------


    POTLOK:  cpu time    0.0372: real time    0.0612
    SETDIJ:  cpu time    0.0646: real time    0.0648
     EDDAV:  cpu time    1.0041: real time    1.0045
       DOS:  cpu time    0.0026: real time    0.0034
    CHARGE:  cpu time    0.1329: real time    0.1332
    MIXING:  cpu time    0.0040: real time    0.0041
    --------------------------------------------
      LOOP:  cpu time    1.2454: real time    1.2733

 eigenvalue-minimisations  :  3488
 total energy-change (2. order) : 0.1472430E+00  (-0.7084449E-01)
 number of electron      25.0000000 magnetization
 augmentation part        4.9826577 magnetization

 Broyden mixing:
  rms(total) = 0.46009E+00    rms(broyden)= 0.46009E+00
  rms(prec ) = 0.57736E+00
  weight for this iteration     100.00

 eigenvalues of (default mixing * dielectric matrix)
  average eigenvalue GAMMA=   1.7527
  0.9547  2.5507

 Free energy of the ion-electron system (eV)
  ---------------------------------------------------
  alpha Z        PSCENC =       132.62475349
  Ewald energy   TEWEN  =     -1685.18257128
  -Hartree energ DENC   =      -266.87987357
  -exchange      EXHF   =         0.00000000
  -V(xc)+E(xc)   XCENC  =       -17.34037174
  PAW double counting   =      3743.72863890    -3657.64414537
  entropy T*S    EENTRO =        -0.00015111
  eigenvalues    EBANDS =       -12.84026633
  atomic energy  EATOM  =      1741.10451121
  Solvation  Ediel_sol  =         0.00000000
  ---------------------------------------------------
  free energy    TOTEN  =       -22.42947579 eV

  energy without entropy =      -22.42932468  energy(sigma->0) =      -22.42940024


--------------------------------------------------------------------------------------------------------




--------------------------------------- Iteration      1(   8)  ---------------------------------------


    POTLOK:  cpu time    0.0340: real time    0.0599
    SETDIJ:  cpu time    0.0619: real time    0.0622
     EDDAV:  cpu time    0.9484: real time    0.9485
       DOS:  cpu time    0.0025: real time    0.0027
    CHARGE:  cpu time    0.1333: real time    0.1334
    MIXING:  cpu time    0.0038: real time    0.0039
    --------------------------------------------
      LOOP:  cpu time    1.1839: real time    1.2086

 eigenvalue-minimisations  :  3280
 total energy-change (2. order) : 0.3393875E-01  (-0.2381333E-01)
 number of electron      25.0000000 magnetization
 augmentation part        5.0315246 magnetization

 Broyden mixing:
  rms(total) = 0.11037E+00    rms(broyden)= 0.11037E+00
  rms(prec ) = 0.13650E+00
  weight for this iteration     100.00

 eigenvalues of (default mixing * dielectric matrix)
  average eigenvalue GAMMA=   1.6205
  2.5992  1.5440  0.7183

 Free energy of the ion-electron system (eV)
  ---------------------------------------------------
  alpha Z        PSCENC =       132.62475349
  Ewald energy   TEWEN  =     -1685.18257128
  -Hartree energ DENC   =      -266.11331929
  -exchange      EXHF   =         0.00000000
  -V(xc)+E(xc)   XCENC  =       -17.33422942
  PAW double counting   =      3893.70649713    -3807.87704364
  entropy T*S    EENTRO =        -0.00019316
  eigenvalues    EBANDS =       -13.32394209
  atomic energy  EATOM  =      1741.10451121
  Solvation  Ediel_sol  =         0.00000000
  ---------------------------------------------------
  free energy    TOTEN  =       -22.39553705 eV

  energy without entropy =      -22.39534389  energy(sigma->0) =      -22.39544047


--------------------------------------------------------------------------------------------------------




--------------------------------------- Iteration      1(   9)  ---------------------------------------


    POTLOK:  cpu time    0.0294: real time    0.0499
    SETDIJ:  cpu time    0.0634: real time    0.0635
     EDDAV:  cpu time    0.9730: real time    0.9733
       DOS:  cpu time    0.0026: real time    0.0028
    CHARGE:  cpu time    0.1335: real time    0.1336
    MIXING:  cpu time    0.0041: real time    0.0042
    --------------------------------------------
      LOOP:  cpu time    1.2060: real time    1.2276

 eigenvalue-minimisations  :  3328
 total energy-change (2. order) : 0.1434838E-02  (-0.2109556E-02)
 number of electron      25.0000000 magnetization
 augmentation part        5.0181489 magnetization

 Broyden mixing:
  rms(total) = 0.69887E-01    rms(broyden)= 0.69887E-01
  rms(prec ) = 0.73419E-01
  weight for this iteration     100.00

 eigenvalues of (default mixing * dielectric matrix)
  average eigenvalue GAMMA=   1.4213
  2.4098  1.4097  1.1532  0.7126

 Free energy of the ion-electron system (eV)
  ---------------------------------------------------
  alpha Z        PSCENC =       132.62475349
  Ewald energy   TEWEN  =     -1685.18257128
  -Hartree energ DENC   =      -267.21537878
  -exchange      EXHF   =         0.00000000
  -V(xc)+E(xc)   XCENC  =       -17.28755323
  PAW double counting   =      3889.06856199    -3803.17090585
  entropy T*S    EENTRO =        -0.00019937
  eigenvalues    EBANDS =       -12.33532039
  atomic energy  EATOM  =      1741.10451121
  Solvation  Ediel_sol  =         0.00000000
  ---------------------------------------------------
  free energy    TOTEN  =       -22.39410221 eV

  energy without entropy =      -22.39390284  energy(sigma->0) =      -22.39400252


--------------------------------------------------------------------------------------------------------




--------------------------------------- Iteration      1(  10)  ---------------------------------------


    POTLOK:  cpu time    0.0366: real time    0.0534
    SETDIJ:  cpu time    0.0634: real time    0.0635
     EDDAV:  cpu time    0.9801: real time    0.9805
       DOS:  cpu time    0.0026: real time    0.0029
    CHARGE:  cpu time    0.1335: real time    0.1336
    MIXING:  cpu time    0.0125: real time    0.0126
    --------------------------------------------
      LOOP:  cpu time    1.2287: real time    1.2464

 eigenvalue-minimisations  :  3440
 total energy-change (2. order) : 0.1353071E-03  (-0.8841661E-04)
 number of electron      25.0000000 magnetization
 augmentation part        5.0167955 magnetization

 Broyden mixing:
  rms(total) = 0.15418E-01    rms(broyden)= 0.15418E-01
  rms(prec ) = 0.16400E-01
  weight for this iteration     100.00

 eigenvalues of (default mixing * dielectric matrix)
  average eigenvalue GAMMA=   1.4616
  2.3832  1.8694  1.4007  0.7183  0.9365

 Free energy of the ion-electron system (eV)
  ---------------------------------------------------
  alpha Z        PSCENC =       132.62475349
  Ewald energy   TEWEN  =     -1685.18257128
  -Hartree energ DENC   =      -267.20344107
  -exchange      EXHF   =         0.00000000
  -V(xc)+E(xc)   XCENC  =       -17.29070785
  PAW double counting   =      3865.97887314    -3779.97815357
  entropy T*S    EENTRO =        -0.00020000
  eigenvalues    EBANDS =       -12.44703097
  atomic energy  EATOM  =      1741.10451121
  Solvation  Ediel_sol  =         0.00000000
  ---------------------------------------------------
  free energy    TOTEN  =       -22.39396690 eV

  energy without entropy =      -22.39376690  energy(sigma->0) =      -22.39386690


--------------------------------------------------------------------------------------------------------




--------------------------------------- Iteration      1(  11)  ---------------------------------------


    POTLOK:  cpu time    0.0380: real time    0.0576
    SETDIJ:  cpu time    0.0639: real time    0.0642
     EDDAV:  cpu time    0.9832: real time    0.9834
       DOS:  cpu time    0.0026: real time    0.0029
    CHARGE:  cpu time    0.1331: real time    0.1332
    MIXING:  cpu time    0.0059: real time    0.0060
    --------------------------------------------
      LOOP:  cpu time    1.2266: real time    1.2472

 eigenvalue-minimisations  :  3408
 total energy-change (2. order) :-0.8096898E-05  (-0.6403308E-05)
 number of electron      25.0000000 magnetization
 augmentation part        5.0171720 magnetization

 Broyden mixing:
  rms(total) = 0.87614E-02    rms(broyden)= 0.87614E-02
  rms(prec ) = 0.91224E-02
  weight for this iteration     100.00

 eigenvalues of (default mixing * dielectric matrix)
  average eigenvalue GAMMA=   1.4997
  2.5514  2.3629  0.7200  1.1787  1.1787  1.0067

 Free energy of the ion-electron system (eV)
  ---------------------------------------------------
  alpha Z        PSCENC =       132.62475349
  Ewald energy   TEWEN  =     -1685.18257128
  -Hartree energ DENC   =      -267.19701062
  -exchange      EXHF   =         0.00000000
  -V(xc)+E(xc)   XCENC  =       -17.28896908
  PAW double counting   =      3874.86038697    -3788.83985591
  entropy T*S    EENTRO =        -0.00019992
  eigenvalues    EBANDS =       -12.47501987
  atomic energy  EATOM  =      1741.10451121
  Solvation  Ediel_sol  =         0.00000000
  ---------------------------------------------------
  free energy    TOTEN  =       -22.39397500 eV

  energy without entropy =      -22.39377508  energy(sigma->0) =      -22.39387504


--------------------------------------------------------------------------------------------------------




--------------------------------------- Iteration      1(  12)  ---------------------------------------


    POTLOK:  cpu time    0.0278: real time    0.0555
    SETDIJ:  cpu time    0.0646: real time    0.0649
     EDDAV:  cpu time    1.0237: real time    1.0239
       DOS:  cpu time    0.0026: real time    0.0030
    CHARGE:  cpu time    0.1331: real time    0.1333
    MIXING:  cpu time    0.0046: real time    0.0048
    --------------------------------------------
      LOOP:  cpu time    1.2566: real time    1.2855

 eigenvalue-minimisations  :  3568
 total energy-change (2. order) :-0.3634661E-06  (-0.1363942E-05)
 number of electron      25.0000000 magnetization
 augmentation part        5.0170684 magnetization

 Broyden mixing:
  rms(total) = 0.10385E-02    rms(broyden)= 0.10384E-02
  rms(prec ) = 0.10752E-02
  weight for this iteration     100.00

 eigenvalues of (default mixing * dielectric matrix)
  average eigenvalue GAMMA=   1.5414
  2.4494  2.4494  1.9074  0.7214  1.1568  1.1568  0.9487

 Free energy of the ion-electron system (eV)
  ---------------------------------------------------
  alpha Z        PSCENC =       132.62475349
  Ewald energy   TEWEN  =     -1685.18257128
  -Hartree energ DENC   =      -267.22523777
  -exchange      EXHF   =         0.00000000
  -V(xc)+E(xc)   XCENC  =       -17.28685331
  PAW double counting   =      3879.19055211    -3793.16553930
  entropy T*S    EENTRO =        -0.00019985
  eigenvalues    EBANDS =       -12.45339065
  atomic energy  EATOM  =      1741.10451121
  Solvation  Ediel_sol  =         0.00000000
  ---------------------------------------------------
  free energy    TOTEN  =       -22.39397536 eV

  energy without entropy =      -22.39377551  energy(sigma->0) =      -22.39387544


--------------------------------------------------------------------------------------------------------




--------------------------------------- Iteration      1(  13)  ---------------------------------------


    POTLOK:  cpu time    0.0330: real time    0.0527
    SETDIJ:  cpu time    0.0640: real time    0.0641
     EDDAV:  cpu time    1.0057: real time    1.0059
       DOS:  cpu time    0.0027: real time    0.0028
    CHARGE:  cpu time    0.1540: real time    0.1541
    MIXING:  cpu time    0.0058: real time    0.0062
    --------------------------------------------
      LOOP:  cpu time    1.2652: real time    1.2856

 eigenvalue-minimisations  :  3384
 total energy-change (2. order) : 0.3644489E-06  (-0.6329471E-07)
 number of electron      25.0000000 magnetization
 augmentation part        5.0171216 magnetization

 Broyden mixing:
  rms(total) = 0.50598E-03    rms(broyden)= 0.50596E-03
  rms(prec ) = 0.56584E-03
  weight for this iteration     100.00

 eigenvalues of (default mixing * dielectric matrix)
  average eigenvalue GAMMA=   1.5337
  2.5406  2.5406  2.2532  0.7227  0.9546  1.0662  1.0957  1.0957

 Free energy of the ion-electron system (eV)
  ---------------------------------------------------
  alpha Z        PSCENC =       132.62475349
  Ewald energy   TEWEN  =     -1685.18257128
  -Hartree energ DENC   =      -267.22435491
  -exchange      EXHF   =         0.00000000
  -V(xc)+E(xc)   XCENC  =       -17.28682013
  PAW double counting   =      3879.25007005    -3793.22276907
  entropy T*S    EENTRO =        -0.00019981
  eigenvalues    EBANDS =       -12.45659454
  atomic energy  EATOM  =      1741.10451121
  Solvation  Ediel_sol  =         0.00000000
  ---------------------------------------------------
  free energy    TOTEN  =       -22.39397500 eV

  energy without entropy =      -22.39377519  energy(sigma->0) =      -22.39387509


--------------------------------------------------------------------------------------------------------




--------------------------------------- Iteration      1(  14)  ---------------------------------------


    POTLOK:  cpu time    0.0383: real time    0.0530
    SETDIJ:  cpu time    0.0650: real time    0.0651
     EDDAV:  cpu time    0.8272: real time    0.8274
       DOS:  cpu time    0.0026: real time    0.0028
    CHARGE:  cpu time    0.1336: real time    0.1337
    MIXING:  cpu time    0.0046: real time    0.0047
    --------------------------------------------
      LOOP:  cpu time    1.0713: real time    1.0869

 eigenvalue-minimisations  :  2544
 total energy-change (2. order) : 0.1789779E-06  (-0.8119560E-08)
 number of electron      25.0000000 magnetization
 augmentation part        5.0171071 magnetization

 Broyden mixing:
  rms(total) = 0.50101E-04    rms(broyden)= 0.49964E-04
  rms(prec ) = 0.85986E-04
  weight for this iteration     100.00

 eigenvalues of (default mixing * dielectric matrix)
  average eigenvalue GAMMA=   1.5198
  2.5299  2.5299  2.3062  1.3838  0.7225  1.1482  1.1482  1.0086  0.9008

 Free energy of the ion-electron system (eV)
  ---------------------------------------------------
  alpha Z        PSCENC =       132.62475349
  Ewald energy   TEWEN  =     -1685.18257128
  -Hartree energ DENC   =      -267.22409599
  -exchange      EXHF   =         0.00000000
  -V(xc)+E(xc)   XCENC  =       -17.28682394
  PAW double counting   =      3879.29918573    -3793.27131494
  entropy T*S    EENTRO =        -0.00019983
  eigenvalues    EBANDS =       -12.45741928
  atomic energy  EATOM  =      1741.10451121
  Solvation  Ediel_sol  =         0.00000000
  ---------------------------------------------------
  free energy    TOTEN  =       -22.39397482 eV

  energy without entropy =      -22.39377499  energy(sigma->0) =      -22.39387491


--------------------------------------------------------------------------------------------------------




--------------------------------------- Iteration      1(  15)  ---------------------------------------


    POTLOK:  cpu time    0.0370: real time    0.0517
    SETDIJ:  cpu time    0.0630: real time    0.0634
     EDDAV:  cpu time    0.6782: real time    0.6784
       DOS:  cpu time    0.0026: real time    0.0028
    --------------------------------------------
      LOOP:  cpu time    0.7806: real time    0.7950

 eigenvalue-minimisations  :  1968
 total energy-change (2. order) :-0.2465163E-07  (-0.2319961E-08)
 number of electron      25.0000000 magnetization
 augmentation part        5.0171071 magnetization

 Free energy of the ion-electron system (eV)
  ---------------------------------------------------
  alpha Z        PSCENC =       132.62475349
  Ewald energy   TEWEN  =     -1685.18257128
  -Hartree energ DENC   =      -267.22384749
  -exchange      EXHF   =         0.00000000
  -V(xc)+E(xc)   XCENC  =       -17.28682831
  PAW double counting   =      3879.34225696    -3793.31445573
  entropy T*S    EENTRO =        -0.00019983
  eigenvalues    EBANDS =       -12.45759385
  atomic energy  EATOM  =      1741.10451121
  Solvation  Ediel_sol  =         0.00000000
  ---------------------------------------------------
  free energy    TOTEN  =       -22.39397484 eV

  energy without entropy =      -22.39377501  energy(sigma->0) =      -22.39387493


--------------------------------------------------------------------------------------------------------




 average (electrostatic) potential at core
  the test charge radii are     1.1707  1.1712  1.2059
  (the norm of the test charge is              1.0000)
       1 -30.8715       2 -81.8787       3 -64.0980



 E-fermi :  12.2238     XC(G=0): -12.4658     alpha+bet :-17.0412


 k-point     1 :       0.0000    0.0000    0.0000
  band No.  band energies     occupation
      1     -19.7360      2.00000
      2     -19.7360      2.00000
      3     -19.7360      2.00000
      4      -2.6042      2.00000
      5       4.6064      2.00000
      6       4.6064      2.00000
      7       4.6064      2.00000
      8       5.3495      2.00000
      9       5.3495      2.00000
     10       9.9124      2.00000
     11       9.9124      2.00000
     12       9.9124      2.00000
     13      12.8192      0.00000
     14      13.3540      0.00000
     15      13.3540      0.00000
     16      13.3540      0.00000

 k-point     2 :       0.0769   -0.0000    0.0000
  band No.  band energies     occupation
      1     -19.7393      2.00000
      2     -19.7355      2.00000
      3     -19.7355      2.00000
      4      -2.5145      2.00000
      5       4.5329      2.00000
      6       4.5329      2.00000
      7       4.5335      2.00000
      8       5.4383      2.00000
      9       5.4383      2.00000
     10       9.4192      2.00000
     11       9.8478      2.00000
     12       9.8478      2.00000
     13      12.6156      0.00000
     14      13.1512      0.00000
     15      13.1512      0.00000
     16      14.1175      0.00000

 k-point     3 :       0.1538   -0.0000    0.0000
  band No.  band energies     occupation
      1     -19.7483      2.00000
      2     -19.7343      2.00000
      3     -19.7343      2.00000
      4      -2.2552      2.00000
      5       4.3285      2.00000
      6       4.3970      2.00000
      7       4.3970      2.00000
      8       5.6075      2.00000
      9       5.6075      2.00000
     10       8.4382      2.00000
     11       9.6900      2.00000
     12       9.6900      2.00000
     13      12.5399      0.00000
     14      12.9975      0.00000
     15      12.9975      0.00000
     16      14.7897      0.00000

 k-point     4 :       0.2308   -0.0000    0.0000
  band No.  band energies     occupation
      1     -19.7606      2.00000
      2     -19.7324      2.00000
      3     -19.7324      2.00000
      4      -1.8568      2.00000
      5       4.0201      2.00000
      6       4.2865      2.00000
      7       4.2865      2.00000
      8       5.7381      2.00000
      9       5.7381      2.00000
     10       7.4763      2.00000
     11       9.5206      2.00000
     12       9.5206      2.00000
     13      12.5313      0.00000
     14      12.9891      0.00000
     15      12.9891      0.00000
     16      15.5908      0.00000

 k-point     5 :       0.3077   -0.0000    0.0000
  band No.  band energies     occupation
      1     -19.7733      2.00000
      2     -19.7305      2.00000
      3     -19.7305      2.00000
      4      -1.3758      2.00000
      5       3.6407      2.00000
      6       4.2283      2.00000
      7       4.2283      2.00000
      8       5.7784      2.00000
      9       5.7784      2.00000
     10       6.7240      2.00000
     11       9.4080      2.00000
     12       9.4080      2.00000
     13      12.5245      0.00000
     14      13.0993      0.00000
     15      13.0993      0.00000
     16      15.0897      0.00000

 k-point     6 :       0.3846    0.0000   -0.0000
  band No.  band energies     occupation
      1     -19.7835      2.00000
      2     -19.7290      2.00000
      3     -19.7290      2.00000
      4      -0.9059      2.00000
      5       3.2507      2.00000
      6       4.2162      2.00000
      7       4.2162      2.00000
      8       5.7431      2.00000
      9       5.7431      2.00000
     10       6.2412      2.00000
     11       9.3650      2.00000
     12       9.3650      2.00000
     13      12.4929      0.00000
     14      13.2764      0.00000
     15      13.2764      0.00000
     16      14.2137      0.00000

 k-point     7 :       0.4615   -0.0000    0.0000
  band No.  band energies     occupation
      1     -19.7892      2.00000
      2     -19.7281      2.00000
      3     -19.7281      2.00000
      4      -0.5937      2.00000
      5       2.9796      2.00000
      6       4.2238      2.00000
      7       4.2238      2.00000
      8       5.6961      2.00000
      9       5.6961      2.00000
     10       6.0154      2.00000
     11       9.3594      2.00000
     12       9.3594      2.00000
     13      12.4448      0.00000
     14      13.4234      0.00000
     15      13.4234      0.00000
     16      13.7618      0.00000

 k-point     8 :       0.0769    0.0769    0.0000
  band No.  band energies     occupation
      1     -19.7392      2.00000
      2     -19.7360      2.00000
      3     -19.7360      2.00000
      4      -2.4851      2.00000
      5       4.2889      2.00000
      6       4.6447      2.00000
      7       4.6447      2.00000
      8       5.3923      2.00000
      9       5.4951      2.00000
     10       9.5241      2.00000
     11       9.6940      2.00000
     12       9.6940      2.00000
     13      12.4190      0.00000
     14      13.3597      0.00000
     15      13.6313      0.00000
     16      13.6975      0.00000

 k-point     9 :       0.1538    0.0769    0.0000
  band No.  band energies     occupation
      1     -19.7458      2.00000
      2     -19.7355      2.00000
      3     -19.7349      2.00000
      4      -2.2839      2.00000
      5       4.0314      2.00000
      6       4.6051      2.00000
      7       4.6148      2.00000
      8       5.5052      2.00000
      9       5.6151      2.00000
     10       8.7562      2.00000
     11       9.4903      2.00000
     12       9.6207      2.00000
     13      12.3755      0.00000
     14      13.1268      0.00000
     15      13.3130      0.00000
     16      14.3647      0.00000

 k-point    10 :       0.2308    0.0769   -0.0000
  band No.  band energies     occupation
      1     -19.7568      2.00000
      2     -19.7343      2.00000
      3     -19.7333      2.00000
      4      -1.9350      2.00000
      5       3.7934      2.00000
      6       4.4539      2.00000
      7       4.5261      2.00000
      8       5.6519      2.00000
      9       5.7428      2.00000
     10       7.8102      2.00000
     11       9.3227      2.00000
     12       9.4724      2.00000
     13      12.5148      0.00000
     14      13.0292      0.00000
     15      13.1171      0.00000
     16      15.1206      0.00000

 k-point    11 :       0.3077    0.0769   -0.0000
  band No.  band energies     occupation
      1     -19.7691      2.00000
      2     -19.7325      2.00000
      3     -19.7317      2.00000
      4      -1.4865      2.00000
      5       3.5592      2.00000
      6       4.2822      2.00000
      7       4.4465      2.00000
      8       5.7263      2.00000
      9       5.8160      2.00000
[...]
  212              fftbas_plan_mpi                       0.044934                     12   6
  213                dfftw_execute                         0.019292                   36   7
  214                map_backward                          0.002972                   12   7
  215                  map_gather                            0.000475                  6   8
  216                  m_alltoallv_z                         0.001386                  6   8
  217                  map_scatter                           0.000847                  6   8
  218                map_forward                           0.019867                   12   7
  219                  map_gather                            0.011171                  6   8
  220                  m_alltoallv_z                         0.004076                  6   8
  221                  map_scatter                           0.004332                  6   8
  222            M_sumb_d                              0.010041                        6   5
  223          M_sumb_d                              0.000023                          1   4
  224        setdij_                               1.081317                           20   3
  225          fft3d_mpi                             0.161475                         40   4
  226            fftbas_plan_mpi                       0.149076                       40   5
  227              dfftw_execute                         0.064681                    120   6
  228              map_backward                          0.010714                     40   6
  229                map_gather                            0.001916                   20   7
  230                m_alltoallv_z                         0.004889                   20   7
  231                map_scatter                           0.002981                   20   7
  232              map_forward                           0.064453                     40   6
  233                map_gather                            0.036144                   20   7
  234                m_alltoallv_z                         0.013021                   20   7
  235                map_scatter                           0.014304                   20   7
  236          M_sumb_d                              0.021867                         20   4
  237        set_dd_magatom                        0.000003                            1   3
  238        set_dd_paw                            0.008997                            1   3
  239          set_rsgf_all                          0.000004                          1   4
  240          M_sumb_d                              0.008857                          8   4
  241        strkin                                0.000640                            1   3
  242          M_sumb_d                              0.000316                          1   4
  243        strelo                                0.002144                            1   3
  244          M_sumb_d                              0.000172                          2   4
  245        strenl                                0.553911                            1   3
  246          spher                                 0.435467                         19   4
  247          phase                                 0.009380                        189   4
  248          proj1                                 0.096071                        756   4
  249            crexp_mul_wave                        0.015619                     2268   5
  250            M_sumb_d                              0.025627                      756   5
  251          M_sumb_d                              0.001976                          1   4
  252        M_sumb_d                              0.000228                            6   3
  253        fft3d_mpi                             0.012792                           11   3
  254          fftbas_plan_mpi                       0.011890                         11   4
  255            dfftw_execute                         0.004113                       33   5
  256            map_forward                           0.002376                       10   5
  257              map_gather                            0.000515                      5   6
  258              m_alltoallv_z                         0.001132                      5   6
  259              map_scatter                           0.000505                      5   6
  260            map_backward                          0.003056                       12   5
  261              map_gather                            0.000542                      6   6
  262              m_alltoallv_z                         0.001392                      6   6
  263              map_scatter                           0.000818                      6   6
  264        ggaall_grid                           0.001213                            1   3
  265        forhar                                0.005167                            2   3
  266          M_sumb_d                              0.000132                          2   4
  267        strehar                               0.002176                            1   3
  268          M_sumb_d                              0.000049                          1   4
  269        chggra                                0.004967                            1   3
  270          fft3d_mpi                             0.003413                          3   4
  271            fftbas_plan_mpi                       0.003113                        3   5
  272              dfftw_execute                         0.001134                      9   6
  273              map_backward                          0.000499                      2   6
  274                map_gather                            0.000084                    1   7
  275                m_alltoallv_z                         0.000216                    1   7
  276                map_scatter                           0.000149                    1   7
  277              map_forward                           0.000873                      4   6
  278                map_gather                            0.000182                    2   7
  279                m_alltoallv_z                         0.000407                    2   7
  280                map_scatter                           0.000195                    2   7
  281          M_sumb_d                              0.000137                          3   4
  282        brmix                                 0.012189                            1   3
  283          M_sumb_d                              0.000231                          6   4
  284          brpre                                 0.000041                          1   4
  285          setg0                                 0.000883                          1   4
  286          broyd                                 0.001947                          1   4
  287            M_sumb_d                              0.000556                       17   5
  288            brsav                                 0.000115                       16   5
  289            brget                                 0.000265                       59   5
  290          M_bcast_z                             0.008280                          1   4
  291          M_bcast_d                             0.000049                          1   4
  292        M_bcast_d                             0.000493                            2   3
  293      potlok                                0.021817                              1   2
  294        fft3d_mpi                             0.015105                           13   3
  295          fftbas_plan_mpi                       0.014070                         13   4
  296            dfftw_execute                         0.004807                       39   5
  297            map_forward                           0.003189                       14   5
  298              map_gather                            0.000598                      8   6
  299              m_alltoallv_z                         0.001580                      8   6
  300              map_scatter                           0.000691                      8   6
  301            map_backward                          0.003412                       12   5
  302              map_gather                            0.000649                      6   6
  303              m_alltoallv_z                         0.001491                      6   6
  304              map_scatter                           0.000983                      6   6
  305        ggaall_grid                           0.001235                            1   3
  306        M_sumb_d                              0.000242                            6   3
  307        M_bcast_d                             0.000096                            1   3
  308      potlok_metagga                        0.000004                              1   2
  309      set_dd_magatom                        0.000004                              1   2
  310      set_dd_paw                            0.000575                              1   2
  311        set_rsgf_all                          0.000004                            1   3
  312        M_sumb_d                              0.000213                            8   3
  313      densta                                0.001935                              1   2
  314        M_sumb_d                              0.000794                           40   3
  315      lprj_proall                           0.000007                              1   2

 Flat profile
 ============

             routine name                   CPU           calls
 ---------------------------------------------------------------
 total_time                             12.807799           1
 eddav                                   2.896547          15
 dfftw_execute                           2.264178       28875
 setdij_                                 1.842742          39
 fftbas_plan_mpi                         1.803867        9627
 M_sumb_d                                1.429292       27324
 m_alltoallv_z                           1.007922        9648
 elmin                                   0.886956           1
 set_charge                              0.874180          11
 pdssyex_zheevx                          0.636151         315
 M_alltoall_d                            0.610275       31640
 spher                                   0.496166          20
 orth1                                   0.436958        6441
 proj1                                   0.344460        3860
 crpa_reader                             0.323829           1
 map_gather                              0.320164        9648
 vhamil                                  0.317517        4280
 M_bcast_z                               0.311720        3849
 gemm                                    0.291327       12840
 map_forward                             0.288937       10410
 fftwav_mpi                              0.282845        5074
 vnlac0                                  0.275253        4280
 map_scatter                             0.274740        9648
 redis_pw                                0.251908       12252
 redis_proj                              0.230371       15293
 hamiltmu                                0.221375        2140
 fft3d_mpi                               0.160301        9625
 w1_copy                                 0.157021       12840
 map_backward                            0.150730        8840
 work_mul_crexp                          0.127148       12840
 fftext_mpi                              0.123217        4280
 crexp_mul_wave                          0.090393       11580
 eccp                                    0.085725        1260
 overl                                   0.080836        7321
 kinhamil                                0.080444        4280
 M_bcast_d                               0.070025        2170
 force_and_stress                        0.060461           1
 potlok                                  0.059151          12
 overl1                                  0.054129        4280
 lincom                                  0.047773         336
 setup_precond                           0.039157        1260
 apply_precond                           0.038376        3020
 pw_charge                               0.033335         794
 w1_projall                              0.031403        1510
 phase                                   0.027746         547
 truncate_high_frequency_w1              0.019132        5540
 densta                                  0.018384          16
 soft_charge                             0.018183          11
 fornl                                   0.016500           1
 ggaall_grid                             0.016234          13
 strenl                                  0.011018           1
 brmix                                   0.010891          11
 setg0                                   0.010366          12
 broyd                                   0.007252          11
 forhar                                  0.005035           2
 set_dd_paw                              0.004054          13
 depsum                                  0.002660          11
 forloc                                  0.002584           1
 strehar                                 0.002127           1
 strelo                                  0.001972           1
 orthch                                  0.001965           1
 brget                                   0.001602         368
 chggra                                  0.001417           1
 proj                                    0.000921          21
 brgrid                                  0.000909           1
 choleski                                0.000892          21
 brsav                                   0.000643         112
 brpre                                   0.000630          11
 strkin                                  0.000324           1
 fordep                                  0.000114           1
 vectorpot                               0.000060          12
 set_rsgf_all                            0.000060          13
 potlok_metagga                          0.000050          12
 set_dd_magatom                          0.000048          13
 set_kineden                             0.000036          10
 rotate_active_occupied_orbital          0.000014           1
 lprj_proall                             0.000007           1
 redis_pw_over_bands                     0.000003           1
 ---------------------------------------------------------------
  summed up times    33.4009408950806

 Accumulative profile
 ====================

             routine name                   CPU           calls
 ---------------------------------------------------------------
 total_time                             33.400941           1
 elmin                                  17.527499           1
 eddav                                  14.173910          15
 fft3d_mpi                               6.249781        9625
 fftbas_plan_mpi                         6.110539        9627
 hamiltmu                                4.314762        2140
 fftwav_mpi                              3.320703        5074
 kinhamil                                2.769218        4280
 fftext_mpi                              2.688775        4280
 dfftw_execute                           2.264178       28875
 force_and_stress                        2.236507           1
 setdij_                                 2.219928          39
 set_charge                              1.561774          11
 M_sumb_d                                1.429292       27324
 map_forward                             1.158197       10410
 m_alltoallv_z                           1.007922        9648
 vnlac0                                  0.952523        4280
 map_backward                            0.884297        8840
 pdssyex_zheevx                          0.636151         315
 M_alltoall_d                            0.610275       31640
 proj1                                   0.601411        3860
 redis_pw                                0.586525       12252
 soft_charge                             0.559098          11
 strenl                                  0.553911           1
 w1_projall                              0.526200        1510
 redis_proj                              0.506029       15293
 spher                                   0.496166          20
 orth1                                   0.436958        6441
 fordep                                  0.332539           1
 crpa_reader                             0.323829           1
 map_gather                              0.320164        9648
 vhamil                                  0.317517        4280
 M_bcast_z                               0.311720        3849
 gemm                                    0.291327       12840
 map_scatter                             0.274740        9648
 potlok                                  0.260556          12
 w1_copy                                 0.157021       12840
 eccp                                    0.153067        1260
 work_mul_crexp                          0.127148       12840
 crexp_mul_wave                          0.090393       11580
 set_dd_paw                              0.081210          13
 overl                                   0.080836        7321
 M_bcast_d                               0.070025        2170
 setup_precond                           0.067314        1260
 brmix                                   0.065424          11
 overl1                                  0.054129        4280
 lincom                                  0.047773         336
 apply_precond                           0.038376        3020
 pw_charge                               0.033335         794
 densta                                  0.030230          16
 phase                                   0.027746         547
 fornl                                   0.025321           1
 orthch                                  0.022089           1
 truncate_high_frequency_w1              0.019132        5540
 ggaall_grid                             0.016234          13
 broyd                                   0.013651          11
 proj                                    0.011465          21
 setg0                                   0.010366          12
 depsum                                  0.008053          11
 forhar                                  0.005167           2
 chggra                                  0.004967           1
 forloc                                  0.002636           1
 strehar                                 0.002176           1
 strelo                                  0.002144           1
 brget                                   0.001602         368
 brgrid                                  0.000909           1
 choleski                                0.000892          21
 brsav                                   0.000643         112
 strkin                                  0.000640           1
 brpre                                   0.000630          11
 vectorpot                               0.000060          12
 set_rsgf_all                            0.000060          13
 potlok_metagga                          0.000050          12
 set_dd_magatom                          0.000048          13
 set_kineden                             0.000036          10
 rotate_active_occupied_orbital          0.000014           1
 lprj_proall                             0.000007           1
 redis_pw_over_bands                     0.000003           1
 ---------------------------------------------------------------

Profiling took   0.732385  0.914963  0.005741  0.004350 seconds
Profiling took   0.693110 seconds
