 ----------------------------------------------------
    OOO  PPPP  EEEEE N   N M   M PPPP
   O   O P   P E     NN  N MM MM P   P
   O   O PPPP  EEEEE N N N M M M PPPP   -- VERSION
   O   O P     E     N  NN M   M P
    OOO  P     EEEEE N   N M   M P
 ----------------------------------------------------
 running   64 mpi-ranks, with    1 threads/rank
 distrk:  each k-point on   16 cores,    4 groups
 distr:  one band on    4 cores,    4 groups
 using from now: INCAR
 vasp.6.0.8 29Jun18 (build Jun 13 2019 12:54:44) complex

 POSCAR found type information on POSCAR  Hf Sb Pt
 POSCAR found :  3 types and       3 ions
 scaLAPACK will be used

 -----------------------------------------------------------------------------
|                                                                             |
|  ADVICE TO THIS USER RUNNING 'VASP/VAMP'   (HEAR YOUR MASTER'S VOICE ...):  |
|                                                                             |
|      You enforced a specific xc-type in the INCAR file,                     |
|      a different type was found on the POTCAR file                          |
|          I HOPE YOU KNOW, WHAT YOU ARE  DOING                               |
|                                                                             |
 -----------------------------------------------------------------------------

 LDA part: xc-table for Pade appr. of Perdew
 POSCAR, INCAR and KPOINTS ok, starting setup
 FFT: planning ...
 WAVECAR not read
 entering main loop
       N       E                     dE             d eps       ncg     rms          rms(c)
 ELPA: falling back to scaLAPACK
 ELPA: falling back to scaLAPACK
 ELPA: falling back to scaLAPACK
 ELPA: falling back to scaLAPACK
DAV:   1     0.152175974773E+03    0.15218E+03   -0.14750E+04  2704   0.180E+03
DAV:   2    -0.186718613573E+02   -0.17085E+03   -0.16936E+03  3416   0.358E+02
DAV:   3    -0.230191830985E+02   -0.43473E+01   -0.43075E+01  3480   0.527E+01
DAV:   4    -0.230776062007E+02   -0.58423E-01   -0.57224E-01  3440   0.622E+00
DAV:   5    -0.230789492667E+02   -0.13431E-02   -0.13430E-02  3520   0.818E-01    0.616E+01
DAV:   6    -0.225767187702E+02    0.50223E+00   -0.10693E+00  3192   0.877E+00    0.360E+01
DAV:   7    -0.224294757936E+02    0.14724E+00   -0.70844E-01  3488   0.517E+00    0.460E+00
DAV:   8    -0.223955370476E+02    0.33939E-01   -0.23813E-01  3280   0.354E+00    0.110E+00
DAV:   9    -0.223941022100E+02    0.14348E-02   -0.21096E-02  3328   0.116E+00    0.699E-01
DAV:  10    -0.223939669029E+02    0.13531E-03   -0.88417E-04  3440   0.205E-01    0.154E-01
DAV:  11    -0.223939749998E+02   -0.80969E-05   -0.64033E-05  3408   0.491E-02    0.876E-02
DAV:  12    -0.223939753633E+02   -0.36347E-06   -0.13639E-05  3568   0.227E-02    0.104E-02
DAV:  13    -0.223939749988E+02    0.36445E-06   -0.63295E-07  3384   0.640E-03    0.506E-03
DAV:  14    -0.223939748198E+02    0.17898E-06   -0.81196E-08  2544   0.229E-03    0.501E-04
DAV:  15    -0.223939748445E+02   -0.24652E-07   -0.23200E-08  1968   0.104E-03
   1 F= -.22393975E+02 E0= -.22393875E+02  d E =-.199832E-03
