<?xml version="1.0" encoding="ISO-8859-1"?>
<modeling>
 <generator>
  <i name="program" type="string">vasp </i>
  <i name="version" type="string">6.0.8  </i>
  <i name="subversion" type="string">29Jun18 (build Jun 13 2019 12:54:44) complex                          parallel </i>
  <i name="platform" type="string">IFC18_CrayMPICH </i>
  <i name="date" type="string">2021 12 05 </i>
  <i name="time" type="string">14:21:49 </i>
 </generator>
 <incar>
  <i type="int" name="KPAR">     4</i>
  <i type="int" name="NPAR">     4</i>
  <i type="int" name="ISTART">     0</i>
  <i type="string" name="PREC"> ACC</i>
  <i type="string" name="ALGO"> Normal</i>
  <i type="logical" name="ADDGRID"> T  </i>
  <i type="int" name="ISPIN">     1</i>
  <i type="int" name="NELMIN">     5</i>
  <i type="int" name="IBRION">    -1</i>
  <i name="EDIFF">      0.00000010</i>
  <i type="int" name="NSW">     0</i>
  <i type="int" name="ISIF">     3</i>
  <i name="ENCUT">    700.00000000</i>
  <i type="logical" name="LREAL"> F  </i>
  <i type="int" name="ISMEAR">     0</i>
  <i name="SIGMA">      0.01000000</i>
  <i type="logical" name="LWAVE"> F  </i>
  <i type="logical" name="LCHARG"> F  </i>
  <i type="logical" name="LVTOT"> F  </i>
  <i type="string" name="ALGO"> Normal</i>
  <i type="string" name="GGA"> PS</i>
  <i name="EDIFF">      0.00000010</i>
  <i type="int" name="ISPIN">     1</i>
 </incar>
 <structure name="primitive_cell" >
  <crystal>
   <varray name="basis" >
    <v>       0.00000000       2.95045750       2.95045750 </v>
    <v>       2.95045750       0.00000000       2.95045750 </v>
    <v>       2.95045750       2.95045750       0.00000000 </v>
   </varray>
   <i name="volume">     51.36864232 </i>
   <varray name="rec_basis" >
    <v>      -0.16946524       0.16946524       0.16946524 </v>
    <v>       0.16946524      -0.16946524       0.16946524 </v>
    <v>       0.16946524       0.16946524      -0.16946524 </v>
   </varray>
  </crystal>
  <varray name="positions" >
   <v>       0.75000000       0.75000000       0.75000000 </v>
   <v>       0.25000000       0.25000000       0.25000000 </v>
   <v>       0.00000000       0.00000000       0.00000000 </v>
  </varray>
 </structure>
 <varray name="primitive_index" >
  <v type="int" >        1 </v>
  <v type="int" >        2 </v>
  <v type="int" >        3 </v>
 </varray>
 <kpoints>
  <generation param="Gamma">
   <v type="int" name="divisions">      13       13       13 </v>
   <v name="usershift">      0.00000000       0.00000000       0.00000000 </v>
   <v name="genvec1">      0.07692308       0.00000000      -0.00000000 </v>
   <v name="genvec2">      0.00000000       0.07692308       0.00000000 </v>
   <v name="genvec3">     -0.00000000      -0.00000000       0.07692308 </v>
   <v name="shift">      0.00000000       0.00000000       0.00000000 </v>
  </generation>
  <varray name="kpointlist" >
   <v>       0.00000000       0.00000000       0.00000000 </v>
   <v>       0.07692308      -0.00000000       0.00000000 </v>
   <v>       0.15384615      -0.00000000       0.00000000 </v>
   <v>       0.23076923      -0.00000000       0.00000000 </v>
   <v>       0.30769231      -0.00000000       0.00000000 </v>
   <v>       0.38461538       0.00000000      -0.00000000 </v>
   <v>       0.46153846      -0.00000000       0.00000000 </v>
   <v>       0.07692308       0.07692308       0.00000000 </v>
   <v>       0.15384615       0.07692308       0.00000000 </v>
   <v>       0.23076923       0.07692308      -0.00000000 </v>
   <v>       0.30769231       0.07692308      -0.00000000 </v>
   <v>       0.38461538       0.07692308       0.00000000 </v>
   <v>       0.46153846       0.07692308       0.00000000 </v>
   <v>      -0.46153846       0.07692308       0.00000000 </v>
   <v>      -0.38461538       0.07692308      -0.00000000 </v>
   <v>      -0.30769231       0.07692308       0.00000000 </v>
   <v>      -0.23076923       0.07692308      -0.00000000 </v>
   <v>      -0.15384615       0.07692308      -0.00000000 </v>
   <v>      -0.07692308       0.07692308      -0.00000000 </v>
   <v>       0.15384615       0.15384615       0.00000000 </v>
   <v>       0.23076923       0.15384615       0.00000000 </v>
   <v>       0.30769231       0.15384615       0.00000000 </v>
   <v>       0.38461538       0.15384615      -0.00000000 </v>
   <v>       0.46153846       0.15384615       0.00000000 </v>
   <v>      -0.46153846       0.15384615      -0.00000000 </v>
   <v>      -0.38461538       0.15384615       0.00000000 </v>
   <v>      -0.30769231       0.15384615      -0.00000000 </v>
   <v>      -0.23076923       0.15384615       0.00000000 </v>
   <v>      -0.15384615       0.15384615      -0.00000000 </v>
   <v>       0.23076923       0.23076923       0.00000000 </v>
   <v>       0.30769231       0.23076923       0.00000000 </v>
   <v>       0.38461538       0.23076923       0.00000000 </v>
   <v>       0.46153846       0.23076923      -0.00000000 </v>
   <v>      -0.46153846       0.23076923      -0.00000000 </v>
   <v>      -0.38461538       0.23076923      -0.00000000 </v>
   <v>      -0.30769231       0.23076923       0.00000000 </v>
   <v>      -0.23076923       0.23076923      -0.00000000 </v>
   <v>       0.30769231       0.30769231       0.00000000 </v>
   <v>       0.38461538       0.30769231       0.00000000 </v>
   <v>       0.46153846       0.30769231       0.00000000 </v>
   <v>      -0.46153846       0.30769231      -0.00000000 </v>
   <v>      -0.38461538       0.30769231      -0.00000000 </v>
   <v>      -0.30769231       0.30769231      -0.00000000 </v>
   <v>       0.38461538       0.38461538       0.00000000 </v>
   <v>       0.46153846       0.38461538       0.00000000 </v>
   <v>      -0.46153846       0.38461538       0.00000000 </v>
   <v>      -0.38461538       0.38461538       0.00000000 </v>
   <v>       0.46153846       0.46153846       0.00000000 </v>
   <v>      -0.46153846       0.46153846      -0.00000000 </v>
   <v>       0.23076923       0.15384615       0.07692308 </v>
   <v>       0.30769231       0.15384615       0.07692308 </v>
   <v>       0.38461538       0.15384615       0.07692308 </v>
   <v>       0.46153846       0.15384615       0.07692308 </v>
   <v>      -0.46153846       0.15384615       0.07692308 </v>
   <v>       0.30769231       0.23076923       0.07692308 </v>
   <v>       0.38461538       0.23076923       0.07692308 </v>
   <v>       0.46153846       0.23076923       0.07692308 </v>
   <v>      -0.46153846       0.23076923       0.07692308 </v>
   <v>      -0.38461538       0.23076923       0.07692308 </v>
   <v>      -0.30769231       0.23076923       0.07692308 </v>
   <v>      -0.23076923       0.23076923       0.07692308 </v>
   <v>      -0.15384615       0.23076923       0.07692308 </v>
   <v>       0.38461538       0.30769231       0.07692308 </v>
   <v>       0.46153846       0.30769231       0.07692308 </v>
   <v>      -0.46153846       0.30769231       0.07692308 </v>
   <v>      -0.38461538       0.30769231       0.07692308 </v>
   <v>      -0.30769231       0.30769231       0.07692308 </v>
   <v>      -0.23076923       0.30769231       0.07692308 </v>
   <v>       0.46153846       0.38461538       0.07692308 </v>
   <v>      -0.46153846       0.38461538       0.07692308 </v>
   <v>      -0.38461538       0.38461538       0.07692308 </v>
   <v>      -0.30769231       0.38461538       0.07692308 </v>
   <v>      -0.46153846       0.46153846       0.07692308 </v>
   <v>      -0.38461538       0.46153846       0.07692308 </v>
   <v>       0.46153846       0.30769231       0.15384615 </v>
   <v>      -0.46153846       0.30769231       0.15384615 </v>
   <v>      -0.38461538       0.30769231       0.15384615 </v>
   <v>      -0.46153846       0.38461538       0.15384615 </v>
   <v>      -0.38461538       0.38461538       0.15384615 </v>
   <v>      -0.30769231       0.38461538       0.15384615 </v>
   <v>      -0.23076923       0.38461538       0.15384615 </v>
   <v>      -0.38461538       0.46153846       0.15384615 </v>
   <v>      -0.30769231       0.46153846       0.15384615 </v>
   <v>      -0.30769231       0.46153846       0.23076923 </v>
  </varray>
  <varray name="weights" >
   <v>       0.00045517 </v>
   <v>       0.00364133 </v>
   <v>       0.00364133 </v>
   <v>       0.00364133 </v>
   <v>       0.00364133 </v>
   <v>       0.00364133 </v>
   <v>       0.00364133 </v>
   <v>       0.00273100 </v>
   <v>       0.01092399 </v>
   <v>       0.01092399 </v>
   <v>       0.01092399 </v>
   <v>       0.01092399 </v>
   <v>       0.01092399 </v>
   <v>       0.01092399 </v>
   <v>       0.01092399 </v>
   <v>       0.01092399 </v>
   <v>       0.01092399 </v>
   <v>       0.01092399 </v>
   <v>       0.00546199 </v>
   <v>       0.00273100 </v>
   <v>       0.01092399 </v>
   <v>       0.01092399 </v>
   <v>       0.01092399 </v>
   <v>       0.01092399 </v>
   <v>       0.01092399 </v>
   <v>       0.01092399 </v>
   <v>       0.01092399 </v>
   <v>       0.01092399 </v>
   <v>       0.00546199 </v>
   <v>       0.00273100 </v>
   <v>       0.01092399 </v>
   <v>       0.01092399 </v>
   <v>       0.01092399 </v>
   <v>       0.01092399 </v>
   <v>       0.01092399 </v>
   <v>       0.01092399 </v>
   <v>       0.00546199 </v>
   <v>       0.00273100 </v>
   <v>       0.01092399 </v>
   <v>       0.01092399 </v>
   <v>       0.01092399 </v>
   <v>       0.01092399 </v>
   <v>       0.00546199 </v>
   <v>       0.00273100 </v>
   <v>       0.01092399 </v>
   <v>       0.01092399 </v>
   <v>       0.00546199 </v>
   <v>       0.00273100 </v>
   <v>       0.00546199 </v>
   <v>       0.01092399 </v>
   <v>       0.02184797 </v>
   <v>       0.02184797 </v>
   <v>       0.02184797 </v>
   <v>       0.02184797 </v>
   <v>       0.01092399 </v>
   <v>       0.02184797 </v>
   <v>       0.02184797 </v>
   <v>       0.02184797 </v>
   <v>       0.02184797 </v>
   <v>       0.02184797 </v>
   <v>       0.02184797 </v>
   <v>       0.01092399 </v>
   <v>       0.01092399 </v>
   <v>       0.02184797 </v>
   <v>       0.02184797 </v>
   <v>       0.02184797 </v>
   <v>       0.02184797 </v>
   <v>       0.01092399 </v>
   <v>       0.01092399 </v>
   <v>       0.02184797 </v>
   <v>       0.02184797 </v>
   <v>       0.01092399 </v>
   <v>       0.01092399 </v>
   <v>       0.01092399 </v>
   <v>       0.01092399 </v>
   <v>       0.02184797 </v>
   <v>       0.02184797 </v>
   <v>       0.01092399 </v>
   <v>       0.02184797 </v>
   <v>       0.02184797 </v>
   <v>       0.01092399 </v>
   <v>       0.01092399 </v>
   <v>       0.01092399 </v>
   <v>       0.01092399 </v>
  </varray>
 </kpoints>
 <parameters>
  <separator name="general" >
   <i type="string" name="SYSTEM">unknown system</i>
   <i type="logical" name="LCOMPAT"> F  </i>
  </separator>
  <separator name="electronic" >
   <i type="string" name="PREC">acc</i>
   <i name="ENMAX">    700.00000000</i>
   <i name="ENAUG">    380.87800000</i>
   <i name="EDIFF">      0.00000010</i>
   <i type="int" name="IALGO">    38</i>
   <i type="int" name="IWAVPR">    10</i>
   <i type="int" name="NBANDS">    16</i>
   <i type="int" name="NBANDSLOW">    -1</i>
   <i type="int" name="NBANDSHIGH">    -1</i>
   <i name="NELECT">     25.00000000</i>
   <i type="int" name="TURBO">     0</i>
   <i type="int" name="IRESTART">     0</i>
   <i type="int" name="NREBOOT">     0</i>
   <i type="int" name="NMIN">     0</i>
   <i name="EREF">      0.00000000</i>
   <separator name="electronic smearing" >
    <i type="int" name="ISMEAR">     0</i>
    <i name="SIGMA">      0.01000000</i>
    <i name="KSPACING">      0.50000000</i>
    <i type="logical" name="KGAMMA"> T  </i>
    <i type="logical" name="KBLOWUP"> T  </i>
   </separator>
   <separator name="electronic projectors" >
    <i type="logical" name="LREAL"> F  </i>
    <v name="ROPT">      0.00000000      0.00000000      0.00000000</v>
    <i type="int" name="LMAXPAW">  -100</i>
    <i type="int" name="LMAXMIX">     2</i>
    <i type="logical" name="NLSPLINE"> F  </i>
   </separator>
   <separator name="electronic startup" >
    <i type="int" name="ISTART">     0</i>
    <i type="int" name="ICHARG">     2</i>
    <i type="int" name="INIWAV">     1</i>
   </separator>
   <separator name="electronic spin" >
    <i type="int" name="ISPIN">     1</i>
    <i type="logical" name="LNONCOLLINEAR"> F  </i>
    <v name="MAGMOM">      1.00000000      1.00000000      1.00000000</v>
    <i name="NUPDOWN">     -1.00000000</i>
    <i type="logical" name="LSORBIT"> F  </i>
    <v name="SAXIS">      0.00000000      0.00000000      1.00000000</v>
    <i type="logical" name="LSPIRAL"> F  </i>
    <v name="QSPIRAL">      0.00000000      0.00000000      0.00000000</v>
    <i type="logical" name="LZEROZ"> F  </i>
   </separator>
   <separator name="electronic exchange-correlation" >
    <i type="logical" name="LASPH"> F  </i>
    <i type="logical" name="LMETAGGA"> F  </i>
   </separator>
   <separator name="electronic convergence" >
    <i type="int" name="NELM">    60</i>
    <i type="int" name="NELMDL">    -5</i>
    <i type="int" name="NELMIN">     5</i>
    <i name="ENINI">    700.00000000</i>
    <separator name="electronic convergence detail" >
     <i type="logical" name="LDIAG"> T  </i>
     <i type="logical" name="LSUBROT"> F  </i>
     <i name="WEIMIN">      0.00000000</i>
     <i name="EBREAK">      0.00000000</i>
     <i name="DEPER">      0.30000000</i>
     <i type="int" name="NRMM">     4</i>
     <i name="TIME">      0.40000000</i>
    </separator>
   </separator>
   <separator name="electronic mixer" >
    <i name="AMIX">      0.40000000</i>
    <i name="BMIX">      1.00000000</i>
    <i name="AMIN">      0.10000000</i>
    <i name="AMIX_MAG">      1.60000000</i>
    <i name="BMIX_MAG">      1.00000000</i>
    <separator name="electronic mixer details" >
     <i type="int" name="IMIX">     4</i>
     <i type="logical" name="MIXFIRST"> F  </i>
     <i type="int" name="MAXMIX">   -45</i>
     <i name="WC">    100.00000000</i>
     <i type="int" name="INIMIX">     1</i>
     <i type="int" name="MIXPRE">     1</i>
     <i type="int" name="MREMOVE">     5</i>
    </separator>
   </separator>
   <separator name="electronic dipolcorrection" >
    <i type="logical" name="LDIPOL"> F  </i>
    <i type="logical" name="LMONO"> F  </i>
    <i type="int" name="IDIPOL">     0</i>
    <i name="EPSILON">      1.00000000</i>
    <v name="DIPOL">   -100.00000000   -100.00000000   -100.00000000</v>
    <i name="EFIELD">      0.00000000</i>
   </separator>
  </separator>
  <separator name="grids" >
   <i type="int" name="NGX">    36</i>
   <i type="int" name="NGY">    36</i>
   <i type="int" name="NGZ">    36</i>
   <i type="int" name="NGXF">    72</i>
   <i type="int" name="NGYF">    72</i>
   <i type="int" name="NGZF">    72</i>
   <i type="logical" name="ADDGRID"> T  </i>
  </separator>
  <separator name="ionic" >
   <i type="int" name="NSW">     0</i>
   <i type="int" name="IBRION">    -1</i>
   <i type="int" name="MDALGO">     0</i>
   <i type="int" name="ISIF">     3</i>
   <i name="PSTRESS">      0.00000000</i>
   <i name="EDIFFG">      0.00000100</i>
   <i type="int" name="NFREE">     0</i>
   <i name="POTIM">      0.50000000</i>
   <i name="SMASS">     -3.00000000</i>
   <i name="SCALEE">      1.00000000</i>
  </separator>
  <separator name="ionic md" >
   <i name="TEBEG">      0.00010000</i>
   <i name="TEEND">      0.00010000</i>
   <i type="int" name="NBLOCK">     1</i>
   <i type="int" name="KBLOCK">     1</i>
   <i type="int" name="NPACO">   256</i>
   <i name="APACO">     16.00000000</i>
  </separator>
  <separator name="symmetry" >
   <i type="int" name="ISYM">     2</i>
   <i name="SYMPREC">      0.00001000</i>
  </separator>
  <separator name="dos" >
   <i type="int" name="LORBIT">     0</i>
   <v name="RWIGS">     -1.00000000     -1.00000000     -1.00000000</v>
   <i type="int" name="NEDOS">   301</i>
   <i name="EMIN">     10.00000000</i>
   <i name="EMAX">    -10.00000000</i>
   <i name="EFERMI">      0.00000000</i>
  </separator>
  <separator name="writing" >
   <i type="int" name="NWRITE">     2</i>
   <i type="logical" name="LWAVE"> F  </i>
   <i type="logical" name="LDOWNSAMPLE"> F  </i>
   <i type="logical" name="LCHARG"> F  </i>
   <i type="logical" name="LPARD"> F  </i>
   <i type="logical" name="LVTOT"> F  </i>
   <i type="logical" name="LVHAR"> F  </i>
   <i type="logical" name="LELF"> F  </i>
   <i type="logical" name="LOPTICS"> F  </i>
   <v name="STM">      0.00000000      0.00000000      0.00000000      0.00000000      0.00000000      0.00000000      0.00000000</v>
  </separator>
  <separator name="performance" >
   <i type="int" name="NPAR">     4</i>
   <i type="int" name="NSIM">     4</i>
   <i type="int" name="NBLK">    -1</i>
   <i type="logical" name="LPLANE"> T  </i>
   <i type="logical" name="LSCALAPACK"> T  </i>
   <i type="logical" name="LSCAAWARE"> F  </i>
   <i type="logical" name="LSCALU"> F  </i>
   <i type="logical" name="LASYNC"> F  </i>
   <i type="logical" name="LORBITALREAL"> F  </i>
  </separator>
  <separator name="miscellaneous" >
   <i type="int" name="IDIOT">     3</i>
   <i type="int" name="PHON_NSTRUCT">    -1</i>
   <i type="logical" name="LMUSIC"> F  </i>
   <v name="POMASS">    178.49000000    121.75000000    195.08000000</v>
   <v name="DARWINR">      0.00000000      0.00000000      0.00000000</v>
   <v name="DARWINV">      1.00000000      1.00000000      1.00000000</v>
   <i type="logical" name="LCORR"> T  </i>
  </separator>
  <i type="logical" name="GGA_COMPAT"> T  </i>
  <i type="logical" name="LBERRY"> F  </i>
  <i type="int" name="ICORELEVEL">     0</i>
  <i type="logical" name="LDAU"> F  </i>
  <i type="int" name="I_CONSTRAINED_M">     0</i>
  <separator name="electronic exchange-correlation" >
   <i type="string" name="GGA">PS</i>
   <i type="int" name="VOSKOWN">     0</i>
   <i type="logical" name="LHFCALC"> F  </i>
   <i type="string" name="PRECFOCK"></i>
   <i type="logical" name="LSYMGRAD"> F  </i>
   <i type="logical" name="LHFONE"> F  </i>
   <i type="logical" name="LRHFCALC"> F  </i>
   <i type="logical" name="LTHOMAS"> F  </i>
   <i type="logical" name="LMODELHF"> F  </i>
   <i type="logical" name="LFOCKACE"> F  </i>
   <i name="ENCUT4O">     -1.00000000</i>
   <i type="int" name="EXXOEP">     0</i>
   <i type="int" name="FOURORBIT">     0</i>
   <i name="AEXX">      0.00000000</i>
   <i name="HFALPHA">      0.00000000</i>
   <i name="MCALPHA">      0.00000000</i>
   <i name="ALDAX">      1.00000000</i>
   <i name="AGGAX">      1.00000000</i>
   <i name="ALDAC">      1.00000000</i>
   <i name="AGGAC">      1.00000000</i>
   <i type="int" name="NKREDX">     1</i>
   <i type="int" name="NKREDY">     1</i>
   <i type="int" name="NKREDZ">     1</i>
   <i type="logical" name="SHIFTRED"> F  </i>
   <i type="logical" name="ODDONLY"> F  </i>
   <i type="logical" name="EVENONLY"> F  </i>
   <i type="int" name="LMAXFOCK">     0</i>
   <i type="int" name="NMAXFOCKAE">     0</i>
   <i type="logical" name="LFOCKAEDFT"> F  </i>
   <i name="HFSCREEN">      0.00000000</i>
   <i name="HFSCREENC">      0.00000000</i>
   <i type="int" name="NBANDSGWLOW">     0</i>
  </separator>
  <separator name="vdW DFT" >
   <i type="logical" name="LUSE_VDW"> F  </i>
   <i name="Zab_VDW">     -0.84910000</i>
   <i name="PARAM1">      0.12340000</i>
   <i name="PARAM2">      1.00000000</i>
   <i name="PARAM3">      0.00000000</i>
  </separator>
  <separator name="model GW" >
   <i type="int" name="MODEL_GW">     0</i>
   <i name="MODEL_EPS0">     10.27372846</i>
   <i name="MODEL_ALPHA">      1.00000000</i>
  </separator>
  <separator name="linear response parameters" >
   <i type="logical" name="LEPSILON"> F  </i>
   <i type="logical" name="LRPA"> F  </i>
   <i type="logical" name="LNABLA"> F  </i>
   <i type="logical" name="LVEL"> F  </i>
   <i type="int" name="KINTER">     0</i>
   <i name="CSHIFT">      0.10000000</i>
   <i name="OMEGAMAX">     -1.00000000</i>
   <i name="DEG_THRESHOLD">      0.00200000</i>
   <i name="RTIME">     -0.10000000</i>
   <i name="WPLASMAI">      0.00000000</i>
   <v name="DFIELD">      0.00000000      0.00000000      0.00000000</v>
   <v name="WPLASMA">      0.00000000      0.00000000      0.00000000      0.00000000      0.00000000      0.00000000      0.00000000      0.00000000      0.00000000</v>
  </separator>
  <separator name="orbital magnetization" >
   <i type="logical" name="NUCIND"> F  </i>
   <v name="MAGPOS">      0.00000000      0.00000000      0.00000000</v>
   <i type="logical" name="LNICSALL"> T  </i>
   <i type="logical" name="ORBITALMAG"> F  </i>
   <i type="logical" name="LMAGBLOCH"> F  </i>
   <i type="logical" name="LCHIMAG"> F  </i>
   <i type="logical" name="LGAUGE"> T  </i>
   <i type="int" name="MAGATOM">     0</i>
   <v name="MAGDIPOL">      0.00000000      0.00000000      0.00000000</v>
   <v name="AVECCONST">      0.00000000      0.00000000      0.00000000</v>
  </separator>
  <separator name="response functions" >
   <i type="logical" name="LFINITE_TEMPERATURE"> F  </i>
   <i type="logical" name="LADDER"> F  </i>
   <i type="logical" name="LRPAFORCE"> F  </i>
   <i type="logical" name="LFXC"> F  </i>
   <i type="logical" name="LHARTREE"> T  </i>
   <i type="int" name="IBSE">     0</i>
   <v type="int" name="KPOINT">    -1     0     0     0</v>
   <i type="logical" name="LTCTC"> F  </i>
   <i type="logical" name="LTCTE"> F  </i>
   <i type="logical" name="LTETE"> F  </i>
   <i type="logical" name="LTRIPLET"> F  </i>
   <i type="logical" name="LFXCEPS"> F  </i>
   <i type="logical" name="LFXHEG"> F  </i>
   <i type="int" name="NATURALO">     2</i>
   <i type="logical" name="L2ORDER"> F  </i>
   <i type="logical" name="LDMP1"> F  </i>
   <i type="logical" name="LMP2LT"> F  </i>
   <i type="logical" name="LSMP2LT"> F  </i>
   <i type="logical" name="LUSEW"> F  </i>
   <i name="ENCUTGW">     -2.00000000</i>
   <i name="ENCUTGWSOFT">     -2.00000000</i>
   <i name="ENCUTLF">     -1.00000000</i>
   <i type="int" name="LMAXMP2">    -1</i>
   <i name="SCISSOR">      0.00000000</i>
   <i type="int" name="NOMEGA">     0</i>
   <i type="int" name="NOMEGAR">     0</i>
   <i type="int" name="NBANDSGW">    -1</i>
   <i type="int" name="NBANDSO">    -1</i>
   <i type="int" name="NBANDSV">    -1</i>
   <i type="int" name="NELM">     1</i>
   <i type="int" name="NELMHF">     1</i>
   <i type="int" name="DIM">     3</i>
   <i type="int" name="IESPILON">     4</i>
   <i type="int" name="ANTIRES">     0</i>
   <i name="OMEGAMAX">    -30.00000000</i>
   <i name="OMEGAMIN">    -30.00000000</i>
   <i name="OMEGATL">   -200.00000000</i>
   <i type="int" name="OMEGAGRID">   145</i>
   <i name="CSHIFT">     -0.10000000</i>
   <i type="logical" name="LSELFENERGY"> F  </i>
   <i type="logical" name="LSPECTRAL"> F  </i>
   <i type="logical" name="LSPECTRALGW"> F  </i>
   <i type="logical" name="LSINGLES"> F  </i>
   <i type="logical" name="LFERMIGW"> F  </i>
   <i type="logical" name="ODDONLYGW"> F  </i>
   <i type="logical" name="EVENONLYGW"> F  </i>
   <i type="int" name="NKREDLFX">     1</i>
   <i type="int" name="NKREDLFY">     1</i>
   <i type="int" name="NKREDLFZ">     1</i>
   <i type="int" name="MAXMEM">  2800</i>
   <i type="int" name="TELESCOPE">     0</i>
   <i type="int" name="NTAUPAR">     1</i>
   <i type="int" name="NOMEGAPAR">    -1</i>
   <i name="LAMBDA">      1.00000000</i>
  </separator>
  <separator name="External order field" >
   <i name="OFIELD_KAPPA">      0.00000000</i>
   <v name="OFIELD_K">      0.00000000      0.00000000      0.00000000</v>
   <i name="OFIELD_Q6_NEAR">      0.00000000</i>
   <i name="OFIELD_Q6_FAR">      0.00000000</i>
   <i name="OFIELD_A">      0.00000000</i>
  </separator>
 </parameters>
 <atominfo>
  <atoms>       3 </atoms>
  <types>       3 </types>
  <array name="atoms" >
   <dimension dim="1">ion</dimension>
   <field type="string">element</field>
   <field type="int">atomtype</field>
   <set>
    <rc><c>Hf</c><c>   1</c></rc>
    <rc><c>Sb</c><c>   2</c></rc>
    <rc><c>Pt</c><c>   3</c></rc>
   </set>
  </array>
  <array name="atomtypes" >
   <dimension dim="1">type</dimension>
   <field type="int">atomspertype</field>
   <field type="string">element</field>
   <field>mass</field>
   <field>valence</field>
   <field type="string">pseudopotential</field>
   <set>
    <rc><c>   1</c><c>Hf</c><c>    178.49000000</c><c>     10.00000000</c><c>  PAW_PBE Hf_pv 06Sep2000               </c></rc>
    <rc><c>   1</c><c>Sb</c><c>    121.75000000</c><c>      5.00000000</c><c>  PAW_PBE Sb 06Sep2000                  </c></rc>
    <rc><c>   1</c><c>Pt</c><c>    195.08000000</c><c>     10.00000000</c><c>  PAW_PBE Pt 04Feb2005                  </c></rc>
   </set>
  </array>
 </atominfo>
 <structure name="initialpos" >
  <crystal>
   <varray name="basis" >
    <v>       0.00000000       2.95045750       2.95045750 </v>
    <v>       2.95045750       0.00000000       2.95045750 </v>
    <v>       2.95045750       2.95045750       0.00000000 </v>
   </varray>
   <i name="volume">     51.36864232 </i>
   <varray name="rec_basis" >
    <v>      -0.16946524       0.16946524       0.16946524 </v>
    <v>       0.16946524      -0.16946524       0.16946524 </v>
    <v>       0.16946524       0.16946524      -0.16946524 </v>
   </varray>
  </crystal>
  <varray name="positions" >
   <v>       0.75000000       0.75000000       0.75000000 </v>
   <v>       0.25000000       0.25000000       0.25000000 </v>
   <v>       0.00000000       0.00000000       0.00000000 </v>
  </varray>
 </structure>
 <calculation>
  <scstep>
   <time name="dav">    0.83    0.84</time>
   <time name="total">    0.94    1.03</time>
   <energy>
    <i name="alphaZ">    132.62475349 </i>
    <i name="ewald">  -1685.18257128 </i>
    <i name="hartreedc">   -284.04567355 </i>
    <i name="XCdc">    -16.92752344 </i>
    <i name="pawpsdc">   1514.36848356 </i>
    <i name="pawaedc">  -1421.27055995 </i>
    <i name="eentropy">     -0.00008449 </i>
    <i name="bandstr">    171.50463923 </i>
    <i name="atom">   1741.10451121 </i>
    <i name="e_fr_energy">    152.17597477 </i>
    <i name="e_wo_entrp">    152.17605926 </i>
    <i name="e_0_energy">    152.17601702 </i>
   </energy>
  </scstep>
  <scstep>
   <time name="dav">    0.99    1.02</time>
   <time name="total">    0.99    1.02</time>
   <energy>
    <i name="e_fr_energy">    -18.67186136 </i>
    <i name="e_wo_entrp">    -18.67162909 </i>
    <i name="e_0_energy">    -18.67174522 </i>
   </energy>
  </scstep>
  <scstep>
   <time name="dav">    1.01    1.04</time>
   <time name="total">    1.01    1.04</time>
   <energy>
    <i name="e_fr_energy">    -23.01918310 </i>
    <i name="e_wo_entrp">    -23.01905267 </i>
    <i name="e_0_energy">    -23.01911788 </i>
   </energy>
  </scstep>
  <scstep>
   <time name="dav">    1.01    1.05</time>
   <time name="total">    1.01    1.05</time>
   <energy>
    <i name="e_fr_energy">    -23.07760620 </i>
    <i name="e_wo_entrp">    -23.07746825 </i>
    <i name="e_0_energy">    -23.07753722 </i>
   </energy>
  </scstep>
  <scstep>
   <time name="dav">    1.03    1.05</time>
   <time name="total">    1.23    1.26</time>
   <energy>
    <i name="e_fr_energy">    -23.07894927 </i>
    <i name="e_wo_entrp">    -23.07881060 </i>
    <i name="e_0_energy">    -23.07887993 </i>
   </energy>
  </scstep>
  <scstep>
   <time name="dav">    0.92    0.92</time>
   <time name="total">    1.18    1.20</time>
   <energy>
    <i name="e_fr_energy">    -22.57671877 </i>
    <i name="e_wo_entrp">    -22.57660062 </i>
    <i name="e_0_energy">    -22.57665969 </i>
   </energy>
  </scstep>
  <scstep>
   <time name="dav">    1.00    1.00</time>
   <time name="total">    1.25    1.27</time>
   <energy>
    <i name="e_fr_energy">    -22.42947579 </i>
    <i name="e_wo_entrp">    -22.42932468 </i>
    <i name="e_0_energy">    -22.42940024 </i>
   </energy>
  </scstep>
  <scstep>
   <time name="dav">    0.95    0.95</time>
   <time name="total">    1.18    1.21</time>
   <energy>
    <i name="e_fr_energy">    -22.39553705 </i>
    <i name="e_wo_entrp">    -22.39534389 </i>
    <i name="e_0_energy">    -22.39544047 </i>
   </energy>
  </scstep>
  <scstep>
   <time name="dav">    0.97    0.97</time>
   <time name="total">    1.21    1.23</time>
   <energy>
    <i name="e_fr_energy">    -22.39410221 </i>
    <i name="e_wo_entrp">    -22.39390284 </i>
    <i name="e_0_energy">    -22.39400252 </i>
   </energy>
  </scstep>
  <scstep>
   <time name="dav">    0.98    0.98</time>
   <time name="total">    1.23    1.25</time>
   <energy>
    <i name="e_fr_energy">    -22.39396690 </i>
    <i name="e_wo_entrp">    -22.39376690 </i>
    <i name="e_0_energy">    -22.39386690 </i>
   </energy>
  </scstep>
  <scstep>
   <time name="dav">    0.98    0.98</time>
   <time name="total">    1.23    1.25</time>
   <energy>
    <i name="e_fr_energy">    -22.39397500 </i>
    <i name="e_wo_entrp">    -22.39377508 </i>
    <i name="e_0_energy">    -22.39387504 </i>
   </energy>
  </scstep>
  <scstep>
   <time name="dav">    1.02    1.02</time>
   <time name="total">    1.26    1.29</time>
   <energy>
    <i name="e_fr_energy">    -22.39397536 </i>
    <i name="e_wo_entrp">    -22.39377551 </i>
    <i name="e_0_energy">    -22.39387544 </i>
   </energy>
  </scstep>
  <scstep>
   <time name="dav">    1.01    1.01</time>
   <time name="total">    1.27    1.29</time>
   <energy>
    <i name="e_fr_energy">    -22.39397500 </i>
    <i name="e_wo_entrp">    -22.39377519 </i>
    <i name="e_0_energy">    -22.39387509 </i>
   </energy>
  </scstep>
  <scstep>
   <time name="dav">    0.83    0.83</time>
   <time name="total">    1.07    1.09</time>
   <energy>
    <i name="e_fr_energy">    -22.39397482 </i>
    <i name="e_wo_entrp">    -22.39377499 </i>
    <i name="e_0_energy">    -22.39387491 </i>
   </energy>
  </scstep>
  <scstep>
   <time name="dav">    0.68    0.68</time>
   <time name="total">    0.78    0.80</time>
   <energy>
    <i name="alphaZ">    132.62475349 </i>
    <i name="ewald">  -1685.18257128 </i>
    <i name="hartreedc">   -267.22384749 </i>
    <i name="XCdc">    -17.28682831 </i>
    <i name="pawpsdc">   3879.34225696 </i>
    <i name="pawaedc">  -3793.31445573 </i>
    <i name="eentropy">     -0.00019983 </i>
    <i name="bandstr">    -12.45759385 </i>
    <i name="atom">   1741.10451121 </i>
    <i name="e_fr_energy">    -22.39397484 </i>
    <i name="e_wo_entrp">    -22.39377501 </i>
    <i name="e_0_energy">    -22.39387493 </i>
   </energy>
  </scstep>
  <structure>
   <crystal>
    <varray name="basis" >
     <v>       0.00000000       2.95045750       2.95045750 </v>
     <v>       2.95045750       0.00000000       2.95045750 </v>
     <v>       2.95045750       2.95045750       0.00000000 </v>
    </varray>
    <i name="volume">     51.36864232 </i>
    <varray name="rec_basis" >
     <v>      -0.16946524       0.16946524       0.16946524 </v>
     <v>       0.16946524      -0.16946524       0.16946524 </v>
     <v>       0.16946524       0.16946524      -0.16946524 </v>
    </varray>
   </crystal>
   <varray name="positions" >
    <v>       0.75000000       0.75000000       0.75000000 </v>
    <v>       0.25000000       0.25000000       0.25000000 </v>
    <v>       0.00000000       0.00000000       0.00000000 </v>
   </varray>
  </structure>
  <varray name="forces" >
   <v>      -0.00000000      -0.00000000      -0.00000000 </v>
   <v>      -0.00000000      -0.00000000      -0.00000000 </v>
   <v>       0.00000000       0.00000000       0.00000000 </v>
  </varray>
  <varray name="stress" >
   <v>     515.23860713       0.00000000      -0.00000000 </v>
   <v>       0.00000000     515.23860713       0.00000000 </v>
   <v>      -0.00000000      -0.00000000     515.23860713 </v>
  </varray>
  <energy>
   <i name="e_fr_energy">    -22.39397484 </i>
   <i name="e_wo_entrp">    -22.39387493 </i>
   <i name="e_0_energy">     -0.00019983 </i>
  </energy>
  <time name="totalsc">   19.24   19.92</time>
  <eigenvalues>
   <array>
    <dimension dim="1">band</dimension>
    <dimension dim="2">kpoint</dimension>
    <dimension dim="3">spin</dimension>
    <field>eigene</field>
    <field>occ</field>
    <set>
     <set comment="spin 1">
      <set comment="kpoint 1">
       <r>  -19.7360    1.0000 </r>
       <r>  -19.7360    1.0000 </r>
       <r>  -19.7360    1.0000 </r>
       <r>   -2.6042    1.0000 </r>
       <r>    4.6064    1.0000 </r>
       <r>    4.6064    1.0000 </r>
       <r>    4.6064    1.0000 </r>
       <r>    5.3495    1.0000 </r>
       <r>    5.3495    1.0000 </r>
       <r>    9.9124    1.0000 </r>
       <r>    9.9124    1.0000 </r>
       <r>    9.9124    1.0000 </r>
       <r>   12.8192    0.0000 </r>
       <r>   13.3540    0.0000 </r>
       <r>   13.3540    0.0000 </r>
       <r>   13.3540    0.0000 </r>
      </set>
      <set comment="kpoint 2">
       <r>  -19.7393    1.0000 </r>
       <r>  -19.7355    1.0000 </r>
       <r>  -19.7355    1.0000 </r>
       <r>   -2.5145    1.0000 </r>
       <r>    4.5329    1.0000 </r>
       <r>    4.5329    1.0000 </r>
       <r>    4.5335    1.0000 </r>
       <r>    5.4383    1.0000 </r>
       <r>    5.4383    1.0000 </r>
       <r>    9.4192    1.0000 </r>
       <r>    9.8478    1.0000 </r>
       <r>    9.8478    1.0000 </r>
       <r>   12.6156    0.0000 </r>
       <r>   13.1512    0.0000 </r>
       <r>   13.1512    0.0000 </r>
       <r>   14.1175    0.0000 </r>
      </set>
      <set comment="kpoint 3">
       <r>  -19.7483    1.0000 </r>
       <r>  -19.7343    1.0000 </r>
       <r>  -19.7343    1.0000 </r>
       <r>   -2.2552    1.0000 </r>
       <r>    4.3285    1.0000 </r>
       <r>    4.3970    1.0000 </r>
       <r>    4.3970    1.0000 </r>
       <r>    5.6075    1.0000 </r>
       <r>    5.6075    1.0000 </r>
       <r>    8.4382    1.0000 </r>
       <r>    9.6900    1.0000 </r>
       <r>    9.6900    1.0000 </r>
       <r>   12.5399    0.0000 </r>
       <r>   12.9975    0.0000 </r>
       <r>   12.9975    0.0000 </r>
       <r>   14.7897    0.0000 </r>
      </set>
      <set comment="kpoint 4">
       <r>  -19.7606    1.0000 </r>
       <r>  -19.7324    1.0000 </r>
       <r>  -19.7324    1.0000 </r>
       <r>   -1.8568    1.0000 </r>
       <r>    4.0201    1.0000 </r>
       <r>    4.2865    1.0000 </r>
       <r>    4.2865    1.0000 </r>
       <r>    5.7381    1.0000 </r>
       <r>    5.7381    1.0000 </r>
       <r>    7.4763    1.0000 </r>
       <r>    9.5206    1.0000 </r>
       <r>    9.5206    1.0000 </r>
       <r>   12.5313    0.0000 </r>
       <r>   12.9891    0.0000 </r>
       <r>   12.9891    0.0000 </r>
       <r>   15.5908    0.0000 </r>
      </set>
      <set comment="kpoint 5">
       <r>  -19.7733    1.0000 </r>
       <r>  -19.7305    1.0000 </r>
       <r>  -19.7305    1.0000 </r>
       <r>   -1.3758    1.0000 </r>
       <r>    3.6407    1.0000 </r>
       <r>    4.2283    1.0000 </r>
       <r>    4.2283    1.0000 </r>
       <r>    5.7784    1.0000 </r>
       <r>    5.7784    1.0000 </r>
       <r>    6.7240    1.0000 </r>
       <r>    9.4080    1.0000 </r>
       <r>    9.4080    1.0000 </r>
       <r>   12.5245    0.0000 </r>
       <r>   13.0993    0.0000 </r>
       <r>   13.0993    0.0000 </r>
       <r>   15.0897    0.0000 </r>
      </set>
      <set comment="kpoint 6">
       <r>  -19.7835    1.0000 </r>
       <r>  -19.7290    1.0000 </r>
       <r>  -19.7290    1.0000 </r>
       <r>   -0.9059    1.0000 </r>
       <r>    3.2507    1.0000 </r>
       <r>    4.2162    1.0000 </r>
       <r>    4.2162    1.0000 </r>
       <r>    5.7431    1.0000 </r>
       <r>    5.7431    1.0000 </r>
       <r>    6.2412    1.0000 </r>
       <r>    9.3650    1.0000 </r>
       <r>    9.3650    1.0000 </r>
       <r>   12.4929    0.0000 </r>
       <r>   13.2764    0.0000 </r>
       <r>   13.2764    0.0000 </r>
       <r>   14.2137    0.0000 </r>
      </set>
      <set comment="kpoint 7">
       <r>  -19.7892    1.0000 </r>
       <r>  -19.7281    1.0000 </r>
       <r>  -19.7281    1.0000 </r>
       <r>   -0.5937    1.0000 </r>
       <r>    2.9796    1.0000 </r>
       <r>    4.2238    1.0000 </r>
       <r>    4.2238    1.0000 </r>
       <r>    5.6961    1.0000 </r>
       <r>    5.6961    1.0000 </r>
       <r>    6.0154    1.0000 </r>
       <r>    9.3594    1.0000 </r>
       <r>    9.3594    1.0000 </r>
       <r>   12.4448    0.0000 </r>
       <r>   13.4234    0.0000 </r>
       <r>   13.4234    0.0000 </r>
       <r>   13.7618    0.0000 </r>
      </set>
      <set comment="kpoint 8">
       <r>  -19.7392    1.0000 </r>
       <r>  -19.7360    1.0000 </r>
       <r>  -19.7360    1.0000 </r>
       <r>   -2.4851    1.0000 </r>
       <r>    4.2889    1.0000 </r>
       <r>    4.6447    1.0000 </r>
       <r>    4.6447    1.0000 </r>
       <r>    5.3923    1.0000 </r>
       <r>    5.4951    1.0000 </r>
       <r>    9.5241    1.0000 </r>
       <r>    9.6940    1.0000 </r>
       <r>    9.6940    1.0000 </r>
       <r>   12.4190    0.0000 </r>
       <r>   13.3597    0.0000 </r>
       <r>   13.6313    0.0000 </r>
       <r>   13.6975    0.0000 </r>
      </set>
      <set comment="kpoint 9">
       <r>  -19.7458    1.0000 </r>
       <r>  -19.7355    1.0000 </r>
       <r>  -19.7349    1.0000 </r>
       <r>   -2.2839    1.0000 </r>
       <r>    4.0314    1.0000 </r>
       <r>    4.6051    1.0000 </r>
       <r>    4.6148    1.0000 </r>
       <r>    5.5052    1.0000 </r>
       <r>    5.6151    1.0000 </r>
       <r>    8.7562    1.0000 </r>
       <r>    9.4903    1.0000 </r>
       <r>    9.6207    1.0000 </r>
       <r>   12.3755    0.0000 </r>
       <r>   13.1268    0.0000 </r>
       <r>   13.3130    0.0000 </r>
       <r>   14.3647    0.0000 </r>
      </set>
      <set comment="kpoint 10">
       <r>  -19.7568    1.0000 </r>
       <r>  -19.7343    1.0000 </r>
       <r>  -19.7333    1.0000 </r>
       <r>   -1.9350    1.0000 </r>
       <r>    3.7934    1.0000 </r>
       <r>    4.4539    1.0000 </r>
       <r>    4.5261    1.0000 </r>
       <r>    5.6519    1.0000 </r>
       <r>    5.7428    1.0000 </r>
       <r>    7.8102    1.0000 </r>
       <r>    9.3227    1.0000 </r>
       <r>    9.4724    1.0000 </r>
       <r>   12.5148    0.0000 </r>
       <r>   13.0292    0.0000 </r>
       <r>   13.1171    0.0000 </r>
       <r>   15.1206    0.0000 </r>
      </set>
      <set comment="kpoint 11">
       <r>  -19.7691    1.0000 </r>
       <r>  -19.7325    1.0000 </r>
       <r>  -19.7317    1.0000 </r>
       <r>   -1.4865    1.0000 </r>
       <r>    3.5592    1.0000 </r>
       <r>    4.2822    1.0000 </r>
       <r>    4.4465    1.0000 </r>
       <r>    5.7263    1.0000 </r>
       <r>    5.8160    1.0000 </r>
       <r>    6.9970    1.0000 </r>
       <r>    9.2425    1.0000 </r>
       <r>    9.3165    1.0000 </r>
       <r>   12.4988    0.0000 </r>
       <r>   13.0730    0.0000 </r>
       <r>   13.2479    0.0000 </r>
       <r>   15.1909    0.0000 </r>
      </set>
      <set comment="kpoint 12">
       <r>  -19.7797    1.0000 </r>
       <r>  -19.7306    1.0000 </r>
       <r>  -19.7306    1.0000 </r>
       <r>   -1.0188    1.0000 </r>
       <r>    3.2991    1.0000 </r>
       <r>    4.1771    1.0000 </r>
       <r>    4.3833    1.0000 </r>
       <r>    5.7238    1.0000 </r>
       <r>    5.8137    1.0000 </r>
       <r>    6.4204    1.0000 </r>
       <r>    9.2186    1.0000 </r>
       <r>    9.2402    1.0000 </r>
       <r>   12.4402    0.0000 </r>
       <r>   13.1744    0.0000 </r>
       <r>   13.4592    0.0000 </r>
       <r>   14.4377    0.0000 </r>
      </set>
      <set comment="kpoint 13">
       <r>  -19.7866    1.0000 </r>
       <r>  -19.7302    1.0000 </r>
       <r>  -19.7290    1.0000 </r>
       <r>   -0.6563    1.0000 </r>
       <r>    3.0638    1.0000 </r>
       <r>    4.1688    1.0000 </r>
       <r>    4.3156    1.0000 </r>
       <r>    5.7092    1.0000 </r>
       <r>    5.7680    1.0000 </r>
       <r>    6.0960    1.0000 </r>
       <r>    9.1780    1.0000 </r>
       <r>    9.2660    1.0000 </r>
       <r>   12.4344    0.0000 </r>
       <r>   13.2541    0.0000 </r>
       <r>   13.3559    0.0000 </r>
       <r>   14.2302    0.0000 </r>
      </set>
      <set comment="kpoint 14">
       <r>  -19.7884    1.0000 </r>
       <r>  -19.7306    1.0000 </r>
       <r>  -19.7281    1.0000 </r>
       <r>   -0.5488    1.0000 </r>
       <r>    2.9910    1.0000 </r>
       <r>    4.2291    1.0000 </r>
       <r>    4.2297    1.0000 </r>
       <r>    5.7202    1.0000 </r>
       <r>    5.7405    1.0000 </r>
       <r>    6.0165    1.0000 </r>
       <r>    9.1535    1.0000 </r>
       <r>    9.2878    1.0000 </r>
       <r>   12.4811    0.0000 </r>
       <r>   13.0552    0.0000 </r>
       <r>   13.4662    0.0000 </r>
       <r>   14.2568    0.0000 </r>
      </set>
      <set comment="kpoint 15">
       <r>  -19.7847    1.0000 </r>
       <r>  -19.7317    1.0000 </r>
       <r>  -19.7281    1.0000 </r>
       <r>   -0.7548    1.0000 </r>
       <r>    3.1462    1.0000 </r>
       <r>    4.1419    1.0000 </r>
       <r>    4.3254    1.0000 </r>
       <r>    5.6943    1.0000 </r>
       <r>    5.8119    1.0000 </r>
       <r>    6.1829    1.0000 </r>
       <r>    9.1098    1.0000 </r>
       <r>    9.3189    1.0000 </r>
       <r>   12.4984    0.0000 </r>
       <r>   13.2303    0.0000 </r>
       <r>   13.3867    0.0000 </r>
       <r>   14.2506    0.0000 </r>
      </set>
      <set comment="kpoint 16">
       <r>  -19.7763    1.0000 </r>
       <r>  -19.7332    1.0000 </r>
       <r>  -19.7289    1.0000 </r>
       <r>   -1.1689    1.0000 </r>
       <r>    3.4388    1.0000 </r>
       <r>    4.0905    1.0000 </r>
       <r>    4.4390    1.0000 </r>
       <r>    5.6961    1.0000 </r>
       <r>    5.8679    1.0000 </r>
       <r>    6.5902    1.0000 </r>
       <r>    9.0566    1.0000 </r>
       <r>    9.3990    1.0000 </r>
       <r>   12.5610    0.0000 </r>
       <r>   13.1755    0.0000 </r>
       <r>   13.3284    0.0000 </r>
       <r>   14.6790    0.0000 </r>
      </set>
      <set comment="kpoint 17">
       <r>  -19.7649    1.0000 </r>
       <r>  -19.7347    1.0000 </r>
       <r>  -19.7305    1.0000 </r>
       <r>   -1.6419    1.0000 </r>
       <r>    3.7564    1.0000 </r>
       <r>    4.1038    1.0000 </r>
       <r>    4.5614    1.0000 </r>
       <r>    5.6704    1.0000 </r>
       <r>    5.8532    1.0000 </r>
       <r>    7.2470    1.0000 </r>
       <r>    9.0529    1.0000 </r>
       <r>    9.5519    1.0000 </r>
       <r>   12.7157    0.0000 </r>
       <r>   12.9506    0.0000 </r>
       <r>   13.1859    0.0000 </r>
       <r>   15.0845    0.0000 </r>
      </set>
      <set comment="kpoint 18">
       <r>  -19.7530    1.0000 </r>
       <r>  -19.7359    1.0000 </r>
       <r>  -19.7324    1.0000 </r>
       <r>   -2.0647    1.0000 </r>
       <r>    4.0523    1.0000 </r>
       <r>    4.1934    1.0000 </r>
       <r>    4.6650    1.0000 </r>
       <r>    5.5771    1.0000 </r>
       <r>    5.7516    1.0000 </r>
       <r>    8.1058    1.0000 </r>
       <r>    9.1657    1.0000 </r>
       <r>    9.7413    1.0000 </r>
       <r>   12.7902    0.0000 </r>
       <r>   12.8116    0.0000 </r>
       <r>   13.1695    0.0000 </r>
       <r>   14.4369    0.0000 </r>
      </set>
      <set comment="kpoint 19">
       <r>  -19.7437    1.0000 </r>
       <r>  -19.7362    1.0000 </r>
       <r>  -19.7343    1.0000 </r>
       <r>   -2.3688    1.0000 </r>
       <r>    4.3177    1.0000 </r>
       <r>    4.3501    1.0000 </r>
       <r>    4.6777    1.0000 </r>
       <r>    5.4684    1.0000 </r>
       <r>    5.5922    1.0000 </r>
       <r>    8.9592    1.0000 </r>
       <r>    9.4542    1.0000 </r>
       <r>    9.8683    1.0000 </r>
       <r>   12.6269    0.0000 </r>
       <r>   12.8562    0.0000 </r>
       <r>   13.4366    0.0000 </r>
       <r>   13.8557    0.0000 </r>
      </set>
      <set comment="kpoint 20">
       <r>  -19.7480    1.0000 </r>
       <r>  -19.7360    1.0000 </r>
       <r>  -19.7360    1.0000 </r>
       <r>   -2.1476    1.0000 </r>
       <r>    3.7121    1.0000 </r>
       <r>    4.7497    1.0000 </r>
       <r>    4.7497    1.0000 </r>
       <r>    5.5157    1.0000 </r>
       <r>    5.6109    1.0000 </r>
       <r>    8.7766    1.0000 </r>
       <r>    9.2470    1.0000 </r>
       <r>    9.2470    1.0000 </r>
       <r>   12.0319    1.0000 </r>
       <r>   13.3446    0.0000 </r>
       <r>   13.4972    0.0000 </r>
       <r>   14.4648    0.0000 </r>
      </set>
      <set comment="kpoint 21">
       <r>  -19.7561    1.0000 </r>
       <r>  -19.7355    1.0000 </r>
       <r>  -19.7353    1.0000 </r>
       <r>   -1.8649    1.0000 </r>
       <r>    3.4534    1.0000 </r>
       <r>    4.7239    1.0000 </r>
       <r>    4.7563    1.0000 </r>
       <r>    5.6316    1.0000 </r>
       <r>    5.6570    1.0000 </r>
       <r>    8.1198    1.0000 </r>
       <r>    9.0580    1.0000 </r>
       <r>    9.1159    1.0000 </r>
       <r>   12.0649    1.0000 </r>
       <r>   13.1188    0.0000 </r>
       <r>   13.4996    0.0000 </r>
       <r>   14.9463    0.0000 </r>
      </set>
      <set comment="kpoint 22">
       <r>  -19.7664    1.0000 </r>
       <r>  -19.7346    1.0000 </r>
       <r>  -19.7343    1.0000 </r>
       <r>   -1.4786    1.0000 </r>
       <r>    3.2730    1.0000 </r>
       <r>    4.5617    1.0000 </r>
       <r>    4.6992    1.0000 </r>
       <r>    5.7305    1.0000 </r>
       <r>    5.7438    1.0000 </r>
       <r>    7.3489    1.0000 </r>
       <r>    8.9651    1.0000 </r>
       <r>    8.9806    1.0000 </r>
       <r>   12.2092    0.9801 </r>
       <r>   12.9717    0.0000 </r>
       <r>   13.6623    0.0000 </r>
       <r>   15.0676    0.0000 </r>
      </set>
      <set comment="kpoint 23">
       <r>  -19.7759    1.0000 </r>
       <r>  -19.7347    1.0000 </r>
       <r>  -19.7325    1.0000 </r>
       <r>   -1.0595    1.0000 </r>
       <r>    3.1711    1.0000 </r>
       <r>    4.3603    1.0000 </r>
       <r>    4.6127    1.0000 </r>
       <r>    5.7632    1.0000 </r>
       <r>    5.8088    1.0000 </r>
       <r>    6.7080    1.0000 </r>
       <r>    8.8230    1.0000 </r>
       <r>    9.0003    1.0000 </r>
       <r>   12.2190    0.7517 </r>
       <r>   13.0052    0.0000 </r>
       <r>   13.9560    0.0000 </r>
       <r>   14.4867    0.0000 </r>
      </set>
      <set comment="kpoint 24">
       <r>  -19.7824    1.0000 </r>
       <r>  -19.7357    1.0000 </r>
       <r>  -19.7306    1.0000 </r>
       <r>   -0.7084    1.0000 </r>
       <r>    3.1314    1.0000 </r>
       <r>    4.2073    1.0000 </r>
       <r>    4.4889    1.0000 </r>
       <r>    5.7809    1.0000 </r>
       <r>    5.8183    1.0000 </r>
       <r>    6.2891    1.0000 </r>
       <r>    8.7296    1.0000 </r>
       <r>    9.0483    1.0000 </r>
       <r>   12.2199    0.7069 </r>
       <r>   13.2188    0.0000 </r>
       <r>   13.4357    0.0000 </r>
       <r>   14.6772    0.0000 </r>
      </set>
      <set comment="kpoint 25">
       <r>  -19.7847    1.0000 </r>
       <r>  -19.7371    1.0000 </r>
       <r>  -19.7290    1.0000 </r>
       <r>   -0.5385    1.0000 </r>
       <r>    3.1328    1.0000 </r>
       <r>    4.1775    1.0000 </r>
       <r>    4.3300    1.0000 </r>
       <r>    5.7698    1.0000 </r>
       <r>    5.8355    1.0000 </r>
       <r>    6.1459    1.0000 </r>
       <r>    8.6646    1.0000 </r>
       <r>    9.0830    1.0000 </r>
       <r>   12.3568    0.0000 </r>
       <r>   12.9296    0.0000 </r>
       <r>   13.4716    0.0000 </r>
       <r>   14.9574    0.0000 </r>
      </set>
      <set comment="kpoint 26">
       <r>  -19.7826    1.0000 </r>
       <r>  -19.7386    1.0000 </r>
       <r>  -19.7281    1.0000 </r>
       <r>   -0.6190    1.0000 </r>
       <r>    3.1805    1.0000 </r>
       <r>    4.1702    1.0000 </r>
       <r>    4.2940    1.0000 </r>
       <r>    5.7137    1.0000 </r>
       <r>    5.9169    1.0000 </r>
       <r>    6.2630    1.0000 </r>
       <r>    8.5797    1.0000 </r>
       <r>    9.1259    1.0000 </r>
       <r>   12.5138    0.0000 </r>
       <r>   12.9279    0.0000 </r>
       <r>   13.5252    0.0000 </r>
       <r>   14.8699    0.0000 </r>
      </set>
      <set comment="kpoint 27">
       <r>  -19.7767    1.0000 </r>
       <r>  -19.7397    1.0000 </r>
       <r>  -19.7281    1.0000 </r>
       <r>   -0.9180    1.0000 </r>
       <r>    3.3003    1.0000 </r>
       <r>    4.0532    1.0000 </r>
       <r>    4.4995    1.0000 </r>
       <r>    5.6766    1.0000 </r>
       <r>    5.9753    1.0000 </r>
       <r>    6.6061    1.0000 </r>
       <r>    8.4625    1.0000 </r>
       <r>    9.2264    1.0000 </r>
       <r>   12.5578    0.0000 </r>
       <r>   13.3486    0.0000 </r>
       <r>   13.5050    0.0000 </r>
       <r>   14.6413    0.0000 </r>
      </set>
      <set comment="kpoint 28">
       <r>  -19.7685    1.0000 </r>
       <r>  -19.7396    1.0000 </r>
       <r>  -19.7290    1.0000 </r>
       <r>   -1.3286    1.0000 </r>
       <r>    3.4979    1.0000 </r>
       <r>    4.0106    1.0000 </r>
       <r>    4.6983    1.0000 </r>
       <r>    5.6340    1.0000 </r>
       <r>    5.9673    1.0000 </r>
       <r>    7.1390    1.0000 </r>
       <r>    8.3927    1.0000 </r>
       <r>    9.4055    1.0000 </r>
       <r>   12.7569    0.0000 </r>
       <r>   13.0854    0.0000 </r>
       <r>   13.7696    0.0000 </r>
       <r>   14.6012    0.0000 </r>
      </set>
      <set comment="kpoint 29">
       <r>  -19.7599    1.0000 </r>
       <r>  -19.7383    1.0000 </r>
       <r>  -19.7305    1.0000 </r>
       <r>   -1.7385    1.0000 </r>
       <r>    3.7576    1.0000 </r>
       <r>    4.0577    1.0000 </r>
       <r>    4.7845    1.0000 </r>
       <r>    5.5825    1.0000 </r>
       <r>    5.8847    1.0000 </r>
       <r>    7.7150    1.0000 </r>
       <r>    8.5736    1.0000 </r>
       <r>    9.6152    1.0000 </r>
       <r>   12.8654    0.0000 </r>
       <r>   13.0104    0.0000 </r>
       <r>   13.4195    0.0000 </r>
       <r>   14.3177    0.0000 </r>
      </set>
      <set comment="kpoint 30">
       <r>  -19.7607    1.0000 </r>
       <r>  -19.7360    1.0000 </r>
       <r>  -19.7360    1.0000 </r>
       <r>   -1.6600    1.0000 </r>
       <r>    3.1901    1.0000 </r>
       <r>    4.8917    1.0000 </r>
       <r>    4.8917    1.0000 </r>
       <r>    5.5414    1.0000 </r>
       <r>    5.7027    1.0000 </r>
       <r>    8.0691    1.0000 </r>
       <r>    8.8344    1.0000 </r>
       <r>    8.8344    1.0000 </r>
       <r>   11.7559    1.0000 </r>
       <r>   12.9327    0.0000 </r>
       <r>   13.7419    0.0000 </r>
       <r>   15.1114    0.0000 </r>
      </set>
      <set comment="kpoint 31">
       <r>  -19.7685    1.0000 </r>
       <r>  -19.7362    1.0000 </r>
       <r>  -19.7356    1.0000 </r>
       <r>   -1.3583    1.0000 </r>
       <r>    3.0413    1.0000 </r>
       <r>    4.8360    1.0000 </r>
       <r>    4.9129    1.0000 </r>
       <r>    5.5557    1.0000 </r>
       <r>    5.8058    1.0000 </r>
       <r>    7.5748    1.0000 </r>
       <r>    8.6708    1.0000 </r>
       <r>    8.7275    1.0000 </r>
       <r>   11.7860    1.0000 </r>
       <r>   12.7413    0.0000 </r>
       <r>   13.9234    0.0000 </r>
       <r>   15.0981    0.0000 </r>
      </set>
      <set comment="kpoint 32">
       <r>  -19.7757    1.0000 </r>
       <r>  -19.7374    1.0000 </r>
       <r>  -19.7343    1.0000 </r>
       <r>   -1.0227    1.0000 </r>
       <r>    3.0281    1.0000 </r>
       <r>    4.6180    1.0000 </r>
       <r>    4.8501    1.0000 </r>
       <r>    5.6866    1.0000 </r>
       <r>    5.8655    1.0000 </r>
       <r>    6.9868    1.0000 </r>
       <r>    8.4637    1.0000 </r>
       <r>    8.7391    1.0000 </r>
       <r>   11.8833    1.0000 </r>
       <r>   12.7168    0.0000 </r>
       <r>   14.3098    0.0000 </r>
       <r>   14.5125    0.0000 </r>
      </set>
      <set comment="kpoint 33">
       <r>  -19.7801    1.0000 </r>
       <r>  -19.7403    1.0000 </r>
       <r>  -19.7325    1.0000 </r>
       <r>   -0.7317    1.0000 </r>
       <r>    3.1462    1.0000 </r>
       <r>    4.3832    1.0000 </r>
       <r>    4.7097    1.0000 </r>
       <r>    5.7860    1.0000 </r>
       <r>    5.9043    1.0000 </r>
       <r>    6.5207    1.0000 </r>
       <r>    8.2608    1.0000 </r>
       <r>    8.7913    1.0000 </r>
       <r>   11.9200    1.0000 </r>
       <r>   12.9461    0.0000 </r>
       <r>   13.7256    0.0000 </r>
       <r>   14.7900    0.0000 </r>
      </set>
      <set comment="kpoint 34">
       <r>  -19.7809    1.0000 </r>
       <r>  -19.7440    1.0000 </r>
       <r>  -19.7306    1.0000 </r>
       <r>   -0.5565    1.0000 </r>
       <r>    3.3293    1.0000 </r>
       <r>    4.1952    1.0000 </r>
       <r>    4.5086    1.0000 </r>
       <r>    5.7376    1.0000 </r>
       <r>    5.9655    1.0000 </r>
       <r>    6.3771    1.0000 </r>
       <r>    8.0968    1.0000 </r>
       <r>    8.8273    1.0000 </r>
       <r>   12.0205    1.0000 </r>
       <r>   13.1442    0.0000 </r>
       <r>   13.3685    0.0000 </r>
       <r>   14.8464    0.0000 </r>
      </set>
      <set comment="kpoint 35">
       <r>  -19.7785    1.0000 </r>
       <r>  -19.7472    1.0000 </r>
       <r>  -19.7290    1.0000 </r>
       <r>   -0.5410    1.0000 </r>
       <r>    3.4077    1.0000 </r>
       <r>    4.1678    1.0000 </r>
       <r>    4.2946    1.0000 </r>
       <r>    5.6738    1.0000 </r>
       <r>    6.0371    1.0000 </r>
       <r>    6.5034    1.0000 </r>
       <r>    7.9605    1.0000 </r>
       <r>    8.8721    1.0000 </r>
       <r>   12.2572    0.0000 </r>
       <r>   12.8896    0.0000 </r>
       <r>   13.6577    0.0000 </r>
       <r>   14.6934    0.0000 </r>
      </set>
      <set comment="kpoint 36">
       <r>  -19.7747    1.0000 </r>
       <r>  -19.7480    1.0000 </r>
       <r>  -19.7281    1.0000 </r>
       <r>   -0.6949    1.0000 </r>
       <r>    3.3468    1.0000 </r>
       <r>    4.1188    1.0000 </r>
       <r>    4.3543    1.0000 </r>
       <r>    5.6779    1.0000 </r>
       <r>    6.0753    1.0000 </r>
       <r>    6.7690    1.0000 </r>
       <r>    7.8502    1.0000 </r>
       <r>    8.9829    1.0000 </r>
       <r>   12.4392    0.0000 </r>
       <r>   13.2216    0.0000 </r>
       <r>   13.5747    0.0000 </r>
       <r>   14.5878    0.0000 </r>
      </set>
      <set comment="kpoint 37">
       <r>  -19.7714    1.0000 </r>
       <r>  -19.7450    1.0000 </r>
       <r>  -19.7281    1.0000 </r>
       <r>   -0.9836    1.0000 </r>
       <r>    3.3514    1.0000 </r>
       <r>    4.0174    1.0000 </r>
       <r>    4.5851    1.0000 </r>
       <r>    5.6654    1.0000 </r>
       <r>    6.0503    1.0000 </r>
       <r>    7.0381    1.0000 </r>
       <r>    7.9211    1.0000 </r>
       <r>    9.1786    1.0000 </r>
       <r>   12.5962    0.0000 </r>
       <r>   13.3303    0.0000 </r>
       <r>   13.9191    0.0000 </r>
       <r>   14.6532    0.0000 </r>
      </set>
      <set comment="kpoint 38">
       <r>  -19.7745    1.0000 </r>
       <r>  -19.7361    1.0000 </r>
       <r>  -19.7361    1.0000 </r>
       <r>   -1.1577    1.0000 </r>
       <r>    2.9369    1.0000 </r>
       <r>    5.0277    1.0000 </r>
       <r>    5.0277    1.0000 </r>
       <r>    5.3421    1.0000 </r>
       <r>    5.9221    1.0000 </r>
       <r>    7.4009    1.0000 </r>
       <r>    8.5730    1.0000 </r>
       <r>    8.5730    1.0000 </r>
       <r>   11.5439    1.0000 </r>
       <r>   12.4814    0.0000 </r>
       <r>   14.0744    0.0000 </r>
       <r>   15.0179    0.0000 </r>
      </set>
      <set comment="kpoint 39">
       <r>  -19.7804    1.0000 </r>
       <r>  -19.7370    1.0000 </r>
       <r>  -19.7356    1.0000 </r>
       <r>   -0.9285    1.0000 </r>
       <r>    2.9892    1.0000 </r>
       <r>    4.8733    1.0000 </r>
       <r>    5.0330    1.0000 </r>
       <r>    5.4446    1.0000 </r>
       <r>    6.0073    1.0000 </r>
       <r>    6.9742    1.0000 </r>
       <r>    8.4051    1.0000 </r>
       <r>    8.5472    1.0000 </r>
       <r>   11.5530    1.0000 </r>
       <r>   12.3609    0.0000 </r>
       <r>   14.3378    0.0000 </r>
       <r>   14.6183    0.0000 </r>
      </set>
      <set comment="kpoint 40">
       <r>  -19.7833    1.0000 </r>
       <r>  -19.7403    1.0000 </r>
       <r>  -19.7344    1.0000 </r>
       <r>   -0.7255    1.0000 </r>
       <r>    3.1893    1.0000 </r>
       <r>    4.6181    1.0000 </r>
       <r>    4.9289    1.0000 </r>
       <r>    5.6458    1.0000 </r>
       <r>    6.0549    1.0000 </r>
       <r>    6.5414    1.0000 </r>
       <r>    8.1022    1.0000 </r>
       <r>    8.5833    1.0000 </r>
       <r>   11.6238    1.0000 </r>
       <r>   12.5277    0.0000 </r>
       <r>   13.9411    0.0000 </r>
       <r>   14.5794    0.0000 </r>
      </set>
      <set comment="kpoint 41">
       <r>  -19.7820    1.0000 </r>
       <r>  -19.7457    1.0000 </r>
       <r>  -19.7326    1.0000 </r>
       <r>   -0.5859    1.0000 </r>
       <r>    3.4687    1.0000 </r>
       <r>    4.3847    1.0000 </r>
       <r>    4.7316    1.0000 </r>
       <r>    5.6449    1.0000 </r>
       <r>    6.1023    1.0000 </r>
       <r>    6.4350    1.0000 </r>
       <r>    7.7682    1.0000 </r>
       <r>    8.6105    1.0000 </r>
       <r>   11.7200    1.0000 </r>
       <r>   13.0266    0.0000 </r>
       <r>   13.3875    0.0000 </r>
       <r>   14.3800    0.0000 </r>
      </set>
      <set comment="kpoint 42">
       <r>  -19.7774    1.0000 </r>
       <r>  -19.7517    1.0000 </r>
       <r>  -19.7307    1.0000 </r>
       <r>   -0.5262    1.0000 </r>
       <r>    3.6949    1.0000 </r>
       <r>    4.1344    1.0000 </r>
       <r>    4.4937    1.0000 </r>
       <r>    5.5577    1.0000 </r>
       <r>    6.1416    1.0000 </r>
       <r>    6.7048    1.0000 </r>
       <r>    7.4703    1.0000 </r>
       <r>    8.6525    1.0000 </r>
       <r>   11.9195    1.0000 </r>
       <r>   13.0251    0.0000 </r>
       <r>   13.6924    0.0000 </r>
       <r>   14.2967    0.0000 </r>
      </set>
      <set comment="kpoint 43">
       <r>  -19.7735    1.0000 </r>
       <r>  -19.7538    1.0000 </r>
       <r>  -19.7290    1.0000 </r>
       <r>   -0.5588    1.0000 </r>
       <r>    3.5739    1.0000 </r>
       <r>    4.1492    1.0000 </r>
       <r>    4.2747    1.0000 </r>
       <r>    5.6124    1.0000 </r>
       <r>    6.1372    1.0000 </r>
       <r>    6.9420    1.0000 </r>
       <r>    7.3888    1.0000 </r>
       <r>    8.7721    1.0000 </r>
       <r>   12.2076    0.9891 </r>
       <r>   12.9619    0.0000 </r>
       <r>   13.7825    0.0000 </r>
       <r>   14.3555    0.0000 </r>
      </set>
      <set comment="kpoint 44">
       <r>  -19.7862    1.0000 </r>
       <r>  -19.7361    1.0000 </r>
       <r>  -19.7361    1.0000 </r>
       <r>   -0.8109    1.0000 </r>
       <r>    3.0920    1.0000 </r>
       <r>    5.1214    1.0000 </r>
       <r>    5.1214    1.0000 </r>
       <r>    5.1589    1.0000 </r>
       <r>    6.1249    1.0000 </r>
       <r>    6.6431    1.0000 </r>
       <r>    8.4752    1.0000 </r>
       <r>    8.4752    1.0000 </r>
       <r>   11.3865    1.0000 </r>
       <r>   12.0912    1.0000 </r>
       <r>   14.2890    0.0000 </r>
       <r>   14.4912    0.0000 </r>
      </set>
      <set comment="kpoint 45">
       <r>  -19.7891    1.0000 </r>
       <r>  -19.7375    1.0000 </r>
       <r>  -19.7356    1.0000 </r>
       <r>   -0.7014    1.0000 </r>
       <r>    3.3097    1.0000 </r>
       <r>    4.8760    1.0000 </r>
       <r>    5.0947    1.0000 </r>
       <r>    5.4105    1.0000 </r>
       <r>    6.1837    1.0000 </r>
       <r>    6.2368    1.0000 </r>
       <r>    8.3172    1.0000 </r>
       <r>    8.4827    1.0000 </r>
       <r>   11.3974    1.0000 </r>
       <r>   12.0926    1.0000 </r>
       <r>   14.0484    0.0000 </r>
       <r>   14.2741    0.0000 </r>
      </set>
      <set comment="kpoint 46">
       <r>  -19.7876    1.0000 </r>
       <r>  -19.7419    1.0000 </r>
       <r>  -19.7344    1.0000 </r>
       <r>   -0.6155    1.0000 </r>
       <r>    3.5466    1.0000 </r>
       <r>    4.6825    1.0000 </r>
       <r>    4.9512    1.0000 </r>
       <r>    5.5199    1.0000 </r>
       <r>    6.0988    1.0000 </r>
       <r>    6.2075    1.0000 </r>
       <r>    7.9539    1.0000 </r>
       <r>    8.4940    1.0000 </r>
       <r>   11.4891    1.0000 </r>
       <r>   12.4675    0.0000 </r>
       <r>   13.6277    0.0000 </r>
       <r>   14.1240    0.0000 </r>
      </set>
      <set comment="kpoint 47">
       <r>  -19.7824    1.0000 </r>
       <r>  -19.7480    1.0000 </r>
       <r>  -19.7326    1.0000 </r>
       <r>   -0.5559    1.0000 </r>
       <r>    3.7030    1.0000 </r>
       <r>    4.4214    1.0000 </r>
       <r>    4.7304    1.0000 </r>
       <r>    5.4590    1.0000 </r>
       <r>    6.2001    1.0000 </r>
       <r>    6.4404    1.0000 </r>
       <r>    7.5658    1.0000 </r>
       <r>    8.5288    1.0000 </r>
       <r>   11.6559    1.0000 </r>
       <r>   13.1460    0.0000 </r>
       <r>   13.2661    0.0000 </r>
       <r>   14.0380    0.0000 </r>
      </set>
      <set comment="kpoint 48">
       <r>  -19.7929    1.0000 </r>
       <r>  -19.7361    1.0000 </r>
       <r>  -19.7361    1.0000 </r>
       <r>   -0.6720    1.0000 </r>
       <r>    3.4699    1.0000 </r>
       <r>    5.1635    1.0000 </r>
       <r>    5.1638    1.0000 </r>
       <r>    5.1638    1.0000 </r>
       <r>    5.8745    1.0000 </r>
       <r>    6.2502    1.0000 </r>
       <r>    8.4701    1.0000 </r>
       <r>    8.4701    1.0000 </r>
       <r>   11.3023    1.0000 </r>
       <r>   11.8621    1.0000 </r>
       <r>   14.0989    0.0000 </r>
       <r>   14.1121    0.0000 </r>
      </set>
      <set comment="kpoint 49">
       <r>  -19.7923    1.0000 </r>
       <r>  -19.7377    1.0000 </r>
       <r>  -19.7357    1.0000 </r>
       <r>   -0.6435    1.0000 </r>
       <r>    3.5641    1.0000 </r>
       <r>    4.9541    1.0000 </r>
       <r>    5.1114    1.0000 </r>
       <r>    5.4159    1.0000 </r>
       <r>    5.7500    1.0000 </r>
       <r>    6.2564    1.0000 </r>
       <r>    8.3080    1.0000 </r>
       <r>    8.4709    1.0000 </r>
       <r>   11.3443    1.0000 </r>
       <r>   11.9991    1.0000 </r>
       <r>   13.8650    0.0000 </r>
       <r>   14.0610    0.0000 </r>
      </set>
      <set comment="kpoint 50">
       <r>  -19.7522    1.0000 </r>
       <r>  -19.7366    1.0000 </r>
       <r>  -19.7334    1.0000 </r>
       <r>   -2.0400    1.0000 </r>
       <r>    3.7570    1.0000 </r>
       <r>    4.4628    1.0000 </r>
       <r>    4.7638    1.0000 </r>
       <r>    5.5532    1.0000 </r>
       <r>    5.7230    1.0000 </r>
       <r>    8.2888    1.0000 </r>
       <r>    9.0017    1.0000 </r>
       <r>    9.5740    1.0000 </r>
       <r>   12.3917    0.0000 </r>
       <r>   13.1526    0.0000 </r>
       <r>   13.3232    0.0000 </r>
       <r>   14.3652    0.0000 </r>
      </set>
      <set comment="kpoint 51">
       <r>  -19.7619    1.0000 </r>
       <r>  -19.7370    1.0000 </r>
       <r>  -19.7316    1.0000 </r>
       <r>   -1.6703    1.0000 </r>
       <r>    3.5288    1.0000 </r>
       <r>    4.3115    1.0000 </r>
       <r>    4.7436    1.0000 </r>
       <r>    5.6274    1.0000 </r>
       <r>    5.8386    1.0000 </r>
       <r>    7.5687    1.0000 </r>
       <r>    8.7464    1.0000 </r>
       <r>    9.4386    1.0000 </r>
       <r>   12.5321    0.0000 </r>
       <r>   13.0446    0.0000 </r>
       <r>   13.4338    0.0000 </r>
       <r>   14.7590    0.0000 </r>
      </set>
      <set comment="kpoint 52">
       <r>  -19.7722    1.0000 </r>
       <r>  -19.7365    1.0000 </r>
       <r>  -19.7301    1.0000 </r>
       <r>   -1.2351    1.0000 </r>
       <r>    3.3440    1.0000 </r>
       <r>    4.1992    1.0000 </r>
       <r>    4.6180    1.0000 </r>
       <r>    5.6829    1.0000 </r>
       <r>    5.8945    1.0000 </r>
       <r>    6.8803    1.0000 </r>
       <r>    8.7150    1.0000 </r>
       <r>    9.2804    1.0000 </r>
       <r>   12.5010    0.0000 </r>
       <r>   13.0368    0.0000 </r>
       <r>   13.7219    0.0000 </r>
       <r>   14.7257    0.0000 </r>
      </set>
      <set comment="kpoint 53">
       <r>  -19.7806    1.0000 </r>
       <r>  -19.7358    1.0000 </r>
       <r>  -19.7291    1.0000 </r>
       <r>   -0.8280    1.0000 </r>
       <r>    3.1948    1.0000 </r>
       <r>    4.1497    1.0000 </r>
       <r>    4.4628    1.0000 </r>
       <r>    5.7093    1.0000 </r>
       <r>    5.8797    1.0000 </r>
       <r>    6.3868    1.0000 </r>
       <r>    8.7619    1.0000 </r>
       <r>    9.1842    1.0000 </r>
       <r>   12.4223    0.0000 </r>
       <r>   13.1583    0.0000 </r>
       <r>   13.5600    0.0000 </r>
       <r>   14.5241    0.0000 </r>
      </set>
      <set comment="kpoint 54">
       <r>  -19.7852    1.0000 </r>
       <r>  -19.7353    1.0000 </r>
       <r>  -19.7287    1.0000 </r>
       <r>   -0.5720    1.0000 </r>
       <r>    3.0995    1.0000 </r>
       <r>    4.1610    1.0000 </r>
       <r>    4.3368    1.0000 </r>
       <r>    5.7484    1.0000 </r>
       <r>    5.8188    1.0000 </r>
       <r>    6.1325    1.0000 </r>
       <r>    8.7995    1.0000 </r>
       <r>    9.1539    1.0000 </r>
       <r>   12.4662    0.0000 </r>
       <r>   12.9113    0.0000 </r>
       <r>   13.4715    0.0000 </r>
       <r>   14.7545    0.0000 </r>
      </set>
      <set comment="kpoint 55">
       <r>  -19.7631    1.0000 </r>
       <r>  -19.7372    1.0000 </r>
       <r>  -19.7337    1.0000 </r>
       <r>   -1.5680    1.0000 </r>
       <r>    3.2360    1.0000 </r>
       <r>    4.6280    1.0000 </r>
       <r>    4.8679    1.0000 </r>
       <r>    5.6265    1.0000 </r>
       <r>    5.7618    1.0000 </r>
       <r>    7.7380    1.0000 </r>
       <r>    8.6082    1.0000 </r>
       <r>    9.1045    1.0000 </r>
       <r>   12.0761    1.0000 </r>
       <r>   12.9423    0.0000 </r>
       <r>   13.7232    0.0000 </r>
       <r>   14.9691    0.0000 </r>
      </set>
      <set comment="kpoint 56">
       <r>  -19.7710    1.0000 </r>
       <r>  -19.7386    1.0000 </r>
       <r>  -19.7324    1.0000 </r>
       <r>   -1.2036    1.0000 </r>
       <r>    3.1278    1.0000 </r>
       <r>    4.4770    1.0000 </r>
       <r>    4.8141    1.0000 </r>
       <r>    5.6933    1.0000 </r>
       <r>    5.8447    1.0000 </r>
       <r>    7.1861    1.0000 </r>
       <r>    8.3957    1.0000 </r>
       <r>    9.0167    1.0000 </r>
       <r>   12.1818    1.0000 </r>
       <r>   12.8327    0.0000 </r>
       <r>   14.1025    0.0000 </r>
       <r>   14.7628    0.0000 </r>
      </set>
      <set comment="kpoint 57">
       <r>  -19.7774    1.0000 </r>
       <r>  -19.7399    1.0000 </r>
       <r>  -19.7313    1.0000 </r>
       <r>   -0.8516    1.0000 </r>
       <r>    3.1366    1.0000 </r>
       <r>    4.3104    1.0000 </r>
       <r>    4.6805    1.0000 </r>
       <r>    5.7634    1.0000 </r>
       <r>    5.8772    1.0000 </r>
       <r>    6.6638    1.0000 </r>
       <r>    8.3265    1.0000 </r>
       <r>    8.9510    1.0000 </r>
       <r>   12.1863    1.0000 </r>
       <r>   12.9243    0.0000 </r>
       <r>   13.8993    0.0000 </r>
       <r>   14.6515    0.0000 </r>
      </set>
      <set comment="kpoint 58">
       <r>  -19.7810    1.0000 </r>
       <r>  -19.7415    1.0000 </r>
       <r>  -19.7304    1.0000 </r>
       <r>   -0.6031    1.0000 </r>
       <r>    3.2308    1.0000 </r>
       <r>    4.1588    1.0000 </r>
       <r>    4.5376    1.0000 </r>
       <r>    5.7921    1.0000 </r>
       <r>    5.8640    1.0000 </r>
       <r>    6.3636    1.0000 </r>
       <r>    8.2735    1.0000 </r>
       <r>    8.9407    1.0000 </r>
       <r>   12.2180    0.7938 </r>
       <r>   13.0198    0.0000 </r>
       <r>   13.4052    0.0000 </r>
       <r>   14.9439    0.0000 </r>
      </set>
      <set comment="kpoint 59">
       <r>  -19.7813    1.0000 </r>
       <r>  -19.7431    1.0000 </r>
       <r>  -19.7295    1.0000 </r>
       <r>   -0.5304    1.0000 </r>
       <r>    3.2986    1.0000 </r>
       <r>    4.0958    1.0000 </r>
       <r>    4.4295    1.0000 </r>
       <r>    5.7408    1.0000 </r>
       <r>    5.9069    1.0000 </r>
       <r>    6.3359    1.0000 </r>
       <r>    8.2190    1.0000 </r>
       <r>    8.9531    1.0000 </r>
       <r>   12.3951    0.0000 </r>
       <r>   12.7458    0.0000 </r>
       <r>   13.5214    0.0000 </r>
       <r>   14.9560    0.0000 </r>
      </set>
      <set comment="kpoint 60">
       <r>  -19.7784    1.0000 </r>
       <r>  -19.7438    1.0000 </r>
       <r>  -19.7289    1.0000 </r>
       <r>   -0.6572    1.0000 </r>
       <r>    3.2678    1.0000 </r>
       <r>    4.1281    1.0000 </r>
       <r>    4.4426    1.0000 </r>
       <r>    5.7132    1.0000 </r>
       <r>    5.9760    1.0000 </r>
       <r>    6.5156    1.0000 </r>
       <r>    8.1521    1.0000 </r>
       <r>    8.9988    1.0000 </r>
       <r>   12.4574    0.0000 </r>
       <r>   12.9508    0.0000 </r>
       <r>   13.5337    0.0000 </r>
       <r>   14.8476    0.0000 </r>
      </set>
      <set comment="kpoint 61">
       <r>  -19.7735    1.0000 </r>
       <r>  -19.7431    1.0000 </r>
       <r>  -19.7290    1.0000 </r>
       <r>   -0.9472    1.0000 </r>
       <r>    3.2546    1.0000 </r>
       <r>    4.1395    1.0000 </r>
       <r>    4.6140    1.0000 </r>
       <r>    5.6892    1.0000 </r>
       <r>    5.9919    1.0000 </r>
       <r>    6.8900    1.0000 </r>
       <r>    8.0957    1.0000 </r>
       <r>    9.1170    1.0000 </r>
       <r>   12.5309    0.0000 </r>
       <r>   13.0400    0.0000 </r>
       <r>   13.9697    0.0000 </r>
       <r>   14.6800    0.0000 </r>
      </set>
      <set comment="kpoint 62">
       <r>  -19.7677    1.0000 </r>
       <r>  -19.7406    1.0000 </r>
       <r>  -19.7299    1.0000 </r>
       <r>   -1.3164    1.0000 </r>
       <r>    3.3413    1.0000 </r>
       <r>    4.1904    1.0000 </r>
       <r>    4.7699    1.0000 </r>
       <r>    5.6406    1.0000 </r>
       <r>    5.9408    1.0000 </r>
       <r>    7.3073    1.0000 </r>
       <r>    8.2248    1.0000 </r>
       <r>    9.2965    1.0000 </r>
       <r>   12.6325    0.0000 </r>
       <r>   12.9379    0.0000 </r>
       <r>   14.0429    0.0000 </r>
       <r>   14.5760    0.0000 </r>
      </set>
      <set comment="kpoint 63">
       <r>  -19.7747    1.0000 </r>
       <r>  -19.7379    1.0000 </r>
       <r>  -19.7345    1.0000 </r>
       <r>   -1.0891    1.0000 </r>
       <r>    2.9873    1.0000 </r>
       <r>    4.7331    1.0000 </r>
       <r>    4.9732    1.0000 </r>
       <r>    5.5732    1.0000 </r>
       <r>    5.8915    1.0000 </r>
       <r>    7.2351    1.0000 </r>
       <r>    8.3413    1.0000 </r>
       <r>    8.7364    1.0000 </r>
       <r>   11.7798    1.0000 </r>
       <r>   12.5836    0.0000 </r>
       <r>   14.2272    0.0000 </r>
       <r>   14.8126    0.0000 </r>
      </set>
      <set comment="kpoint 64">
       <r>  -19.7791    1.0000 </r>
       <r>  -19.7406    1.0000 </r>
       <r>  -19.7336    1.0000 </r>
       <r>   -0.8252    1.0000 </r>
       <r>    3.0898    1.0000 </r>
       <r>    4.5213    1.0000 </r>
       <r>    4.9204    1.0000 </r>
       <r>    5.7084    1.0000 </r>
       <r>    5.9262    1.0000 </r>
       <r>    6.8097    1.0000 </r>
       <r>    8.0730    1.0000 </r>
       <r>    8.7292    1.0000 </r>
       <r>   11.8544    1.0000 </r>
       <r>   12.6041    0.0000 </r>
       <r>   14.0927    0.0000 </r>
       <r>   14.6916    0.0000 </r>
      </set>
      <set comment="kpoint 65">
       <r>  -19.7803    1.0000 </r>
       <r>  -19.7446    1.0000 </r>
       <r>  -19.7325    1.0000 </r>
       <r>   -0.6273    1.0000 </r>
       <r>    3.3191    1.0000 </r>
       <r>    4.2977    1.0000 </r>
       <r>    4.7915    1.0000 </r>
       <r>    5.7658    1.0000 </r>
       <r>    5.9501    1.0000 </r>
       <r>    6.5180    1.0000 </r>
       <r>    7.8333    1.0000 </r>
       <r>    8.7442    1.0000 </r>
       <r>   11.9150    1.0000 </r>
       <r>   12.9010    0.0000 </r>
       <r>   13.4439    0.0000 </r>
       <r>   14.6284    0.0000 </r>
      </set>
      <set comment="kpoint 66">
       <r>  -19.7783    1.0000 </r>
       <r>  -19.7492    1.0000 </r>
       <r>  -19.7311    1.0000 </r>
       <r>   -0.5314    1.0000 </r>
       <r>    3.5615    1.0000 </r>
       <r>    4.0806    1.0000 </r>
       <r>    4.6256    1.0000 </r>
       <r>    5.6552    1.0000 </r>
       <r>    6.0243    1.0000 </r>
       <r>    6.5536    1.0000 </r>
       <r>    7.6366    1.0000 </r>
       <r>    8.7610    1.0000 </r>
       <r>   12.0628    1.0000 </r>
       <r>   12.9542    0.0000 </r>
       <r>   13.3997    0.0000 </r>
       <r>   14.4787    0.0000 </r>
      </set>
      <set comment="kpoint 67">
       <r>  -19.7751    1.0000 </r>
       <r>  -19.7517    1.0000 </r>
       <r>  -19.7298    1.0000 </r>
       <r>   -0.5536    1.0000 </r>
       <r>    3.5392    1.0000 </r>
       <r>    4.0476    1.0000 </r>
       <r>    4.4832    1.0000 </r>
       <r>    5.6421    1.0000 </r>
       <r>    6.0730    1.0000 </r>
       <r>    6.7607    1.0000 </r>
       <r>    7.5229    1.0000 </r>
       <r>    8.8058    1.0000 </r>
       <r>   12.3092    0.0000 </r>
       <r>   12.8248    0.0000 </r>
       <r>   13.5586    0.0000 </r>
       <r>   14.4947    0.0000 </r>
      </set>
      <set comment="kpoint 68">
       <r>  -19.7737    1.0000 </r>
       <r>  -19.7494    1.0000 </r>
       <r>  -19.7290    1.0000 </r>
       <r>   -0.6994    1.0000 </r>
       <r>    3.3354    1.0000 </r>
       <r>    4.1260    1.0000 </r>
       <r>    4.4871    1.0000 </r>
       <r>    5.6906    1.0000 </r>
       <r>    6.0592    1.0000 </r>
       <r>    6.9184    1.0000 </r>
       <r>    7.6328    1.0000 </r>
       <r>    8.9267    1.0000 </r>
       <r>   12.4526    0.0000 </r>
       <r>   13.0459    0.0000 </r>
       <r>   13.5796    0.0000 </r>
       <r>   14.5373    0.0000 </r>
      </set>
      <set comment="kpoint 69">
       <r>  -19.7845    1.0000 </r>
       <r>  -19.7385    1.0000 </r>
       <r>  -19.7352    1.0000 </r>
       <r>   -0.7673    1.0000 </r>
       <r>    3.1451    1.0000 </r>
       <r>    4.7291    1.0000 </r>
       <r>    5.0834    1.0000 </r>
       <r>    5.5102    1.0000 </r>
       <r>    6.0726    1.0000 </r>
       <r>    6.6043    1.0000 </r>
       <r>    8.1751    1.0000 </r>
       <r>    8.5787    1.0000 </r>
       <r>   11.5470    1.0000 </r>
       <r>   12.2825    0.0000 </r>
       <r>   14.1432    0.0000 </r>
       <r>   14.5025    0.0000 </r>
      </set>
      <set comment="kpoint 70">
       <r>  -19.7848    1.0000 </r>
       <r>  -19.7424    1.0000 </r>
       <r>  -19.7344    1.0000 </r>
       <r>   -0.6394    1.0000 </r>
       <r>    3.4044    1.0000 </r>
       <r>    4.5247    1.0000 </r>
       <r>    5.0225    1.0000 </r>
       <r>    5.6467    1.0000 </r>
       <r>    6.0674    1.0000 </r>
       <r>    6.3271    1.0000 </r>
       <r>    7.8190    1.0000 </r>
       <r>    8.6277    1.0000 </r>
       <r>   11.6333    1.0000 </r>
       <r>   12.4727    0.0000 </r>
       <r>   13.6608    0.0000 </r>
       <r>   14.2633    0.0000 </r>
      </set>
      <set comment="kpoint 71">
       <r>  -19.7812    1.0000 </r>
       <r>  -19.7482    1.0000 </r>
       <r>  -19.7330    1.0000 </r>
       <r>   -0.5575    1.0000 </r>
       <r>    3.6599    1.0000 </r>
       <r>    4.3111    1.0000 </r>
       <r>    4.8636    1.0000 </r>
       <r>    5.5469    1.0000 </r>
       <r>    6.1343    1.0000 </r>
       <r>    6.4239    1.0000 </r>
       <r>    7.4536    1.0000 </r>
       <r>    8.6491    1.0000 </r>
       <r>   11.7718    1.0000 </r>
       <r>   12.9534    0.0000 </r>
       <r>   13.2752    0.0000 </r>
       <r>   14.0269    0.0000 </r>
      </set>
      <set comment="kpoint 72">
       <r>  -19.7760    1.0000 </r>
       <r>  -19.7534    1.0000 </r>
       <r>  -19.7313    1.0000 </r>
       <r>   -0.5253    1.0000 </r>
       <r>    3.8170    1.0000 </r>
       <r>    4.0084    1.0000 </r>
       <r>    4.6549    1.0000 </r>
       <r>    5.5315    1.0000 </r>
       <r>    6.1393    1.0000 </r>
       <r>    6.8154    1.0000 </r>
       <r>    7.1755    1.0000 </r>
       <r>    8.6882    1.0000 </r>
       <r>   12.0099    1.0000 </r>
       <r>   12.9210    0.0000 </r>
       <r>   13.5662    0.0000 </r>
       <r>   14.0537    0.0000 </r>
      </set>
      <set comment="kpoint 73">
       <r>  -19.7901    1.0000 </r>
       <r>  -19.7389    1.0000 </r>
       <r>  -19.7356    1.0000 </r>
       <r>   -0.6430    1.0000 </r>
       <r>    3.5087    1.0000 </r>
       <r>    4.7786    1.0000 </r>
       <r>    5.1386    1.0000 </r>
       <r>    5.4975    1.0000 </r>
       <r>    5.9033    1.0000 </r>
       <r>    6.2268    1.0000 </r>
       <r>    8.0916    1.0000 </r>
       <r>    8.5633    1.0000 </r>
       <r>   11.4240    1.0000 </r>
       <r>   12.1184    1.0000 </r>
       <r>   13.8664    0.0000 </r>
       <r>   14.0303    0.0000 </r>
      </set>
      <set comment="kpoint 74">
       <r>  -19.7869    1.0000 </r>
       <r>  -19.7430    1.0000 </r>
       <r>  -19.7347    1.0000 </r>
       <r>   -0.5956    1.0000 </r>
       <r>    3.6311    1.0000 </r>
       <r>    4.6027    1.0000 </r>
       <r>    5.0535    1.0000 </r>
       <r>    5.5312    1.0000 </r>
       <r>    5.9878    1.0000 </r>
       <r>    6.2146    1.0000 </r>
       <r>    7.7262    1.0000 </r>
       <r>    8.6132    1.0000 </r>
       <r>   11.5591    1.0000 </r>
       <r>   12.4329    0.0000 </r>
       <r>   13.5882    0.0000 </r>
       <r>   13.9201    0.0000 </r>
      </set>
      <set comment="kpoint 75">
       <r>  -19.7746    1.0000 </r>
       <r>  -19.7430    1.0000 </r>
       <r>  -19.7313    1.0000 </r>
       <r>   -0.9100    1.0000 </r>
       <r>    3.1305    1.0000 </r>
       <r>    4.3446    1.0000 </r>
       <r>    4.7872    1.0000 </r>
       <r>    5.7424    1.0000 </r>
       <r>    5.9082    1.0000 </r>
       <r>    7.0046    1.0000 </r>
       <r>    7.9436    1.0000 </r>
       <r>    8.9294    1.0000 </r>
       <r>   12.2750    0.0000 </r>
       <r>   12.7318    0.0000 </r>
       <r>   14.1641    0.0000 </r>
       <r>   14.6725    0.0000 </r>
      </set>
      <set comment="kpoint 76">
       <r>  -19.7767    1.0000 </r>
       <r>  -19.7467    1.0000 </r>
       <r>  -19.7310    1.0000 </r>
       <r>   -0.6715    1.0000 </r>
       <r>    3.2846    1.0000 </r>
       <r>    4.1925    1.0000 </r>
       <r>    4.7126    1.0000 </r>
       <r>    5.7629    1.0000 </r>
       <r>    5.9382    1.0000 </r>
       <r>    6.7357    1.0000 </r>
       <r>    7.7298    1.0000 </r>
       <r>    8.8559    1.0000 </r>
       <r>   12.3054    0.0000 </r>
       <r>   12.8005    0.0000 </r>
       <r>   13.4871    0.0000 </r>
       <r>   14.6647    0.0000 </r>
      </set>
      <set comment="kpoint 77">
       <r>  -19.7775    1.0000 </r>
       <r>  -19.7489    1.0000 </r>
       <r>  -19.7310    1.0000 </r>
       <r>   -0.5419    1.0000 </r>
       <r>    3.5059    1.0000 </r>
       <r>    4.0241    1.0000 </r>
       <r>    4.6772    1.0000 </r>
       <r>    5.7207    1.0000 </r>
       <r>    5.9336    1.0000 </r>
       <r>    6.5675    1.0000 </r>
       <r>    7.6456    1.0000 </r>
       <r>    8.8355    1.0000 </r>
[...]
       <r>   12.5889    0.0000 </r>
       <r>   13.5402    0.0000 </r>
       <r>   14.5055    0.0000 </r>
      </set>
      <set comment="kpoint 79">
       <r>  -19.7782    1.0000 </r>
       <r>  -19.7497    1.0000 </r>
       <r>  -19.7331    1.0000 </r>
       <r>   -0.5604    1.0000 </r>
       <r>    3.5984    1.0000 </r>
       <r>    4.1592    1.0000 </r>
       <r>    4.9484    1.0000 </r>
       <r>    5.7361    1.0000 </r>
       <r>    5.9438    1.0000 </r>
       <r>    6.5336    1.0000 </r>
       <r>    7.2928    1.0000 </r>
       <r>    8.7810    1.0000 </r>
       <r>   12.1045    1.0000 </r>
       <r>   12.8089    0.0000 </r>
       <r>   13.0550    0.0000 </r>
       <r>   14.1747    0.0000 </r>
      </set>
      <set comment="kpoint 80">
       <r>  -19.7754    1.0000 </r>
       <r>  -19.7533    1.0000 </r>
       <r>  -19.7325    1.0000 </r>
       <r>   -0.5257    1.0000 </r>
       <r>    3.8229    1.0000 </r>
       <r>    3.9495    1.0000 </r>
       <r>    4.8798    1.0000 </r>
       <r>    5.6238    1.0000 </r>
       <r>    6.0253    1.0000 </r>
       <r>    6.6732    1.0000 </r>
       <r>    7.0762    1.0000 </r>
       <r>    8.7930    1.0000 </r>
       <r>   12.3071    0.0000 </r>
       <r>   12.6930    0.0000 </r>
       <r>   13.1309    0.0000 </r>
       <r>   14.0086    0.0000 </r>
      </set>
      <set comment="kpoint 81">
       <r>  -19.7749    1.0000 </r>
       <r>  -19.7523    1.0000 </r>
       <r>  -19.7316    1.0000 </r>
       <r>   -0.5604    1.0000 </r>
       <r>    3.5828    1.0000 </r>
       <r>    4.0422    1.0000 </r>
       <r>    4.7815    1.0000 </r>
       <r>    5.6783    1.0000 </r>
       <r>    6.0080    1.0000 </r>
       <r>    6.8197    1.0000 </r>
       <r>    7.1982    1.0000 </r>
       <r>    8.8005    1.0000 </r>
       <r>   12.4397    0.0000 </r>
       <r>   12.6515    0.0000 </r>
       <r>   13.1699    0.0000 </r>
       <r>   14.4030    0.0000 </r>
      </set>
      <set comment="kpoint 82">
       <r>  -19.7829    1.0000 </r>
       <r>  -19.7461    1.0000 </r>
       <r>  -19.7346    1.0000 </r>
       <r>   -0.5783    1.0000 </r>
       <r>    3.6265    1.0000 </r>
       <r>    4.4008    1.0000 </r>
       <r>    5.0840    1.0000 </r>
       <r>    5.7550    1.0000 </r>
       <r>    5.9299    1.0000 </r>
       <r>    6.2250    1.0000 </r>
       <r>    7.4190    1.0000 </r>
       <r>    8.7415    1.0000 </r>
       <r>   11.8017    1.0000 </r>
       <r>   12.5033    0.0000 </r>
       <r>   13.3758    0.0000 </r>
       <r>   13.9169    0.0000 </r>
      </set>
      <set comment="kpoint 83">
       <r>  -19.7786    1.0000 </r>
       <r>  -19.7509    1.0000 </r>
       <r>  -19.7339    1.0000 </r>
       <r>   -0.5407    1.0000 </r>
       <r>    3.7603    1.0000 </r>
       <r>    4.2367    1.0000 </r>
       <r>    5.0288    1.0000 </r>
       <r>    5.6484    1.0000 </r>
       <r>    6.1135    1.0000 </r>
       <r>    6.2661    1.0000 </r>
       <r>    7.1136    1.0000 </r>
       <r>    8.7892    1.0000 </r>
       <r>   12.0304    1.0000 </r>
       <r>   12.7441    0.0000 </r>
       <r>   13.1014    0.0000 </r>
       <r>   13.7324    0.0000 </r>
      </set>
      <set comment="kpoint 84">
       <r>  -19.7756    1.0000 </r>
       <r>  -19.7535    1.0000 </r>
       <r>  -19.7338    1.0000 </r>
       <r>   -0.5307    1.0000 </r>
       <r>    3.7981    1.0000 </r>
       <r>    4.1222    1.0000 </r>
       <r>    5.0385    1.0000 </r>
       <r>    5.7954    1.0000 </r>
       <r>    5.9742    1.0000 </r>
       <r>    6.3561    1.0000 </r>
       <r>    6.9562    1.0000 </r>
       <r>    8.8405    1.0000 </r>
       <r>   12.3986    0.0000 </r>
       <r>   12.6962    0.0000 </r>
       <r>   12.7808    0.0000 </r>
       <r>   13.7472    0.0000 </r>
      </set>
     </set>
    </set>
   </array>
  </eigenvalues>
  <separator name="orbital magnetization" >
   <v name="MAGDIPOLOUT">      0.00000000      0.00000000      0.00000000</v>
  </separator>
  <dos>
   <i name="efermi">     12.22378031 </i>
   <total>
    <array>
     <dimension dim="1">gridpoints</dimension>
     <dimension dim="2">spin</dimension>
     <field>energy</field>
     <field>total</field>
     <field>integrated</field>
     <set>
      <set comment="spin 1">
       <r>   -21.5620     0.0000     0.0000 </r>
       <r>   -21.4323     0.0000     0.0000 </r>
       <r>   -21.3026     0.0000     0.0000 </r>
       <r>   -21.1728     0.0000     0.0000 </r>
       <r>   -21.0431     0.0000     0.0000 </r>
       <r>   -20.9133     0.0000     0.0000 </r>
       <r>   -20.7836     0.0000     0.0000 </r>
       <r>   -20.6539     0.0000     0.0000 </r>
       <r>   -20.5241     0.0000     0.0000 </r>
       <r>   -20.3944     0.0000     0.0000 </r>
       <r>   -20.2646     0.0000     0.0000 </r>
       <r>   -20.1349     0.0000     0.0000 </r>
       <r>   -20.0052     0.0000     0.0000 </r>
       <r>   -19.8754     0.0000     0.0000 </r>
       <r>   -19.7457    20.5190     2.6621 </r>
       <r>   -19.6159     0.0000     6.0000 </r>
       <r>   -19.4862     0.0000     6.0000 </r>
       <r>   -19.3565     0.0000     6.0000 </r>
       <r>   -19.2267     0.0000     6.0000 </r>
       <r>   -19.0970     0.0000     6.0000 </r>
       <r>   -18.9672     0.0000     6.0000 </r>
       <r>   -18.8375     0.0000     6.0000 </r>
       <r>   -18.7078     0.0000     6.0000 </r>
       <r>   -18.5780     0.0000     6.0000 </r>
       <r>   -18.4483     0.0000     6.0000 </r>
       <r>   -18.3185     0.0000     6.0000 </r>
       <r>   -18.1888     0.0000     6.0000 </r>
       <r>   -18.0591     0.0000     6.0000 </r>
       <r>   -17.9293     0.0000     6.0000 </r>
       <r>   -17.7996     0.0000     6.0000 </r>
       <r>   -17.6698     0.0000     6.0000 </r>
       <r>   -17.5401     0.0000     6.0000 </r>
       <r>   -17.4104     0.0000     6.0000 </r>
       <r>   -17.2806     0.0000     6.0000 </r>
       <r>   -17.1509     0.0000     6.0000 </r>
       <r>   -17.0211     0.0000     6.0000 </r>
       <r>   -16.8914     0.0000     6.0000 </r>
       <r>   -16.7617     0.0000     6.0000 </r>
       <r>   -16.6319     0.0000     6.0000 </r>
       <r>   -16.5022     0.0000     6.0000 </r>
       <r>   -16.3724     0.0000     6.0000 </r>
       <r>   -16.2427     0.0000     6.0000 </r>
       <r>   -16.1130     0.0000     6.0000 </r>
       <r>   -15.9832     0.0000     6.0000 </r>
       <r>   -15.8535     0.0000     6.0000 </r>
       <r>   -15.7237     0.0000     6.0000 </r>
       <r>   -15.5940     0.0000     6.0000 </r>
       <r>   -15.4643     0.0000     6.0000 </r>
       <r>   -15.3345     0.0000     6.0000 </r>
       <r>   -15.2048     0.0000     6.0000 </r>
       <r>   -15.0750     0.0000     6.0000 </r>
       <r>   -14.9453     0.0000     6.0000 </r>
       <r>   -14.8156     0.0000     6.0000 </r>
       <r>   -14.6858     0.0000     6.0000 </r>
       <r>   -14.5561     0.0000     6.0000 </r>
       <r>   -14.4263     0.0000     6.0000 </r>
       <r>   -14.2966     0.0000     6.0000 </r>
       <r>   -14.1669     0.0000     6.0000 </r>
       <r>   -14.0371     0.0000     6.0000 </r>
       <r>   -13.9074     0.0000     6.0000 </r>
       <r>   -13.7776     0.0000     6.0000 </r>
       <r>   -13.6479     0.0000     6.0000 </r>
       <r>   -13.5182     0.0000     6.0000 </r>
       <r>   -13.3884     0.0000     6.0000 </r>
       <r>   -13.2587     0.0000     6.0000 </r>
       <r>   -13.1289     0.0000     6.0000 </r>
       <r>   -12.9992     0.0000     6.0000 </r>
       <r>   -12.8695     0.0000     6.0000 </r>
       <r>   -12.7397     0.0000     6.0000 </r>
       <r>   -12.6100     0.0000     6.0000 </r>
       <r>   -12.4802     0.0000     6.0000 </r>
       <r>   -12.3505     0.0000     6.0000 </r>
       <r>   -12.2208     0.0000     6.0000 </r>
       <r>   -12.0910     0.0000     6.0000 </r>
       <r>   -11.9613     0.0000     6.0000 </r>
       <r>   -11.8315     0.0000     6.0000 </r>
       <r>   -11.7018     0.0000     6.0000 </r>
       <r>   -11.5721     0.0000     6.0000 </r>
       <r>   -11.4423     0.0000     6.0000 </r>
       <r>   -11.3126     0.0000     6.0000 </r>
       <r>   -11.1828     0.0000     6.0000 </r>
       <r>   -11.0531     0.0000     6.0000 </r>
       <r>   -10.9234     0.0000     6.0000 </r>
       <r>   -10.7936     0.0000     6.0000 </r>
       <r>   -10.6639     0.0000     6.0000 </r>
       <r>   -10.5341     0.0000     6.0000 </r>
       <r>   -10.4044     0.0000     6.0000 </r>
       <r>   -10.2747     0.0000     6.0000 </r>
       <r>   -10.1449     0.0000     6.0000 </r>
       <r>   -10.0152     0.0000     6.0000 </r>
       <r>    -9.8854     0.0000     6.0000 </r>
       <r>    -9.7557     0.0000     6.0000 </r>
       <r>    -9.6260     0.0000     6.0000 </r>
       <r>    -9.4962     0.0000     6.0000 </r>
       <r>    -9.3665     0.0000     6.0000 </r>
       <r>    -9.2367     0.0000     6.0000 </r>
       <r>    -9.1070     0.0000     6.0000 </r>
       <r>    -8.9773     0.0000     6.0000 </r>
       <r>    -8.8475     0.0000     6.0000 </r>
       <r>    -8.7178     0.0000     6.0000 </r>
       <r>    -8.5880     0.0000     6.0000 </r>
       <r>    -8.4583     0.0000     6.0000 </r>
       <r>    -8.3286     0.0000     6.0000 </r>
       <r>    -8.1988     0.0000     6.0000 </r>
       <r>    -8.0691     0.0000     6.0000 </r>
       <r>    -7.9393     0.0000     6.0000 </r>
       <r>    -7.8096     0.0000     6.0000 </r>
       <r>    -7.6799     0.0000     6.0000 </r>
       <r>    -7.5501     0.0000     6.0000 </r>
       <r>    -7.4204     0.0000     6.0000 </r>
       <r>    -7.2906     0.0000     6.0000 </r>
       <r>    -7.1609     0.0000     6.0000 </r>
       <r>    -7.0312     0.0000     6.0000 </r>
       <r>    -6.9014     0.0000     6.0000 </r>
       <r>    -6.7717     0.0000     6.0000 </r>
       <r>    -6.6419     0.0000     6.0000 </r>
       <r>    -6.5122     0.0000     6.0000 </r>
       <r>    -6.3825     0.0000     6.0000 </r>
       <r>    -6.2527     0.0000     6.0000 </r>
       <r>    -6.1230     0.0000     6.0000 </r>
       <r>    -5.9932     0.0000     6.0000 </r>
       <r>    -5.8635     0.0000     6.0000 </r>
       <r>    -5.7338     0.0000     6.0000 </r>
       <r>    -5.6040     0.0000     6.0000 </r>
       <r>    -5.4743     0.0000     6.0000 </r>
       <r>    -5.3445     0.0000     6.0000 </r>
       <r>    -5.2148     0.0000     6.0000 </r>
       <r>    -5.0851     0.0000     6.0000 </r>
       <r>    -4.9553     0.0000     6.0000 </r>
       <r>    -4.8256     0.0000     6.0000 </r>
       <r>    -4.6958     0.0000     6.0000 </r>
       <r>    -4.5661     0.0000     6.0000 </r>
       <r>    -4.4364     0.0000     6.0000 </r>
       <r>    -4.3066     0.0000     6.0000 </r>
       <r>    -4.1769     0.0000     6.0000 </r>
       <r>    -4.0471     0.0000     6.0000 </r>
       <r>    -3.9174     0.0000     6.0000 </r>
       <r>    -3.7877     0.0000     6.0000 </r>
       <r>    -3.6579     0.0000     6.0000 </r>
       <r>    -3.5282     0.0000     6.0000 </r>
       <r>    -3.3984     0.0000     6.0000 </r>
       <r>    -3.2687     0.0000     6.0000 </r>
       <r>    -3.1390     0.0000     6.0000 </r>
       <r>    -3.0092     0.0000     6.0000 </r>
       <r>    -2.8795     0.0000     6.0000 </r>
       <r>    -2.7497     0.0000     6.0000 </r>
       <r>    -2.6200     0.0001     6.0000 </r>
       <r>    -2.4903     0.0659     6.0095 </r>
       <r>    -2.3605     0.0740     6.0233 </r>
       <r>    -2.2308     0.2245     6.0537 </r>
       <r>    -2.1010     0.0421     6.0592 </r>
       <r>    -1.9713     0.1684     6.1029 </r>
       <r>    -1.8416     0.2236     6.1537 </r>
       <r>    -1.7118     0.0842     6.1648 </r>
       <r>    -1.5821     0.2145     6.2363 </r>
       <r>    -1.4523     0.3368     6.3013 </r>
       <r>    -1.3226     0.3913     6.3521 </r>
       <r>    -1.1929     0.6523     6.4588 </r>
       <r>    -1.0631     0.2201     6.5174 </r>
       <r>    -0.9334     0.4563     6.6354 </r>
       <r>    -0.8036     1.0456     6.8393 </r>
       <r>    -0.6739     1.1620     7.0347 </r>
       <r>    -0.5442     3.4531     7.7197 </r>
       <r>    -0.4144     0.0000     8.0000 </r>
       <r>    -0.2847     0.0000     8.0000 </r>
       <r>    -0.1549     0.0000     8.0000 </r>
       <r>    -0.0252     0.0000     8.0000 </r>
       <r>     0.1045     0.0000     8.0000 </r>
       <r>     0.2343     0.0000     8.0000 </r>
       <r>     0.3640     0.0000     8.0000 </r>
       <r>     0.4938     0.0000     8.0000 </r>
       <r>     0.6235     0.0000     8.0000 </r>
       <r>     0.7532     0.0000     8.0000 </r>
       <r>     0.8830     0.0000     8.0000 </r>
       <r>     1.0127     0.0000     8.0000 </r>
       <r>     1.1425     0.0000     8.0000 </r>
       <r>     1.2722     0.0000     8.0000 </r>
       <r>     1.4019     0.0000     8.0000 </r>
       <r>     1.5317     0.0000     8.0000 </r>
       <r>     1.6614     0.0000     8.0000 </r>
       <r>     1.7912     0.0000     8.0000 </r>
       <r>     1.9209     0.0000     8.0000 </r>
       <r>     2.0506     0.0000     8.0000 </r>
       <r>     2.1804     0.0000     8.0000 </r>
       <r>     2.3101     0.0000     8.0000 </r>
       <r>     2.4399     0.0000     8.0000 </r>
       <r>     2.5696     0.0000     8.0000 </r>
       <r>     2.6993     0.0000     8.0000 </r>
       <r>     2.8291     0.0000     8.0000 </r>
       <r>     2.9588     0.0422     8.0055 </r>
       <r>     3.0886     0.6832     8.1669 </r>
       <r>     3.2183     1.4032     8.5717 </r>
       <r>     3.3480     2.6866     9.0786 </r>
       <r>     3.4778     1.0304     9.2461 </r>
       <r>     3.6075     1.9883     9.5943 </r>
       <r>     3.7373     0.6328     9.7316 </r>
       <r>     3.8670     0.8420     9.9172 </r>
       <r>     3.9967     0.3497     9.9625 </r>
       <r>     4.1265     2.2981    10.4083 </r>
       <r>     4.2562     2.5259    11.1151 </r>
       <r>     4.3860     3.0754    11.6544 </r>
       <r>     4.5157     2.9536    12.1520 </r>
       <r>     4.6454     2.3536    12.6640 </r>
       <r>     4.7752     2.5813    13.1660 </r>
       <r>     4.9049     1.6236    13.5334 </r>
       <r>     5.0347     1.0139    13.8257 </r>
       <r>     5.1644     0.6064    14.0022 </r>
       <r>     5.2941     0.0000    14.0109 </r>
       <r>     5.4239     0.2955    14.0547 </r>
       <r>     5.5536     1.6150    14.3242 </r>
       <r>     5.6834     4.7818    15.0574 </r>
       <r>     5.8131     5.9013    16.3569 </r>
       <r>     5.9428     4.5560    17.1764 </r>
       <r>     6.0726     2.3814    17.7682 </r>
       <r>     6.2023     1.7391    18.1401 </r>
       <r>     6.3321     0.9425    18.3826 </r>
       <r>     6.4618     1.0945    18.6536 </r>
       <r>     6.5915     2.1268    18.9514 </r>
       <r>     6.7213     1.0725    19.1642 </r>
       <r>     6.8510     0.6736    19.3655 </r>
       <r>     6.9808     0.5943    19.5300 </r>
       <r>     7.1105     0.4766    19.6567 </r>
       <r>     7.2402     0.8310    19.8010 </r>
       <r>     7.3700     0.6737    19.9117 </r>
       <r>     7.4997     0.5615    20.0228 </r>
       <r>     7.6295     0.7088    20.1584 </r>
       <r>     7.7592     0.7746    20.3745 </r>
       <r>     7.8889     1.0104    20.5253 </r>
       <r>     8.0187     0.5052    20.6017 </r>
       <r>     8.1484     1.6586    20.8169 </r>
       <r>     8.2782     0.9353    20.9907 </r>
       <r>     8.4079     0.7669    21.1983 </r>
       <r>     8.5376     1.0165    21.3472 </r>
       <r>     8.6674     1.5060    21.6729 </r>
       <r>     8.7971     4.0581    22.2880 </r>
       <r>     8.9269     0.6601    22.5954 </r>
       <r>     9.0566     1.7691    23.0124 </r>
       <r>     9.1863     1.9457    23.3412 </r>
       <r>     9.3161     1.4299    23.5911 </r>
       <r>     9.4458     0.7997    23.7678 </r>
       <r>     9.5756     0.4219    23.8827 </r>
       <r>     9.7053     0.1901    23.9491 </r>
       <r>     9.8350     0.0040    23.9723 </r>
       <r>     9.9648     0.0210    24.0000 </r>
       <r>    10.0945     0.0000    24.0000 </r>
       <r>    10.2243     0.0000    24.0000 </r>
       <r>    10.3540     0.0000    24.0000 </r>
       <r>    10.4837     0.0000    24.0000 </r>
       <r>    10.6135     0.0000    24.0000 </r>
       <r>    10.7432     0.0000    24.0000 </r>
       <r>    10.8730     0.0000    24.0000 </r>
       <r>    11.0027     0.0000    24.0000 </r>
       <r>    11.1324     0.0000    24.0000 </r>
       <r>    11.2622     0.0000    24.0000 </r>
       <r>    11.3919     0.1540    24.0254 </r>
       <r>    11.5217     0.1685    24.0874 </r>
       <r>    11.6514     0.5255    24.2266 </r>
       <r>    11.7811     0.6544    24.3198 </r>
       <r>    11.9109     0.6771    24.4593 </r>
       <r>    12.0406     0.7826    24.6313 </r>
       <r>    12.1704     0.7377    24.8167 </r>
       <r>    12.3001     0.6689    25.1082 </r>
       <r>    12.4298     1.9854    25.4756 </r>
       <r>    12.5596     2.6272    26.0960 </r>
       <r>    12.6893     0.9222    26.3354 </r>
       <r>    12.8191     2.0528    26.7188 </r>
       <r>    12.9488     2.4915    27.1480 </r>
       <r>    13.0785     2.9380    27.7103 </r>
       <r>    13.2083     2.0653    28.1032 </r>
       <r>    13.3380     1.4329    28.3962 </r>
       <r>    13.4678     2.1948    28.8291 </r>
       <r>    13.5975     2.3408    29.2832 </r>
       <r>    13.7272     1.4056    29.4951 </r>
       <r>    13.8570     0.1586    29.6137 </r>
       <r>    13.9867     1.2606    29.8550 </r>
       <r>    14.1165     1.5027    30.1595 </r>
       <r>    14.2462     0.7863    30.3305 </r>
       <r>    14.3759     1.0377    30.5725 </r>
       <r>    14.5057     1.4706    30.8034 </r>
       <r>    14.6354     1.4988    31.1021 </r>
       <r>    14.7652     1.6413    31.5466 </r>
       <r>    14.8949     0.6736    31.7123 </r>
       <r>    15.0246     0.8770    31.8698 </r>
       <r>    15.1544     0.6034    31.9709 </r>
       <r>    15.2841     0.0000    31.9927 </r>
       <r>    15.4139     0.0000    31.9927 </r>
       <r>    15.5436     0.0000    31.9927 </r>
       <r>    15.6733     0.0000    32.0000 </r>
       <r>    15.8031     0.0000    32.0000 </r>
       <r>    15.9328     0.0000    32.0000 </r>
       <r>    16.0626     0.0000    32.0000 </r>
       <r>    16.1923     0.0000    32.0000 </r>
       <r>    16.3220     0.0000    32.0000 </r>
       <r>    16.4518     0.0000    32.0000 </r>
       <r>    16.5815     0.0000    32.0000 </r>
       <r>    16.7113     0.0000    32.0000 </r>
       <r>    16.8410     0.0000    32.0000 </r>
       <r>    16.9707     0.0000    32.0000 </r>
       <r>    17.1005     0.0000    32.0000 </r>
       <r>    17.2302     0.0000    32.0000 </r>
       <r>    17.3600     0.0000    32.0000 </r>
      </set>
     </set>
    </array>
   </total>
  </dos>
 </calculation>
 <structure name="finalpos" >
  <crystal>
   <varray name="basis" >
    <v>       0.00000000       2.95045750       2.95045750 </v>
    <v>       2.95045750       0.00000000       2.95045750 </v>
    <v>       2.95045750       2.95045750       0.00000000 </v>
   </varray>
   <i name="volume">     51.36864232 </i>
   <varray name="rec_basis" >
    <v>      -0.16946524       0.16946524       0.16946524 </v>
    <v>       0.16946524      -0.16946524       0.16946524 </v>
    <v>       0.16946524       0.16946524      -0.16946524 </v>
   </varray>
  </crystal>
  <varray name="positions" >
   <v>       0.75000000       0.75000000       0.75000000 </v>
   <v>       0.25000000       0.25000000       0.25000000 </v>
   <v>       0.00000000       0.00000000       0.00000000 </v>
  </varray>
 </structure>
</modeling>
