unknown system
           1
     0.000000    2.950458    2.950458
     2.950458    0.000000    2.950458
     2.950458    2.950458    0.000000
   Hf   Sb   Pt
   1   1   1
Direct configuration=     1
   0.75000000  0.75000000  0.75000000
   0.25000000  0.25000000  0.25000000
   0.00000000  0.00000000  0.00000000
