 running  128 mpi-ranks, with    1 threads/rank, on    1 nodes
 distrk:  each k-point on   32 cores,    4 groups
 distr:  one band on   16 cores,    2 groups
 vasp.6.4.3 19Mar24 (build Jun  3 2025 16:21:13) complex                         
 POSCAR found type information on POSCAR Ti
 POSCAR found :  1 types and       1 ions
 Reading from existing POTCAR
 scaLAPACK will be used
 Reading from existing POTCAR
 LDA part: xc-table for (Slater+PW92), standard interpolation
 -----------------------------------------------------------------------------
|                                                                             |
|           W    W    AA    RRRRR   N    N  II  N    N   GGGG   !!!           |
|           W    W   A  A   R    R  NN   N  II  NN   N  G    G  !!!           |
|           W    W  A    A  R    R  N N  N  II  N N  N  G       !!!           |
|           W WW W  AAAAAA  RRRRR   N  N N  II  N  N N  G  GGG   !            |
|           WW  WW  A    A  R   R   N   NN  II  N   NN  G    G                |
|           W    W  A    A  R    R  N    N  II  N    N   GGGG   !!!           |
|                                                                             |
|     The requested file  could not be found or opened for reading            |
|     k-point information. Automatic k-point generation is used as a          |
|     fallback, which may lead to unwanted results.                           |
|                                                                             |
 -----------------------------------------------------------------------------

 INCAR ok, starting setup
 POSCAR ok, starting setup
 FFT: planning ... GRIDC
 FFT: planning ... GRID_SOFT
 FFT: planning ... GRID
 WAVECAR not read
 entering main loop
       N       E                     dE             d eps       ncg     rms          rms(c)
DAV:   1     0.114690135775E+03    0.11469E+03   -0.43366E+03 14520   0.449E+02
DAV:   2    -0.192268959257E+01   -0.11661E+03   -0.10809E+03 14784   0.161E+02
DAV:   3    -0.874749536828E+01   -0.68248E+01   -0.67321E+01 17248   0.384E+01
DAV:   4    -0.879881372514E+01   -0.51318E-01   -0.51299E-01 15624   0.344E+00
DAV:   5    -0.879893468839E+01   -0.12096E-03   -0.12096E-03 17000   0.163E-01    0.814E+00
DAV:   6    -0.771347054188E+01    0.10855E+01   -0.89234E-01 18304   0.854E+00    0.200E+00
DAV:   7    -0.771181110477E+01    0.16594E-02   -0.33786E-02 15472   0.867E-01    0.128E+00
DAV:   8    -0.772055227278E+01   -0.87412E-02   -0.40929E-02 14360   0.985E-01    0.143E-01
DAV:   9    -0.772010540640E+01    0.44687E-03   -0.63869E-04 16264   0.158E-01    0.599E-02
DAV:  10    -0.772018029358E+01   -0.74887E-04   -0.24422E-04 15176   0.637E-02    0.755E-03
DAV:  11    -0.772018701819E+01   -0.67246E-05   -0.99586E-06 16624   0.143E-02    0.690E-03
DAV:  12    -0.772018718069E+01   -0.16250E-06   -0.14707E-06 16432   0.579E-03    0.199E-03
DAV:  13    -0.772018726590E+01   -0.85210E-07   -0.11122E-07 15744   0.150E-03
   1 F= -.77201873E+01 E0= -.77201873E+01  d E =0.000000E+00
 -----------------------------------------------------------------------------
|                                                                             |
|           W    W    AA    RRRRR   N    N  II  N    N   GGGG   !!!           |
|           W    W   A  A   R    R  NN   N  II  NN   N  G    G  !!!           |
|           W    W  A    A  R    R  N N  N  II  N N  N  G       !!!           |
|           W WW W  AAAAAA  RRRRR   N  N N  II  N  N N  G  GGG   !            |
|           WW  WW  A    A  R   R   N   NN  II  N   NN  G    G                |
|           W    W  A    A  R    R  N    N  II  N    N   GGGG   !!!           |
|                                                                             |
|     Tetrahedron method does not include variations of the Fermi             |
|     occupations, so forces and stress will be inaccurate. We suggest        |
|     using a different smearing scheme ISMEAR = 1 or 2 for metals in         |
|     relaxations.                                                            |
|                                                                             |
 -----------------------------------------------------------------------------

 PROFILE, used timers:     421
