 ----------------------------------------------------
    OOO  PPPP  EEEEE N   N M   M PPPP
   O   O P   P E     NN  N MM MM P   P
   O   O PPPP  EEEEE N N N M M M PPPP   -- VERSION
   O   O P     E     N  NN M   M P
    OOO  P     EEEEE N   N M   M P
 ----------------------------------------------------
 running  128 mpi-ranks, with    1 threads/rank
 distrk:  each k-point on   32 cores,    4 groups
 distr:  one band on   16 cores,    2 groups
 vasp.6.3.2 27Jun22 (build Jun 30 2023 15:13:53) complex                         
 POSCAR found type information on POSCAR CuO 
 POSCAR found :  2 types and       2 ions
 Reading from existing POTCAR
 scaLAPACK will be used
 Reading from existing POTCAR
 LDA part: xc-table for Pade appr. of Perdew
 -----------------------------------------------------------------------------
|                                                                             |
|           W    W    AA    RRRRR   N    N  II  N    N   GGGG   !!!           |
|           W    W   A  A   R    R  NN   N  II  NN   N  G    G  !!!           |
|           W    W  A    A  R    R  N N  N  II  N N  N  G       !!!           |
|           W WW W  AAAAAA  RRRRR   N  N N  II  N  N N  G  GGG   !            |
|           WW  WW  A    A  R   R   N   NN  II  N   NN  G    G                |
|           W    W  A    A  R    R  N    N  II  N    N   GGGG   !!!           |
|                                                                             |
|     The requested file  could not be found or opened for reading            |
|     k-point information. Automatic k-point generation is used as a          |
|     fallback, which may lead to unwanted results.                           |
|                                                                             |
 -----------------------------------------------------------------------------

 INCAR ok, starting setup
 POSCAR ok, starting setup
 FFT: planning ... GRIDC
 FFT: planning ... GRID_SOFT
 FFT: planning ... GRID
 WAVECAR not read
 entering main loop
       N       E                     dE             d eps       ncg     rms          rms(c)
DAV:   1     0.913740573681E+02    0.91374E+02   -0.93171E+03 14088   0.182E+03
DAV:   2    -0.631516814567E+00   -0.92006E+02   -0.83875E+02 13424   0.291E+02
DAV:   3    -0.515258876762E+01   -0.45211E+01   -0.44209E+01 15248   0.646E+01
DAV:   4    -0.519287311378E+01   -0.40284E-01   -0.40278E-01 14592   0.585E+00
DAV:   5    -0.519334600541E+01   -0.47289E-03   -0.47295E-03 16080   0.657E-01    0.273E+01
DAV:   6    -0.893199672377E+01   -0.37387E+01   -0.15041E+01 16064   0.122E+02    0.102E+01
DAV:   7    -0.806812259350E+01    0.86387E+00   -0.44333E+00 15600   0.933E+01    0.144E+00
DAV:   8    -0.809626107832E+01   -0.28138E-01   -0.31674E-01 14016   0.527E+00    0.715E-01
DAV:   9    -0.809311911272E+01    0.31420E-02   -0.64947E-03 17920   0.276E+00    0.316E-01
DAV:  10    -0.809429377295E+01   -0.11747E-02   -0.16129E-03 18472   0.779E-01    0.143E-01
DAV:  11    -0.809477113934E+01   -0.47737E-03   -0.23564E-04 18248   0.623E-01    0.180E-01
DAV:  12    -0.809530125591E+01   -0.53012E-03   -0.18647E-04 18632   0.574E-01    0.189E-01
DAV:  13    -0.809490807757E+01    0.39318E-03   -0.18407E-04 17424   0.595E-01    0.194E-01
DAV:  14    -0.809631968026E+01   -0.14116E-02   -0.13159E-03 17352   0.174E+00    0.242E-01
DAV:  15    -0.809164326483E+01    0.46764E-02   -0.29265E-02 17224   0.827E+00    0.231E-01
DAV:  16    -0.809278630627E+01   -0.11430E-02   -0.32980E-03 19376   0.157E+00    0.236E-01
DAV:  17    -0.809203349888E+01    0.75281E-03   -0.65177E-04 17824   0.103E+00    0.155E-01
DAV:  18    -0.809233842650E+01   -0.30493E-03   -0.14887E-04 18448   0.497E-01    0.168E-01
DAV:  19    -0.809212870834E+01    0.20972E-03   -0.35153E-05 18560   0.255E-01    0.136E-01
DAV:  20    -0.809152781950E+01    0.60089E-03   -0.87158E-04 16056   0.124E+00    0.800E-03
DAV:  21    -0.809155482810E+01   -0.27009E-04   -0.69290E-05 16392   0.147E-01    0.121E-02
DAV:  22    -0.809155091364E+01    0.39145E-05   -0.30134E-06 19432   0.534E-02    0.101E-02
DAV:  23    -0.809154529406E+01    0.56196E-05   -0.19831E-05 16688   0.191E-01    0.699E-03
DAV:  24    -0.809154380040E+01    0.14937E-05   -0.40491E-06 17720   0.817E-02    0.331E-03
DAV:  25    -0.809154383238E+01   -0.31982E-07   -0.40133E-07 14448   0.108E-02
   1 F= -.80915438E+01 E0= -.80915438E+01  d E =0.000000E+00  mag=    -0.0009
 -----------------------------------------------------------------------------
|                                                                             |
|           W    W    AA    RRRRR   N    N  II  N    N   GGGG   !!!           |
|           W    W   A  A   R    R  NN   N  II  NN   N  G    G  !!!           |
|           W    W  A    A  R    R  N N  N  II  N N  N  G       !!!           |
|           W WW W  AAAAAA  RRRRR   N  N N  II  N  N N  G  GGG   !            |
|           WW  WW  A    A  R   R   N   NN  II  N   NN  G    G                |
|           W    W  A    A  R    R  N    N  II  N    N   GGGG   !!!           |
|                                                                             |
|     Tetrahedron method does not include variations of the Fermi             |
|     occupations, so forces and stress will be inaccurate. We suggest        |
|     using a different smearing scheme ISMEAR = 1 or 2 for metals in         |
|     relaxations.                                                            |
|                                                                             |
 -----------------------------------------------------------------------------

 PROFILE, used timers:     369
