   2   2   0   0
  0.3633416E+02  0.4684034E-09  0.4684034E-09  0.4684034E-09  0.0000000E+00
  1.000000000000000E-004
  CAR 
 unknown system                          
     10.95369555     -7.56350751  301      2.85531252      1.00000000
     -7.564  0.0000E+00  0.0000E+00
     -7.502  0.0000E+00  0.0000E+00
     -7.440  0.0000E+00  0.0000E+00
     -7.378  0.0000E+00  0.0000E+00
     -7.317  0.0000E+00  0.0000E+00
     -7.255  0.0000E+00  0.0000E+00
     -7.193  0.0000E+00  0.0000E+00
     -7.131  0.0000E+00  0.0000E+00
     -7.070  0.0000E+00  0.0000E+00
     -7.008  0.0000E+00  0.0000E+00
     -6.946  0.0000E+00  0.0000E+00
     -6.885  0.0000E+00  0.0000E+00
     -6.823  0.0000E+00  0.0000E+00
     -6.761  0.0000E+00  0.0000E+00
     -6.699  0.1383E+00  0.1035E-02
     -6.638  0.2594E+00  0.1306E-01
     -6.576  0.3638E+00  0.3203E-01
     -6.514  0.4370E+00  0.5662E-01
     -6.452  0.5194E+00  0.8633E-01
     -6.391  0.5949E+00  0.1207E+00
     -6.329  0.6763E+00  0.1600E+00
     -6.267  0.7568E+00  0.2041E+00
     -6.206  0.8452E+00  0.2535E+00
     -6.144  0.9433E+00  0.3087E+00
     -6.082  0.1053E+01  0.3702E+00
     -6.020  0.1181E+01  0.4389E+00
     -5.959  0.1343E+01  0.5167E+00
     -5.897  0.1539E+01  0.6055E+00
     -5.835  0.1854E+01  0.7092E+00
     -5.774  0.2616E+01  0.8418E+00
     -5.712  0.2686E+01  0.1005E+01
     -5.650  0.2666E+01  0.1171E+01
     -5.588  0.2740E+01  0.1337E+01
     -5.527  0.2812E+01  0.1508E+01
     -5.465  0.3053E+01  0.1688E+01
     -5.403  0.3870E+01  0.1893E+01
     -5.341  0.0000E+00  0.2000E+01
     -5.280  0.0000E+00  0.2000E+01
     -5.218  0.0000E+00  0.2000E+01
     -5.156  0.0000E+00  0.2000E+01
     -5.095  0.0000E+00  0.2000E+01
     -5.033  0.0000E+00  0.2000E+01
     -4.971  0.0000E+00  0.2000E+01
     -4.909  0.0000E+00  0.2000E+01
     -4.848  0.0000E+00  0.2000E+01
     -4.786  0.0000E+00  0.2000E+01
     -4.724  0.0000E+00  0.2000E+01
     -4.662  0.0000E+00  0.2000E+01
     -4.601  0.0000E+00  0.2000E+01
     -4.539  0.0000E+00  0.2000E+01
     -4.477  0.0000E+00  0.2000E+01
     -4.416  0.0000E+00  0.2000E+01
     -4.354  0.0000E+00  0.2000E+01
     -4.292  0.0000E+00  0.2000E+01
     -4.230  0.0000E+00  0.2000E+01
     -4.169  0.0000E+00  0.2000E+01
     -4.107  0.0000E+00  0.2000E+01
     -4.045  0.0000E+00  0.2000E+01
     -3.984  0.0000E+00  0.2000E+01
     -3.922  0.0000E+00  0.2000E+01
     -3.860  0.0000E+00  0.2000E+01
     -3.798  0.0000E+00  0.2000E+01
     -3.737  0.0000E+00  0.2000E+01
     -3.675  0.0000E+00  0.2000E+01
     -3.613  0.0000E+00  0.2000E+01
     -3.551  0.0000E+00  0.2000E+01
     -3.490  0.0000E+00  0.2000E+01
     -3.428  0.0000E+00  0.2000E+01
     -3.366  0.0000E+00  0.2000E+01
     -3.305  0.0000E+00  0.2000E+01
     -3.243  0.0000E+00  0.2000E+01
     -3.181  0.0000E+00  0.2000E+01
     -3.119  0.0000E+00  0.2000E+01
     -3.058  0.0000E+00  0.2000E+01
     -2.996  0.0000E+00  0.2000E+01
     -2.934  0.0000E+00  0.2000E+01
     -2.872  0.0000E+00  0.2000E+01
     -2.811  0.0000E+00  0.2000E+01
     -2.749  0.0000E+00  0.2000E+01
     -2.687  0.0000E+00  0.2000E+01
     -2.626  0.0000E+00  0.2000E+01
     -2.564  0.0000E+00  0.2000E+01
     -2.502  0.0000E+00  0.2000E+01
     -2.440  0.0000E+00  0.2000E+01
     -2.379  0.0000E+00  0.2000E+01
     -2.317  0.0000E+00  0.2000E+01
     -2.255  0.0000E+00  0.2000E+01
     -2.194  0.0000E+00  0.2000E+01
     -2.132  0.0000E+00  0.2000E+01
     -2.070  0.0000E+00  0.2000E+01
     -2.008  0.0000E+00  0.2000E+01
     -1.947  0.0000E+00  0.2000E+01
     -1.885  0.8112E+00  0.2022E+01
     -1.823  0.1925E+01  0.2098E+01
     -1.761  0.2600E+01  0.2251E+01
     -1.700  0.3931E+01  0.2433E+01
     -1.638  0.3155E+01  0.2713E+01
     -1.576  0.2126E+01  0.2871E+01
     -1.515  0.1643E+01  0.2985E+01
     -1.453  0.1385E+01  0.3078E+01
     -1.391  0.1170E+01  0.3157E+01
     -1.329  0.1014E+01  0.3224E+01
     -1.268  0.9148E+00  0.3283E+01
     -1.206  0.8229E+00  0.3337E+01
     -1.144  0.7406E+00  0.3385E+01
     -1.082  0.6633E+00  0.3428E+01
     -1.021  0.6171E+00  0.3468E+01
     -0.959  0.5731E+00  0.3505E+01
     -0.897  0.5306E+00  0.3539E+01
     -0.836  0.4864E+00  0.3570E+01
     -0.774  0.4432E+00  0.3599E+01
     -0.712  0.4186E+00  0.3625E+01
     -0.650  0.3952E+00  0.3651E+01
     -0.589  0.3714E+00  0.3674E+01
     -0.527  0.3467E+00  0.3696E+01
     -0.465  0.3233E+00  0.3717E+01
     -0.404  0.2968E+00  0.3736E+01
     -0.342  0.2797E+00  0.3754E+01
     -0.280  0.2657E+00  0.3771E+01
     -0.218  0.2518E+00  0.3787E+01
     -0.157  0.2378E+00  0.3802E+01
     -0.095  0.2236E+00  0.3816E+01
     -0.033  0.2072E+00  0.3829E+01
      0.029  0.1926E+00  0.3842E+01
      0.090  0.1795E+00  0.3853E+01
      0.152  0.1712E+00  0.3864E+01
      0.214  0.1628E+00  0.3874E+01
      0.275  0.1535E+00  0.3884E+01
      0.337  0.1444E+00  0.3893E+01
      0.399  0.8297E+00  0.3919E+01
      0.461  0.1547E+01  0.3991E+01
      0.522  0.2228E+01  0.4117E+01
      0.584  0.1975E+01  0.4250E+01
      0.646  0.1751E+01  0.4365E+01
      0.708  0.1687E+01  0.4472E+01
      0.769  0.1608E+01  0.4573E+01
      0.831  0.1511E+01  0.4669E+01
      0.893  0.1593E+01  0.4764E+01
      0.954  0.1670E+01  0.4867E+01
      1.016  0.1779E+01  0.4973E+01
      1.078  0.1875E+01  0.5087E+01
      1.140  0.2235E+01  0.5214E+01
      1.201  0.2556E+01  0.5361E+01
      1.263  0.2431E+01  0.5516E+01
      1.325  0.2426E+01  0.5666E+01
      1.386  0.2400E+01  0.5815E+01
      1.448  0.2334E+01  0.5961E+01
      1.510  0.2325E+01  0.6105E+01
      1.572  0.2293E+01  0.6247E+01
      1.633  0.2238E+01  0.6387E+01
      1.695  0.2204E+01  0.6524E+01
      1.757  0.2178E+01  0.6660E+01
      1.819  0.2146E+01  0.6793E+01
      1.880  0.2126E+01  0.6925E+01
      1.942  0.2124E+01  0.7056E+01
      2.004  0.2081E+01  0.7186E+01
      2.065  0.2058E+01  0.7314E+01
      2.127  0.2002E+01  0.7440E+01
      2.189  0.1514E+01  0.7547E+01
      2.251  0.1247E+01  0.7632E+01
      2.312  0.1073E+01  0.7704E+01
      2.374  0.9174E+00  0.7765E+01
      2.436  0.7996E+00  0.7818E+01
      2.498  0.6937E+00  0.7864E+01
      2.559  0.5818E+00  0.7903E+01
      2.621  0.4898E+00  0.7936E+01
      2.683  0.3954E+00  0.7964E+01
      2.744  0.2694E+00  0.7985E+01
      2.806  0.1631E+00  0.7997E+01
      2.868  0.2589E-05  0.8000E+01
      2.930  0.9137E-04  0.8000E+01
      2.991  0.3065E-03  0.8000E+01
      3.053  0.6481E-03  0.8000E+01
      3.115  0.1116E-02  0.8000E+01
      3.176  0.1710E-02  0.8000E+01
      3.238  0.2431E-02  0.8000E+01
      3.300  0.3278E-02  0.8000E+01
      3.362  0.4252E-02  0.8001E+01
      3.423  0.5352E-02  0.8001E+01
      3.485  0.7657E-02  0.8001E+01
      3.547  0.1303E-01  0.8002E+01
      3.609  0.1771E-01  0.8003E+01
      3.670  0.3567E-01  0.8004E+01
      3.732  0.7684E-01  0.8008E+01
      3.794  0.1321E+00  0.8014E+01
      3.855  0.2004E+00  0.8024E+01
      3.917  0.2526E+00  0.8039E+01
      3.979  0.3156E+00  0.8056E+01
      4.041  0.3961E+00  0.8078E+01
      4.102  0.4661E+00  0.8105E+01
      4.164  0.5138E+00  0.8135E+01
      4.226  0.5215E+00  0.8167E+01
      4.288  0.5647E+00  0.8200E+01
      4.349  0.7810E+00  0.8241E+01
      4.411  0.9867E+00  0.8296E+01
      4.473  0.1175E+01  0.8363E+01
      4.534  0.1425E+01  0.8443E+01
      4.596  0.1625E+01  0.8537E+01
      4.658  0.1819E+01  0.8643E+01
      4.720  0.2206E+01  0.8766E+01
      4.781  0.2958E+01  0.8924E+01
      4.843  0.3098E+01  0.9115E+01
      4.905  0.2365E+01  0.9287E+01
      4.966  0.1998E+01  0.9420E+01
      5.028  0.1733E+01  0.9535E+01
      5.090  0.1465E+01  0.9632E+01
      5.152  0.1302E+01  0.9718E+01
      5.213  0.1213E+01  0.9796E+01
      5.275  0.1123E+01  0.9868E+01
      5.337  0.9799E+00  0.9933E+01
      5.399  0.1173E+01  0.9996E+01
      5.460  0.1219E+01  0.1008E+02
      5.522  0.1271E+01  0.1016E+02
      5.584  0.1125E+01  0.1023E+02
      5.645  0.1079E+01  0.1030E+02
      5.707  0.1117E+01  0.1037E+02
      5.769  0.1208E+01  0.1044E+02
      5.831  0.1214E+01  0.1051E+02
      5.892  0.1165E+01  0.1059E+02
      5.954  0.1169E+01  0.1066E+02
      6.016  0.1189E+01  0.1073E+02
      6.077  0.1208E+01  0.1080E+02
      6.139  0.1324E+01  0.1088E+02
      6.201  0.1532E+01  0.1097E+02
      6.263  0.1834E+01  0.1107E+02
      6.324  0.3031E+01  0.1122E+02
      6.386  0.3146E+01  0.1142E+02
      6.448  0.2673E+01  0.1161E+02
      6.510  0.1922E+01  0.1175E+02
      6.571  0.2004E+01  0.1188E+02
      6.633  0.1777E+01  0.1199E+02
      6.695  0.1640E+01  0.1210E+02
      6.756  0.1513E+01  0.1219E+02
      6.818  0.1392E+01  0.1228E+02
      6.880  0.1358E+01  0.1237E+02
      6.942  0.1377E+01  0.1245E+02
      7.003  0.1624E+01  0.1254E+02
      7.065  0.1924E+01  0.1265E+02
      7.127  0.2345E+01  0.1278E+02
      7.189  0.2495E+01  0.1293E+02
      7.250  0.2416E+01  0.1309E+02
      7.312  0.2204E+01  0.1324E+02
      7.374  0.2090E+01  0.1337E+02
      7.435  0.2049E+01  0.1349E+02
      7.497  0.2032E+01  0.1362E+02
      7.559  0.1944E+01  0.1374E+02
      7.621  0.1724E+01  0.1385E+02
      7.682  0.1522E+01  0.1396E+02
      7.744  0.1431E+01  0.1405E+02
      7.806  0.1407E+01  0.1413E+02
      7.867  0.1300E+01  0.1422E+02
      7.929  0.1399E+01  0.1430E+02
      7.991  0.1258E+01  0.1438E+02
      8.053  0.1233E+01  0.1446E+02
      8.114  0.1236E+01  0.1453E+02
      8.176  0.1312E+01  0.1461E+02
      8.238  0.1523E+01  0.1470E+02
      8.300  0.1869E+01  0.1480E+02
      8.361  0.2223E+01  0.1494E+02
      8.423  0.1643E+01  0.1505E+02
      8.485  0.1368E+01  0.1515E+02
      8.546  0.1187E+01  0.1522E+02
      8.608  0.1103E+01  0.1529E+02
      8.670  0.1037E+01  0.1536E+02
      8.732  0.9686E+00  0.1542E+02
      8.793  0.9044E+00  0.1548E+02
      8.855  0.8357E+00  0.1553E+02
      8.917  0.7890E+00  0.1558E+02
      8.979  0.7475E+00  0.1563E+02
      9.040  0.7073E+00  0.1568E+02
      9.102  0.6691E+00  0.1572E+02
      9.164  0.6287E+00  0.1576E+02
      9.225  0.7662E+00  0.1580E+02
      9.287  0.5232E+00  0.1584E+02
      9.349  0.3239E+00  0.1586E+02
      9.411  0.2996E+00  0.1588E+02
      9.472  0.2782E+00  0.1590E+02
      9.534  0.2548E+00  0.1592E+02
      9.596  0.2361E+00  0.1593E+02
      9.657  0.2072E+00  0.1595E+02
      9.719  0.1912E+00  0.1596E+02
      9.781  0.1618E+00  0.1597E+02
      9.843  0.1272E+00  0.1598E+02
      9.904  0.9882E-01  0.1599E+02
      9.966  0.7674E-01  0.1599E+02
     10.028  0.6839E-01  0.1600E+02
     10.090  0.5732E-01  0.1600E+02
     10.151  0.0000E+00  0.1600E+02
     10.213  0.0000E+00  0.1600E+02
     10.275  0.0000E+00  0.1600E+02
     10.336  0.0000E+00  0.1600E+02
     10.398  0.0000E+00  0.1600E+02
     10.460  0.0000E+00  0.1600E+02
     10.522  0.0000E+00  0.1600E+02
     10.583  0.0000E+00  0.1600E+02
     10.645  0.0000E+00  0.1600E+02
     10.707  0.0000E+00  0.1600E+02
     10.769  0.0000E+00  0.1600E+02
     10.830  0.0000E+00  0.1600E+02
     10.892  0.0000E+00  0.1600E+02
     10.954  0.0000E+00  0.1600E+02
