    2    2    1    1
  0.3633416E+02  0.4684034E-09  0.4684034E-09  0.4684034E-09  0.0000000E+00
  1.000000000000000E-004
  CAR 
 unknown system                          
      8    165      8
 
  0.0000000E+00  0.0000000E+00  0.0000000E+00  0.2035416E-03
    1       -6.721816   1.000000
    2        2.851073   1.000000
    3        2.851073   1.000000
    4        2.851073   1.000000
    5        2.855356   0.000000
    6        5.796162   0.000000
    7        5.796162   0.000000
    8        5.796162   0.000000
 
  0.5882353E-01  0.0000000E+00  0.0000000E+00  0.1628333E-02
    1       -6.698103   1.000000
    2        2.137113   1.000000
    3        2.816803   1.000000
    4        2.816803   1.000000
    5        3.470352   0.000000
    6        5.843473   0.000000
    7        5.851586   0.000000
    8        5.851586   0.000000
 
  0.1176471E+00  0.0000000E+00  0.0000000E+00  0.1628333E-02
    1       -6.628062   1.000000
    2        1.395806   1.000000
    3        2.725181   1.000000
    4        2.725181   1.000000
    5        3.870952   0.000000
    6        5.998326   0.000000
    7        5.998326   0.000000
    8        6.063829   0.000000
 
  0.1764706E+00  0.0000000E+00  0.0000000E+00  0.1628333E-02
    1       -6.515502   1.000000
    2        0.670774   1.000000
    3        2.601220   1.000000
    4        2.601220   1.000000
    5        3.998192   0.000000
    6        6.186407   0.000000
    7        6.186407   0.000000
    8        6.541746   0.000000
 
  0.2352941E+00  0.0000000E+00  0.0000000E+00  0.1628333E-02
    1       -6.367636   1.000000
    2       -0.009079   1.000000
    3        2.469749   1.000000
    4        2.469749   1.000000
    5        3.952796   0.000000
    6        6.354858   0.000000
    7        6.354858   0.000000
    8        7.207689   0.000000
 
  0.2941176E+00  0.0000000E+00  0.0000000E+00  0.1628333E-02
    1       -6.196739   1.000000
    2       -0.617859   1.000000
    3        2.349055   1.000000
    4        2.349055   1.000000
    5        3.849102   0.000000
    6        6.459495   0.000000
    7        6.459495   0.000000
    8        7.959115   0.000000
 
  0.3529412E+00  0.0000000E+00  0.0000000E+00  0.1628333E-02
    1       -6.022520   1.000000
    2       -1.126991   1.000000
    3        2.250897   1.000000
    4        2.250897   1.000000
    5        3.745676   0.000000
    6        6.497272   0.000000
    7        6.497272   0.000000
    8        8.698141   0.000000
 
  0.4117647E+00  0.0000000E+00  0.0000000E+00  0.1628333E-02
    1       -5.873927   1.000000
    2       -1.501707   1.000000
    3        2.182290   1.000000
    4        2.182290   1.000000
    5        3.668002   0.000000
    6        6.496614   0.000000
    7        6.496615   0.000000
    8        9.167755   0.000000
 
  0.4705882E+00  0.0000000E+00  0.0000000E+00  0.1628333E-02
    1       -5.786162   1.000000
    2       -1.703373   1.000000
    3        2.147126   1.000000
    4        2.147126   1.000000
    5        3.627077   0.000000
    6        6.487961   0.000000
    7        6.487961   0.000000
    8        9.259149   0.000000
 
  0.5882353E-01  0.5882353E-01  0.0000000E+00  0.1221250E-02
    1       -6.690170   1.000000
    2        2.068956   1.000000
    3        2.747917   1.000000
    4        2.747918   1.000000
    5        3.634003   0.000000
    6        5.689680   0.000000
    7        5.949706   0.000000
    8        5.949706   0.000000
 
  0.1176471E+00  0.5882353E-01  0.0000000E+00  0.4884999E-02
    1       -6.635483   1.000000
    2        1.514922   1.000000
    3        2.630837   1.000000
    4        2.671083   1.000000
    5        4.010272   0.000000
    6        5.662673   0.000000
    7        6.133135   0.000000
    8        6.162062   0.000000
 
  0.1764706E+00  0.5882353E-01  0.0000000E+00  0.4884999E-02
    1       -6.536917   1.000000
    2        0.843225   1.000000
    3        2.493203   1.000000
    4        2.565737   1.000000
    5        4.211886   0.000000
    6        5.792262   0.000000
    7        6.350713   0.000000
    8        6.531025   0.000000
 
  0.2352941E+00  0.5882353E-01  0.0000000E+00  0.4884999E-02
    1       -6.400389   1.000000
    2        0.176036   1.000000
    3        2.358566   1.000000
    4        2.425201   1.000000
    5        4.217663   0.000000
    6        6.014875   0.000000
    7        6.541591   0.000000
    8        7.041732   0.000000
 
  0.2941176E+00  0.5882353E-01  0.0000000E+00  0.4884999E-02
    1       -6.236283   1.000000
    2       -0.441450   1.000000
    3        2.243097   1.000000
    4        2.275120   1.000000
    5        4.133259   0.000000
    6        6.211065   0.000000
    7        6.656981   0.000000
    8        7.635885   0.000000
 
  0.3529412E+00  0.5882353E-01  0.0000000E+00  0.4884999E-02
    1       -6.061501   1.000000
    2       -0.975911   1.000000
    3        2.136268   1.000000
    4        2.156695   1.000000
    5        4.032016   0.000000
    6        6.326510   0.000000
    7        6.687367   0.000000
    8        8.263601   0.000000
 
  0.4117647E+00  0.5882353E-01  0.0000000E+00  0.4884999E-02
    1       -5.901732   1.000000
    2       -1.392332   1.000000
    3        2.021955   1.000000
    4        2.104836   1.000000
    5        3.947256   0.000000
    6        6.379814   0.000000
    7        6.661007   0.000000
    8        8.854221   0.000000
 
  0.4705882E+00  0.5882353E-01  0.0000000E+00  0.4884999E-02
    1       -5.790809   1.000000
    2       -1.651545   1.000000
    3        1.940245   1.000000
    4        2.089951   1.000000
    5        3.893605   0.000000
    6        6.411136   0.000000
    7        6.613843   0.000000
    8        9.218557   0.000000
 
 -0.4705882E+00  0.5882353E-01  0.0000000E+00  0.4884999E-02
    1       -5.760289   1.000000
    2       -1.719153   1.000000
    3        1.895945   1.000000
    4        2.112238   1.000000
    5        3.877256   0.000000
    6        6.447200   0.000000
    7        6.569148   0.000000
    8        9.303459   0.000000
 
 -0.4117647E+00  0.5882353E-01  0.0000000E+00  0.4884999E-02
    1       -5.820377   1.000000
    2       -1.584401   1.000000
    3        1.891747   1.000000
    4        2.170012   1.000000
    5        3.899687   0.000000
    6        6.494708   0.000000
    7        6.533198   0.000000
    8        9.197421   0.000000
 
 -0.3529412E+00  0.5882353E-01  0.0000000E+00  0.4884999E-02
    1       -5.951668   1.000000
    2       -1.268072   1.000000
    3        1.928711   1.000000
    4        2.259638   1.000000
    5        3.958306   0.000000
    6        6.495551   0.000000
    7        6.540325   0.000000
    8        8.756817   0.000000
 
 -0.2941176E+00  0.5882353E-01  0.0000000E+00  0.4884999E-02
    1       -6.119907   1.000000
    2       -0.808217   1.000000
    3        2.006318   1.000000
    4        2.375009   1.000000
    5        4.044649   0.000000
    6        6.431525   0.000000
    7        6.547836   0.000000
    8        8.100537   0.000000
 
 -0.2352941E+00  0.5882353E-01  0.0000000E+00  0.4884999E-02
    1       -6.293498   1.000000
    2       -0.243455   1.000000
    3        2.122143   1.000000
    4        2.506448   1.000000
    5        4.138439   0.000000
    6        6.315813   0.000000
    7        6.459295   0.000000
    8        7.449032   0.000000
 
 -0.1764706E+00  0.5882353E-01  0.0000000E+00  0.4884999E-02
    1       -6.449848   1.000000
    2        0.391331   1.000000
    3        2.271318   1.000000
    4        2.639079   1.000000
    5        4.192694   0.000000
    6        6.150968   0.000000
    7        6.234741   0.000000
    8        6.897857   0.000000
 
 -0.1176471E+00  0.5882353E-01  0.0000000E+00  0.4884999E-02
    1       -6.574558   1.000000
    2        1.058257   1.000000
    3        2.446507   1.000000
    4        2.751466   1.000000
    5        4.113234   0.000000
    6        5.965459   0.000000
    7        5.980534   0.000000
    8        6.464912   0.000000
 
 -0.5882353E-01  0.5882353E-01  0.0000000E+00  0.2442499E-02
    1       -6.658892   1.000000
    2        1.693978   1.000000
    3        2.640720   1.000000
    4        2.817589   1.000000
    5        3.817748   0.000000
    6        5.830957   0.000000
    7        5.865410   0.000000
    8        6.114821   0.000000
 
  0.1176471E+00  0.1176471E+00  0.0000000E+00  0.1221250E-02
    1       -6.596440   1.000000
    2        1.306210   1.000000
    3        2.493963   1.000000
    4        2.493963   1.000000
    5        4.347082   0.000000
    6        5.456443   0.000000
    7        6.353641   0.000000
    8        6.353641   0.000000
 
  0.1764706E+00  0.1176471E+00  0.0000000E+00  0.4884999E-02
    1       -6.512930   1.000000
    2        0.829540   1.000000
    3        2.343620   1.000000
    4        2.355953   1.000000
    5        4.590881   0.000000
    6        5.428359   0.000000
    7        6.609068   0.000000
    8        6.661800   0.000000
 
  0.2352941E+00  0.1176471E+00  0.0000000E+00  0.4884999E-02
    1       -6.389806   1.000000
    2        0.255198   1.000000
    3        2.195273   1.000000
    4        2.202749   1.000000
    5        4.667893   0.000000
    6        5.577891   0.000000
    7        6.838921   0.000000
    8        7.022444   0.000000
 
  0.2941176E+00  0.1176471E+00  0.0000000E+00  0.4884999E-02
    1       -6.235803   1.000000
    2       -0.320625   1.000000
    3        2.009511   1.000000
    4        2.086619   1.000000
    5        4.621892   0.000000
    6        5.841423   0.000000
    7        6.987566   0.000000
    8        7.328026   0.000000
 
  0.3529412E+00  0.1176471E+00  0.0000000E+00  0.4884999E-02
    1       -6.065352   1.000000
    2       -0.845467   1.000000
    3        1.824609   1.000000
    4        2.004417   1.000000
    5        4.532447   0.000000
    6        6.085275   0.000000
    7        7.033409   0.000000
    8        7.648284   0.000000
 
  0.4117647E+00  0.1176471E+00  0.0000000E+00  0.4884999E-02
    1       -5.900811   1.000000
    2       -1.277793   1.000000
    3        1.661550   1.000000
    4        1.961120   1.000000
    5        4.445463   0.000000
    6        6.231535   0.000000
    7        6.999824   0.000000
    8        8.104467   0.000000
 
  0.4705882E+00  0.1176471E+00  0.0000000E+00  0.4884999E-02
    1       -5.773156   1.000000
    2       -1.576111   1.000000
    3        1.533306   1.000000
    4        1.958655   1.000000
    5        4.381861   0.000000
    6        6.309331   0.000000
    7        6.927129   0.000000
    8        8.667585   0.000000
 
 -0.4705882E+00  0.1176471E+00  0.0000000E+00  0.4884999E-02
    1       -5.715455   1.000000
    2       -1.701888   1.000000
    3        1.447830   1.000000
    4        1.996551   1.000000
    5        4.350835   0.000000
    6        6.371734   0.000000
    7        6.845320   0.000000
    8        9.156844   0.000000
 
 -0.4117647E+00  0.1176471E+00  0.0000000E+00  0.4884999E-02
    1       -5.746056   1.000000
    2       -1.635042   1.000000
    3        1.410416   1.000000
    4        2.072155   1.000000
    5        4.355148   0.000000
    6        6.444150   0.000000
    7        6.766442   0.000000
    8        9.176389   0.000000
 
 -0.3529412E+00  0.1176471E+00  0.0000000E+00  0.4884999E-02
    1       -5.854885   1.000000
    2       -1.387313   1.000000
    3        1.425154   1.000000
    4        2.180391   1.000000
    5        4.392395   0.000000
    6        6.523292   0.000000
    7        6.684887   0.000000
    8        8.668400   0.000000
 
 -0.2941176E+00  0.1176471E+00  0.0000000E+00  0.4884999E-02
    1       -6.011383   1.000000
    2       -0.995082   1.000000
    3        1.495966   1.000000
    4        2.313106   1.000000
    5        4.453349   0.000000
    6        6.571893   0.000000
    7        6.580418   0.000000
    8        8.044444   0.000000
 
 -0.2352941E+00  0.1176471E+00  0.0000000E+00  0.4884999E-02
    1       -6.182717   1.000000
    2       -0.503010   1.000000
    3        1.627702   1.000000
    4        2.457817   1.000000
    5        4.515447   0.000000
    6        6.432320   0.000000
    7        6.499796   0.000000
    8        7.530894   0.000000
 
 -0.1764706E+00  0.1176471E+00  0.0000000E+00  0.4884999E-02
    1       -6.343761   1.000000
    2        0.041790   1.000000
    3        1.827534   1.000000
    4        2.596086   1.000000
    5        4.527031   0.000000
    6        6.248551   0.000000
    7        6.254271   0.000000
    8        7.194544   0.000000
 
 -0.1176471E+00  0.1176471E+00  0.0000000E+00  0.2442499E-02
    1       -6.477799   1.000000
    2        0.584355   1.000000
    3        2.104054   1.000000
    4        2.702984   1.000000
    5        4.400028   0.000000
    6        6.023571   0.000000
    7        6.077450   0.000000
    8        6.873497   0.000000
 
  0.1764706E+00  0.1764706E+00  0.0000000E+00  0.1221250E-02
    1       -6.444779   1.000000
    2        0.578146   1.000000
    3        2.182842   1.000000
    4        2.182843   1.000000
    5        4.759852   0.000000
    6        5.337346   0.000000
    7        6.910960   0.000000
    8        6.910960   0.000000
 
  0.2352941E+00  0.1764706E+00  0.0000000E+00  0.4884999E-02
    1       -6.336385   1.000000
    2        0.161104   1.000000
    3        2.012478   1.000000
    4        2.034141   1.000000
    5        4.800826   0.000000
    6        5.403160   0.000000
    7        7.194997   0.000000
    8        7.196234   0.000000
 
  0.2941176E+00  0.1764706E+00  0.0000000E+00  0.4884999E-02
    1       -6.195103   1.000000
    2       -0.317422   1.000000
    3        1.800353   1.000000
    4        1.912907   1.000000
    5        4.845615   0.000000
    6        5.550931   0.000000
    7        7.299610   0.000000
    8        7.401965   0.000000
 
  0.3529412E+00  0.1764706E+00  0.0000000E+00  0.4884999E-02
    1       -6.033321   1.000000
    2       -0.787457   1.000000
    3        1.567703   1.000000
    4        1.828469   1.000000
    5        4.827358   0.000000
    6        5.844752   0.000000
    7        7.316514   0.000000
    8        7.489598   0.000000
 
  0.4117647E+00  0.1764706E+00  0.0000000E+00  0.4884999E-02
    1       -5.870318   1.000000
    2       -1.198928   1.000000
    3        1.348405   1.000000
    4        1.785907   1.000000
    5        4.771954   0.000000
    6        6.168495   0.000000
    7        7.457878   0.000000
    8        7.471072   0.000000
 
  0.4705882E+00  0.1764706E+00  0.0000000E+00  0.4884999E-02
    1       -5.733607   1.000000
    2       -1.507048   1.000000
    3        1.165325   1.000000
    4        1.787231   1.000000
    5        4.723748   0.000000
    6        6.371381   0.000000
    7        7.389083   0.000000
    8        7.858058   0.000000
 
 -0.4705882E+00  0.1764706E+00  0.0000000E+00  0.4884999E-02
    1       -5.655092   1.000000
    2       -1.670507   1.000000
    3        1.031985   1.000000
    4        1.831949   1.000000
    5        4.702243   0.000000
    6        6.470701   0.000000
    7        7.280897   0.000000
    8        8.453327   0.000000
 
 -0.4117647E+00  0.1764706E+00  0.0000000E+00  0.4884999E-02
    1       -5.657959   1.000000
    2       -1.662704   1.000000
    3        0.957520   1.000000
    4        1.917174   1.000000
    5        4.712283   0.000000
    6        6.547087   0.000000
    7        7.164020   0.000000
    8        8.940979   0.000000
 
 -0.3529412E+00  0.1764706E+00  0.0000000E+00  0.4884999E-02
    1       -5.741177   1.000000
    2       -1.486993   1.000000
    3        0.950165   1.000000
    4        2.037236   1.000000
    5        4.749356   0.000000
    6        6.632510   0.000000
    7        7.035592   0.000000
    8        8.560095   0.000000
 
 -0.2941176E+00  0.1764706E+00  0.0000000E+00  0.4884999E-02
    1       -5.880335   1.000000
    2       -1.177004   1.000000
    3        1.019923   1.000000
    4        2.182878   1.000000
    5        4.798408   0.000000
    6        6.709414   0.000000
    7        6.877009   0.000000
    8        7.917955   0.000000
 
 -0.2352941E+00  0.1764706E+00  0.0000000E+00  0.4884999E-02
    1       -6.043678   1.000000
    2       -0.782938   1.000000
    3        1.180604   1.000000
    4        2.339758   1.000000
    5        4.824901   0.000000
    6        6.670401   0.000000
    7        6.672895   0.000000
    8        7.452757   0.000000
 
 -0.1764706E+00  0.1764706E+00  0.0000000E+00  0.2442499E-02
    1       -6.204377   1.000000
    2       -0.360048   1.000000
    3        1.448418   1.000000
    4        2.486792   1.000000
    5        4.758764   0.000000
    6        6.429322   0.000000
    7        6.443632   0.000000
    8        7.306731   0.000000
 
  0.2352941E+00  0.2352941E+00  0.0000000E+00  0.1221250E-02
    1       -6.243208   1.000000
    2       -0.104370   1.000000
    3        1.877239   1.000000
    4        1.877239   1.000000
    5        4.656125   0.000000
    6        5.434768   0.000000
    7        7.554105   0.000000
    8        7.554106   0.000000
 
  0.2941176E+00  0.2352941E+00  0.0000000E+00  0.4884999E-02
    1       -6.116595   1.000000
    2       -0.466078   1.000000
    3        1.697264   1.000000
    4        1.748297   1.000000
    5        4.645402   0.000000
    6        5.430184   0.000000
    7        7.704651   0.000000
    8        7.843677   0.000000
 
  0.3529412E+00  0.2352941E+00  0.0000000E+00  0.4884999E-02
    1       -5.967258   1.000000
    2       -0.850895   1.000000
    3        1.450484   1.000000
    4        1.657294   1.000000
    5        4.731019   0.000000
    6        5.534009   0.000000
    7        7.617598   0.000000
    8        8.005536   0.000000
 
  0.4117647E+00  0.2352941E+00  0.0000000E+00  0.4884999E-02
    1       -5.811917   1.000000
    2       -1.206327   1.000000
    3        1.181546   1.000000
    4        1.609797   1.000000
    5        4.765493   0.000000
    6        5.875060   0.000000
    7        7.517997   0.000000
    8        8.030049   0.000000
 
  0.4705882E+00  0.2352941E+00  0.0000000E+00  0.4884999E-02
    1       -5.674617   1.000000
    2       -1.488898   1.000000
    3        0.936294   1.000000
    4        1.608209   1.000000
    5        4.761017   0.000000
    6        6.361304   0.000000
    7        7.507228   0.000000
    8        7.957624   0.000000
 
 -0.4705882E+00  0.2352941E+00  0.0000000E+00  0.4884999E-02
    1       -5.584307   1.000000
    2       -1.659213   1.000000
    3        0.743828   1.000000
    4        1.652353   1.000000
    5        4.769065   0.000000
    6        6.762983   0.000000
    7        7.742178   0.000000
    8        7.833777   0.000000
 
 -0.4117647E+00  0.2352941E+00  0.0000000E+00  0.4884999E-02
    1       -5.565332   1.000000
    2       -1.689736   1.000000
    3        0.622619   1.000000
    4        1.739571   1.000000
    5        4.806456   0.000000
    6        6.935637   0.000000
    7        7.681660   0.000000
    8        8.284844   0.000000
 
 -0.3529412E+00  0.2352941E+00  0.0000000E+00  0.4884999E-02
    1       -5.623115   1.000000
    2       -1.579330   1.000000
    3        0.588180   1.000000
    4        1.864279   1.000000
    5        4.868765   0.000000
    6        7.023493   0.000000
    7        7.498392   0.000000
    8        8.423703   0.000000
 
 -0.2941176E+00  0.2352941E+00  0.0000000E+00  0.4884999E-02
    1       -5.740638   1.000000
    2       -1.358498   1.000000
    3        0.657986   1.000000
    4        2.017035   1.000000
    5        4.933382   0.000000
    6        7.106174   0.000000
    7        7.264181   0.000000
    8        7.798136   0.000000
 
 -0.2352941E+00  0.2352941E+00  0.0000000E+00  0.2442499E-02
    1       -5.889679   1.000000
    2       -1.077080   1.000000
    3        0.851633   1.000000
    4        2.182938   1.000000
    5        4.948632   0.000000
    6        6.974443   0.000000
    7        7.030117   0.000000
    8        7.380725   0.000000
 
  0.2941176E+00  0.2941176E+00  0.0000000E+00  0.1221250E-02
    1       -6.005753   1.000000
    2       -0.726858   1.000000
    3        1.610477   1.000000
    4        1.610477   1.000000
    5        4.463420   0.000000
    6        5.296983   0.000000
    7        8.242935   0.000000
    8        8.242949   0.000000
 
  0.3529412E+00  0.2941176E+00  0.0000000E+00  0.4884999E-02
    1       -5.872061   1.000000
    2       -1.029716   1.000000
    3        1.436403   1.000000
    4        1.510422   1.000000
    5        4.478930   0.000000
    6        5.217870   0.000000
    7        8.311966   0.000000
    8        8.519798   0.000000
 
  0.4117647E+00  0.2941176E+00  0.0000000E+00  0.4884999E-02
    1       -5.730332   1.000000
    2       -1.318881   1.000000
    3        1.173878   1.000000
    4        1.454433   1.000000
    5        4.587505   0.000000
    6        5.342944   0.000000
    7        8.187070   0.000000
    8        8.627390   0.000000
 
  0.4705882E+00  0.2941176E+00  0.0000000E+00  0.4884999E-02
    1       -5.601422   1.000000
    2       -1.553383   1.000000
    3        0.887275   1.000000
    4        1.445483   1.000000
    5        4.638279   0.000000
    6        5.767364   0.000000
    7        8.061820   0.000000
    8        8.590090   0.000000
 
 -0.4705882E+00  0.2941176E+00  0.0000000E+00  0.4884999E-02
    1       -5.510533   1.000000
    2       -1.700785   1.000000
    3        0.635358   1.000000
    4        1.483894   1.000000
    5        4.670357   0.000000
    6        6.383183   0.000000
    7        7.977830   0.000000
    8        8.461160   0.000000
 
 -0.4117647E+00  0.2941176E+00  0.0000000E+00  0.4884999E-02
    1       -5.479772   1.000000
    2       -1.740625   1.000000
    3        0.458054   1.000000
    4        1.567462   1.000000
    5        4.727373   0.000000
    6        7.052330   0.000000
    7        7.982259   0.000000
    8        8.269918   0.000000
 
 -0.3529412E+00  0.2941176E+00  0.0000000E+00  0.4884999E-02
    1       -5.517111   1.000000
    2       -1.675294   1.000000
    3        0.385698   1.000000
    4        1.691071   1.000000
    5        4.812354   0.000000
    6        7.517834   0.000000
    7        8.010436   0.000000
    8        8.136889   0.000000
 
 -0.2941176E+00  0.2941176E+00  0.0000000E+00  0.2442499E-02
    1       -5.611606   1.000000
    2       -1.534084   1.000000
    3        0.445690   1.000000
    4        1.845757   1.000000
    5        4.901621   0.000000
    6        7.639346   0.000000
    7        7.666405   0.000000
    8        7.763964   0.000000
 
  0.3529412E+00  0.3529412E+00  0.0000000E+00  0.1221250E-02
    1       -5.756494   1.000000
    2       -1.265293   1.000000
    3        1.400129   1.000000
    4        1.400129   1.000000
    5        4.326835   0.000000
    6        4.998527   0.000000
    7        8.946726   0.000000
    8        8.946755   0.000000
 
  0.4117647E+00  0.3529412E+00  0.0000000E+00  0.4884999E-02
    1       -5.633957   1.000000
    2       -1.497058   1.000000
    3        1.243241   1.000000
    4        1.333646   1.000000
    5        4.378900   0.000000
    6        4.923813   0.000000
    7        9.004017   0.000000
    8        9.192996   0.000000
 
  0.4705882E+00  0.3529412E+00  0.0000000E+00  0.4884999E-02
    1       -5.522754   1.000000
    2       -1.681731   1.000000
    3        0.984096   1.000000
    4        1.314635   1.000000
    5        4.488552   0.000000
    6        5.130667   0.000000
    7        8.878248   0.000000
    8        9.231787   0.000000
 
 -0.4705882E+00  0.3529412E+00  0.0000000E+00  0.4884999E-02
    1       -5.443931   1.000000
    2       -1.791368   1.000000
    3        0.704349   1.000000
    4        1.343999   1.000000
    5        4.542286   0.000000
    6        5.652295   0.000000
    7        8.743434   0.000000
    8        9.110372   0.000000
 
 -0.4117647E+00  0.3529412E+00  0.0000000E+00  0.4884999E-02
    1       -5.414976   1.000000
    2       -1.815032   1.000000
    3        0.476686   1.000000
    4        1.420118   1.000000
    5        4.607735   0.000000
    6        6.344795   0.000000
    7        8.613985   0.000000
    8        8.864240   0.000000
 
 -0.3529412E+00  0.3529412E+00  0.0000000E+00  0.2442499E-02
    1       -5.442035   1.000000
    2       -1.765116   1.000000
    3        0.356042   1.000000
    4        1.538529   1.000000
    5        4.704383   0.000000
    6        7.102547   0.000000
    7        8.394465   0.000000
    8        8.490981   0.000000
 
  0.4117647E+00  0.4117647E+00  0.0000000E+00  0.1221250E-02
    1       -5.535399   1.000000
    2       -1.679558   1.000000
    3        1.255735   1.000000
    4        1.255735   1.000000
    5        4.274371   0.000000
    6        4.697855   0.000000
    7        9.617113   0.000000
    8        9.617118   0.000000
 
  0.4705882E+00  0.4117647E+00  0.0000000E+00  0.4884999E-02
    1       -5.450806   1.000000
    2       -1.818363   1.000000
    3        1.124961   1.000000
    4        1.225168   1.000000
    5        4.360392   0.000000
    6        4.671554   0.000000
    7        9.670980   0.000000
    8        9.789461   0.000000
 
 -0.4705882E+00  0.4117647E+00  0.0000000E+00  0.4884999E-02
    1       -5.396729   1.000000
    2       -1.885909   1.000000
    3        0.887815   1.000000
    4        1.243490   1.000000
    5        4.442712   0.000000
    6        5.002375   0.000000
    7        9.515892   0.000000
    8        9.694754   0.000000
 
 -0.4117647E+00  0.4117647E+00  0.0000000E+00  0.2442499E-02
    1       -5.384403   1.000000
    2       -1.877530   1.000000
    3        0.642426   1.000000
    4        1.309721   1.000000
    5        4.507776   0.000000
    6        5.608068   0.000000
    7        9.216028   0.000000
    8        9.370524   0.000000
 
  0.4705882E+00  0.4705882E+00  0.0000000E+00  0.1221250E-02
    1       -5.399461   1.000000
    2       -1.912258   1.000000
    3        1.182418   1.000000
    4        1.182418   1.000000
    5        4.313967   0.000000
    6        4.467824   0.000000
    7       10.112002   0.000000
    8       10.112004   0.000000
 
 -0.4705882E+00  0.4705882E+00  0.0000000E+00  0.2442499E-02
    1       -5.380134   1.000000
    2       -1.935196   1.000000
    3        1.085166   1.000000
    4        1.188635   1.000000
    5        4.389716   0.000000
    6        4.547540   0.000000
    7       10.023469   0.000000
    8       10.073865   0.000000
 
  0.1764706E+00  0.1176471E+00  0.5882353E-01  0.4884999E-02
    1       -6.566427   1.000000
    2        1.065900   1.000000
    3        2.379192   1.000000
    4        2.630626   1.000000
    5        4.317653   0.000000
    6        5.613798   0.000000
    7        6.266600   0.000000
    8        6.518696   0.000000
 
  0.2352941E+00  0.1176471E+00  0.5882353E-01  0.9769998E-02
    1       -6.455495   1.000000
    2        0.493508   1.000000
    3        2.140707   1.000000
    4        2.548438   1.000000
    5        4.489701   0.000000
    6        5.728272   0.000000
    7        6.477767   0.000000
    8        6.896036   0.000000
 
  0.2941176E+00  0.1176471E+00  0.5882353E-01  0.9769998E-02
    1       -6.309971   1.000000
    2       -0.101592   1.000000
    3        1.945703   1.000000
    4        2.425416   1.000000
    5        4.495428   0.000000
    6        5.962846   0.000000
    7        6.693060   0.000000
    8        7.257888   0.000000
 
  0.3529412E+00  0.1176471E+00  0.5882353E-01  0.9769998E-02
    1       -6.142056   1.000000
    2       -0.659682   1.000000
    3        1.793341   1.000000
    4        2.291853   1.000000
    5        4.423025   0.000000
    6        6.182119   0.000000
    7        6.806301   0.000000
    8        7.674928   0.000000
 
  0.4117647E+00  0.1176471E+00  0.5882353E-01  0.9769998E-02
    1       -5.971262   1.000000
    2       -1.137098   1.000000
    3        1.682289   1.000000
    4        2.172225   1.000000
    5        4.338533   0.000000
    6        6.306824   0.000000
    7        6.819364   0.000000
    8        8.198004   0.000000
 
  0.4705882E+00  0.1176471E+00  0.5882353E-01  0.9769998E-02
    1       -5.825979   1.000000
    2       -1.492428   1.000000
    3        1.610561   1.000000
    4        2.083343   1.000000
    5        4.271931   0.000000
    6        6.353566   0.000000
    7        6.792972   0.000000
    8        8.773245   0.000000
 
 -0.4705882E+00  0.1176471E+00  0.5882353E-01  0.9769998E-02
    1       -5.740364   1.000000
    2       -1.684612   1.000000
    3        1.575636   1.000000
    4        2.036097   1.000000
    5        4.236150   0.000000
    6        6.365121   0.000000
    7        6.769921   0.000000
    8        9.210031   0.000000
 
  0.2352941E+00  0.1764706E+00  0.5882353E-01  0.4884999E-02
    1       -6.416975   1.000000
    2        0.417412   1.000000
    3        2.062456   1.000000
    4        2.299961   1.000000
    5        4.782933   0.000000
    6        5.412106   0.000000
    7        6.842185   0.000000
    8        6.981309   0.000000
 
  0.2941176E+00  0.1764706E+00  0.5882353E-01  0.9769998E-02
    1       -6.284585   1.000000
    2       -0.075916   1.000000
    3        1.810749   1.000000
    4        2.200643   1.000000
    5        4.871640   0.000000
    6        5.550405   0.000000
    7        7.084636   0.000000
    8        7.179986   0.000000
 
  0.3529412E+00  0.1764706E+00  0.5882353E-01  0.9769998E-02
    1       -6.126147   1.000000
    2       -0.578478   1.000000
    3        1.600481   1.000000
    4        2.078001   1.000000
    5        4.848229   0.000000
    6        5.827719   0.000000
    7        7.193680   0.000000
    8        7.343615   0.000000
 