 running on   48 total cores
 distrk:  each k-point on   12 cores,    4 groups
 distr:  one band on   12 cores,    1 groups
 using from now: INCAR     
 vasp.5.4.4.18Apr17-6-g9f103f2a35 (build Nov 04 2020 14:40:39) complex          
  
 POSCAR found type information on POSCAR  Al Sb
 POSCAR found :  2 types and       2 ions
 scaLAPACK will be used

 ----------------------------------------------------------------------------- 
|                                                                             |
|           W    W    AA    RRRRR   N    N  II  N    N   GGGG   !!!           |
|           W    W   A  A   R    R  NN   N  II  NN   N  G    G  !!!           |
|           W    W  A    A  R    R  N N  N  II  N N  N  G       !!!           |
|           W WW W  AAAAAA  RRRRR   N  N N  II  N  N N  G  GGG   !            |
|           WW  WW  A    A  R   R   N   NN  II  N   NN  G    G                |
|           W    W  A    A  R    R  N    N  II  N    N   GGGG   !!!           |
|                                                                             |
|      You have enabled k-point parallelism (KPAR>1).                         |
|      This developmental code was originally  written by Paul Kent at ORNL,  |
|      and carefully double checked in Vienna.                                |
|      GW as well as linear response parallelism added by Martijn Marsman     |
|      and Georg Kresse.                                                      |
|      Carefully verify results versus KPAR=1.                                |
|      Report problems to Paul Kent and Vienna.                               |
|                                                                             |
 ----------------------------------------------------------------------------- 

 LDA part: xc-table for Pade appr. of Perdew
 POSCAR found type information on POSCAR  Al Sb
 POSCAR found :  2 types and       2 ions
 generate k-points for:   17   17   17
 POSCAR, INCAR and KPOINTS ok, starting setup
 FFT: planning ...
 WAVECAR not read
 entering main loop
       N       E                     dE             d eps       ncg     rms          rms(c)
DAV:   1     0.121007383302E+02    0.12101E+02   -0.26664E+03  2640   0.717E+02
DAV:   2    -0.749245232078E+01   -0.19593E+02   -0.19272E+02  3544   0.788E+01
DAV:   3    -0.798786866187E+01   -0.49542E+00   -0.49542E+00  3648   0.142E+01
DAV:   4    -0.799098786089E+01   -0.31192E-02   -0.31192E-02  3832   0.135E+00
DAV:   5    -0.799100172589E+01   -0.13865E-04   -0.13865E-04  3576   0.842E-02    0.185E+00
RMM:   6    -0.794188292794E+01    0.49119E-01   -0.56312E-02  2642   0.125E+00    0.111E+00
RMM:   7    -0.793284740606E+01    0.90355E-02   -0.40896E-02  2701   0.121E+00    0.293E-01
RMM:   8    -0.793346263807E+01   -0.61523E-03   -0.44149E-03  2684   0.477E-01    0.431E-02
RMM:   9    -0.793394225918E+01   -0.47962E-03   -0.70915E-04  2772   0.184E-01    0.131E-02
RMM:  10    -0.793397253677E+01   -0.30278E-04   -0.65270E-05  2968   0.608E-02    0.345E-03
RMM:  11    -0.793397666760E+01   -0.41308E-05   -0.75143E-06  2970   0.229E-02    0.119E-03
RMM:  12    -0.793397728943E+01   -0.62184E-06   -0.60496E-07  2277   0.753E-03
   1 F= -.79339773E+01 E0= -.79339773E+01  d E =0.000000E+00
