unknown system                          
           1
     0.000000    3.312112    3.312112
     3.312112    0.000000    3.312112
     3.312112    3.312112    0.000000
   Al   Sb
   1   1
Direct configuration=     1
   0.25000000  0.25000000  0.25000000
   0.00000000  0.00000000  0.00000000
