   3   3   0   0
  0.2531805E+02  0.4753595E-09  0.4753595E-09  0.4753595E-09  0.5000000E-15
  1.000000000000000E-004
  CAR
 unknown system
     12.40866775    -36.83448705  301      9.55752520      1.00000000
    -36.834  0.0000E+00  0.0000E+00
    -36.670  0.0000E+00  0.0000E+00
    -36.506  0.0000E+00  0.0000E+00
    -36.342  0.0000E+00  0.0000E+00
    -36.178  0.0000E+00  0.0000E+00
    -36.014  0.0000E+00  0.0000E+00
    -35.850  0.0000E+00  0.0000E+00
    -35.685  0.0000E+00  0.0000E+00
    -35.521  0.0000E+00  0.0000E+00
    -35.357  0.0000E+00  0.0000E+00
    -35.193  0.0000E+00  0.0000E+00
    -35.029  0.0000E+00  0.0000E+00
    -34.865  0.0000E+00  0.0000E+00
    -34.701  0.0000E+00  0.0000E+00
    -34.536  0.1218E+02  0.2000E+01
    -34.372  0.0000E+00  0.2000E+01
    -34.208  0.0000E+00  0.2000E+01
    -34.044  0.0000E+00  0.2000E+01
    -33.880  0.0000E+00  0.2000E+01
    -33.716  0.0000E+00  0.2000E+01
    -33.552  0.0000E+00  0.2000E+01
    -33.387  0.0000E+00  0.2000E+01
    -33.223  0.0000E+00  0.2000E+01
    -33.059  0.0000E+00  0.2000E+01
    -32.895  0.0000E+00  0.2000E+01
    -32.731  0.0000E+00  0.2000E+01
    -32.567  0.0000E+00  0.2000E+01
    -32.403  0.0000E+00  0.2000E+01
    -32.238  0.0000E+00  0.2000E+01
    -32.074  0.0000E+00  0.2000E+01
    -31.910  0.0000E+00  0.2000E+01
    -31.746  0.0000E+00  0.2000E+01
    -31.582  0.0000E+00  0.2000E+01
    -31.418  0.0000E+00  0.2000E+01
    -31.254  0.0000E+00  0.2000E+01
    -31.089  0.0000E+00  0.2000E+01
    -30.925  0.0000E+00  0.2000E+01
    -30.761  0.0000E+00  0.2000E+01
    -30.597  0.0000E+00  0.2000E+01
    -30.433  0.0000E+00  0.2000E+01
    -30.269  0.0000E+00  0.2000E+01
    -30.105  0.0000E+00  0.2000E+01
    -29.940  0.0000E+00  0.2000E+01
    -29.776  0.0000E+00  0.2000E+01
    -29.612  0.0000E+00  0.2000E+01
    -29.448  0.0000E+00  0.2000E+01
    -29.284  0.0000E+00  0.2000E+01
    -29.120  0.0000E+00  0.2000E+01
    -28.956  0.0000E+00  0.2000E+01
    -28.791  0.0000E+00  0.2000E+01
    -28.627  0.0000E+00  0.2000E+01
    -28.463  0.0000E+00  0.2000E+01
    -28.299  0.0000E+00  0.2000E+01
    -28.135  0.0000E+00  0.2000E+01
    -27.971  0.0000E+00  0.2000E+01
    -27.807  0.0000E+00  0.2000E+01
    -27.642  0.0000E+00  0.2000E+01
    -27.478  0.0000E+00  0.2000E+01
    -27.314  0.0000E+00  0.2000E+01
    -27.150  0.0000E+00  0.2000E+01
    -26.986  0.0000E+00  0.2000E+01
    -26.822  0.0000E+00  0.2000E+01
    -26.658  0.0000E+00  0.2000E+01
    -26.493  0.0000E+00  0.2000E+01
    -26.329  0.0000E+00  0.2000E+01
    -26.165  0.0000E+00  0.2000E+01
    -26.001  0.0000E+00  0.2000E+01
    -25.837  0.0000E+00  0.2000E+01
    -25.673  0.0000E+00  0.2000E+01
    -25.509  0.0000E+00  0.2000E+01
    -25.344  0.0000E+00  0.2000E+01
    -25.180  0.0000E+00  0.2000E+01
    -25.016  0.0000E+00  0.2000E+01
    -24.852  0.0000E+00  0.2000E+01
    -24.688  0.0000E+00  0.2000E+01
    -24.524  0.0000E+00  0.2000E+01
    -24.360  0.0000E+00  0.2000E+01
    -24.195  0.0000E+00  0.2000E+01
    -24.031  0.0000E+00  0.2000E+01
    -23.867  0.0000E+00  0.2000E+01
    -23.703  0.0000E+00  0.2000E+01
    -23.539  0.0000E+00  0.2000E+01
    -23.375  0.0000E+00  0.2000E+01
    -23.211  0.0000E+00  0.2000E+01
    -23.046  0.0000E+00  0.2000E+01
    -22.882  0.0000E+00  0.2000E+01
    -22.718  0.0000E+00  0.2000E+01
    -22.554  0.0000E+00  0.2000E+01
    -22.390  0.0000E+00  0.2000E+01
    -22.226  0.0000E+00  0.2000E+01
    -22.062  0.0000E+00  0.2000E+01
    -21.897  0.0000E+00  0.2000E+01
    -21.733  0.0000E+00  0.2000E+01
    -21.569  0.0000E+00  0.2000E+01
    -21.405  0.0000E+00  0.2000E+01
    -21.241  0.0000E+00  0.2000E+01
    -21.077  0.0000E+00  0.2000E+01
    -20.913  0.0000E+00  0.2000E+01
    -20.748  0.0000E+00  0.2000E+01
    -20.584  0.0000E+00  0.2000E+01
    -20.420  0.0000E+00  0.2000E+01
    -20.256  0.0000E+00  0.2000E+01
    -20.092  0.0000E+00  0.2000E+01
    -19.928  0.0000E+00  0.2000E+01
    -19.764  0.0000E+00  0.2000E+01
    -19.599  0.0000E+00  0.2000E+01
    -19.435  0.0000E+00  0.2000E+01
    -19.271  0.0000E+00  0.2000E+01
    -19.107  0.0000E+00  0.2000E+01
    -18.943  0.0000E+00  0.2000E+01
    -18.779  0.0000E+00  0.2000E+01
    -18.615  0.0000E+00  0.2000E+01
    -18.450  0.0000E+00  0.2000E+01
    -18.286  0.0000E+00  0.2000E+01
    -18.122  0.0000E+00  0.2000E+01
    -17.958  0.0000E+00  0.2000E+01
    -17.794  0.0000E+00  0.2000E+01
    -17.630  0.0000E+00  0.2000E+01
    -17.466  0.0000E+00  0.2000E+01
    -17.301  0.0000E+00  0.2000E+01
    -17.137  0.0000E+00  0.2000E+01
    -16.973  0.0000E+00  0.2000E+01
    -16.809  0.0000E+00  0.2000E+01
    -16.645  0.0000E+00  0.2000E+01
    -16.481  0.0000E+00  0.2000E+01
    -16.317  0.0000E+00  0.2000E+01
    -16.152  0.0000E+00  0.2000E+01
    -15.988  0.0000E+00  0.2000E+01
    -15.824  0.0000E+00  0.2000E+01
    -15.660  0.0000E+00  0.2000E+01
    -15.496  0.0000E+00  0.2000E+01
    -15.332  0.0000E+00  0.2000E+01
    -15.167  0.0000E+00  0.2000E+01
    -15.003  0.0000E+00  0.2000E+01
    -14.839  0.0000E+00  0.2000E+01
    -14.675  0.0000E+00  0.2000E+01
    -14.511  0.0000E+00  0.2000E+01
    -14.347  0.0000E+00  0.2000E+01
    -14.183  0.0000E+00  0.2000E+01
    -14.018  0.0000E+00  0.2000E+01
    -13.854  0.0000E+00  0.2000E+01
    -13.690  0.0000E+00  0.2000E+01
    -13.526  0.0000E+00  0.2000E+01
    -13.362  0.2699E-09  0.2000E+01
    -13.198  0.3655E+02  0.1200E+02
    -13.034  0.0000E+00  0.1200E+02
    -12.869  0.0000E+00  0.1200E+02
    -12.705  0.0000E+00  0.1200E+02
    -12.541  0.0000E+00  0.1200E+02
    -12.377  0.0000E+00  0.1200E+02
    -12.213  0.0000E+00  0.1200E+02
    -12.049  0.0000E+00  0.1200E+02
    -11.885  0.0000E+00  0.1200E+02
    -11.720  0.0000E+00  0.1200E+02
    -11.556  0.0000E+00  0.1200E+02
    -11.392  0.0000E+00  0.1200E+02
    -11.228  0.0000E+00  0.1200E+02
    -11.064  0.0000E+00  0.1200E+02
    -10.900  0.0000E+00  0.1200E+02
    -10.736  0.0000E+00  0.1200E+02
    -10.571  0.0000E+00  0.1200E+02
    -10.407  0.0000E+00  0.1200E+02
    -10.243  0.0000E+00  0.1200E+02
    -10.079  0.1497E-09  0.1200E+02
     -9.915  0.9905E+01  0.1403E+02
     -9.751  0.6455E+01  0.1800E+02
     -9.587  0.0000E+00  0.1800E+02
     -9.422  0.0000E+00  0.1800E+02
     -9.258  0.0000E+00  0.1800E+02
     -9.094  0.0000E+00  0.1800E+02
     -8.930  0.0000E+00  0.1800E+02
     -8.766  0.0000E+00  0.1800E+02
     -8.602  0.0000E+00  0.1800E+02
     -8.438  0.0000E+00  0.1800E+02
     -8.273  0.0000E+00  0.1800E+02
     -8.109  0.0000E+00  0.1800E+02
     -7.945  0.0000E+00  0.1800E+02
     -7.781  0.0000E+00  0.1800E+02
     -7.617  0.0000E+00  0.1800E+02
     -7.453  0.0000E+00  0.1800E+02
     -7.289  0.0000E+00  0.1800E+02
     -7.124  0.0000E+00  0.1800E+02
     -6.960  0.0000E+00  0.1800E+02
     -6.796  0.0000E+00  0.1800E+02
     -6.632  0.0000E+00  0.1800E+02
     -6.468  0.0000E+00  0.1800E+02
     -6.304  0.0000E+00  0.1800E+02
     -6.140  0.0000E+00  0.1800E+02
     -5.975  0.0000E+00  0.1800E+02
     -5.811  0.0000E+00  0.1800E+02
     -5.647  0.0000E+00  0.1800E+02
     -5.483  0.0000E+00  0.1800E+02
     -5.319  0.0000E+00  0.1800E+02
     -5.155  0.0000E+00  0.1800E+02
     -4.991  0.0000E+00  0.1800E+02
     -4.826  0.0000E+00  0.1800E+02
     -4.662  0.0000E+00  0.1800E+02
     -4.498  0.0000E+00  0.1800E+02
     -4.334  0.0000E+00  0.1800E+02
     -4.170  0.0000E+00  0.1800E+02
     -4.006  0.0000E+00  0.1800E+02
     -3.842  0.0000E+00  0.1800E+02
     -3.677  0.0000E+00  0.1800E+02
     -3.513  0.0000E+00  0.1800E+02
     -3.349  0.0000E+00  0.1800E+02
     -3.185  0.0000E+00  0.1800E+02
     -3.021  0.0000E+00  0.1800E+02
     -2.857  0.0000E+00  0.1800E+02
     -2.693  0.2305E-01  0.1800E+02
     -2.528  0.1972E+00  0.1805E+02
     -2.364  0.2662E+00  0.1810E+02
     -2.200  0.1499E+00  0.1817E+02
     -2.036  0.4341E+00  0.1833E+02
     -1.872  0.2369E+01  0.1901E+02
     -1.708  0.1723E+01  0.1989E+02
     -1.544  0.0000E+00  0.2000E+02
     -1.379  0.0000E+00  0.2000E+02
     -1.215  0.0000E+00  0.2000E+02
     -1.051  0.0000E+00  0.2000E+02
     -0.887  0.0000E+00  0.2000E+02
     -0.723  0.0000E+00  0.2000E+02
     -0.559  0.0000E+00  0.2000E+02
     -0.395  0.0000E+00  0.2000E+02
     -0.230  0.0000E+00  0.2000E+02
     -0.066  0.0000E+00  0.2000E+02
      0.098  0.0000E+00  0.2000E+02
      0.262  0.0000E+00  0.2000E+02
      0.426  0.0000E+00  0.2000E+02
      0.590  0.0000E+00  0.2000E+02
      0.754  0.0000E+00  0.2000E+02
      0.919  0.0000E+00  0.2000E+02
      1.083  0.0000E+00  0.2000E+02
      1.247  0.0000E+00  0.2000E+02
      1.411  0.0000E+00  0.2000E+02
      1.575  0.0000E+00  0.2000E+02
      1.739  0.0000E+00  0.2000E+02
      1.903  0.0000E+00  0.2000E+02
      2.068  0.0000E+00  0.2000E+02
      2.232  0.0000E+00  0.2000E+02
      2.396  0.0000E+00  0.2000E+02
      2.560  0.0000E+00  0.2000E+02
      2.724  0.0000E+00  0.2000E+02
      2.888  0.0000E+00  0.2000E+02
      3.052  0.0000E+00  0.2000E+02
      3.217  0.0000E+00  0.2000E+02
      3.381  0.0000E+00  0.2000E+02
      3.545  0.2220E+00  0.2004E+02
      3.709  0.1085E+01  0.2030E+02
      3.873  0.1826E+01  0.2095E+02
      4.037  0.2107E+00  0.2117E+02
      4.201  0.6840E+00  0.2149E+02
      4.366  0.4017E+00  0.2168E+02
      4.530  0.3114E+01  0.2233E+02
      4.694  0.2767E+01  0.2355E+02
      4.858  0.3203E+01  0.2451E+02
      5.022  0.2704E+01  0.2539E+02
      5.186  0.9650E+00  0.2601E+02
      5.350  0.2995E+00  0.2607E+02
      5.515  0.7588E+01  0.2742E+02
      5.679  0.4680E+01  0.2905E+02
      5.843  0.1939E+01  0.3027E+02
      6.007  0.1456E+01  0.3070E+02
      6.171  0.1562E+01  0.3129E+02
      6.335  0.7365E+00  0.3154E+02
      6.499  0.1041E+01  0.3182E+02
      6.664  0.8557E+00  0.3200E+02
      6.828  0.7203E+00  0.3216E+02
      6.992  0.4930E+00  0.3247E+02
      7.156  0.5080E+00  0.3268E+02
      7.320  0.9623E+00  0.3303E+02
      7.484  0.3301E+00  0.3321E+02
      7.648  0.1065E+01  0.3355E+02
      7.813  0.4587E+00  0.3369E+02
      7.977  0.5534E+01  0.3510E+02
      8.141  0.1005E+01  0.3581E+02
      8.305  0.2768E+00  0.3597E+02
      8.469  0.1054E+00  0.3600E+02
      8.633  0.1086E-02  0.3600E+02
      8.798  0.1343E+00  0.3603E+02
      8.962  0.1069E+01  0.3623E+02
      9.126  0.1798E+01  0.3679E+02
      9.290  0.2421E+01  0.3757E+02
      9.454  0.4569E+00  0.3799E+02
      9.618  0.1406E+02  0.4069E+02
      9.782  0.5529E+01  0.4274E+02
      9.947  0.9584E+01  0.4643E+02
     10.111  0.1223E+01  0.4799E+02
     10.275  0.0000E+00  0.4800E+02
     10.439  0.0000E+00  0.4800E+02
     10.603  0.0000E+00  0.4800E+02
     10.767  0.0000E+00  0.4800E+02
     10.931  0.0000E+00  0.4800E+02
     11.096  0.0000E+00  0.4800E+02
     11.260  0.0000E+00  0.4800E+02
     11.424  0.0000E+00  0.4800E+02
     11.588  0.0000E+00  0.4800E+02
     11.752  0.0000E+00  0.4800E+02
     11.916  0.0000E+00  0.4800E+02
     12.080  0.0000E+00  0.4800E+02
     12.245  0.0000E+00  0.4800E+02
     12.409  0.0000E+00  0.4800E+02
