    3    3    1    1
  0.2531805E+02  0.4753595E-09  0.4753595E-09  0.4753595E-09  0.5000000E-15
  1.000000000000000E-004
  CAR
 unknown system
     39     84     24

  0.0000000E+00  0.0000000E+00  0.0000000E+00  0.4551661E-03
    1      -34.596162   1.000000
    2      -13.295013   1.000000
    3      -13.295013   1.000000
    4      -13.268617   1.000000
    5      -13.268617   1.000000
    6      -13.268617   1.000000
    7       -9.852495   1.000000
    8       -9.852495   1.000000
    9       -9.852495   1.000000
   10       -2.752261   1.000000
   11        5.103567   1.000000
   12        5.103567   1.000000
   13        5.103567   1.000000
   14        5.386303   1.000000
   15        5.386303   1.000000
   16        7.835488   1.000000
   17        8.445800   1.000000
   18        8.445800   1.000000
   19        8.445800   1.000000
   20        9.551897   0.786984
   21        9.551897   0.786979
   22        9.551897   0.786971
   23        9.631146   0.000000
   24        9.776449   0.000000

  0.7692308E-01  0.3005222E-17 -0.4191084E-17  0.3641329E-02
    1      -34.595956   1.000000
    2      -13.296353   1.000000
    3      -13.296353   1.000000
    4      -13.268853   1.000000
    5      -13.268451   1.000000
    6      -13.268451   1.000000
    7       -9.864757   1.000000
    8       -9.849700   1.000000
    9       -9.849700   1.000000
   10       -2.690656   1.000000
   11        4.976784   1.000000
   12        5.001541   1.000000
   13        5.001541   1.000000
   14        5.482019   1.000000
   15        5.482019   1.000000
   16        7.511704   1.000000
   17        8.389312   1.000000
   18        8.389312   1.000000
   19        8.647283   1.000000
   20        9.492202   1.000000
   21        9.532502   0.999799
   22        9.532502   0.999799
   23        9.768432   0.000000
   24        9.852969   0.000000

  0.1538462E+00 -0.3558185E-18 -0.2015906E-17  0.3641329E-02
    1      -34.595377   1.000000
    2      -13.300050   1.000000
    3      -13.300050   1.000000
    4      -13.269558   1.000000
    5      -13.267941   1.000000
    6      -13.267941   1.000000
    7       -9.897687   1.000000
    8       -9.841962   1.000000
    9       -9.841962   1.000000
   10       -2.518460   1.000000
   11        4.656707   1.000000
   12        4.849627   1.000000
   13        4.849627   1.000000
   14        5.605879   1.000000
   15        5.605879   1.000000
   16        6.984473   1.000000
   17        8.265298   1.000000
   18        8.265298   1.000000
   19        8.739134   1.000000
   20        9.517838   1.000000
   21        9.517838   1.000000
   22        9.687438   0.000000
   23        9.921755   0.000000
   24        9.951627   0.000000

  0.2307692E+00  0.1541434E-17 -0.5099020E-17  0.3641329E-02
    1      -34.594561   1.000000
    2      -13.305280   1.000000
    3      -13.305280   1.000000
    4      -13.270699   1.000000
    5      -13.267170   1.000000
    6      -13.267170   1.000000
    7       -9.941657   1.000000
    8       -9.831112   1.000000
    9       -9.831112   1.000000
   10       -2.271519   1.000000
   11        4.261517   1.000000
   12        4.732501   1.000000
   13        4.732501   1.000000
   14        5.656100   1.000000
   15        5.656100   1.000000
   16        6.478330   1.000000
   17        8.153215   1.000000
   18        8.153215   1.000000
   19        8.740681   1.000000
   20        9.524791   0.999998
   21        9.524791   0.999998
   22        9.784296   0.000000
   23        9.827748   0.000000
   24       10.049655   0.000000

  0.3076923E+00 -0.7116371E-18 -0.4031812E-17  0.3641329E-02
    1      -34.593695   1.000000
    2      -13.310830   1.000000
    3      -13.310830   1.000000
    4      -13.272121   1.000000
    5      -13.266321   1.000000
    6      -13.266321   1.000000
    7       -9.985381   1.000000
    8       -9.819661   1.000000
    9       -9.819661   1.000000
   10       -2.003240   1.000000
   11        3.891049   1.000000
   12        4.667290   1.000000
   13        4.667290   1.000000
   14        5.616593   1.000000
   15        5.616593   1.000000
   16        6.069962   1.000000
   17        8.095742   1.000000
   18        8.095742   1.000000
   19        8.778225   1.000000
   20        9.549588   0.869169
   21        9.549588   0.869168
   22        9.788845   0.000000
   23        9.890784   0.000000
   24       10.015633   0.000000

  0.3846154E+00  0.1284746E-16 -0.1877678E-16  0.3641329E-02
    1      -34.592978   1.000000
    2      -13.315416   1.000000
    3      -13.315416   1.000000
    4      -13.273459   1.000000
    5      -13.265594   1.000000
    6      -13.265594   1.000000
    7      -10.019463   1.000000
    8       -9.810223   1.000000
    9       -9.810223   1.000000
   10       -1.775388   1.000000
   11        3.611866   1.000000
   12        4.649347   1.000000
   13        4.649347   1.000000
   14        5.525377   1.000000
   15        5.525377   1.000000
   16        5.792273   1.000000
   17        8.084739   1.000000
   18        8.084739   1.000000
   19        8.849103   1.000000
   20        9.587272   0.000013
   21        9.587272   0.000013
   22        9.932050   0.000000
   23        9.938356   0.000000
   24        9.940244   0.000000

  0.4615385E+00 -0.8297428E-17  0.1182254E-17  0.3641329E-02
    1      -34.592574   1.000000
    2      -13.317995   1.000000
    3      -13.317995   1.000000
    4      -13.274273   1.000000
    5      -13.265176   1.000000
    6      -13.265176   1.000000
    7      -10.037882   1.000000
    8       -9.804918   1.000000
    9       -9.804918   1.000000
   10       -1.644332   1.000000
   11        3.463343   1.000000
   12        4.655165   1.000000
   13        4.655165   1.000000
   14        5.450827   1.000000
   15        5.450827   1.000000
   16        5.653623   1.000000
   17        8.089851   1.000000
   18        8.089851   1.000000
   19        8.909059   1.000000
   20        9.623155   0.000000
   21        9.623155   0.000000
   22        9.871598   0.000000
   23        9.874939   0.000000
   24        9.944908   0.000000

  0.7692308E-01  0.7692308E-01 -0.1304117E-17  0.2730997E-02
    1      -34.595887   1.000000
    2      -13.298648   1.000000
    3      -13.294688   1.000000
    4      -13.269031   1.000000
    5      -13.268340   1.000000
    6      -13.268340   1.000000
    7       -9.858900   1.000000
    8       -9.853873   1.000000
    9       -9.853873   1.000000
   10       -2.671507   1.000000
   11        4.744726   1.000000
   12        5.117564   1.000000
   13        5.117564   1.000000
   14        5.400227   1.000000
   15        5.522874   1.000000
   16        7.492008   1.000000
   17        8.298451   1.000000
   18        8.298451   1.000000
   19        8.809774   1.000000
   20        9.417130   1.000000
   21        9.545710   0.952636
   22        9.545710   0.952636
   23        9.786674   0.000000
   24        9.793689   0.000000

  0.1538462E+00  0.7692308E-01 -0.1965464E-18  0.1092399E-01
    1      -34.595434   1.000000
    2      -13.302745   1.000000
    3      -13.295750   1.000000
    4      -13.269590   1.000000
    5      -13.267975   1.000000
    6      -13.267877   1.000000
    7       -9.884052   1.000000
    8       -9.852321   1.000000
    9       -9.844880   1.000000
   10       -2.540427   1.000000
   11        4.469325   1.000000
   12        5.011158   1.000000
   13        5.043521   1.000000
   14        5.484724   1.000000
   15        5.615177   1.000000
   16        7.142162   1.000000
   17        8.158339   1.000000
   18        8.163822   1.000000
   19        8.925533   1.000000
   20        9.480521   1.000000
   21        9.538179   0.996890
   22        9.610010   0.000000
   23        9.792097   0.000000
   24        9.910107   0.000000

  0.2307692E+00  0.7692308E-01 -0.4387630E-17  0.1092399E-01
    1      -34.594700   1.000000
    2      -13.307694   1.000000
    3      -13.299340   1.000000
    4      -13.270471   1.000000
    5      -13.267449   1.000000
    6      -13.267110   1.000000
    7       -9.924651   1.000000
    8       -9.845431   1.000000
    9       -9.832785   1.000000
   10       -2.325691   1.000000
   11        4.185586   1.000000
   12        4.806253   1.000000
   13        4.930620   1.000000
   14        5.557973   1.000000
   15        5.699518   1.000000
   16        6.678281   1.000000
   17        8.014582   1.000000
   18        8.059826   1.000000
   19        8.908526   1.000000
   20        9.510291   1.000000
   21        9.535994   0.998837
   22        9.787964   0.000000
   23        9.794716   0.000000
   24       10.013422   0.000000

  0.3076923E+00  0.7692308E-01 -0.1055039E-16  0.1092399E-01
    1      -34.593854   1.000000
    2      -13.312385   1.000000
    3      -13.304590   1.000000
    4      -13.271635   1.000000
    5      -13.266795   1.000000
    6      -13.266225   1.000000
    7       -9.968394   1.000000
    8       -9.834833   1.000000
    9       -9.821820   1.000000
   10       -2.074635   1.000000
   11        3.910182   1.000000
   12        4.651021   1.000000
   13        4.844177   1.000000
   14        5.547092   1.000000
   15        5.708315   1.000000
   16        6.242711   1.000000
   17        7.930858   1.000000
   18        8.020110   1.000000
   19        8.896119   1.000000
   20        9.542920   0.980562
   21        9.548219   0.905930
   22        9.796862   0.000000
   23        9.856663   0.000000
   24       10.007628   0.000000

  0.3846154E+00  0.7692308E-01 -0.6403536E-17  0.1092399E-01
    1      -34.593090   1.000000
    2      -13.315763   1.000000
    3      -13.310240   1.000000
    4      -13.272856   1.000000
    5      -13.266132   1.000000
    6      -13.265461   1.000000
    7      -10.005351   1.000000
    8       -9.822968   1.000000
    9       -9.814407   1.000000
   10       -1.844562   1.000000
   11        3.682984   1.000000
   12        4.586947   1.000000
   13        4.781943   1.000000
   14        5.485770   1.000000
   15        5.642205   1.000000
   16        5.909620   1.000000
   17        7.907186   1.000000
   18        8.027414   1.000000
   19        8.923150   1.000000
   20        9.576648   0.003422
   21        9.584327   0.000075
   22        9.797296   0.000000
   23        9.886161   0.000000
   24        9.965268   0.000000

  0.4615385E+00  0.7692308E-01 -0.5336327E-17  0.1092399E-01
    1      -34.592583   1.000000
    2      -13.317076   1.000000
    3      -13.314979   1.000000
    4      -13.273758   1.000000
    5      -13.265619   1.000000
    6      -13.265023   1.000000
    7      -10.028583   1.000000
    8       -9.812524   1.000000
    9       -9.812132   1.000000
   10       -1.689746   1.000000
   11        3.541823   1.000000
   12        4.602932   1.000000
   13        4.718209   1.000000
   14        5.449540   1.000000
   15        5.544260   1.000000
   16        5.710375   1.000000
   17        7.911167   1.000000
   18        8.045512   1.000000
   19        8.969707   1.000000
   20        9.616662   0.000000
   21        9.620800   0.000000
   22        9.792921   0.000000
   23        9.866616   0.000000
   24        9.923146   0.000000

 -0.4615385E+00  0.7692308E-01  0.1562286E-16  0.1092399E-01
    1      -34.592449   1.000000
    2      -13.317754   1.000000
    3      -13.316028   1.000000
    4      -13.273991   1.000000
    5      -13.265399   1.000000
    6      -13.265012   1.000000
    7      -10.034473   1.000000
    8       -9.815409   1.000000
    9       -9.805848   1.000000
   10       -1.647271   1.000000
   11        3.504981   1.000000
   12        4.638461   1.000000
   13        4.668878   1.000000
   14        5.465865   1.000000
   15        5.488942   1.000000
   16        5.661238   1.000000
   17        7.906818   1.000000
   18        8.054406   1.000000
   19        8.989136   1.000000
   20        9.622878   0.000000
   21        9.644795   0.000000
   22        9.784296   0.000000
   23        9.872132   0.000000
   24        9.883251   0.000000

 -0.3846154E+00  0.7692308E-01  0.7826316E-17  0.1092399E-01
    1      -34.592718   1.000000
    2      -13.317959   1.000000
    3      -13.312843   1.000000
    4      -13.273455   1.000000
    5      -13.265544   1.000000
    6      -13.265418   1.000000
    7      -10.022260   1.000000
    8       -9.823407   1.000000
    9       -9.804442   1.000000
   10       -1.727534   1.000000
   11        3.578929   1.000000
   12        4.566249   1.000000
   13        4.750401   1.000000
   14        5.448980   1.000000
   15        5.588738   1.000000
   16        5.763247   1.000000
   17        7.874503   1.000000
   18        8.059562   1.000000
   19        8.960591   1.000000
   20        9.591081   0.000001
   21        9.624398   0.000000
   22        9.789610   0.000000
   23        9.898846   0.000000
   24        9.914538   0.000000

 -0.3076923E+00  0.7692308E-01  0.1640505E-16  0.1092399E-01
    1      -34.593327   1.000000
    2      -13.315566   1.000000
    3      -13.308201   1.000000
    4      -13.272356   1.000000
    5      -13.266127   1.000000
    6      -13.266035   1.000000
    7       -9.993833   1.000000
    8       -9.834233   1.000000
    9       -9.808648   1.000000
   10       -1.911542   1.000000
   11        3.763586   1.000000
   12        4.535432   1.000000
   13        4.833731   1.000000
   14        5.491567   1.000000
   15        5.695547   1.000000
   16        6.007146   1.000000
   17        7.823439   1.000000
   18        8.085093   1.000000
   19        8.916090   1.000000
   20        9.557671   0.491750
   21        9.579522   0.000933
   22        9.794127   0.000000
   23        9.895059   0.000000
   24        9.959726   0.000000

 -0.2307692E+00  0.7692308E-01 -0.1028332E-16  0.1092399E-01
    1      -34.594139   1.000000
    2      -13.311119   1.000000
    3      -13.303144   1.000000
    4      -13.271087   1.000000
    5      -13.266954   1.000000
    6      -13.266741   1.000000
    7       -9.954128   1.000000
    8       -9.845289   1.000000
    9       -9.817545   1.000000
   10       -2.155191   1.000000
   11        4.043668   1.000000
   12        4.566310   1.000000
   13        4.933778   1.000000
   14        5.531731   1.000000
   15        5.752717   1.000000
   16        6.376945   1.000000
   17        7.798323   1.000000
   18        8.156650   1.000000
   19        8.894957   1.000000
   20        9.536436   0.998570
   21        9.538675   0.996160
   22        9.792659   0.000000
   23        9.846524   0.000000
   24       10.024515   0.000000

 -0.1538462E+00  0.7692308E-01  0.2727296E-17  0.1092399E-01
    1      -34.594969   1.000000
    2      -13.305616   1.000000
    3      -13.298865   1.000000
    4      -13.270000   1.000000
    5      -13.267709   1.000000
    6      -13.267488   1.000000
    7       -9.911612   1.000000
    8       -9.853625   1.000000
    9       -9.829139   1.000000
   10       -2.401128   1.000000
   11        4.379433   1.000000
   12        4.663847   1.000000
   13        5.057201   1.000000
   14        5.506785   1.000000
   15        5.726623   1.000000
   16        6.823744   1.000000
   17        7.871972   1.000000
   18        8.271023   1.000000
   19        8.901030   1.000000
   20        9.511851   1.000000
   21        9.526964   0.999992
   22        9.760913   0.000000
   23        9.788778   0.000000
   24        9.998584   0.000000

 -0.7692308E-01  0.7692308E-01  0.6010443E-17  0.5461994E-02
    1      -34.595623   1.000000
    2      -13.300296   1.000000
    3      -13.296407   1.000000
    4      -13.269246   1.000000
    5      -13.268227   1.000000
    6      -13.268089   1.000000
    7       -9.878406   1.000000
    8       -9.855501   1.000000
    9       -9.840754   1.000000
   10       -2.593641   1.000000
   11        4.711950   1.000000
   12        4.818660   1.000000
   13        5.129750   1.000000
   14        5.450155   1.000000
   15        5.623182   1.000000
   16        7.238818   1.000000
   17        8.107959   1.000000
   18        8.374078   1.000000
   19        8.846877   1.000000
   20        9.508265   1.000000
   21        9.508817   1.000000
   22        9.590205   0.000002
   23        9.783313   0.000000
   24        9.865422   0.000000

  0.1538462E+00  0.1538462E+00 -0.2608233E-17  0.2730997E-02
    1      -34.595125   1.000000
    2      -13.306253   1.000000
    3      -13.293777   1.000000
    4      -13.270222   1.000000
    5      -13.267499   1.000000
    6      -13.267499   1.000000
    7       -9.877938   1.000000
    8       -9.857809   1.000000
    9       -9.857809   1.000000
   10       -2.462811   1.000000
   11        4.184354   1.000000
   12        5.146356   1.000000
   13        5.146356   1.000000
   14        5.439341   1.000000
   15        5.560745   1.000000
   16        7.111560   1.000000
   17        8.030871   1.000000
   18        8.030871   1.000000
   19        8.989955   1.000000
   20        9.545370   0.957188
   21        9.547549   0.920850
   22        9.547549   0.920850
   23        9.817267   0.000000
   24        9.968514   0.000000

  0.2307692E+00  0.1538462E+00 -0.6718594E-17  0.1092399E-01
    1      -34.594524   1.000000
    2      -13.309743   1.000000
    3      -13.294674   1.000000
    4      -13.271022   1.000000
    5      -13.266971   1.000000
    6      -13.266781   1.000000
    7       -9.908169   1.000000
    8       -9.857191   1.000000
    9       -9.849185   1.000000
   10       -2.305254   1.000000
   11        3.947706   1.000000
   12        5.031801   1.000000
   13        5.099956   1.000000
   14        5.491908   1.000000
   15        5.607738   1.000000
   16        6.858836   1.000000
   17        7.856293   1.000000
   18        7.936274   1.000000
   19        9.011484   1.000000
   20        9.518196   1.000000
   21        9.550543   0.838298
   22        9.721151   0.000000
   23        9.829377   0.000000
   24       10.025214   0.000000

  0.3076923E+00  0.1538462E+00 -0.4543416E-17  0.1092399E-01
    1      -34.593767   1.000000
    2      -13.312438   1.000000
    3      -13.298258   1.000000
    4      -13.271818   1.000000
    5      -13.266574   1.000000
    6      -13.265880   1.000000
    7       -9.948631   1.000000
    8       -9.850648   1.000000
    9       -9.838670   1.000000
   10       -2.106156   1.000000
   11        3.786733   1.000000
   12        4.823315   1.000000
   13        5.017574   1.000000
   14        5.508639   1.000000
   15        5.675994   1.000000
   16        6.496367   1.000000
   17        7.679898   1.000000
   18        7.910467   1.000000
   19        9.037128   1.000000
   20        9.535062   0.999256
   21        9.559344   0.398506
   22        9.798011   0.000000
   23        9.830581   0.000000
   24       10.023532   0.000000

  0.3846154E+00  0.1538462E+00 -0.9842469E-17  0.1092399E-01
    1      -34.593028   1.000000
    2      -13.313746   1.000000
    3      -13.303592   1.000000
    4      -13.272532   1.000000
    5      -13.266325   1.000000
    6      -13.265066   1.000000
    7       -9.985044   1.000000
    8       -9.839719   1.000000
    9       -9.833238   1.000000
   10       -1.912628   1.000000
   11        3.706551   1.000000
   12        4.662818   1.000000
   13        4.926664   1.000000
   14        5.484641   1.000000
   15        5.682202   1.000000
   16        6.135908   1.000000
   17        7.586652   1.000000
   18        7.930930   1.000000
   19        9.050292   1.000000
   20        9.576121   0.004270
   21        9.581428   0.000362
   22        9.825217   0.000000
   23        9.825601   0.000000
   24        9.994955   0.000000

  0.4615385E+00  0.1538462E+00 -0.8775260E-17  0.1092399E-01
    1      -34.592476   1.000000
    2      -13.313417   1.000000
    3      -13.309390   1.000000
    4      -13.273017   1.000000
    5      -13.266183   1.000000
    6      -13.264590   1.000000
    7      -10.009919   1.000000
    8       -9.834157   1.000000
    9       -9.826903   1.000000
   10       -1.767374   1.000000
   11        3.684458   1.000000
   12        4.597906   1.000000
   13        4.809330   1.000000
   14        5.487407   1.000000
   15        5.624350   1.000000
   16        5.871929   1.000000
   17        7.552075   1.000000
   18        7.955346   1.000000
   19        9.076778   1.000000
   20        9.611215   0.000000
   21        9.619014   0.000000
   22        9.812227   0.000000
   23        9.839338   0.000000
   24        9.974303   0.000000

 -0.4615385E+00  0.1538462E+00  0.1218393E-16  0.1092399E-01
    1      -34.592236   1.000000
    2      -13.314328   1.000000
    3      -13.311564   1.000000
    4      -13.273083   1.000000
    5      -13.266146   1.000000
    6      -13.264560   1.000000
    7      -10.019321   1.000000
    8       -9.840859   1.000000
    9       -9.815092   1.000000
   10       -1.698941   1.000000
   11        3.679686   1.000000
   12        4.634681   1.000000
   13        4.671365   1.000000
   14        5.536211   1.000000
   15        5.552100   1.000000
   16        5.765765   1.000000
   17        7.527297   1.000000
   18        7.963760   1.000000
   19        9.103287   1.000000
   20        9.612835   0.000000
   21        9.664691   0.000000
   22        9.784283   0.000000
   23        9.865649   0.000000
   24        9.941271   0.000000

 -0.3846154E+00  0.1538462E+00  0.4387383E-17  0.1092399E-01
    1      -34.592365   1.000000
    2      -13.317335   1.000000
    3      -13.308588   1.000000
    4      -13.272649   1.000000
    5      -13.266224   1.000000
    6      -13.264950   1.000000
    7      -10.012439   1.000000
    8       -9.851256   1.000000
    9       -9.806952   1.000000
   10       -1.720430   1.000000
   11        3.678374   1.000000
   12        4.547922   1.000000
   13        4.747739   1.000000
   14        5.469315   1.000000
   15        5.658908   1.000000
   16        5.831559   1.000000
   17        7.473137   1.000000
   18        7.967554   1.000000
   19        9.102667   1.000000
   20        9.585577   0.000036
   21        9.679053   0.000000
   22        9.769500   0.000000
   23        9.895797   0.000000
   24        9.903247   0.000000

 -0.3076923E+00  0.1538462E+00  0.1296612E-16  0.1092399E-01
    1      -34.592834   1.000000
    2      -13.317777   1.000000
    3      -13.305099   1.000000
    4      -13.271894   1.000000
    5      -13.266413   1.000000
    6      -13.265642   1.000000
    7       -9.991290   1.000000
    8       -9.862075   1.000000
    9       -9.804342   1.000000
   10       -1.830485   1.000000
   11        3.717912   1.000000
   12        4.471894   1.000000
   13        4.897782   1.000000
   14        5.443244   1.000000
   15        5.764070   1.000000
   16        6.050127   1.000000
   17        7.385864   1.000000
   18        7.995762   1.000000
   19        9.077767   1.000000
   20        9.558248   0.459291
   21        9.634553   0.000000
   22        9.793578   0.000000
   23        9.886488   0.000000
   24        9.921267   0.000000

 -0.2307692E+00  0.1538462E+00  0.1403333E-16  0.1092399E-01
    1      -34.593532   1.000000
    2      -13.315568   1.000000
    3      -13.301807   1.000000
    4      -13.271131   1.000000
    5      -13.266685   1.000000
    6      -13.266450   1.000000
    7       -9.961158   1.000000
    8       -9.869049   1.000000
    9       -9.807890   1.000000
   10       -2.009175   1.000000
   11        3.846498   1.000000
   12        4.463030   1.000000
   13        5.048667   1.000000
   14        5.438470   1.000000
   15        5.822202   1.000000
   16        6.367777   1.000000
   17        7.325446   1.000000
   18        8.071896   1.000000
   19        9.048467   1.000000
   20        9.542514   0.983120
   21        9.581776   0.000302
   22        9.803646   0.000000
   23        9.857467   0.000000
   24        9.972072   0.000000

 -0.1538462E+00  0.1538462E+00 -0.5143514E-17  0.5461994E-02
    1      -34.594304   1.000000
    2      -13.311200   1.000000
    3      -13.299518   1.000000
    4      -13.270522   1.000000
    5      -13.267186   1.000000
    6      -13.267038   1.000000
    7       -9.931574   1.000000
    8       -9.866813   1.000000
    9       -9.816832   1.000000
   10       -2.216263   1.000000
   11        4.077488   1.000000
   12        4.528621   1.000000
   13        5.146624   1.000000
   14        5.433544   1.000000
   15        5.807756   1.000000
   16        6.656911   1.000000
   17        7.455880   1.000000
   18        8.183829   1.000000
   19        9.010320   1.000000
   20        9.534548   0.999422
   21        9.536841   0.998279
   22        9.799612   0.000000
   23        9.818496   0.000000
   24       10.024644   0.000000

  0.2307692E+00  0.2307692E+00 -0.3912350E-17  0.2730997E-02
    1      -34.594073   1.000000
    2      -13.310908   1.000000
    3      -13.292478   1.000000
    4      -13.271963   1.000000
    5      -13.266164   1.000000
    6      -13.266164   1.000000
    7       -9.908220   1.000000
    8       -9.863682   1.000000
    9       -9.863682   1.000000
   10       -2.219715   1.000000
   11        3.766216   1.000000
   12        5.158537   1.000000
   13        5.158537   1.000000
   14        5.465864   1.000000
   15        5.495875   1.000000
   16        6.825641   1.000000
   17        7.850492   1.000000
   18        7.850492   1.000000
   19        8.973921   1.000000
   20        9.560105   0.357604
   21        9.560105   0.357603
   22        9.684894   0.000000
   23        9.867372   0.000000
   24       10.103266   0.000000

  0.3076923E+00  0.2307692E+00 -0.9662950E-17  0.1092399E-01
    1      -34.593452   1.000000
    2      -13.310889   1.000000
    3      -13.293347   1.000000
    4      -13.272793   1.000000
    5      -13.265568   1.000000
    6      -13.265306   1.000000
    7       -9.936442   1.000000
    8       -9.863448   1.000000
    9       -9.860224   1.000000
   10       -2.095387   1.000000
   11        3.691383   1.000000
   12        5.015721   1.000000
   13        5.120133   1.000000
   14        5.506292   1.000000
   15        5.521274   1.000000
   16        6.629802   1.000000
   17        7.690050   1.000000
   18        7.834003   1.000000
   19        9.054573   1.000000
   20        9.547583   0.920152
   21        9.570570   0.032534
   22        9.728706   0.000000
   23        9.884794   0.000000
   24       10.078715   0.000000

  0.3846154E+00  0.2307692E+00 -0.9131079E-17  0.1092399E-01
    1      -34.592803   1.000000
    2      -13.309728   1.000000
    3      -13.297008   1.000000
    4      -13.273265   1.000000
    5      -13.265425   1.000000
    6      -13.264477   1.000000
    7       -9.967949   1.000000
    8       -9.857455   1.000000
    9       -9.856597   1.000000
   10       -1.964796   1.000000
   11        3.730477   1.000000
   12        4.809369   1.000000
   13        5.034207   1.000000
   14        5.526174   1.000000
   15        5.589994   1.000000
   16        6.355409   1.000000
   17        7.453133   1.000000
   18        7.861716   1.000000
   19        9.139531   1.000000
   20        9.560288   0.347995
   21        9.589561   0.000003
   22        9.761908   0.000000
   23        9.882007   0.000000
   24       10.036595   0.000000

  0.4615385E+00  0.2307692E+00 -0.5265776E-17  0.1092399E-01
    1      -34.592275   1.000000
    2      -13.307742   1.000000
    3      -13.302487   1.000000
    4      -13.273226   1.000000
    5      -13.265763   1.000000
    6      -13.263960   1.000000
    7       -9.990003   1.000000
    8       -9.861918   1.000000
    9       -9.844711   1.000000
   10       -1.855097   1.000000
   11        3.847341   1.000000
   12        4.666226   1.000000
   13        4.903204   1.000000
   14        5.550648   1.000000
   15        5.613705   1.000000
   16        6.086928   1.000000
   17        7.274179   1.000000
   18        7.884342   1.000000
   19        9.176067   1.000000
   20        9.590189   0.000002
   21        9.621646   0.000000
   22        9.797452   0.000000
   23        9.863172   0.000000
   24        9.996428   0.000000

 -0.4615385E+00  0.2307692E+00  0.1233470E-17  0.1092399E-01
    1      -34.591987   1.000000
    2      -13.308504   1.000000
    3      -13.305489   1.000000
    4      -13.272603   1.000000
    5      -13.266453   1.000000
    6      -13.263897   1.000000
    7       -9.998180   1.000000
    8       -9.872953   1.000000
    9       -9.830490   1.000000
   10       -1.782633   1.000000
   11        3.947227   1.000000
   12        4.617357   1.000000
   13        4.743910   1.000000
   14        5.558140   1.000000
   15        5.619066   1.000000
   16        5.947654   1.000000
   17        7.156772   1.000000
   18        7.880826   1.000000
   19        9.200375   1.000000
   20        9.592729   0.000000
   21        9.665540   0.000000
   22        9.824732   0.000000
   23        9.850594   0.000000
   24        9.964375   0.000000

 -0.3846154E+00  0.2307692E+00 -0.1542683E-16  0.1092399E-01
    1      -34.592006   1.000000
    2      -13.313717   1.000000
    3      -13.303496   1.000000
    4      -13.271569   1.000000
    5      -13.267214   1.000000
    6      -13.264272   1.000000
    7       -9.992762   1.000000
    8       -9.886637   1.000000
    9       -9.817147   1.000000
   10       -1.757000   1.000000
   11        3.925629   1.000000
   12        4.592691   1.000000
   13        4.676018   1.000000
   14        5.493159   1.000000
   15        5.714458   1.000000
   16        5.987630   1.000000
   17        7.063433   1.000000
   18        7.870033   1.000000
   19        9.210509   1.000000
   20        9.568095   0.067484
   21        9.712226   0.000000
   22        9.771124   0.000000