 vasp.6.0.8 29Jun18 (build Jun 13 2019 12:54:44) complex

 executed on      IFC18_CrayMPICH date 2021.12.05  14:21:49
 running   64 mpi-ranks, with    1 threads/rank
 distrk:  each k-point on   16 cores,    4 groups
 distr:  one band on NCORES_PER_BAND=   4 cores,    4 groups


--------------------------------------------------------------------------------------------------------


 INCAR:
 POTCAR:    PAW_PBE U 06Sep2000
 POTCAR:    PAW_PBE Bi_d 06Sep2000
 POTCAR:    PAW_PBE Pt 04Feb2005
 POTCAR:    PAW_PBE U 06Sep2000
   VRHFIN =U:  [Xe,5d,4f]
   LEXCH  = PE
   EATOM  =  1405.3058 eV,  103.2871 Ry

   TITEL  = PAW_PBE U 06Sep2000
   LULTRA =        F    use ultrasoft PP ?
   IUNSCR =        1    unscreen: 0-lin 1-nonlin 2-no
   RPACOR =    2.200    partial core radius
   POMASS =  238.029; ZVAL   =   14.000    mass and valenz
   RCORE  =    2.800    outmost cutoff radius
   RWIGS  =    3.000; RWIGS  =    1.588    wigner-seitz radius (au A)
   ENMAX  =  252.502; ENMIN  =  189.376 eV
   RCLOC  =    1.811    cutoff for local pot
   LCOR   =        T    correct aug charges
   LPAW   =        T    paw PP
   EAUG   =  526.410
   DEXC   =    0.000
   RMAX   =    2.863    core radius for proj-oper
   RAUG   =    1.300    factor for augmentation sphere
   RDEP   =    2.950    radius for radial grids
   RDEPT  =    2.270    core radius for aug-charge

   Atomic configuration
   18 entries
     n  l   j            E        occ.
     1  0  0.50   -116038.1941   2.0000
     2  0  0.50    -21694.8835   2.0000
     2  1  1.50    -18009.1553   6.0000
     3  0  0.50     -5481.2929   2.0000
     3  1  1.50     -4458.9283   6.0000
     3  2  2.50     -3575.9978  10.0000
     4  0  0.50     -1400.5351   2.0000
     4  1  1.50     -1066.7807   6.0000
     4  2  2.50      -732.1336  10.0000
     4  3  3.50      -377.4393  14.0000
     5  0  0.50      -314.7366   2.0000
     5  1  1.50      -211.6057   6.0000
     5  2  2.50      -103.2045  10.0000
     6  0  0.50       -50.6026   2.0000
     7  0  0.50        -4.5896   2.0000
     6  1  1.50       -25.2884   6.0000
     6  2  1.50        -3.1039   2.0000
     5  3  2.50        -6.3670   2.0000
   Description
     l       E           TYP  RCUT    TYP  RCUT
     0    -50.6026097     23  2.600
     0     -4.5896371     23  2.600
     1    -25.2883770     23  2.500
     1     27.2116520     23  2.500
     2     -3.1038686     23  2.500
     2      0.8290654     23  2.500
     3     -6.3670133     23  2.800
     3     -7.7275959     23  2.800
  local pseudopotential read in
  partial core-charges read in
  partial kinetic energy density read in
  atomic valenz-charges read in
  non local Contribution for L=           0  read in
    real space projection operators read in
  non local Contribution for L=           0  read in
    real space projection operators read in
  non local Contribution for L=           1  read in
    real space projection operators read in
  non local Contribution for L=           1  read in
    real space projection operators read in
  non local Contribution for L=           2  read in
    real space projection operators read in
  non local Contribution for L=           2  read in
    real space projection operators read in
  non local Contribution for L=           3  read in
    real space projection operators read in
  non local Contribution for L=           3  read in
    real space projection operators read in
    PAW grid and wavefunctions read in

   number of l-projection  operators is LMAX  =           8
   number of lm-projection operators is LMMAX =          32

 POTCAR:    PAW_PBE Bi_d 06Sep2000
   VRHFIN =Bi:
   LEXCH  = PE
   EATOM  =  1959.2045 eV,  143.9975 Ry

   TITEL  = PAW_PBE Bi_d 06Sep2000
   LULTRA =        F    use ultrasoft PP ?
   IUNSCR =        1    unscreen: 0-lin 1-nonlin 2-no
   RPACOR =    2.200    partial core radius
   POMASS =  208.980; ZVAL   =   15.000    mass and valenz
   RCORE  =    2.500    outmost cutoff radius
   RWIGS  =    3.090; RWIGS  =    1.635    wigner-seitz radius (au A)
   ENMAX  =  242.839; ENMIN  =  182.129 eV
   ICORE  =        3    local potential
   LCOR   =        T    correct aug charges
   LPAW   =        T    paw PP
   EAUG   =  442.899
   DEXC   =    0.000
   RMAX   =    2.551    core radius for proj-oper
   RAUG   =    1.300    factor for augmentation sphere
   RDEP   =    2.650    radius for radial grids
   RDEPT  =    2.039    core radius for aug-charge

   Atomic configuration
   16 entries
     n  l   j            E        occ.
     1  0  0.50    -90639.6581   2.0000
     2  0  0.50    -16282.4666   2.0000
     2  1  1.50    -13922.8286   6.0000
     3  0  0.50     -3930.4763   2.0000
     3  1  1.50     -3256.7013   6.0000
     3  2  2.50     -2581.6168  10.0000
     4  0  0.50      -902.2614   2.0000
     4  1  1.50      -681.5915   6.0000
     4  2  2.50      -429.8249  10.0000
     4  3  3.50      -152.6004  14.0000
     5  0  0.50      -157.7156   2.0000
     5  1  1.50       -95.8054   6.0000
     5  2  2.50       -27.0806  10.0000
     6  0  0.50       -14.4732   2.0000
     6  1  1.50        -4.5702   3.0000
     5  3  2.50        -2.7212   0.0000
   Description
     l       E           TYP  RCUT    TYP  RCUT
     2    -27.0805982     23  2.500
     2     -1.3605826     23  2.500
     0    -14.4732271     23  2.500
     0      6.8029130     23  2.500
     1     -4.5701651     23  2.500
     1     13.6058260     23  2.500
     3     -1.3605826      7  2.500
  local pseudopotential read in
  partial core-charges read in
  partial kinetic energy density read in
  atomic valenz-charges read in
  non local Contribution for L=           2  read in
    real space projection operators read in
  non local Contribution for L=           2  read in
    real space projection operators read in
  non local Contribution for L=           0  read in
    real space projection operators read in
  non local Contribution for L=           0  read in
    real space projection operators read in
  non local Contribution for L=           1  read in
    real space projection operators read in
  non local Contribution for L=           1  read in
    real space projection operators read in
    PAW grid and wavefunctions read in

   number of l-projection  operators is LMAX  =           6
   number of lm-projection operators is LMMAX =          18

 POTCAR:    PAW_PBE Pt 04Feb2005
   VRHFIN =Pt: s1d9
   LEXCH  = PE
   EATOM  =   729.1176 eV,   53.5886 Ry

   TITEL  = PAW_PBE Pt 04Feb2005
   LULTRA =        F    use ultrasoft PP ?
   IUNSCR =        1    unscreen: 0-lin 1-nonlin 2-no
   RPACOR =    2.330    partial core radius
   POMASS =  195.080; ZVAL   =   10.000    mass and valenz
   RCORE  =    2.600    outmost cutoff radius
   RWIGS  =    2.750; RWIGS  =    1.455    wigner-seitz radius (au A)
   ENMAX  =  230.283; ENMIN  =  172.712 eV
   ICORE  =        3    local potential
   LCOR   =        T    correct aug charges
   LPAW   =        T    paw PP
   EAUG   =  358.966
   DEXC   =    0.000
   RMAX   =    2.658    core radius for proj-oper
   RAUG   =    1.300    factor for augmentation sphere
   RDEP   =    2.761    radius for radial grids
   RDEPT  =    2.203    core radius for aug-charge

   Atomic configuration
   16 entries
     n  l   j            E        occ.
     1  0  0.50    -78401.1885   2.0000
     2  0  0.50    -13770.7750   2.0000
     2  1  1.50    -11931.0468   6.0000
     3  0  0.50     -3234.7234   2.0000
     3  1  1.50     -2699.2216   6.0000
     3  2  2.50     -2119.5714  10.0000
     4  0  0.50      -695.1528   2.0000
     4  1  1.50      -519.6034   6.0000
     4  2  2.50      -306.6786  10.0000
     4  3  3.50       -70.1041  14.0000
     5  0  0.50      -101.7747   2.0000
     5  1  1.50       -55.9873   6.0000
     5  2  2.50        -6.1423   9.0000
     6  0  0.50        -5.6573   1.0000
     6  1  1.50        -6.8029   0.0000
     5  3  2.50        -1.3606   0.0000
   Description
     l       E           TYP  RCUT    TYP  RCUT
     2     -6.1423404     23  2.500
     2     -7.5029230     23  2.500
     0     -5.6573207     23  2.500
     0      0.7416693     23  2.500
     1     -2.7211652     23  2.600
     1     20.4087390     23  2.600
     3     -1.3605826     23  2.500
  local pseudopotential read in
  partial core-charges read in
  partial kinetic energy density read in
  atomic valenz-charges read in
  non local Contribution for L=           2  read in
    real space projection operators read in
  non local Contribution for L=           2  read in
    real space projection operators read in
  non local Contribution for L=           0  read in
    real space projection operators read in
  non local Contribution for L=           0  read in
    real space projection operators read in
  non local Contribution for L=           1  read in
    real space projection operators read in
  non local Contribution for L=           1  read in
    real space projection operators read in
    PAW grid and wavefunctions read in

   number of l-projection  operators is LMAX  =           6
   number of lm-projection operators is LMMAX =          18

 WARNING: PSMAXN for non-local potential too small
          PSMAXN should be >   13.5545592237991       NTYP=           1

 -----------------------------------------------------------------------------
|                                                                             |
|  ADVICE TO THIS USER RUNNING 'VASP/VAMP'   (HEAR YOUR MASTER'S VOICE ...):  |
|                                                                             |
|      You enforced a specific xc-type in the INCAR file,                     |
|      a different type was found on the POTCAR file                          |
|          I HOPE YOU KNOW, WHAT YOU ARE  DOING                               |
|                                                                             |
 -----------------------------------------------------------------------------

  PAW_PBE U 06Sep2000                   :
 energy of atom  1       EATOM=-1405.3058
 kinetic energy error for atom=    0.0006 (will be added to EATOM!!)
  PAW_PBE Bi_d 06Sep2000                :
 energy of atom  2       EATOM=-1959.2045
 kinetic energy error for atom=    0.0012 (will be added to EATOM!!)
  PAW_PBE Pt 04Feb2005                  :
 energy of atom  3       EATOM= -729.1176
 kinetic energy error for atom=    0.0010 (will be added to EATOM!!)


 POSCAR: U1 Bi1 Pt1
  positions in direct lattice
  No initial velocities read in
 exchange correlation table for  LEXCH =       14
   RHO(1)=    0.500       N(1)  =     2000
   RHO(2)=  100.500       N(2)  =     4000



--------------------------------------------------------------------------------------------------------


 ion  position               nearest neighbor table
   1  0.250  0.250  0.250-   3 2.91   3 2.91   3 2.91   3 2.91   2 3.36   2 3.36   2 3.36   2 3.36
                             2 3.36   2 3.36
   2  0.750  0.750  0.750-   3 2.91   3 2.91   3 2.91   3 2.91   1 3.36   1 3.36   1 3.36   1 3.36
                             1 3.36   1 3.36
   3  0.000  0.000  0.000-   2 2.91   2 2.91   2 2.91   1 2.91   2 2.91   1 2.91   1 2.91   1 2.91


  LATTYP: Found a face centered cubic cell.
 ALAT       =     6.7225983553

  Lattice vectors:

 A1 = (   0.0000000000,   3.3612991776,   3.3612991776)
 A2 = (   3.3612991776,   0.0000000000,   3.3612991776)
 A3 = (   3.3612991776,   3.3612991776,   0.0000000000)


Analysis of symmetry for initial positions (statically):
=====================================================================
 Subroutine PRICEL returns:
 Original cell was already a primitive cell.


 Routine SETGRP: Setting up the symmetry group for a
 face centered cubic supercell.


 Subroutine GETGRP returns: Found 24 space group operations
 (whereof 24 operations were pure point group operations)
 out of a pool of 48 trial point group operations.


The static configuration has the point symmetry T_d .


Analysis of symmetry for dynamics (positions and initial velocities):
=====================================================================
 Subroutine PRICEL returns:
 Original cell was already a primitive cell.


 Routine SETGRP: Setting up the symmetry group for a
 face centered cubic supercell.


 Subroutine GETGRP returns: Found 24 space group operations
 (whereof 24 operations were pure point group operations)
 out of a pool of 48 trial point group operations.


The dynamic configuration has the point symmetry T_d .


 Subroutine INISYM returns: Found 24 space group operations
 (whereof 24 operations are pure point group operations),
 and found     1 'primitive' translations


----------------------------------------------------------------------------------------

                                     Primitive cell

  volume of cell :      75.9541

  direct lattice vectors                    reciprocal lattice vectors
     0.000000000  3.361299178  3.361299178    -0.148752007  0.148752007  0.148752007
     3.361299178  0.000000000  3.361299178     0.148752007 -0.148752007  0.148752007
     3.361299178  3.361299178  0.000000000     0.148752007  0.148752007 -0.148752007

  length of vectors
     4.753594884  4.753594884  4.753594884     0.257646034  0.257646034  0.257646034

  position of ions in fractional coordinates (direct lattice)
     0.250000000  0.250000000  0.250000000
     0.750000000  0.750000000  0.750000000
     0.000000000  0.000000000  0.000000000

  ion indices of the primitive-cell ions
   primitive index   ion index
                 1           1
                 2           2
                 3           3

----------------------------------------------------------------------------------------



 KPOINTS: KPOINTS

Automatic generation of k-mesh.
Space group operators:
 irot       det(A)        alpha          n_x          n_y          n_z        tau_x        tau_y        tau_z
    1     1.000000     0.000000     1.000000     0.000000     0.000000     0.000000     0.000000     0.000000
    2     1.000000   120.000000    -0.577350    -0.577350    -0.577350     0.000000     0.000000     0.000000
    3     1.000000   120.000000     0.577350     0.577350     0.577350     0.000000     0.000000     0.000000
    4    -1.000000    90.000000    -0.000000     0.000000    -1.000000     0.000000     0.000000     0.000000
    5    -1.000000   180.000000    -0.000000     0.707107     0.707107     0.000000     0.000000     0.000000
    6    -1.000000    90.000000    -0.000000     1.000000    -0.000000     0.000000     0.000000     0.000000
    7     1.000000   180.000000    -0.000000    -0.000000     1.000000     0.000000     0.000000     0.000000
    8     1.000000   120.000000    -0.577350     0.577350     0.577350     0.000000     0.000000     0.000000
    9     1.000000   120.000000    -0.577350     0.577350    -0.577350     0.000000     0.000000     0.000000
   10    -1.000000    90.000000     0.000000     0.000000     1.000000     0.000000     0.000000     0.000000
   11    -1.000000    90.000000    -1.000000     0.000000     0.000000     0.000000     0.000000     0.000000
   12    -1.000000   180.000000     0.707107     0.000000     0.707107     0.000000     0.000000     0.000000
   13     1.000000   120.000000     0.577350    -0.577350     0.577350     0.000000     0.000000     0.000000
   14     1.000000   120.000000    -0.577350    -0.577350     0.577350     0.000000     0.000000     0.000000
   15     1.000000   180.000000     1.000000     0.000000     0.000000     0.000000     0.000000     0.000000
   16    -1.000000    90.000000     0.000000    -1.000000     0.000000     0.000000     0.000000     0.000000
   17    -1.000000   180.000000     0.707107     0.707107    -0.000000     0.000000     0.000000     0.000000
   18    -1.000000    90.000000     1.000000     0.000000     0.000000     0.000000     0.000000     0.000000
   19     1.000000   120.000000     0.577350    -0.577350    -0.577350     0.000000     0.000000     0.000000
   20     1.000000   180.000000    -0.000000    -1.000000    -0.000000     0.000000     0.000000     0.000000
   21     1.000000   120.000000     0.577350     0.577350    -0.577350     0.000000     0.000000     0.000000
   22    -1.000000   180.000000    -0.000000    -0.707107     0.707107     0.000000     0.000000     0.000000
   23    -1.000000   180.000000     0.707107    -0.707107     0.000000     0.000000     0.000000     0.000000
   24    -1.000000   180.000000     0.707107     0.000000    -0.707107     0.000000     0.000000     0.000000

 Subroutine IBZKPT returns following result:
 ===========================================

 Found     84 irreducible k-points:

 Following reciprocal coordinates:
            Coordinates               Weight
  0.000000  0.000000  0.000000      1.000000
  0.076923  0.000000 -0.000000      8.000000
  0.153846 -0.000000 -0.000000      8.000000
  0.230769  0.000000 -0.000000      8.000000
  0.307692 -0.000000 -0.000000      8.000000
  0.384615  0.000000 -0.000000      8.000000
  0.461538 -0.000000  0.000000      8.000000
  0.076923  0.076923 -0.000000      6.000000
  0.153846  0.076923 -0.000000     24.000000
  0.230769  0.076923 -0.000000     24.000000
  0.307692  0.076923 -0.000000     24.000000
  0.384615  0.076923 -0.000000     24.000000
  0.461538  0.076923 -0.000000     24.000000
 -0.461538  0.076923  0.000000     24.000000
 -0.384615  0.076923  0.000000     24.000000
 -0.307692  0.076923  0.000000     24.000000
 -0.230769  0.076923 -0.000000     24.000000
 -0.153846  0.076923  0.000000     24.000000
 -0.076923  0.076923  0.000000     12.000000
  0.153846  0.153846 -0.000000      6.000000
  0.230769  0.153846 -0.000000     24.000000
  0.307692  0.153846 -0.000000     24.000000
  0.384615  0.153846 -0.000000     24.000000
  0.461538  0.153846 -0.000000     24.000000
 -0.461538  0.153846  0.000000     24.000000
 -0.384615  0.153846  0.000000     24.000000
 -0.307692  0.153846  0.000000     24.000000
 -0.230769  0.153846  0.000000     24.000000
 -0.153846  0.153846 -0.000000     12.000000
  0.230769  0.230769 -0.000000      6.000000
  0.307692  0.230769 -0.000000     24.000000
  0.384615  0.230769 -0.000000     24.000000
  0.461538  0.230769 -0.000000     24.000000
 -0.461538  0.230769  0.000000     24.000000
 -0.384615  0.230769 -0.000000     24.000000
 -0.307692  0.230769  0.000000     24.000000
 -0.230769  0.230769  0.000000     12.000000
  0.307692  0.307692 -0.000000      6.000000
  0.384615  0.307692 -0.000000     24.000000
  0.461538  0.307692 -0.000000     24.000000
 -0.461538  0.307692 -0.000000     24.000000
 -0.384615  0.307692 -0.000000     24.000000
 -0.307692  0.307692 -0.000000     12.000000
  0.384615  0.384615 -0.000000      6.000000
  0.461538  0.384615  0.000000     24.000000
 -0.461538  0.384615  0.000000     24.000000
 -0.384615  0.384615  0.000000     12.000000
  0.461538  0.461538 -0.000000      6.000000
 -0.461538  0.461538 -0.000000     12.000000
  0.230769  0.153846  0.076923     24.000000
  0.307692  0.153846  0.076923     48.000000
  0.384615  0.153846  0.076923     48.000000
  0.461538  0.153846  0.076923     48.000000
 -0.461538  0.153846  0.076923     48.000000
  0.307692  0.230769  0.076923     24.000000
  0.384615  0.230769  0.076923     48.000000
  0.461538  0.230769  0.076923     48.000000
 -0.461538  0.230769  0.076923     48.000000
 -0.384615  0.230769  0.076923     48.000000
 -0.307692  0.230769  0.076923     48.000000
 -0.230769  0.230769  0.076923     48.000000
 -0.153846  0.230769  0.076923     24.000000
  0.384615  0.307692  0.076923     24.000000
  0.461538  0.307692  0.076923     48.000000
 -0.461538  0.307692  0.076923     48.000000
 -0.384615  0.307692  0.076923     48.000000
 -0.307692  0.307692  0.076923     48.000000
 -0.230769  0.307692  0.076923     24.000000
  0.461538  0.384615  0.076923     24.000000
 -0.461538  0.384615  0.076923     48.000000
 -0.384615  0.384615  0.076923     48.000000
 -0.307692  0.384615  0.076923     24.000000
 -0.461538  0.461538  0.076923     24.000000
 -0.384615  0.461538  0.076923     24.000000
  0.461538  0.307692  0.153846     24.000000
 -0.461538  0.307692  0.153846     48.000000
 -0.384615  0.307692  0.153846     48.000000
 -0.461538  0.384615  0.153846     24.000000
 -0.384615  0.384615  0.153846     48.000000
 -0.307692  0.384615  0.153846     48.000000
 -0.230769  0.384615  0.153846     24.000000
 -0.384615  0.461538  0.153846     24.000000
 -0.307692  0.461538  0.153846     24.000000
 -0.307692  0.461538  0.230769     24.000000

 Following cartesian coordinates:
            Coordinates               Weight
  0.000000  0.000000  0.000000      1.000000
 -0.011593  0.011593  0.011593      8.000000
 -0.023186  0.023186  0.023186      8.000000
 -0.034779  0.034779  0.034779      8.000000
 -0.046372  0.046372  0.046372      8.000000
 -0.057965  0.057965  0.057965      8.000000
 -0.069558  0.069558  0.069558      8.000000
  0.000000 -0.000000  0.023186      6.000000
 -0.011593  0.011593  0.034779     24.000000
 -0.023186  0.023186  0.046372     24.000000
 -0.034779  0.034779  0.057965     24.000000
 -0.046372  0.046372  0.069558     24.000000
 -0.057965  0.057965  0.081151     24.000000
  0.081151 -0.081151 -0.057965     24.000000
  0.069558 -0.069558 -0.046372     24.000000
  0.057965 -0.057965 -0.034779     24.000000
  0.046372 -0.046372 -0.023186     24.000000
  0.034779 -0.034779 -0.011593     24.000000
  0.023186 -0.023186 -0.000000     12.000000
  0.000000 -0.000000  0.046372      6.000000
 -0.011593  0.011593  0.057965     24.000000
 -0.023186  0.023186  0.069558     24.000000
 -0.034779  0.034779  0.081151     24.000000
 -0.046372  0.046372  0.092744     24.000000
  0.092744 -0.092744 -0.046372     24.000000
  0.081151 -0.081151 -0.034779     24.000000
  0.069558 -0.069558 -0.023186     24.000000
  0.057965 -0.057965 -0.011593     24.000000
  0.046372 -0.046372  0.000000     12.000000
 -0.000000  0.000000  0.069558      6.000000
 -0.011593  0.011593  0.081151     24.000000
 -0.023186  0.023186  0.092744     24.000000
 -0.034779  0.034779  0.104337     24.000000
  0.104337 -0.104337 -0.034779     24.000000
  0.092744 -0.092744 -0.023186     24.000000
  0.081151 -0.081151 -0.011593     24.000000
  0.069558 -0.069558  0.000000     12.000000
  0.000000 -0.000000  0.092744      6.000000
 -0.011593  0.011593  0.104337     24.000000
 -0.023186  0.023186  0.115930     24.000000
  0.115930 -0.115930 -0.023186     24.000000
  0.104337 -0.104337 -0.011593     24.000000
  0.092744 -0.092744  0.000000     12.000000
  0.000000 -0.000000  0.115930      6.000000
 -0.011593  0.011593  0.127523     24.000000
  0.127523 -0.127523 -0.011593     24.000000
  0.115930 -0.115930 -0.000000     12.000000
  0.000000 -0.000000  0.139116      6.000000
  0.139116 -0.139116  0.000000     12.000000
  0.000000  0.023186  0.046372     24.000000
 -0.011593  0.034779  0.057965     48.000000
 -0.023186  0.046372  0.069558     48.000000
 -0.034779  0.057965  0.081151     48.000000
  0.104337 -0.081151 -0.057965     48.000000
  0.000000  0.023186  0.069558     24.000000
 -0.011593  0.034779  0.081151     48.000000
 -0.023186  0.046372  0.092744     48.000000
  0.115930 -0.092744 -0.046372     48.000000
  0.104337 -0.081151 -0.034779     48.000000
  0.092744 -0.069558 -0.023186     48.000000
  0.081151 -0.057965 -0.011593     48.000000
  0.069558 -0.046372  0.000000     24.000000
  0.000000  0.023186  0.092744     24.000000
 -0.011593  0.034779  0.104337     48.000000
  0.127523 -0.104337 -0.034779     48.000000
  0.115930 -0.092744 -0.023186     48.000000
  0.104337 -0.081151 -0.011593     48.000000
  0.092744 -0.069558 -0.000000     24.000000
  0.000000  0.023186  0.115930     24.000000
  0.139116 -0.115930 -0.023186     48.000000
  0.127523 -0.104337 -0.011593     48.000000
  0.115930 -0.092744 -0.000000     24.000000
  0.150709 -0.127523 -0.011593     24.000000
  0.139116 -0.115930 -0.000000     24.000000
  0.000000  0.046372  0.092744     24.000000
  0.139116 -0.092744 -0.046372     48.000000
  0.127523 -0.081151 -0.034779     48.000000
  0.150709 -0.104337 -0.034779     24.000000
  0.139116 -0.092744 -0.023186     48.000000
  0.127523 -0.081151 -0.011593     48.000000
  0.115930 -0.069558 -0.000000     24.000000
  0.150709 -0.104337 -0.011593     24.000000
  0.139116 -0.092744 -0.000000     24.000000
  0.150709 -0.081151 -0.011593     24.000000



--------------------------------------------------------------------------------------------------------




 Dimension of arrays:
   k-points           NKPTS =     84   k-points in BZ     NKDIM =     84   number of bands    NBANDS=     24
   number of dos      NEDOS =    301   number of ions     NIONS =      3
   non local maximal  LDIM  =      8   non local SUM 2l+1 LMDIM =     32
   total plane-waves  NPLWV =  74088
   max r-space proj   IRMAX =      1   max aug-charges    IRDMAX= 476090
   dimension x,y,z NGX =    42 NGY =   42 NGZ =   42
   dimension x,y,z NGXF=    84 NGYF=   84 NGZF=   84
   support grid    NGXF=   168 NGYF=  168 NGZF=  168
   ions per type =               1   1   1
   NGX,Y,Z   is equivalent  to a cutoff of  14.69, 14.69, 14.69 a.u.
   NGXF,Y,Z  is equivalent  to a cutoff of  29.38, 29.38, 29.38 a.u.

 SYSTEM =  unknown system
 POSCAR =  U1 Bi1 Pt1

 Startparameter for this run:
   NWRITE =      2    write-flag & timer
   PREC   = acc       normal or accurate (medium, high low for compatibility)
   ISTART =      0    job   : 0-new  1-cont  2-samecut
   ICHARG =      2    charge: 1-file 2-atom 10-const
   ISPIN  =      1    spin polarized calculation?
   LNONCOLLINEAR =      F non collinear calculations
   LSORBIT =      F    spin-orbit coupling
   INIWAV =      1    electr: 0-lowe 1-rand  2-diag
   LASPH  =      F    aspherical Exc in radial PAW
   METAGGA=      F    non-selfconsistent MetaGGA calc.

 Electronic Relaxation 1
   ENCUT  =  700.0 eV  51.45 Ry    7.17 a.u.  10.25 10.25 10.25*2*pi/ulx,y,z
   ENINI  =  700.0     initial cutoff
   ENAUG  =  526.4 eV  augmentation charge cutoff
   NELM   =     60;   NELMIN=  5; NELMDL= -5     # of ELM steps
   EDIFF  = 0.1E-06   stopping-criterion for ELM
   LREAL  =      F    real-space projection
   NLSPLINE    = F    spline interpolate recip. space projectors
   LCOMPAT=      F    compatible to vasp.4.4
   GGA_COMPAT  = T    GGA compatible to vasp.4.4-vasp.4.6
   LMAXPAW     = -100 max onsite density
   LMAXMIX     =    2 max onsite mixed and CHGCAR
   VOSKOWN=      0    Vosko Wilk Nusair interpolation
   ROPT   =    0.00000   0.00000   0.00000
 Ionic relaxation
   EDIFFG = 0.1E-05   stopping-criterion for IOM
   NSW    =      0    number of steps for IOM
   NBLOCK =      1;   KBLOCK =      1    inner block; outer block
   IBRION =     -1    ionic relax: 0-MD 1-quasi-New 2-CG
   NFREE  =      0    steps in history (QN), initial steepest desc. (CG)
   ISIF   =      3    stress and relaxation
   IWAVPR =     10    prediction:  0-non 1-charg 2-wave 3-comb
   ISYM   =      2    0-nonsym 1-usesym 2-fastsym
   LCORR  =      T    Harris-Foulkes like correction to forces

   POTIM  = 0.5000    time-step for ionic-motion
   TEIN   =    0.0    initial temperature
   TEBEG  =    0.0;   TEEND  =   0.0 temperature during run
   SMASS  =  -3.00    Nose mass-parameter (am)
   estimated Nose-frequenzy (Omega)   =  0.10E-29 period in steps = 0.13E+47 mass=  -0.516E-27a.u.
   SCALEE = 1.0000    scale energy and forces
   NPACO  =    256;   APACO  = 16.0  distance and # of slots for P.C.
   PSTRESS=    0.0 pullay stress

  Mass of Ions in am
   POMASS = 238.03208.98195.08
  Ionic Valenz
   ZVAL   =  14.00 15.00 10.00
  Atomic Wigner-Seitz radii
   RWIGS  =  -1.00 -1.00 -1.00
  virtual crystal weights
   VCA    =   1.00  1.00  1.00
   NELECT =      39.0000    total number of electrons
   NUPDOWN=      -1.0000    fix difference up-down

 DOS related values:
   EMIN   =  10.00;   EMAX   =-10.00  energy-range for DOS
   EFERMI =   0.00
   ISMEAR =     0;   SIGMA  =   0.01  broadening in eV -4-tet -1-fermi 0-gaus

 Electronic relaxation 2 (details)
   IALGO  =     38    algorithm
   LDIAG  =      T    sub-space diagonalisation (order eigenvalues)
   LSUBROT=      F    optimize rotation matrix (better conditioning)
   TURBO    =      0    0=normal 1=particle mesh
   IRESTART =      0    0=no restart 2=restart with 2 vectors
   NREBOOT  =      0    no. of reboots
   NMIN     =      0    reboot dimension
   EREF     =   0.00    reference energy to select bands
   IMIX   =      4    mixing-type and parameters
     AMIX     =   0.40;   BMIX     =  1.00
     AMIX_MAG =   1.60;   BMIX_MAG =  1.00
     AMIN     =   0.10
     WC   =   100.;   INIMIX=   1;  MIXPRE=   1;  MAXMIX= -45

 Intra band minimization:
   WEIMIN = 0.0000     energy-eigenvalue tresh-hold
   EBREAK =  0.10E-08  absolut break condition
   DEPER  =   0.30     relativ break condition

   TIME   =   0.40     timestep for ELM

  volume/ion in A,a.u.               =      25.32       170.85
  Fermi-wavevector in a.u.,A,eV,Ry     =   1.310929  2.477297 23.382089  1.718535
  Thomas-Fermi vector in A             =   2.441426

 Write flags
   LWAVE        =      F    write WAVECAR
   LDOWNSAMPLE  =      F    k-point downsampling of WAVECAR
   LCHARG       =      F    write CHGCAR
   LVTOT        =      F    write LOCPOT, total local potential
   LVHAR        =      F    write LOCPOT, Hartree potential only
   LELF         =      F    write electronic localiz. function (ELF)
   LORBIT       =      0    0 simple, 1 ext, 2 COOP (PROOUT), +10 PAW based schemes


 Dipole corrections
   LMONO  =      F    monopole corrections only (constant potential shift)
   LDIPOL =      F    correct potential (dipole corrections)
   IDIPOL =      0    1-x, 2-y, 3-z, 4-all directions
   EPSILON=  1.0000000 bulk dielectric constant

 Exchange correlation treatment:
   GGA     =    PS    GGA type
   LEXCH   =    14    internal setting for exchange type
   VOSKOWN=      0    Vosko Wilk Nusair interpolation
   LHFCALC =     F    Hartree Fock is set to
   LHFONE  =     F    Hartree Fock one center treatment
   AEXX    =    0.0000 exact exchange contribution

 Linear response parameters
   LEPSILON=     F    determine dielectric tensor
   LRPA    =     F    only Hartree local field effects (RPA)
   LNABLA  =     F    use nabla operator in PAW spheres
   LVEL    =     F    velocity operator in full k-point grid
   LINTERFAST=   F  fast interpolation
   KINTER  =     0    interpolate to denser k-point grid
   CSHIFT  =0.1000    complex shift for real part using Kramers Kronig
   OMEGAMAX=  -1.0    maximum frequency
   DEG_THRESHOLD= 0.2000000E-02 threshold for treating states as degnerate
   RTIME   =   -0.100 relaxation time in fs
  (WPLASMAI=    0.000 imaginary part of plasma frequency in eV, 0.658/RTIME)
   DFIELD  = 0.0000000 0.0000000 0.0000000 field for delta impulse in time

 Orbital magnetization related:
   ORBITALMAG=     F  switch on orbital magnetization
   LCHIMAG   =     F  perturbation theory with respect to B field
   DQ        =  0.001000  dq finite difference perturbation B field
   LLRAUG    =     F  two centre corrections for induced B field



--------------------------------------------------------------------------------------------------------


 Static calculation
 charge density and potential will be updated during run
 non-spin polarized calculation
 Variant of blocked Davidson
 Davidson routine will perform the subspace rotation
 perform sub-space diagonalisation
    after iterative eigenvector-optimisation
 modified Broyden-mixing scheme, WC =      100.0
 initial mixing is a Kerker type mixing with AMIX =  0.4000 and BMIX =      1.0000
 Hartree-type preconditioning will be used
 using additional bands            4
 reciprocal scheme for non local part
 use partial core corrections
 calculate Harris-corrections to forces
   (improved forces if not selfconsistent)
 use gradient corrections
 use of overlap-Matrix (Vanderbilt PP)
 Gauss-broadening in eV      SIGMA  =   0.01


--------------------------------------------------------------------------------------------------------


  energy-cutoff  :      700.00
  volume of cell :       75.95
      direct lattice vectors                 reciprocal lattice vectors
     0.000000000  3.361299178  3.361299178    -0.148752007  0.148752007  0.148752007
     3.361299178  0.000000000  3.361299178     0.148752007 -0.148752007  0.148752007
     3.361299178  3.361299178  0.000000000     0.148752007  0.148752007 -0.148752007

  length of vectors
     4.753594884  4.753594884  4.753594884     0.257646034  0.257646034  0.257646034



 k-points in units of 2pi/SCALE and weight: KPOINTS
   0.00000000  0.00000000  0.00000000       0.000
  -0.01159304  0.01159304  0.01159304       0.004
  -0.02318608  0.02318608  0.02318608       0.004
  -0.03477911  0.03477911  0.03477911       0.004
  -0.04637215  0.04637215  0.04637215       0.004
  -0.05796519  0.05796519  0.05796519       0.004
  -0.06955823  0.06955823  0.06955823       0.004
   0.00000000 -0.00000000  0.02318608       0.003
  -0.01159304  0.01159304  0.03477911       0.011
  -0.02318608  0.02318608  0.04637215       0.011
  -0.03477911  0.03477911  0.05796519       0.011
  -0.04637215  0.04637215  0.06955823       0.011
  -0.05796519  0.05796519  0.08115127       0.011
   0.08115127 -0.08115127 -0.05796519       0.011
   0.06955823 -0.06955823 -0.04637215       0.011
   0.05796519 -0.05796519 -0.03477911       0.011
   0.04637215 -0.04637215 -0.02318608       0.011
   0.03477911 -0.03477911 -0.01159304       0.011
   0.02318608 -0.02318608 -0.00000000       0.005
   0.00000000 -0.00000000  0.04637215       0.003
  -0.01159304  0.01159304  0.05796519       0.011
  -0.02318608  0.02318608  0.06955823       0.011
  -0.03477911  0.03477911  0.08115127       0.011
  -0.04637215  0.04637215  0.09274430       0.011
   0.09274430 -0.09274430 -0.04637215       0.011
   0.08115127 -0.08115127 -0.03477911       0.011
   0.06955823 -0.06955823 -0.02318608       0.011
   0.05796519 -0.05796519 -0.01159304       0.011
   0.04637215 -0.04637215  0.00000000       0.005
  -0.00000000  0.00000000  0.06955823       0.003
  -0.01159304  0.01159304  0.08115127       0.011
  -0.02318608  0.02318608  0.09274430       0.011
  -0.03477911  0.03477911  0.10433734       0.011
   0.10433734 -0.10433734 -0.03477911       0.011
   0.09274430 -0.09274430 -0.02318608       0.011
   0.08115127 -0.08115127 -0.01159304       0.011
   0.06955823 -0.06955823  0.00000000       0.005
   0.00000000 -0.00000000  0.09274430       0.003
  -0.01159304  0.01159304  0.10433734       0.011
  -0.02318608  0.02318608  0.11593038       0.011
   0.11593038 -0.11593038 -0.02318608       0.011
   0.10433734 -0.10433734 -0.01159304       0.011
   0.09274430 -0.09274430  0.00000000       0.005
   0.00000000 -0.00000000  0.11593038       0.003
  -0.01159304  0.01159304  0.12752342       0.011
   0.12752342 -0.12752342 -0.01159304       0.011
   0.11593038 -0.11593038 -0.00000000       0.005
   0.00000000 -0.00000000  0.13911646       0.003
   0.13911646 -0.13911646  0.00000000       0.005
   0.00000000  0.02318608  0.04637215       0.011
  -0.01159304  0.03477911  0.05796519       0.022
  -0.02318608  0.04637215  0.06955823       0.022
  -0.03477911  0.05796519  0.08115127       0.022
   0.10433734 -0.08115127 -0.05796519       0.022
   0.00000000  0.02318608  0.06955823       0.011
  -0.01159304  0.03477911  0.08115127       0.022
  -0.02318608  0.04637215  0.09274430       0.022
   0.11593038 -0.09274430 -0.04637215       0.022
   0.10433734 -0.08115127 -0.03477911       0.022
   0.09274430 -0.06955823 -0.02318608       0.022
   0.08115127 -0.05796519 -0.01159304       0.022
   0.06955823 -0.04637215  0.00000000       0.011
   0.00000000  0.02318608  0.09274430       0.011
  -0.01159304  0.03477911  0.10433734       0.022
   0.12752342 -0.10433734 -0.03477911       0.022
   0.11593038 -0.09274430 -0.02318608       0.022
   0.10433734 -0.08115127 -0.01159304       0.022
   0.09274430 -0.06955823 -0.00000000       0.011
   0.00000000  0.02318608  0.11593038       0.011
   0.13911646 -0.11593038 -0.02318608       0.022
   0.12752342 -0.10433734 -0.01159304       0.022
   0.11593038 -0.09274430 -0.00000000       0.011
   0.15070950 -0.12752342 -0.01159304       0.011
   0.13911646 -0.11593038 -0.00000000       0.011
   0.00000000  0.04637215  0.09274430       0.011
   0.13911646 -0.09274430 -0.04637215       0.022
   0.12752342 -0.08115127 -0.03477911       0.022
   0.15070950 -0.10433734 -0.03477911       0.011
   0.13911646 -0.09274430 -0.02318608       0.022
   0.12752342 -0.08115127 -0.01159304       0.022
   0.11593038 -0.06955823 -0.00000000       0.011
   0.15070950 -0.10433734 -0.01159304       0.011
   0.13911646 -0.09274430 -0.00000000       0.011
   0.15070950 -0.08115127 -0.01159304       0.011

 k-points in reciprocal lattice and weights: KPOINTS
   0.00000000  0.00000000  0.00000000       0.000
   0.07692308  0.00000000 -0.00000000       0.004
   0.15384615 -0.00000000 -0.00000000       0.004
   0.23076923  0.00000000 -0.00000000       0.004
   0.30769231 -0.00000000 -0.00000000       0.004
   0.38461538  0.00000000 -0.00000000       0.004
   0.46153846 -0.00000000  0.00000000       0.004
   0.07692308  0.07692308 -0.00000000       0.003
   0.15384615  0.07692308 -0.00000000       0.011
   0.23076923  0.07692308 -0.00000000       0.011
   0.30769231  0.07692308 -0.00000000       0.011
   0.38461538  0.07692308 -0.00000000       0.011
   0.46153846  0.07692308 -0.00000000       0.011
  -0.46153846  0.07692308  0.00000000       0.011
  -0.38461538  0.07692308  0.00000000       0.011
  -0.30769231  0.07692308  0.00000000       0.011
  -0.23076923  0.07692308 -0.00000000       0.011
  -0.15384615  0.07692308  0.00000000       0.011
  -0.07692308  0.07692308  0.00000000       0.005
   0.15384615  0.15384615 -0.00000000       0.003
   0.23076923  0.15384615 -0.00000000       0.011
   0.30769231  0.15384615 -0.00000000       0.011
   0.38461538  0.15384615 -0.00000000       0.011
   0.46153846  0.15384615 -0.00000000       0.011
  -0.46153846  0.15384615  0.00000000       0.011
  -0.38461538  0.15384615  0.00000000       0.011
  -0.30769231  0.15384615  0.00000000       0.011
  -0.23076923  0.15384615  0.00000000       0.011
  -0.15384615  0.15384615 -0.00000000       0.005
   0.23076923  0.23076923 -0.00000000       0.003
   0.30769231  0.23076923 -0.00000000       0.011
   0.38461538  0.23076923 -0.00000000       0.011
   0.46153846  0.23076923 -0.00000000       0.011
  -0.46153846  0.23076923  0.00000000       0.011
  -0.38461538  0.23076923 -0.00000000       0.011
  -0.30769231  0.23076923  0.00000000       0.011
  -0.23076923  0.23076923  0.00000000       0.005
   0.30769231  0.30769231 -0.00000000       0.003
   0.38461538  0.30769231 -0.00000000       0.011
   0.46153846  0.30769231 -0.00000000       0.011
  -0.46153846  0.30769231 -0.00000000       0.011
  -0.38461538  0.30769231 -0.00000000       0.011
  -0.30769231  0.30769231 -0.00000000       0.005
   0.38461538  0.38461538 -0.00000000       0.003
   0.46153846  0.38461538  0.00000000       0.011
  -0.46153846  0.38461538  0.00000000       0.011
  -0.38461538  0.38461538  0.00000000       0.005
   0.46153846  0.46153846 -0.00000000       0.003
  -0.46153846  0.46153846 -0.00000000       0.005
   0.23076923  0.15384615  0.07692308       0.011
   0.30769231  0.15384615  0.07692308       0.022
   0.38461538  0.15384615  0.07692308       0.022
   0.46153846  0.15384615  0.07692308       0.022
  -0.46153846  0.15384615  0.07692308       0.022
   0.30769231  0.23076923  0.07692308       0.011
   0.38461538  0.23076923  0.07692308       0.022
   0.46153846  0.23076923  0.07692308       0.022
  -0.46153846  0.23076923  0.07692308       0.022
  -0.38461538  0.23076923  0.07692308       0.022
  -0.30769231  0.23076923  0.07692308       0.022
  -0.23076923  0.23076923  0.07692308       0.022
  -0.15384615  0.23076923  0.07692308       0.011
   0.38461538  0.30769231  0.07692308       0.011
   0.46153846  0.30769231  0.07692308       0.022
  -0.46153846  0.30769231  0.07692308       0.022
  -0.38461538  0.30769231  0.07692308       0.022
  -0.30769231  0.30769231  0.07692308       0.022
  -0.23076923  0.30769231  0.07692308       0.011
   0.46153846  0.38461538  0.07692308       0.011
  -0.46153846  0.38461538  0.07692308       0.022
  -0.38461538  0.38461538  0.07692308       0.022
  -0.30769231  0.38461538  0.07692308       0.011
  -0.46153846  0.46153846  0.07692308       0.011
  -0.38461538  0.46153846  0.07692308       0.011
   0.46153846  0.30769231  0.15384615       0.011
  -0.46153846  0.30769231  0.15384615       0.022
  -0.38461538  0.30769231  0.15384615       0.022
  -0.46153846  0.38461538  0.15384615       0.011
  -0.38461538  0.38461538  0.15384615       0.022
  -0.30769231  0.38461538  0.15384615       0.022
  -0.23076923  0.38461538  0.15384615       0.011
  -0.38461538  0.46153846  0.15384615       0.011
  -0.30769231  0.46153846  0.15384615       0.011
  -0.30769231  0.46153846  0.23076923       0.011

 position of ions in fractional coordinates (direct lattice)
   0.25000000  0.25000000  0.25000000
   0.75000000  0.75000000  0.75000000
   0.00000000  0.00000000  0.00000000

 position of ions in cartesian coordinates  (Angst):
   1.68064959  1.68064959  1.68064959
   5.04194877  5.04194877  5.04194877
   0.00000000  0.00000000  0.00000000



--------------------------------------------------------------------------------------------------------


 k-point  1 :   0.0000 0.0000 0.0000  plane waves:    3143
 k-point  2 :   0.0769 0.0000-0.0000  plane waves:    3185
 k-point  3 :   0.1538-0.0000-0.0000  plane waves:    3206
 k-point  4 :   0.2308 0.0000-0.0000  plane waves:    3191
 k-point  5 :   0.3077-0.0000-0.0000  plane waves:    3197
 k-point  6 :   0.3846 0.0000-0.0000  plane waves:    3199
 k-point  7 :   0.4615-0.0000 0.0000  plane waves:    3190
 k-point  8 :   0.0769 0.0769-0.0000  plane waves:    3191
 k-point  9 :   0.1538 0.0769-0.0000  plane waves:    3200
 k-point 10 :   0.2308 0.0769-0.0000  plane waves:    3204
 k-point 11 :   0.3077 0.0769-0.0000  plane waves:    3200
 k-point 12 :   0.3846 0.0769-0.0000  plane waves:    3192
 k-point 13 :   0.4615 0.0769-0.0000  plane waves:    3192
 k-point 14 :  -0.4615 0.0769 0.0000  plane waves:    3197
 k-point 15 :  -0.3846 0.0769 0.0000  plane waves:    3198
 k-point 16 :  -0.3077 0.0769 0.0000  plane waves:    3196
 k-point 17 :  -0.2308 0.0769-0.0000  plane waves:    3196
 k-point 18 :  -0.1538 0.0769 0.0000  plane waves:    3206
 k-point 19 :  -0.0769 0.0769 0.0000  plane waves:    3189
 k-point 20 :   0.1538 0.1538-0.0000  plane waves:    3203
 k-point 21 :   0.2308 0.1538-0.0000  plane waves:    3194
 k-point 22 :   0.3077 0.1538-0.0000  plane waves:    3198
 k-point 23 :   0.3846 0.1538-0.0000  plane waves:    3208
 k-point 24 :   0.4615 0.1538-0.0000  plane waves:    3192
 k-point 25 :  -0.4615 0.1538 0.0000  plane waves:    3188
 k-point 26 :  -0.3846 0.1538 0.0000  plane waves:    3186
 k-point 27 :  -0.3077 0.1538 0.0000  plane waves:    3190
 k-point 28 :  -0.2308 0.1538 0.0000  plane waves:    3195
 k-point 29 :  -0.1538 0.1538-0.0000  plane waves:    3206
 k-point 30 :   0.2308 0.2308-0.0000  plane waves:    3191
 k-point 31 :   0.3077 0.2308-0.0000  plane waves:    3195
 k-point 32 :   0.3846 0.2308-0.0000  plane waves:    3195
 k-point 33 :   0.4615 0.2308-0.0000  plane waves:    3191
 k-point 34 :  -0.4615 0.2308 0.0000  plane waves:    3194
 k-point 35 :  -0.3846 0.2308-0.0000  plane waves:    3196
 k-point 36 :  -0.3077 0.2308 0.0000  plane waves:    3184
 k-point 37 :  -0.2308 0.2308 0.0000  plane waves:    3174
 k-point 38 :   0.3077 0.3077-0.0000  plane waves:    3190
 k-point 39 :   0.3846 0.3077-0.0000  plane waves:    3187
 k-point 40 :   0.4615 0.3077-0.0000  plane waves:    3195
 k-point 41 :  -0.4615 0.3077-0.0000  plane waves:    3198
 k-point 42 :  -0.3846 0.3077-0.0000  plane waves:    3201
 k-point 43 :  -0.3077 0.3077-0.0000  plane waves:    3198
 k-point 44 :   0.3846 0.3846-0.0000  plane waves:    3194
 k-point 45 :   0.4615 0.3846 0.0000  plane waves:    3212
 k-point 46 :  -0.4615 0.3846 0.0000  plane waves:    3205
 k-point 47 :  -0.3846 0.3846 0.0000  plane waves:    3200
 k-point 48 :   0.4615 0.4615-0.0000  plane waves:    3222
 k-point 49 :  -0.4615 0.4615-0.0000  plane waves:    3222
 k-point 50 :   0.2308 0.1538 0.0769  plane waves:    3206
 k-point 51 :   0.3077 0.1538 0.0769  plane waves:    3195
 k-point 52 :   0.3846 0.1538 0.0769  plane waves:    3191
 k-point 53 :   0.4615 0.1538 0.0769  plane waves:    3187
 k-point 54 :  -0.4615 0.1538 0.0769  plane waves:    3197
 k-point 55 :   0.3077 0.2308 0.0769  plane waves:    3191
 k-point 56 :   0.3846 0.2308 0.0769  plane waves:    3195
 k-point 57 :   0.4615 0.2308 0.0769  plane waves:    3198
 k-point 58 :  -0.4615 0.2308 0.0769  plane waves:    3194
 k-point 59 :  -0.3846 0.2308 0.0769  plane waves:    3195
 k-point 60 :  -0.3077 0.2308 0.0769  plane waves:    3187
 k-point 61 :  -0.2308 0.2308 0.0769  plane waves:    3186
 k-point 62 :  -0.1538 0.2308 0.0769  plane waves:    3188
 k-point 63 :   0.3846 0.3077 0.0769  plane waves:    3180
 k-point 64 :   0.4615 0.3077 0.0769  plane waves:    3188
 k-point 65 :  -0.4615 0.3077 0.0769  plane waves:    3188
 k-point 66 :  -0.3846 0.3077 0.0769  plane waves:    3198
 k-point 67 :  -0.3077 0.3077 0.0769  plane waves:    3186
 k-point 68 :  -0.2308 0.3077 0.0769  plane waves:    3189
 k-point 69 :   0.4615 0.3846 0.0769  plane waves:    3188
 k-point 70 :  -0.4615 0.3846 0.0769  plane waves:    3191
 k-point 71 :  -0.3846 0.3846 0.0769  plane waves:    3196
 k-point 72 :  -0.3077 0.3846 0.0769  plane waves:    3188
 k-point 73 :  -0.4615 0.4615 0.0769  plane waves:    3208
 k-point 74 :  -0.3846 0.4615 0.0769  plane waves:    3200
 k-point 75 :   0.4615 0.3077 0.1538  plane waves:    3200
 k-point 76 :  -0.4615 0.3077 0.1538  plane waves:    3189
 k-point 77 :  -0.3846 0.3077 0.1538  plane waves:    3190
 k-point 78 :  -0.4615 0.3846 0.1538  plane waves:    3197
 k-point 79 :  -0.3846 0.3846 0.1538  plane waves:    3193
 k-point 80 :  -0.3077 0.3846 0.1538  plane waves:    3204
 k-point 81 :  -0.2308 0.3846 0.1538  plane waves:    3199
 k-point 82 :  -0.3846 0.4615 0.1538  plane waves:    3195
 k-point 83 :  -0.3077 0.4615 0.1538  plane waves:    3194
 k-point 84 :  -0.3077 0.4615 0.2308  plane waves:    3200

 maximum and minimum number of plane-waves per node :       815      765

 maximum number of plane-waves:      3222
 maximum index in each direction:
   IXMAX=   10   IYMAX=   10   IZMAX=   10
   IXMIN=  -10   IYMIN=  -10   IZMIN=  -10


 parallel 3D FFT for wavefunctions:
    minimum data exchange during FFTs selected (reduces bandwidth)
 parallel 3D FFT for charge:
    minimum data exchange during FFTs selected (reduces bandwidth)


 total amount of memory used by VASP MPI-rank0    98809. kBytes
=======================================================================

   base      :      30000. kBytes
   nonl-proj :      52164. kBytes
   fftplans  :       6282. kBytes
   grid      :       3541. kBytes
   one-center:         49. kBytes
   wavefun   :       6773. kBytes

     INWAV:  cpu time    0.0003: real time    0.0005
 Broyden mixing: mesh for mixing (old mesh)
   NGX = 21   NGY = 21   NGZ = 21
  (NGX  = 84   NGY  = 84   NGZ  = 84)
  gives a total of   9261 points

 initial charge density was supplied:
 charge density of overlapping atoms calculated
 number of electron      39.0000000 magnetization
 keeping initial charge density in first step


--------------------------------------------------------------------------------------------------------


 Maximum index for augmentation-charges        32091 (set IRDMAX)


--------------------------------------------------------------------------------------------------------


 First call to EWALD:  gamma=   0.419
 Maximum number of real-space cells 3x 3x 3
 Maximum number of reciprocal cells 3x 3x 3

    FEWALD:  cpu time    0.0056: real time    0.0065


--------------------------------------- Iteration      1(   1)  ---------------------------------------


    POTLOK:  cpu time    0.0651: real time    0.1778
    SETDIJ:  cpu time    0.1050: real time    0.1055
     EDDAV:  cpu time    1.5267: real time    1.5320
       DOS:  cpu time    0.0041: real time    0.0045
    --------------------------------------------
      LOOP:  cpu time    1.7015: real time    1.8231

 eigenvalue-minimisations  :  4032
 total energy-change (2. order) : 0.4320773E+03  (-0.2245843E+04)
 number of electron      39.0000000 magnetization
 augmentation part       39.0000000 magnetization

 Free energy of the ion-electron system (eV)
  ---------------------------------------------------
  alpha Z        PSCENC =       207.02996264
  Ewald energy   TEWEN  =     -3546.63750822
  -Hartree energ DENC   =      -803.92411743
  -exchange      EXHF   =         0.00000000
  -V(xc)+E(xc)   XCENC  =        89.87939657
  PAW double counting   =      3513.29252893    -3436.88002192
  entropy T*S    EENTRO =        -0.00015734
  eigenvalues    EBANDS =       313.96508400
  atomic energy  EATOM  =      4095.35208632
  Solvation  Ediel_sol  =         0.00000000
  ---------------------------------------------------
  free energy    TOTEN  =       432.07725355 eV

  energy without entropy =      432.07741089  energy(sigma->0) =      432.07733222


--------------------------------------------------------------------------------------------------------




--------------------------------------- Iteration      1(   2)  ---------------------------------------


     EDDAV:  cpu time    1.6343: real time    1.6668
       DOS:  cpu time    0.0031: real time    0.0034
    --------------------------------------------
      LOOP:  cpu time    1.6372: real time    1.6709

 eigenvalue-minimisations  :  4536
 total energy-change (2. order) :-0.4025220E+03  (-0.3947451E+03)
 number of electron      39.0000000 magnetization
 augmentation part       39.0000000 magnetization

 Free energy of the ion-electron system (eV)
  ---------------------------------------------------
  alpha Z        PSCENC =       207.02996264
  Ewald energy   TEWEN  =     -3546.63750822
  -Hartree energ DENC   =      -803.92411743
  -exchange      EXHF   =         0.00000000
  -V(xc)+E(xc)   XCENC  =        89.87939657
  PAW double counting   =      3513.29252893    -3436.88002192
  entropy T*S    EENTRO =        -0.00032818
  eigenvalues    EBANDS =       -88.55677875
  atomic energy  EATOM  =      4095.35208632
  Solvation  Ediel_sol  =         0.00000000
  ---------------------------------------------------
  free energy    TOTEN  =        29.55521996 eV

  energy without entropy =       29.55554814  energy(sigma->0) =       29.55538405


--------------------------------------------------------------------------------------------------------




--------------------------------------- Iteration      1(   3)  ---------------------------------------


     EDDAV:  cpu time    1.8038: real time    1.8214
       DOS:  cpu time    0.0033: real time    0.0037
    --------------------------------------------
      LOOP:  cpu time    1.8072: real time    1.8258

 eigenvalue-minimisations  :  4904
 total energy-change (2. order) :-0.4989547E+02  (-0.4871157E+02)
 number of electron      39.0000000 magnetization
 augmentation part       39.0000000 magnetization

 Free energy of the ion-electron system (eV)
  ---------------------------------------------------
  alpha Z        PSCENC =       207.02996264
  Ewald energy   TEWEN  =     -3546.63750822
  -Hartree energ DENC   =      -803.92411743
  -exchange      EXHF   =         0.00000000
  -V(xc)+E(xc)   XCENC  =        89.87939657
  PAW double counting   =      3513.29252893    -3436.88002192
  entropy T*S    EENTRO =        -0.00097958
  eigenvalues    EBANDS =      -138.45159764
  atomic energy  EATOM  =      4095.35208632
  Solvation  Ediel_sol  =         0.00000000
  ---------------------------------------------------
  free energy    TOTEN  =       -20.34025033 eV

  energy without entropy =      -20.33927075  energy(sigma->0) =      -20.33976054


--------------------------------------------------------------------------------------------------------




--------------------------------------- Iteration      1(   4)  ---------------------------------------


     EDDAV:  cpu time    2.4975: real time    2.5224
       DOS:  cpu time    0.0032: real time    0.0046
    --------------------------------------------
      LOOP:  cpu time    2.5006: real time    2.5275

 eigenvalue-minimisations  :  7704
 total energy-change (2. order) :-0.5488228E+01  (-0.5458231E+01)
 number of electron      39.0000000 magnetization
 augmentation part       39.0000000 magnetization

 Free energy of the ion-electron system (eV)
  ---------------------------------------------------
  alpha Z        PSCENC =       207.02996264
  Ewald energy   TEWEN  =     -3546.63750822
  -Hartree energ DENC   =      -803.92411743
  -exchange      EXHF   =         0.00000000
  -V(xc)+E(xc)   XCENC  =        89.87939657
  PAW double counting   =      3513.29252893    -3436.88002192
  entropy T*S    EENTRO =        -0.00111787
  eigenvalues    EBANDS =      -143.93968770
  atomic energy  EATOM  =      4095.35208632
  Solvation  Ediel_sol  =         0.00000000
  ---------------------------------------------------
  free energy    TOTEN  =       -25.82847868 eV

  energy without entropy =      -25.82736081  energy(sigma->0) =      -25.82791974


--------------------------------------------------------------------------------------------------------




--------------------------------------- Iteration      1(   5)  ---------------------------------------


     EDDAV:  cpu time    1.9447: real time    1.9719
       DOS:  cpu time    0.0032: real time    0.0038
    CHARGE:  cpu time    0.3650: real time    0.3653
    MIXING:  cpu time    0.0061: real time    0.0066
    --------------------------------------------
      LOOP:  cpu time    2.3191: real time    2.3462

 eigenvalue-minimisations  :  5568
 total energy-change (2. order) :-0.1856245E+00  (-0.1853444E+00)
 number of electron      39.0000001 magnetization
 augmentation part        8.9142694 magnetization

 Broyden mixing:
  rms(total) = 0.14695E+01    rms(broyden)= 0.14695E+01
  rms(prec ) = 0.44207E+01
  weight for this iteration     100.00

 Free energy of the ion-electron system (eV)
  ---------------------------------------------------
  alpha Z        PSCENC =       207.02996264
  Ewald energy   TEWEN  =     -3546.63750822
  -Hartree energ DENC   =      -803.92411743
  -exchange      EXHF   =         0.00000000
  -V(xc)+E(xc)   XCENC  =        89.87939657
  PAW double counting   =      3513.29252893    -3436.88002192
  entropy T*S    EENTRO =        -0.00109707
  eigenvalues    EBANDS =      -144.12533297
  atomic energy  EATOM  =      4095.35208632
  Solvation  Ediel_sol  =         0.00000000
  ---------------------------------------------------
  free energy    TOTEN  =       -26.01410315 eV

  energy without entropy =      -26.01300608  energy(sigma->0) =      -26.01355461


--------------------------------------------------------------------------------------------------------




--------------------------------------- Iteration      1(   6)  ---------------------------------------


    POTLOK:  cpu time    0.0402: real time    0.0733
    SETDIJ:  cpu time    0.1022: real time    0.1024
     EDDAV:  cpu time    2.0259: real time    2.0261
       DOS:  cpu time    0.0029: real time    0.0031
    CHARGE:  cpu time    0.3207: real time    0.3208
    MIXING:  cpu time    0.0044: real time    0.0055
    --------------------------------------------
      LOOP:  cpu time    2.4962: real time    2.5317

 eigenvalue-minimisations  :  6048
 total energy-change (2. order) :-0.8168409E+01  (-0.2102719E+02)
 number of electron      39.0000000 magnetization
 augmentation part        7.0122437 magnetization

 Broyden mixing:
  rms(total) = 0.22033E+01    rms(broyden)= 0.22033E+01
  rms(prec ) = 0.60995E+01
  weight for this iteration     100.00

 eigenvalues of (default mixing * dielectric matrix)
  average eigenvalue GAMMA=   0.3571
  0.3571

 Free energy of the ion-electron system (eV)
  ---------------------------------------------------
  alpha Z        PSCENC =       207.02996264
  Ewald energy   TEWEN  =     -3546.63750822
  -Hartree energ DENC   =      -813.34435161
  -exchange      EXHF   =         0.00000000
  -V(xc)+E(xc)   XCENC  =        90.47205013
  PAW double counting   =      3790.40506236    -3713.91523163
  entropy T*S    EENTRO =        -0.00005469
  eigenvalues    EBANDS =      -143.54452740
  atomic energy  EATOM  =      4095.35208632
  Solvation  Ediel_sol  =         0.00000000
  ---------------------------------------------------
  free energy    TOTEN  =       -34.18251210 eV

  energy without entropy =      -34.18245741  energy(sigma->0) =      -34.18248475


--------------------------------------------------------------------------------------------------------




--------------------------------------- Iteration      1(   7)  ---------------------------------------


    POTLOK:  cpu time    0.0462: real time    0.0745
    SETDIJ:  cpu time    0.1017: real time    0.1018
     EDDAV:  cpu time    2.0025: real time    2.0029
       DOS:  cpu time    0.0032: real time    0.0035
    CHARGE:  cpu time    0.3056: real time    0.3056
    MIXING:  cpu time    0.0054: real time    0.0055
    --------------------------------------------
      LOOP:  cpu time    2.4646: real time    2.4939

 eigenvalue-minimisations  :  5808
 total energy-change (2. order) : 0.9405587E+01  (-0.2689948E+01)
 number of electron      39.0000000 magnetization
 augmentation part        7.5187440 magnetization

 Broyden mixing:
  rms(total) = 0.10356E+01    rms(broyden)= 0.10356E+01
  rms(prec ) = 0.30406E+01
  weight for this iteration     100.00

 eigenvalues of (default mixing * dielectric matrix)
  average eigenvalue GAMMA=   0.7477
  0.7477  0.7477

 Free energy of the ion-electron system (eV)
  ---------------------------------------------------
  alpha Z        PSCENC =       207.02996264
  Ewald energy   TEWEN  =     -3546.63750822
  -Hartree energ DENC   =      -799.77367298
  -exchange      EXHF   =         0.00000000
  -V(xc)+E(xc)   XCENC  =        89.82614749
  PAW double counting   =      3880.60664383    -3808.42469848
  entropy T*S    EENTRO =        -0.00077496
  eigenvalues    EBANDS =      -142.75511122
  atomic energy  EATOM  =      4095.35208632
  Solvation  Ediel_sol  =         0.00000000
  ---------------------------------------------------
  free energy    TOTEN  =       -24.77692558 eV

  energy without entropy =      -24.77615062  energy(sigma->0) =      -24.77653810


--------------------------------------------------------------------------------------------------------




--------------------------------------- Iteration      1(   8)  ---------------------------------------


    POTLOK:  cpu time    0.0382: real time    0.0777
    SETDIJ:  cpu time    0.1034: real time    0.1036
     EDDAV:  cpu time    1.9798: real time    1.9801
       DOS:  cpu time    0.0033: real time    0.0035
    CHARGE:  cpu time    0.3062: real time    0.3063
    MIXING:  cpu time    0.0045: real time    0.0045
    --------------------------------------------
      LOOP:  cpu time    2.4353: real time    2.4745

 eigenvalue-minimisations  :  5896
 total energy-change (2. order) : 0.1805352E+00  (-0.3460268E+01)
 number of electron      39.0000001 magnetization
 augmentation part        8.9590682 magnetization

 Broyden mixing:
  rms(total) = 0.85644E+00    rms(broyden)= 0.85644E+00
  rms(prec ) = 0.27694E+01
  weight for this iteration     100.00

 eigenvalues of (default mixing * dielectric matrix)
  average eigenvalue GAMMA=   0.9192
  1.6809  0.5383  0.5383

 Free energy of the ion-electron system (eV)
  ---------------------------------------------------
  alpha Z        PSCENC =       207.02996264
  Ewald energy   TEWEN  =     -3546.63750822
  -Hartree energ DENC   =      -788.87057701
  -exchange      EXHF   =         0.00000000
  -V(xc)+E(xc)   XCENC  =        89.36076744
  PAW double counting   =      3940.52489594    -3871.36081811
  entropy T*S    EENTRO =        -0.00142351
  eigenvalues    EBANDS =      -149.99377586
  atomic energy  EATOM  =      4095.35208632
  Solvation  Ediel_sol  =         0.00000000
  ---------------------------------------------------
  free energy    TOTEN  =       -24.59639037 eV

  energy without entropy =      -24.59496687  energy(sigma->0) =      -24.59567862


--------------------------------------------------------------------------------------------------------




--------------------------------------- Iteration      1(   9)  ---------------------------------------


    POTLOK:  cpu time    0.0379: real time    0.0653
    SETDIJ:  cpu time    0.1025: real time    0.1026
     EDDAV:  cpu time    2.0971: real time    2.0974
       DOS:  cpu time    0.0032: real time    0.0035
    CHARGE:  cpu time    0.3046: real time    0.3047
    MIXING:  cpu time    0.0083: real time    0.0084
    --------------------------------------------
      LOOP:  cpu time    2.5536: real time    2.5866

 eigenvalue-minimisations  :  6296
 total energy-change (2. order) : 0.8785673E+00  (-0.9463158E+00)
 number of electron      39.0000000 magnetization
 augmentation part        8.0574205 magnetization

 Broyden mixing:
  rms(total) = 0.14720E+00    rms(broyden)= 0.14720E+00
  rms(prec ) = 0.26154E+00
  weight for this iteration     100.00

 eigenvalues of (default mixing * dielectric matrix)
  average eigenvalue GAMMA=   0.9201
  2.0345  0.5825  0.5825  0.4811

 Free energy of the ion-electron system (eV)
  ---------------------------------------------------
  alpha Z        PSCENC =       207.02996264
  Ewald energy   TEWEN  =     -3546.63750822
  -Hartree energ DENC   =      -793.24921339
  -exchange      EXHF   =         0.00000000
  -V(xc)+E(xc)   XCENC  =        89.58280857
  PAW double counting   =      4054.43377410    -3986.01766943
  entropy T*S    EENTRO =        -0.00131093
  eigenvalues    EBANDS =      -144.21075269
  atomic energy  EATOM  =      4095.35208632
  Solvation  Ediel_sol  =         0.00000000
  ---------------------------------------------------
  free energy    TOTEN  =       -23.71782303 eV

  energy without entropy =      -23.71651210  energy(sigma->0) =      -23.71716756


--------------------------------------------------------------------------------------------------------




--------------------------------------- Iteration      1(  10)  ---------------------------------------


    POTLOK:  cpu time    0.0390: real time    0.0872
    SETDIJ:  cpu time    0.1015: real time    0.1016
     EDDAV:  cpu time    2.2500: real time    2.2502
       DOS:  cpu time    0.0033: real time    0.0034
    CHARGE:  cpu time    0.3032: real time    0.3033
    MIXING:  cpu time    0.0058: real time    0.0059
    --------------------------------------------
      LOOP:  cpu time    2.7027: real time    2.7478

 eigenvalue-minimisations  :  6888
 total energy-change (2. order) :-0.6343291E-01  (-0.7071070E-01)
 number of electron      39.0000000 magnetization
 augmentation part        7.9431693 magnetization

 Broyden mixing:
  rms(total) = 0.18601E+00    rms(broyden)= 0.18601E+00
  rms(prec ) = 0.60845E+00
  weight for this iteration     100.00

 eigenvalues of (default mixing * dielectric matrix)
  average eigenvalue GAMMA=   0.9468
  1.8873  1.1008  0.5331  0.5331  0.6795

 Free energy of the ion-electron system (eV)
  ---------------------------------------------------
  alpha Z        PSCENC =       207.02996264
  Ewald energy   TEWEN  =     -3546.63750822
  -Hartree energ DENC   =      -792.33212201
  -exchange      EXHF   =         0.00000000
  -V(xc)+E(xc)   XCENC  =        89.56336507
  PAW double counting   =      4122.07085419    -4054.47873455
  entropy T*S    EENTRO =        -0.00129979
  eigenvalues    EBANDS =      -144.34785958
  atomic energy  EATOM  =      4095.35208632
  Solvation  Ediel_sol  =         0.00000000
  ---------------------------------------------------
  free energy    TOTEN  =       -23.78125594 eV

  energy without entropy =      -23.77995614  energy(sigma->0) =      -23.78060604


--------------------------------------------------------------------------------------------------------




--------------------------------------- Iteration      1(  11)  ---------------------------------------


    POTLOK:  cpu time    0.0386: real time    0.0703
    SETDIJ:  cpu time    0.1022: real time    0.1023
     EDDAV:  cpu time    2.0407: real time    2.0410
       DOS:  cpu time    0.0034: real time    0.0035
    CHARGE:  cpu time    0.3088: real time    0.3090
    MIXING:  cpu time    0.0046: real time    0.0047
    --------------------------------------------
      LOOP:  cpu time    2.4983: real time    2.5319

 eigenvalue-minimisations  :  6040
 total energy-change (2. order) : 0.5298865E-01  (-0.4452258E-01)
 number of electron      39.0000000 magnetization
 augmentation part        8.1222061 magnetization

 Broyden mixing:
  rms(total) = 0.33576E-01    rms(broyden)= 0.33575E-01
  rms(prec ) = 0.50602E-01
  weight for this iteration     100.00

 eigenvalues of (default mixing * dielectric matrix)
  average eigenvalue GAMMA=   1.1485
  2.1713  2.1713  0.5363  0.5363  0.8452  0.6309

 Free energy of the ion-electron system (eV)
  ---------------------------------------------------
  alpha Z        PSCENC =       207.02996264
  Ewald energy   TEWEN  =     -3546.63750822
  -Hartree energ DENC   =      -791.25167963
  -exchange      EXHF   =         0.00000000
  -V(xc)+E(xc)   XCENC  =        89.51044289
  PAW double counting   =      4112.51857324    -4045.09206493
  entropy T*S    EENTRO =        -0.00172593
  eigenvalues    EBANDS =      -145.15635366
  atomic energy  EATOM  =      4095.35208632
  Solvation  Ediel_sol  =         0.00000000
  ---------------------------------------------------
  free energy    TOTEN  =       -23.72826728 eV

  energy without entropy =      -23.72654136  energy(sigma->0) =      -23.72740432


--------------------------------------------------------------------------------------------------------




--------------------------------------- Iteration      1(  12)  ---------------------------------------


    POTLOK:  cpu time    0.0385: real time    0.0740
    SETDIJ:  cpu time    0.1025: real time    0.1053
     EDDAV:  cpu time    2.2410: real time    2.2412
       DOS:  cpu time    0.0033: real time    0.0036
    CHARGE:  cpu time    0.3042: real time    0.3043
    MIXING:  cpu time    0.0049: real time    0.0050
    --------------------------------------------
      LOOP:  cpu time    2.6944: real time    2.7316

 eigenvalue-minimisations  :  6720
 total energy-change (2. order) :-0.1442468E-02  (-0.1388364E-02)
 number of electron      39.0000000 magnetization
 augmentation part        8.1329075 magnetization

 Broyden mixing:
  rms(total) = 0.26859E-01    rms(broyden)= 0.26859E-01
  rms(prec ) = 0.74931E-01
  weight for this iteration     100.00

 eigenvalues of (default mixing * dielectric matrix)
  average eigenvalue GAMMA=   1.2249
  2.5014  2.5014  0.9405  0.9405  0.5373  0.5373  0.6157

 Free energy of the ion-electron system (eV)
  ---------------------------------------------------
  alpha Z        PSCENC =       207.02996264
  Ewald energy   TEWEN  =     -3546.63750822
  -Hartree energ DENC   =      -791.24484679
  -exchange      EXHF   =         0.00000000
  -V(xc)+E(xc)   XCENC  =        89.50699665
  PAW double counting   =      4117.35939591    -4049.93983249
  entropy T*S    EENTRO =        -0.00181409
  eigenvalues    EBANDS =      -145.15414967
  atomic energy  EATOM  =      4095.35208632
  Solvation  Ediel_sol  =         0.00000000
  ---------------------------------------------------
  free energy    TOTEN  =       -23.72970975 eV

  energy without entropy =      -23.72789566  energy(sigma->0) =      -23.72880271


--------------------------------------------------------------------------------------------------------




--------------------------------------- Iteration      1(  13)  ---------------------------------------


    POTLOK:  cpu time    0.0499: real time    0.0802
    SETDIJ:  cpu time    0.1044: real time    0.1045
     EDDAV:  cpu time    2.1039: real time    2.1041
       DOS:  cpu time    0.0030: real time    0.0033
    CHARGE:  cpu time    0.3084: real time    0.3084
    MIXING:  cpu time    0.0062: real time    0.0063
    --------------------------------------------
      LOOP:  cpu time    2.5757: real time    2.6073

 eigenvalue-minimisations  :  6336
 total energy-change (2. order) : 0.4679269E-03  (-0.2323601E-03)
 number of electron      39.0000000 magnetization
 augmentation part        8.1192956 magnetization

 Broyden mixing:
  rms(total) = 0.10108E-01    rms(broyden)= 0.10108E-01
  rms(prec ) = 0.31874E-01
  weight for this iteration     100.00

 eigenvalues of (default mixing * dielectric matrix)
  average eigenvalue GAMMA=   1.2237
  2.5636  2.1831  1.5240  0.5375  0.5375  0.6169  0.9134  0.9134

 Free energy of the ion-electron system (eV)
  ---------------------------------------------------
  alpha Z        PSCENC =       207.02996264
  Ewald energy   TEWEN  =     -3546.63750822
  -Hartree energ DENC   =      -791.47011631
  -exchange      EXHF   =         0.00000000
  -V(xc)+E(xc)   XCENC  =        89.51323248
  PAW double counting   =      4118.30450572    -4050.76394764
  entropy T*S    EENTRO =        -0.00178397
  eigenvalues    EBANDS =      -145.05567285
  atomic energy  EATOM  =      4095.35208632
  Solvation  Ediel_sol  =         0.00000000
  ---------------------------------------------------
  free energy    TOTEN  =       -23.72924183 eV

  energy without entropy =      -23.72745786  energy(sigma->0) =      -23.72834984


--------------------------------------------------------------------------------------------------------




--------------------------------------- Iteration      1(  14)  ---------------------------------------


    POTLOK:  cpu time    0.0385: real time    0.0808
    SETDIJ:  cpu time    0.1023: real time    0.1023
     EDDAV:  cpu time    2.3002: real time    2.3025
       DOS:  cpu time    0.0031: real time    0.0033
    CHARGE:  cpu time    0.3023: real time    0.3041
    MIXING:  cpu time    0.0055: real time    0.0060
    --------------------------------------------
      LOOP:  cpu time    2.7518: real time    2.7996

 eigenvalue-minimisations  :  7088
 total energy-change (2. order) : 0.1023912E-03  (-0.1574609E-03)
 number of electron      39.0000000 magnetization
 augmentation part        8.1081848 magnetization

 Broyden mixing:
  rms(total) = 0.25498E-02    rms(broyden)= 0.25498E-02
  rms(prec ) = 0.72743E-02
  weight for this iteration     100.00

 eigenvalues of (default mixing * dielectric matrix)
  average eigenvalue GAMMA=   1.1757
  2.5972  1.9809  1.7173  0.5375  0.5375  0.6207  0.9121  0.8392  0.8392

 Free energy of the ion-electron system (eV)
  ---------------------------------------------------
  alpha Z        PSCENC =       207.02996264
  Ewald energy   TEWEN  =     -3546.63750822
  -Hartree energ DENC   =      -791.50094507
  -exchange      EXHF   =         0.00000000
  -V(xc)+E(xc)   XCENC  =        89.51498593
  PAW double counting   =      4120.64932572    -4053.08864959
  entropy T*S    EENTRO =        -0.00175385
  eigenvalues    EBANDS =      -145.04664331
  atomic energy  EATOM  =      4095.35208632
  Solvation  Ediel_sol  =         0.00000000
  ---------------------------------------------------
  free energy    TOTEN  =       -23.72913943 eV

  energy without entropy =      -23.72738558  energy(sigma->0) =      -23.72826251


--------------------------------------------------------------------------------------------------------




--------------------------------------- Iteration      1(  15)  ---------------------------------------


    POTLOK:  cpu time    0.0449: real time    0.0696
    SETDIJ:  cpu time    0.1019: real time    0.1022
     EDDAV:  cpu time    2.0412: real time    2.0414
       DOS:  cpu time    0.0034: real time    0.0036
    CHARGE:  cpu time    0.3091: real time    0.3092
    MIXING:  cpu time    0.0061: real time    0.0062
    --------------------------------------------
      LOOP:  cpu time    2.5066: real time    2.5325

 eigenvalue-minimisations  :  6024
 total energy-change (2. order) : 0.2434277E-05  (-0.1464385E-04)
 number of electron      39.0000000 magnetization
 augmentation part        8.1117399 magnetization

 Broyden mixing:
  rms(total) = 0.11255E-02    rms(broyden)= 0.11255E-02
  rms(prec ) = 0.33099E-02
  weight for this iteration     100.00

 eigenvalues of (default mixing * dielectric matrix)
  average eigenvalue GAMMA=   1.2782
  2.6506  2.2238  1.6725  1.6725  0.5375  0.5375  1.0432  1.0432  0.6199  0.7811

 Free energy of the ion-electron system (eV)
  ---------------------------------------------------
  alpha Z        PSCENC =       207.02996264
  Ewald energy   TEWEN  =     -3546.63750822
  -Hartree energ DENC   =      -791.46773594
  -exchange      EXHF   =         0.00000000
  -V(xc)+E(xc)   XCENC  =        89.51367545
  PAW double counting   =      4120.95289003    -4053.39554858
  entropy T*S    EENTRO =        -0.00176454
  eigenvalues    EBANDS =      -145.07519416
  atomic energy  EATOM  =      4095.35208632
  Solvation  Ediel_sol  =         0.00000000
  ---------------------------------------------------
  free energy    TOTEN  =       -23.72913700 eV

  energy without entropy =      -23.72737246  energy(sigma->0) =      -23.72825473


--------------------------------------------------------------------------------------------------------




--------------------------------------- Iteration      1(  16)  ---------------------------------------


    POTLOK:  cpu time    0.0382: real time    0.0756
    SETDIJ:  cpu time    0.1045: real time    0.1046
     EDDAV:  cpu time    2.2029: real time    2.2032
       DOS:  cpu time    0.0033: real time    0.0036
    CHARGE:  cpu time    0.3044: real time    0.3045
    MIXING:  cpu time    0.0070: real time    0.0137
    --------------------------------------------
      LOOP:  cpu time    2.6604: real time    2.7066

 eigenvalue-minimisations  :  6704
 total energy-change (2. order) : 0.7728158E-06  (-0.1380234E-05)
 number of electron      39.0000000 magnetization
 augmentation part        8.1112317 magnetization

 Broyden mixing:
  rms(total) = 0.23744E-03    rms(broyden)= 0.23731E-03
  rms(prec ) = 0.52720E-03
  weight for this iteration     100.00

 eigenvalues of (default mixing * dielectric matrix)
  average eigenvalue GAMMA=   1.2905
  2.8364  2.0822  2.0822  1.7395  0.5375  0.5375  1.0416  1.0416  0.6193  0.8389
  0.8389

 Free energy of the ion-electron system (eV)
  ---------------------------------------------------
  alpha Z        PSCENC =       207.02996264
  Ewald energy   TEWEN  =     -3546.63750822
  -Hartree energ DENC   =      -791.47577352
  -exchange      EXHF   =         0.00000000
  -V(xc)+E(xc)   XCENC  =        89.51400649
  PAW double counting   =      4121.23760447    -4053.67531240
  entropy T*S    EENTRO =        -0.00176258
  eigenvalues    EBANDS =      -145.07243942
  atomic energy  EATOM  =      4095.35208632
  Solvation  Ediel_sol  =         0.00000000
  ---------------------------------------------------
  free energy    TOTEN  =       -23.72913623 eV

  energy without entropy =      -23.72737365  energy(sigma->0) =      -23.72825494


--------------------------------------------------------------------------------------------------------




--------------------------------------- Iteration      1(  17)  ---------------------------------------


    POTLOK:  cpu time    0.0460: real time    0.0686
    SETDIJ:  cpu time    0.1015: real time    0.1015
     EDDAV:  cpu time    1.9306: real time    1.9308
       DOS:  cpu time    0.0033: real time    0.0035
    CHARGE:  cpu time    0.3085: real time    0.3094
    MIXING:  cpu time    0.0062: real time    0.0063
    --------------------------------------------
      LOOP:  cpu time    2.3960: real time    2.4175

 eigenvalue-minimisations  :  5680
 total energy-change (2. order) :-0.9889663E-07  (-0.2673441E-06)
 number of electron      39.0000000 magnetization
 augmentation part        8.1108448 magnetization

 Broyden mixing:
  rms(total) = 0.34427E-03    rms(broyden)= 0.34418E-03
  rms(prec ) = 0.10246E-02
  weight for this iteration     100.00

 eigenvalues of (default mixing * dielectric matrix)
  average eigenvalue GAMMA=   1.3127
  2.6045  2.3049  2.3049  1.7557  0.5375  0.5375  0.6195  1.1342  1.1342  1.0156
  1.0156  0.7880

 Free energy of the ion-electron system (eV)
  ---------------------------------------------------
  alpha Z        PSCENC =       207.02996264
  Ewald energy   TEWEN  =     -3546.63750822
  -Hartree energ DENC   =      -791.47801935
  -exchange      EXHF   =         0.00000000
  -V(xc)+E(xc)   XCENC  =        89.51415481
  PAW double counting   =      4121.38974140    -4053.82672069
  entropy T*S    EENTRO =        -0.00176103
  eigenvalues    EBANDS =      -145.07107220
  atomic energy  EATOM  =      4095.35208632
  Solvation  Ediel_sol  =         0.00000000
  ---------------------------------------------------
  free energy    TOTEN  =       -23.72913633 eV

  energy without entropy =      -23.72737530  energy(sigma->0) =      -23.72825581


--------------------------------------------------------------------------------------------------------




--------------------------------------- Iteration      1(  18)  ---------------------------------------


    POTLOK:  cpu time    0.0501: real time    0.0757
    SETDIJ:  cpu time    0.1036: real time    0.1037
     EDDAV:  cpu time    1.8289: real time    1.8291
       DOS:  cpu time    0.0035: real time    0.0040
    CHARGE:  cpu time    0.3283: real time    0.3295
    MIXING:  cpu time    0.0060: real time    0.0064
    --------------------------------------------
      LOOP:  cpu time    2.3204: real time    2.3486

 eigenvalue-minimisations  :  5264
 total energy-change (2. order) : 0.1275130E-06  (-0.1927268E-06)
 number of electron      39.0000000 magnetization
 augmentation part        8.1111874 magnetization

 Broyden mixing:
  rms(total) = 0.11924E-03    rms(broyden)= 0.11899E-03
  rms(prec ) = 0.37645E-03
  weight for this iteration     100.00

 eigenvalues of (default mixing * dielectric matrix)
  average eigenvalue GAMMA=   1.3207
  2.6669  2.3560  2.3560  1.8647  1.5719  0.5375  0.5375  1.0517  1.0517  0.6195
  0.8861  0.8861  0.7832

 Free energy of the ion-electron system (eV)
  ---------------------------------------------------
  alpha Z        PSCENC =       207.02996264
  Ewald energy   TEWEN  =     -3546.63750822
  -Hartree energ DENC   =      -791.47541540
  -exchange      EXHF   =         0.00000000
  -V(xc)+E(xc)   XCENC  =        89.51406208
  PAW double counting   =      4121.39554150    -4053.83347564
  entropy T*S    EENTRO =        -0.00176259
  eigenvalues    EBANDS =      -145.07262689
  atomic energy  EATOM  =      4095.35208632
  Solvation  Ediel_sol  =         0.00000000
  ---------------------------------------------------
  free energy    TOTEN  =       -23.72913620 eV

  energy without entropy =      -23.72737361  energy(sigma->0) =      -23.72825490


--------------------------------------------------------------------------------------------------------




[...]
  212              fftbas_plan_mpi                       0.079185                     12   6
  213                dfftw_execute                         0.035166                   36   7
  214                map_backward                          0.004648                   12   7
  215                  map_gather                            0.001321                  6   8
  216                  m_alltoallv_z                         0.001936                  6   8
  217                  map_scatter                           0.001104                  6   8
  218                map_forward                           0.036296                   12   7
  219                  map_gather                            0.017966                  6   8
  220                  m_alltoallv_z                         0.006142                  6   8
  221                  map_scatter                           0.011883                  6   8
  222            M_sumb_d                              0.009910                        6   5
  223          M_sumb_d                              0.000031                          1   4
  224        setdij_                               1.691164                           20   3
  225          fft3d_mpi                             0.283076                         40   4
  226            fftbas_plan_mpi                       0.260160                       40   5
  227              dfftw_execute                         0.116964                    120   6
  228              map_backward                          0.015614                     40   6
  229                map_gather                            0.004512                   20   7
  230                m_alltoallv_z                         0.006402                   20   7
  231                map_scatter                           0.003681                   20   7
  232              map_forward                           0.117675                     40   6
  233                map_gather                            0.057906                   20   7
  234                m_alltoallv_z                         0.019639                   20   7
  235                map_scatter                           0.039166                   20   7
  236          M_sumb_d                              0.021190                         20   4
  237        set_dd_magatom                        0.000003                            1   3
  238        set_dd_paw                            0.018012                            1   3
  239          set_rsgf_all                          0.000003                          1   4
  240          M_sumb_d                              0.017860                          8   4
  241        strkin                                0.001339                            1   3
  242          M_sumb_d                              0.000692                          1   4
  243        strelo                                0.003108                            1   3
  244          M_sumb_d                              0.000238                          2   4
  245        strenl                                1.123844                            1   3
  246          spher                                 0.822314                         19   4
  247          phase                                 0.012753                        189   4
  248          proj1                                 0.262631                       1134   4
  249            crexp_mul_wave                        0.033460                     3402   5
  250            M_sumb_d                              0.086348                     1134   5
  251          M_sumb_d                              0.002896                          1   4
  252        M_sumb_d                              0.000239                            6   3
  253        fft3d_mpi                             0.017856                           11   3
  254          fftbas_plan_mpi                       0.016511                         11   4
  255            dfftw_execute                         0.006318                       33   5
  256            map_forward                           0.003644                       10   5
  257              map_gather                            0.000750                      5   6
  258              m_alltoallv_z                         0.001561                      5   6
  259              map_scatter                           0.001088                      5   6
  260            map_backward                          0.004220                       12   5
  261              map_gather                            0.001224                      6   6
  262              m_alltoallv_z                         0.001512                      6   6
  263              map_scatter                           0.001107                      6   6
  264        ggaall_grid                           0.002077                            1   3
  265        forhar                                0.007454                            2   3
  266          M_sumb_d                              0.000125                          2   4
  267        strehar                               0.003169                            1   3
  268          M_sumb_d                              0.000171                          1   4
  269        chggra                                0.007492                            1   3
  270          fft3d_mpi                             0.004797                          3   4
  271            fftbas_plan_mpi                       0.004439                        3   5
  272              dfftw_execute                         0.001723                      9   6
  273              map_backward                          0.000750                      2   6
  274                map_gather                            0.000194                    1   7
  275                m_alltoallv_z                         0.000320                    1   7
  276                map_scatter                           0.000181                    1   7
  277              map_forward                           0.001245                      4   6
  278                map_gather                            0.000257                    2   7
  279                m_alltoallv_z                         0.000480                    2   7
  280                map_scatter                           0.000407                    2   7
  281          M_sumb_d                              0.000130                          3   4
  282        brmix                                 0.030385                            1   3
  283          M_sumb_d                              0.000239                          6   4
  284          brpre                                 0.000052                          1   4
  285          setg0                                 0.001690                          1   4
  286          broyd                                 0.003124                          1   4
  287            M_sumb_d                              0.000850                       21   5
  288            brget                                 0.000456                       79   5
  289            brsav                                 0.000100                       19   5
  290          M_bcast_z                             0.024086                          1   4
  291          M_bcast_d                             0.000045                          1   4
  292        M_bcast_d                             0.000276                            2   3
  293      potlok                                0.033420                              1   2
  294        fft3d_mpi                             0.022310                           13   3
  295          fftbas_plan_mpi                       0.020618                         13   4
  296            dfftw_execute                         0.007437                       39   5
  297            map_forward                           0.004749                       14   5
  298              map_gather                            0.000870                      8   6
  299              m_alltoallv_z                         0.001898                      8   6
  300              map_scatter                           0.001570                      8   6
  301            map_backward                          0.005722                       12   5
  302              map_gather                            0.001806                      6   6
  303              m_alltoallv_z                         0.002064                      6   6
  304              map_scatter                           0.001471                      6   6
  305        ggaall_grid                           0.001981                            1   3
  306        M_sumb_d                              0.000226                            6   3
  307        M_bcast_d                             0.000112                            1   3
  308      potlok_metagga                        0.000003                              1   2
  309      set_dd_magatom                        0.000003                              1   2
  310      set_dd_paw                            0.000491                              1   2
  311        set_rsgf_all                          0.000004                            1   3
  312        M_sumb_d                              0.000304                            8   3
  313      densta                                0.002446                              1   2
  314        M_sumb_d                              0.000818                           42   3
  315      lprj_proall                           0.000008                              1   2

 Flat profile
 ============

             routine name                   CPU           calls
 ---------------------------------------------------------------
 total_time                             14.474154           1
 dfftw_execute                           7.475309       62337
 eddav                                   6.610916          19
 fftbas_plan_mpi                         4.548579       20781
 M_sumb_d                                3.440430       56914
 setdij_                                 3.125725          43
 set_charge                              2.750772          15
 m_alltoallv_z                           2.100468       20810
 elmin                                   1.807703           1
 pdssyex_zheevx                          1.779376         399
 M_alltoall_d                            1.502921       68712
 proj1                                   1.164709        8250
 orth1                                   1.163338       14097
 vhamil                                  1.140405        9384
 gemm                                    1.043034       28152
 spher                                   0.955090          20
 fftwav_mpi                              0.931887       11056
 map_forward                             0.919966       22438
 map_scatter                             0.830694       20810
 map_gather                              0.824463       20810
 vnlac0                                  0.633544        9384
 redis_pw                                0.580367       26598
 M_bcast_z                               0.560112        7249
 hamiltmu                                0.521812        4692
 redis_proj                              0.511955       33609
 w1_copy                                 0.414831       28152
 fft3d_mpi                               0.364823       20779
 work_mul_crexp                          0.344562       28152
 map_backward                            0.337142       19120
 fftext_mpi                              0.313535        9384
 crpa_reader                             0.303851           1
 crexp_mul_wave                          0.257440       24750
 eccp                                    0.247859        2394
 kinhamil                                0.193278        9384
 overl                                   0.183492       16395
 M_bcast_d                               0.153803        4730
 potlok                                  0.129536          16
 pw_charge                               0.128619        1672
 overl1                                  0.113220        9384
 apply_precond                           0.100326        6990
 setup_precond                           0.083218        2394
 w1_projall                              0.076201        3495
 lincom                                  0.070709         420
 force_and_stress                        0.064003           1
 fornl                                   0.047919           1
 soft_charge                             0.044061          15
 phase                                   0.042940         631
 truncate_high_frequency_w1              0.040027       11778
 ggaall_grid                             0.034594          17
 densta                                  0.031934          20
 strenl                                  0.023251           1
 brmix                                   0.022647          15
 broyd                                   0.021271          15
 setg0                                   0.020965          16
 forhar                                  0.007329           2
 depsum                                  0.006480          15
 brget                                   0.003714         654
 forloc                                  0.003511           1
 set_dd_paw                              0.003247          17
 strehar                                 0.002998           1
 strelo                                  0.002870           1
 brgrid                                  0.002670           1
 chggra                                  0.002565           1
 orthch                                  0.002082           1
 choleski                                0.001747          21
 proj                                    0.001599          21
 brsav                                   0.001477         182
 brpre                                   0.000875          15
 strkin                                  0.000647           1
 fordep                                  0.000126           1
 vectorpot                               0.000077          16
 set_rsgf_all                            0.000074          17
 potlok_metagga                          0.000057          16
 set_dd_magatom                          0.000056          17
 set_kineden                             0.000050          14
 rotate_active_occupied_orbital          0.000016           1
 lprj_proall                             0.000008           1
 redis_pw_over_bands                     0.000003           1
 ---------------------------------------------------------------
  summed up times    65.6520609855652

 Accumulative profile
 ====================

             routine name                   CPU           calls
 ---------------------------------------------------------------
 total_time                             65.652061           1
 elmin                                  46.202863           1
 eddav                                  37.880633          19
 fft3d_mpi                              17.382970       20779
 fftbas_plan_mpi                        17.036621       20781
 hamiltmu                               12.014260        4692
 fftwav_mpi                              9.938538       11056
 kinhamil                                7.625937        9384
 dfftw_execute                           7.475309       62337
 fftext_mpi                              7.432660        9384
 set_charge                              4.683452          15
 force_and_stress                        3.868466           1
 setdij_                                 3.848357          43
 M_sumb_d                                3.440430       56914
 map_forward                             3.074027       22438
 vnlac0                                  2.612885        9384
 m_alltoallv_z                           2.100468       20810
 proj1                                   2.014957        8250
 map_backward                            1.938707       19120
 w1_projall                              1.800501        3495
 pdssyex_zheevx                          1.779376         399
 soft_charge                             1.682715          15
 M_alltoall_d                            1.502921       68712
 redis_pw                                1.428339       26598
 redis_proj                              1.166903       33609
 orth1                                   1.163338       14097
 vhamil                                  1.140405        9384
 strenl                                  1.123844           1
 gemm                                    1.043034       28152
 spher                                   0.955090          20
 map_scatter                             0.830694       20810
 map_gather                              0.824463       20810
 M_bcast_z                               0.560112        7249
 fordep                                  0.522212           1
 potlok                                  0.496863          16
 w1_copy                                 0.414831       28152
 eccp                                    0.387219        2394
 work_mul_crexp                          0.344562       28152
 crpa_reader                             0.303851           1
 crexp_mul_wave                          0.257440       24750
 overl                                   0.183492       16395
 set_dd_paw                              0.177719          17
 M_bcast_d                               0.153803        4730
 setup_precond                           0.142481        2394
 pw_charge                               0.128619        1672
 brmix                                   0.115051          15
 overl1                                  0.113220        9384
 apply_precond                           0.100326        6990
 lincom                                  0.070709         420
 fornl                                   0.063897           1
 densta                                  0.048065          20
 phase                                   0.042940         631
 truncate_high_frequency_w1              0.040027       11778
 orthch                                  0.038775           1
 ggaall_grid                             0.034594          17
 broyd                                   0.032637          15
 proj                                    0.029625          21
 setg0                                   0.020965          16
 depsum                                  0.010631          15
 chggra                                  0.007492           1
 forhar                                  0.007454           2
 brget                                   0.003714         654
 forloc                                  0.003570           1
 strehar                                 0.003169           1
 strelo                                  0.003108           1
 brgrid                                  0.002670           1
 choleski                                0.001747          21
 brsav                                   0.001477         182
 strkin                                  0.001339           1
 brpre                                   0.000875          15
 vectorpot                               0.000077          16
 set_rsgf_all                            0.000074          17
 potlok_metagga                          0.000057          16
 set_dd_magatom                          0.000056          17
 set_kineden                             0.000050          14
 rotate_active_occupied_orbital          0.000016           1
 lprj_proall                             0.000008           1
 redis_pw_over_bands                     0.000003           1
 ---------------------------------------------------------------

Profiling took   1.643168  1.976825  0.006507  0.004979 seconds
Profiling took   1.618646 seconds
