 ----------------------------------------------------
    OOO  PPPP  EEEEE N   N M   M PPPP
   O   O P   P E     NN  N MM MM P   P
   O   O PPPP  EEEEE N N N M M M PPPP   -- VERSION
   O   O P     E     N  NN M   M P
    OOO  P     EEEEE N   N M   M P
 ----------------------------------------------------
 running   64 mpi-ranks, with    1 threads/rank
 distrk:  each k-point on   16 cores,    4 groups
 distr:  one band on    4 cores,    4 groups
 using from now: INCAR
 vasp.6.0.8 29Jun18 (build Jun 13 2019 12:54:44) complex

 POSCAR found type information on POSCAR  U  Bi Pt
 POSCAR found :  3 types and       3 ions
 scaLAPACK will be used
 WARNING: PSMAXN for non-local potential too small

 -----------------------------------------------------------------------------
|                                                                             |
|  ADVICE TO THIS USER RUNNING 'VASP/VAMP'   (HEAR YOUR MASTER'S VOICE ...):  |
|                                                                             |
|      You enforced a specific xc-type in the INCAR file,                     |
|      a different type was found on the POTCAR file                          |
|          I HOPE YOU KNOW, WHAT YOU ARE  DOING                               |
|                                                                             |
 -----------------------------------------------------------------------------

 LDA part: xc-table for Pade appr. of Perdew
 POSCAR, INCAR and KPOINTS ok, starting setup
 FFT: planning ...
 WAVECAR not read
 entering main loop
       N       E                     dE             d eps       ncg     rms          rms(c)
 ELPA: falling back to scaLAPACK
 ELPA: falling back to scaLAPACK
 ELPA: falling back to scaLAPACK
 ELPA: falling back to scaLAPACK
DAV:   1     0.432077253552E+03    0.43208E+03   -0.22458E+04  4032   0.231E+03
DAV:   2     0.295552199609E+02   -0.40252E+03   -0.39475E+03  4536   0.500E+02
DAV:   3    -0.203402503322E+02   -0.49895E+02   -0.48712E+02  4904   0.178E+02
DAV:   4    -0.258284786807E+02   -0.54882E+01   -0.54582E+01  7704   0.460E+01
DAV:   5    -0.260141031490E+02   -0.18562E+00   -0.18534E+00  5568   0.729E+00    0.147E+01
DAV:   6    -0.341825120987E+02   -0.81684E+01   -0.21027E+02  6048   0.912E+01    0.220E+01
DAV:   7    -0.247769255798E+02    0.94056E+01   -0.26899E+01  5808   0.281E+01    0.104E+01
DAV:   8    -0.245963903713E+02    0.18054E+00   -0.34603E+01  5896   0.236E+01    0.856E+00
DAV:   9    -0.237178230292E+02    0.87857E+00   -0.94632E+00  6296   0.180E+01    0.147E+00
DAV:  10    -0.237812559388E+02   -0.63433E-01   -0.70711E-01  6888   0.378E+00    0.186E+00
DAV:  11    -0.237282672840E+02    0.52989E-01   -0.44523E-01  6040   0.324E+00    0.336E-01
DAV:  12    -0.237297097522E+02   -0.14425E-02   -0.13884E-02  6720   0.618E-01    0.269E-01
DAV:  13    -0.237292418253E+02    0.46793E-03   -0.23236E-03  6336   0.276E-01    0.101E-01
DAV:  14    -0.237291394341E+02    0.10239E-03   -0.15746E-03  7088   0.188E-01    0.255E-02
DAV:  15    -0.237291369998E+02    0.24343E-05   -0.14644E-04  6024   0.627E-02    0.113E-02
DAV:  16    -0.237291362270E+02    0.77282E-06   -0.13802E-05  6704   0.200E-02    0.237E-03
DAV:  17    -0.237291363259E+02   -0.98897E-07   -0.26734E-06  5680   0.692E-03    0.344E-03
DAV:  18    -0.237291361984E+02    0.12751E-06   -0.19273E-06  5264   0.679E-03    0.119E-03
DAV:  19    -0.237291361841E+02    0.14272E-07   -0.16650E-07  3800   0.242E-03
   1 F= -.23729136E+02 E0= -.23728255E+02  d E =-.176213E-02
