<?xml version="1.0" encoding="ISO-8859-1"?>
<modeling>
 <generator>
  <i name="program" type="string">vasp </i>
  <i name="version" type="string">6.0.8  </i>
  <i name="subversion" type="string">29Jun18 (build Jun 13 2019 12:54:44) complex                          parallel </i>
  <i name="platform" type="string">IFC18_CrayMPICH </i>
  <i name="date" type="string">2021 12 05 </i>
  <i name="time" type="string">14:21:49 </i>
 </generator>
 <incar>
  <i type="int" name="KPAR">     4</i>
  <i type="int" name="NPAR">     4</i>
  <i type="int" name="ISTART">     0</i>
  <i type="string" name="PREC"> ACC</i>
  <i type="string" name="ALGO"> Normal</i>
  <i type="logical" name="ADDGRID"> T  </i>
  <i type="int" name="ISPIN">     1</i>
  <i type="int" name="NELMIN">     5</i>
  <i type="int" name="IBRION">    -1</i>
  <i name="EDIFF">      0.00000010</i>
  <i type="int" name="NSW">     0</i>
  <i type="int" name="ISIF">     3</i>
  <i name="ENCUT">    700.00000000</i>
  <i type="logical" name="LREAL"> F  </i>
  <i type="int" name="ISMEAR">     0</i>
  <i name="SIGMA">      0.01000000</i>
  <i type="logical" name="LWAVE"> F  </i>
  <i type="logical" name="LCHARG"> F  </i>
  <i type="logical" name="LVTOT"> F  </i>
  <i type="string" name="ALGO"> Normal</i>
  <i type="string" name="GGA"> PS</i>
  <i name="EDIFF">      0.00000010</i>
  <i type="int" name="ISPIN">     1</i>
 </incar>
 <structure name="primitive_cell" >
  <crystal>
   <varray name="basis" >
    <v>       0.00000000       3.36129918       3.36129918 </v>
    <v>       3.36129918       0.00000000       3.36129918 </v>
    <v>       3.36129918       3.36129918       0.00000000 </v>
   </varray>
   <i name="volume">     75.95414921 </i>
   <varray name="rec_basis" >
    <v>      -0.14875201       0.14875201       0.14875201 </v>
    <v>       0.14875201      -0.14875201       0.14875201 </v>
    <v>       0.14875201       0.14875201      -0.14875201 </v>
   </varray>
  </crystal>
  <varray name="positions" >
   <v>       0.25000000       0.25000000       0.25000000 </v>
   <v>       0.75000000       0.75000000       0.75000000 </v>
   <v>       0.00000000       0.00000000       0.00000000 </v>
  </varray>
 </structure>
 <varray name="primitive_index" >
  <v type="int" >        1 </v>
  <v type="int" >        2 </v>
  <v type="int" >        3 </v>
 </varray>
 <kpoints>
  <generation param="Gamma">
   <v type="int" name="divisions">      13       13       13 </v>
   <v name="usershift">      0.00000000       0.00000000       0.00000000 </v>
   <v name="genvec1">      0.07692308       0.00000000      -0.00000000 </v>
   <v name="genvec2">      0.00000000       0.07692308       0.00000000 </v>
   <v name="genvec3">     -0.00000000      -0.00000000       0.07692308 </v>
   <v name="shift">      0.00000000       0.00000000       0.00000000 </v>
  </generation>
  <varray name="kpointlist" >
   <v>       0.00000000       0.00000000       0.00000000 </v>
   <v>       0.07692308       0.00000000      -0.00000000 </v>
   <v>       0.15384615      -0.00000000      -0.00000000 </v>
   <v>       0.23076923       0.00000000      -0.00000000 </v>
   <v>       0.30769231      -0.00000000      -0.00000000 </v>
   <v>       0.38461538       0.00000000      -0.00000000 </v>
   <v>       0.46153846      -0.00000000       0.00000000 </v>
   <v>       0.07692308       0.07692308      -0.00000000 </v>
   <v>       0.15384615       0.07692308      -0.00000000 </v>
   <v>       0.23076923       0.07692308      -0.00000000 </v>
   <v>       0.30769231       0.07692308      -0.00000000 </v>
   <v>       0.38461538       0.07692308      -0.00000000 </v>
   <v>       0.46153846       0.07692308      -0.00000000 </v>
   <v>      -0.46153846       0.07692308       0.00000000 </v>
   <v>      -0.38461538       0.07692308       0.00000000 </v>
   <v>      -0.30769231       0.07692308       0.00000000 </v>
   <v>      -0.23076923       0.07692308      -0.00000000 </v>
   <v>      -0.15384615       0.07692308       0.00000000 </v>
   <v>      -0.07692308       0.07692308       0.00000000 </v>
   <v>       0.15384615       0.15384615      -0.00000000 </v>
   <v>       0.23076923       0.15384615      -0.00000000 </v>
   <v>       0.30769231       0.15384615      -0.00000000 </v>
   <v>       0.38461538       0.15384615      -0.00000000 </v>
   <v>       0.46153846       0.15384615      -0.00000000 </v>
   <v>      -0.46153846       0.15384615       0.00000000 </v>
   <v>      -0.38461538       0.15384615       0.00000000 </v>
   <v>      -0.30769231       0.15384615       0.00000000 </v>
   <v>      -0.23076923       0.15384615       0.00000000 </v>
   <v>      -0.15384615       0.15384615      -0.00000000 </v>
   <v>       0.23076923       0.23076923      -0.00000000 </v>
   <v>       0.30769231       0.23076923      -0.00000000 </v>
   <v>       0.38461538       0.23076923      -0.00000000 </v>
   <v>       0.46153846       0.23076923      -0.00000000 </v>
   <v>      -0.46153846       0.23076923       0.00000000 </v>
   <v>      -0.38461538       0.23076923      -0.00000000 </v>
   <v>      -0.30769231       0.23076923       0.00000000 </v>
   <v>      -0.23076923       0.23076923       0.00000000 </v>
   <v>       0.30769231       0.30769231      -0.00000000 </v>
   <v>       0.38461538       0.30769231      -0.00000000 </v>
   <v>       0.46153846       0.30769231      -0.00000000 </v>
   <v>      -0.46153846       0.30769231      -0.00000000 </v>
   <v>      -0.38461538       0.30769231      -0.00000000 </v>
   <v>      -0.30769231       0.30769231      -0.00000000 </v>
   <v>       0.38461538       0.38461538      -0.00000000 </v>
   <v>       0.46153846       0.38461538       0.00000000 </v>
   <v>      -0.46153846       0.38461538       0.00000000 </v>
   <v>      -0.38461538       0.38461538       0.00000000 </v>
   <v>       0.46153846       0.46153846      -0.00000000 </v>
   <v>      -0.46153846       0.46153846      -0.00000000 </v>
   <v>       0.23076923       0.15384615       0.07692308 </v>
   <v>       0.30769231       0.15384615       0.07692308 </v>
   <v>       0.38461538       0.15384615       0.07692308 </v>
   <v>       0.46153846       0.15384615       0.07692308 </v>
   <v>      -0.46153846       0.15384615       0.07692308 </v>
   <v>       0.30769231       0.23076923       0.07692308 </v>
   <v>       0.38461538       0.23076923       0.07692308 </v>
   <v>       0.46153846       0.23076923       0.07692308 </v>
   <v>      -0.46153846       0.23076923       0.07692308 </v>
   <v>      -0.38461538       0.23076923       0.07692308 </v>
   <v>      -0.30769231       0.23076923       0.07692308 </v>
   <v>      -0.23076923       0.23076923       0.07692308 </v>
   <v>      -0.15384615       0.23076923       0.07692308 </v>
   <v>       0.38461538       0.30769231       0.07692308 </v>
   <v>       0.46153846       0.30769231       0.07692308 </v>
   <v>      -0.46153846       0.30769231       0.07692308 </v>
   <v>      -0.38461538       0.30769231       0.07692308 </v>
   <v>      -0.30769231       0.30769231       0.07692308 </v>
   <v>      -0.23076923       0.30769231       0.07692308 </v>
   <v>       0.46153846       0.38461538       0.07692308 </v>
   <v>      -0.46153846       0.38461538       0.07692308 </v>
   <v>      -0.38461538       0.38461538       0.07692308 </v>
   <v>      -0.30769231       0.38461538       0.07692308 </v>
   <v>      -0.46153846       0.46153846       0.07692308 </v>
   <v>      -0.38461538       0.46153846       0.07692308 </v>
   <v>       0.46153846       0.30769231       0.15384615 </v>
   <v>      -0.46153846       0.30769231       0.15384615 </v>
   <v>      -0.38461538       0.30769231       0.15384615 </v>
   <v>      -0.46153846       0.38461538       0.15384615 </v>
   <v>      -0.38461538       0.38461538       0.15384615 </v>
   <v>      -0.30769231       0.38461538       0.15384615 </v>
   <v>      -0.23076923       0.38461538       0.15384615 </v>
   <v>      -0.38461538       0.46153846       0.15384615 </v>
   <v>      -0.30769231       0.46153846       0.15384615 </v>
   <v>      -0.30769231       0.46153846       0.23076923 </v>
  </varray>
  <varray name="weights" >
   <v>       0.00045517 </v>
   <v>       0.00364133 </v>
   <v>       0.00364133 </v>
   <v>       0.00364133 </v>
   <v>       0.00364133 </v>
   <v>       0.00364133 </v>
   <v>       0.00364133 </v>
   <v>       0.00273100 </v>
   <v>       0.01092399 </v>
   <v>       0.01092399 </v>
   <v>       0.01092399 </v>
   <v>       0.01092399 </v>
   <v>       0.01092399 </v>
   <v>       0.01092399 </v>
   <v>       0.01092399 </v>
   <v>       0.01092399 </v>
   <v>       0.01092399 </v>
   <v>       0.01092399 </v>
   <v>       0.00546199 </v>
   <v>       0.00273100 </v>
   <v>       0.01092399 </v>
   <v>       0.01092399 </v>
   <v>       0.01092399 </v>
   <v>       0.01092399 </v>
   <v>       0.01092399 </v>
   <v>       0.01092399 </v>
   <v>       0.01092399 </v>
   <v>       0.01092399 </v>
   <v>       0.00546199 </v>
   <v>       0.00273100 </v>
   <v>       0.01092399 </v>
   <v>       0.01092399 </v>
   <v>       0.01092399 </v>
   <v>       0.01092399 </v>
   <v>       0.01092399 </v>
   <v>       0.01092399 </v>
   <v>       0.00546199 </v>
   <v>       0.00273100 </v>
   <v>       0.01092399 </v>
   <v>       0.01092399 </v>
   <v>       0.01092399 </v>
   <v>       0.01092399 </v>
   <v>       0.00546199 </v>
   <v>       0.00273100 </v>
   <v>       0.01092399 </v>
   <v>       0.01092399 </v>
   <v>       0.00546199 </v>
   <v>       0.00273100 </v>
   <v>       0.00546199 </v>
   <v>       0.01092399 </v>
   <v>       0.02184797 </v>
   <v>       0.02184797 </v>
   <v>       0.02184797 </v>
   <v>       0.02184797 </v>
   <v>       0.01092399 </v>
   <v>       0.02184797 </v>
   <v>       0.02184797 </v>
   <v>       0.02184797 </v>
   <v>       0.02184797 </v>
   <v>       0.02184797 </v>
   <v>       0.02184797 </v>
   <v>       0.01092399 </v>
   <v>       0.01092399 </v>
   <v>       0.02184797 </v>
   <v>       0.02184797 </v>
   <v>       0.02184797 </v>
   <v>       0.02184797 </v>
   <v>       0.01092399 </v>
   <v>       0.01092399 </v>
   <v>       0.02184797 </v>
   <v>       0.02184797 </v>
   <v>       0.01092399 </v>
   <v>       0.01092399 </v>
   <v>       0.01092399 </v>
   <v>       0.01092399 </v>
   <v>       0.02184797 </v>
   <v>       0.02184797 </v>
   <v>       0.01092399 </v>
   <v>       0.02184797 </v>
   <v>       0.02184797 </v>
   <v>       0.01092399 </v>
   <v>       0.01092399 </v>
   <v>       0.01092399 </v>
   <v>       0.01092399 </v>
  </varray>
 </kpoints>
 <parameters>
  <separator name="general" >
   <i type="string" name="SYSTEM">unknown system</i>
   <i type="logical" name="LCOMPAT"> F  </i>
  </separator>
  <separator name="electronic" >
   <i type="string" name="PREC">acc</i>
   <i name="ENMAX">    700.00000000</i>
   <i name="ENAUG">    526.41000000</i>
   <i name="EDIFF">      0.00000010</i>
   <i type="int" name="IALGO">    38</i>
   <i type="int" name="IWAVPR">    10</i>
   <i type="int" name="NBANDS">    24</i>
   <i type="int" name="NBANDSLOW">    -1</i>
   <i type="int" name="NBANDSHIGH">    -1</i>
   <i name="NELECT">     39.00000000</i>
   <i type="int" name="TURBO">     0</i>
   <i type="int" name="IRESTART">     0</i>
   <i type="int" name="NREBOOT">     0</i>
   <i type="int" name="NMIN">     0</i>
   <i name="EREF">      0.00000000</i>
   <separator name="electronic smearing" >
    <i type="int" name="ISMEAR">     0</i>
    <i name="SIGMA">      0.01000000</i>
    <i name="KSPACING">      0.50000000</i>
    <i type="logical" name="KGAMMA"> T  </i>
    <i type="logical" name="KBLOWUP"> T  </i>
   </separator>
   <separator name="electronic projectors" >
    <i type="logical" name="LREAL"> F  </i>
    <v name="ROPT">      0.00000000      0.00000000      0.00000000</v>
    <i type="int" name="LMAXPAW">  -100</i>
    <i type="int" name="LMAXMIX">     2</i>
    <i type="logical" name="NLSPLINE"> F  </i>
   </separator>
   <separator name="electronic startup" >
    <i type="int" name="ISTART">     0</i>
    <i type="int" name="ICHARG">     2</i>
    <i type="int" name="INIWAV">     1</i>
   </separator>
   <separator name="electronic spin" >
    <i type="int" name="ISPIN">     1</i>
    <i type="logical" name="LNONCOLLINEAR"> F  </i>
    <v name="MAGMOM">      1.00000000      1.00000000      1.00000000</v>
    <i name="NUPDOWN">     -1.00000000</i>
    <i type="logical" name="LSORBIT"> F  </i>
    <v name="SAXIS">      0.00000000      0.00000000      1.00000000</v>
    <i type="logical" name="LSPIRAL"> F  </i>
    <v name="QSPIRAL">      0.00000000      0.00000000      0.00000000</v>
    <i type="logical" name="LZEROZ"> F  </i>
   </separator>
   <separator name="electronic exchange-correlation" >
    <i type="logical" name="LASPH"> F  </i>
    <i type="logical" name="LMETAGGA"> F  </i>
   </separator>
   <separator name="electronic convergence" >
    <i type="int" name="NELM">    60</i>
    <i type="int" name="NELMDL">    -5</i>
    <i type="int" name="NELMIN">     5</i>
    <i name="ENINI">    700.00000000</i>
    <separator name="electronic convergence detail" >
     <i type="logical" name="LDIAG"> T  </i>
     <i type="logical" name="LSUBROT"> F  </i>
     <i name="WEIMIN">      0.00000000</i>
     <i name="EBREAK">      0.00000000</i>
     <i name="DEPER">      0.30000000</i>
     <i type="int" name="NRMM">     4</i>
     <i name="TIME">      0.40000000</i>
    </separator>
   </separator>
   <separator name="electronic mixer" >
    <i name="AMIX">      0.40000000</i>
    <i name="BMIX">      1.00000000</i>
    <i name="AMIN">      0.10000000</i>
    <i name="AMIX_MAG">      1.60000000</i>
    <i name="BMIX_MAG">      1.00000000</i>
    <separator name="electronic mixer details" >
     <i type="int" name="IMIX">     4</i>
     <i type="logical" name="MIXFIRST"> F  </i>
     <i type="int" name="MAXMIX">   -45</i>
     <i name="WC">    100.00000000</i>
     <i type="int" name="INIMIX">     1</i>
     <i type="int" name="MIXPRE">     1</i>
     <i type="int" name="MREMOVE">     5</i>
    </separator>
   </separator>
   <separator name="electronic dipolcorrection" >
    <i type="logical" name="LDIPOL"> F  </i>
    <i type="logical" name="LMONO"> F  </i>
    <i type="int" name="IDIPOL">     0</i>
    <i name="EPSILON">      1.00000000</i>
    <v name="DIPOL">   -100.00000000   -100.00000000   -100.00000000</v>
    <i name="EFIELD">      0.00000000</i>
   </separator>
  </separator>
  <separator name="grids" >
   <i type="int" name="NGX">    42</i>
   <i type="int" name="NGY">    42</i>
   <i type="int" name="NGZ">    42</i>
   <i type="int" name="NGXF">    84</i>
   <i type="int" name="NGYF">    84</i>
   <i type="int" name="NGZF">    84</i>
   <i type="logical" name="ADDGRID"> T  </i>
  </separator>
  <separator name="ionic" >
   <i type="int" name="NSW">     0</i>
   <i type="int" name="IBRION">    -1</i>
   <i type="int" name="MDALGO">     0</i>
   <i type="int" name="ISIF">     3</i>
   <i name="PSTRESS">      0.00000000</i>
   <i name="EDIFFG">      0.00000100</i>
   <i type="int" name="NFREE">     0</i>
   <i name="POTIM">      0.50000000</i>
   <i name="SMASS">     -3.00000000</i>
   <i name="SCALEE">      1.00000000</i>
  </separator>
  <separator name="ionic md" >
   <i name="TEBEG">      0.00010000</i>
   <i name="TEEND">      0.00010000</i>
   <i type="int" name="NBLOCK">     1</i>
   <i type="int" name="KBLOCK">     1</i>
   <i type="int" name="NPACO">   256</i>
   <i name="APACO">     16.00000000</i>
  </separator>
  <separator name="symmetry" >
   <i type="int" name="ISYM">     2</i>
   <i name="SYMPREC">      0.00001000</i>
  </separator>
  <separator name="dos" >
   <i type="int" name="LORBIT">     0</i>
   <v name="RWIGS">     -1.00000000     -1.00000000     -1.00000000</v>
   <i type="int" name="NEDOS">   301</i>
   <i name="EMIN">     10.00000000</i>
   <i name="EMAX">    -10.00000000</i>
   <i name="EFERMI">      0.00000000</i>
  </separator>
  <separator name="writing" >
   <i type="int" name="NWRITE">     2</i>
   <i type="logical" name="LWAVE"> F  </i>
   <i type="logical" name="LDOWNSAMPLE"> F  </i>
   <i type="logical" name="LCHARG"> F  </i>
   <i type="logical" name="LPARD"> F  </i>
   <i type="logical" name="LVTOT"> F  </i>
   <i type="logical" name="LVHAR"> F  </i>
   <i type="logical" name="LELF"> F  </i>
   <i type="logical" name="LOPTICS"> F  </i>
   <v name="STM">      0.00000000      0.00000000      0.00000000      0.00000000      0.00000000      0.00000000      0.00000000</v>
  </separator>
  <separator name="performance" >
   <i type="int" name="NPAR">     4</i>
   <i type="int" name="NSIM">     4</i>
   <i type="int" name="NBLK">    -1</i>
   <i type="logical" name="LPLANE"> T  </i>
   <i type="logical" name="LSCALAPACK"> T  </i>
   <i type="logical" name="LSCAAWARE"> F  </i>
   <i type="logical" name="LSCALU"> F  </i>
   <i type="logical" name="LASYNC"> F  </i>
   <i type="logical" name="LORBITALREAL"> F  </i>
  </separator>
  <separator name="miscellaneous" >
   <i type="int" name="IDIOT">     3</i>
   <i type="int" name="PHON_NSTRUCT">    -1</i>
   <i type="logical" name="LMUSIC"> F  </i>
   <v name="POMASS">    238.02900000    208.98000000    195.08000000</v>
   <v name="DARWINR">      0.00000000      0.00000000      0.00000000</v>
   <v name="DARWINV">      1.00000000      1.00000000      1.00000000</v>
   <i type="logical" name="LCORR"> T  </i>
  </separator>
  <i type="logical" name="GGA_COMPAT"> T  </i>
  <i type="logical" name="LBERRY"> F  </i>
  <i type="int" name="ICORELEVEL">     0</i>
  <i type="logical" name="LDAU"> F  </i>
  <i type="int" name="I_CONSTRAINED_M">     0</i>
  <separator name="electronic exchange-correlation" >
   <i type="string" name="GGA">PS</i>
   <i type="int" name="VOSKOWN">     0</i>
   <i type="logical" name="LHFCALC"> F  </i>
   <i type="string" name="PRECFOCK"></i>
   <i type="logical" name="LSYMGRAD"> F  </i>
   <i type="logical" name="LHFONE"> F  </i>
   <i type="logical" name="LRHFCALC"> F  </i>
   <i type="logical" name="LTHOMAS"> F  </i>
   <i type="logical" name="LMODELHF"> F  </i>
   <i type="logical" name="LFOCKACE"> F  </i>
   <i name="ENCUT4O">     -1.00000000</i>
   <i type="int" name="EXXOEP">     0</i>
   <i type="int" name="FOURORBIT">     0</i>
   <i name="AEXX">      0.00000000</i>
   <i name="HFALPHA">      0.00000000</i>
   <i name="MCALPHA">      0.00000000</i>
   <i name="ALDAX">      1.00000000</i>
   <i name="AGGAX">      1.00000000</i>
   <i name="ALDAC">      1.00000000</i>
   <i name="AGGAC">      1.00000000</i>
   <i type="int" name="NKREDX">     1</i>
   <i type="int" name="NKREDY">     1</i>
   <i type="int" name="NKREDZ">     1</i>
   <i type="logical" name="SHIFTRED"> F  </i>
   <i type="logical" name="ODDONLY"> F  </i>
   <i type="logical" name="EVENONLY"> F  </i>
   <i type="int" name="LMAXFOCK">     0</i>
   <i type="int" name="NMAXFOCKAE">     0</i>
   <i type="logical" name="LFOCKAEDFT"> F  </i>
   <i name="HFSCREEN">      0.00000000</i>
   <i name="HFSCREENC">      0.00000000</i>
   <i type="int" name="NBANDSGWLOW">     0</i>
  </separator>
  <separator name="vdW DFT" >
   <i type="logical" name="LUSE_VDW"> F  </i>
   <i name="Zab_VDW">     -0.84910000</i>
   <i name="PARAM1">      0.12340000</i>
   <i name="PARAM2">      1.00000000</i>
   <i name="PARAM3">      0.00000000</i>
  </separator>
  <separator name="model GW" >
   <i type="int" name="MODEL_GW">     0</i>
   <i name="MODEL_EPS0">     15.19082984</i>
   <i name="MODEL_ALPHA">      1.00000000</i>
  </separator>
  <separator name="linear response parameters" >
   <i type="logical" name="LEPSILON"> F  </i>
   <i type="logical" name="LRPA"> F  </i>
   <i type="logical" name="LNABLA"> F  </i>
   <i type="logical" name="LVEL"> F  </i>
   <i type="int" name="KINTER">     0</i>
   <i name="CSHIFT">      0.10000000</i>
   <i name="OMEGAMAX">     -1.00000000</i>
   <i name="DEG_THRESHOLD">      0.00200000</i>
   <i name="RTIME">     -0.10000000</i>
   <i name="WPLASMAI">      0.00000000</i>
   <v name="DFIELD">      0.00000000      0.00000000      0.00000000</v>
   <v name="WPLASMA">      0.00000000      0.00000000      0.00000000      0.00000000      0.00000000      0.00000000      0.00000000      0.00000000      0.00000000</v>
  </separator>
  <separator name="orbital magnetization" >
   <i type="logical" name="NUCIND"> F  </i>
   <v name="MAGPOS">      0.00000000      0.00000000      0.00000000</v>
   <i type="logical" name="LNICSALL"> T  </i>
   <i type="logical" name="ORBITALMAG"> F  </i>
   <i type="logical" name="LMAGBLOCH"> F  </i>
   <i type="logical" name="LCHIMAG"> F  </i>
   <i type="logical" name="LGAUGE"> T  </i>
   <i type="int" name="MAGATOM">     0</i>
   <v name="MAGDIPOL">      0.00000000      0.00000000      0.00000000</v>
   <v name="AVECCONST">      0.00000000      0.00000000      0.00000000</v>
  </separator>
  <separator name="response functions" >
   <i type="logical" name="LFINITE_TEMPERATURE"> F  </i>
   <i type="logical" name="LADDER"> F  </i>
   <i type="logical" name="LRPAFORCE"> F  </i>
   <i type="logical" name="LFXC"> F  </i>
   <i type="logical" name="LHARTREE"> T  </i>
   <i type="int" name="IBSE">     0</i>
   <v type="int" name="KPOINT">    -1     0     0     0</v>
   <i type="logical" name="LTCTC"> F  </i>
   <i type="logical" name="LTCTE"> F  </i>
   <i type="logical" name="LTETE"> F  </i>
   <i type="logical" name="LTRIPLET"> F  </i>
   <i type="logical" name="LFXCEPS"> F  </i>
   <i type="logical" name="LFXHEG"> F  </i>
   <i type="int" name="NATURALO">     2</i>
   <i type="logical" name="L2ORDER"> F  </i>
   <i type="logical" name="LDMP1"> F  </i>
   <i type="logical" name="LMP2LT"> F  </i>
   <i type="logical" name="LSMP2LT"> F  </i>
   <i type="logical" name="LUSEW"> F  </i>
   <i name="ENCUTGW">     -2.00000000</i>
   <i name="ENCUTGWSOFT">     -2.00000000</i>
   <i name="ENCUTLF">     -1.00000000</i>
   <i type="int" name="LMAXMP2">    -1</i>
   <i name="SCISSOR">      0.00000000</i>
   <i type="int" name="NOMEGA">     0</i>
   <i type="int" name="NOMEGAR">     0</i>
   <i type="int" name="NBANDSGW">    -1</i>
   <i type="int" name="NBANDSO">    -1</i>
   <i type="int" name="NBANDSV">    -1</i>
   <i type="int" name="NELM">     1</i>
   <i type="int" name="NELMHF">     1</i>
   <i type="int" name="DIM">     3</i>
   <i type="int" name="IESPILON">     4</i>
   <i type="int" name="ANTIRES">     0</i>
   <i name="OMEGAMAX">    -30.00000000</i>
   <i name="OMEGAMIN">    -30.00000000</i>
   <i name="OMEGATL">   -200.00000000</i>
   <i type="int" name="OMEGAGRID">   145</i>
   <i name="CSHIFT">     -0.10000000</i>
   <i type="logical" name="LSELFENERGY"> F  </i>
   <i type="logical" name="LSPECTRAL"> F  </i>
   <i type="logical" name="LSPECTRALGW"> F  </i>
   <i type="logical" name="LSINGLES"> F  </i>
   <i type="logical" name="LFERMIGW"> F  </i>
   <i type="logical" name="ODDONLYGW"> F  </i>
   <i type="logical" name="EVENONLYGW"> F  </i>
   <i type="int" name="NKREDLFX">     1</i>
   <i type="int" name="NKREDLFY">     1</i>
   <i type="int" name="NKREDLFZ">     1</i>
   <i type="int" name="MAXMEM">  2800</i>
   <i type="int" name="TELESCOPE">     0</i>
   <i type="int" name="NTAUPAR">     1</i>
   <i type="int" name="NOMEGAPAR">    -1</i>
   <i name="LAMBDA">      1.00000000</i>
  </separator>
  <separator name="External order field" >
   <i name="OFIELD_KAPPA">      0.00000000</i>
   <v name="OFIELD_K">      0.00000000      0.00000000      0.00000000</v>
   <i name="OFIELD_Q6_NEAR">      0.00000000</i>
   <i name="OFIELD_Q6_FAR">      0.00000000</i>
   <i name="OFIELD_A">      0.00000000</i>
  </separator>
 </parameters>
 <atominfo>
  <atoms>       3 </atoms>
  <types>       3 </types>
  <array name="atoms" >
   <dimension dim="1">ion</dimension>
   <field type="string">element</field>
   <field type="int">atomtype</field>
   <set>
    <rc><c>U </c><c>   1</c></rc>
    <rc><c>Bi</c><c>   2</c></rc>
    <rc><c>Pt</c><c>   3</c></rc>
   </set>
  </array>
  <array name="atomtypes" >
   <dimension dim="1">type</dimension>
   <field type="int">atomspertype</field>
   <field type="string">element</field>
   <field>mass</field>
   <field>valence</field>
   <field type="string">pseudopotential</field>
   <set>
    <rc><c>   1</c><c>U </c><c>    238.02900000</c><c>     14.00000000</c><c>  PAW_PBE U 06Sep2000                   </c></rc>
    <rc><c>   1</c><c>Bi</c><c>    208.98000000</c><c>     15.00000000</c><c>  PAW_PBE Bi_d 06Sep2000                </c></rc>
    <rc><c>   1</c><c>Pt</c><c>    195.08000000</c><c>     10.00000000</c><c>  PAW_PBE Pt 04Feb2005                  </c></rc>
   </set>
  </array>
 </atominfo>
 <structure name="initialpos" >
  <crystal>
   <varray name="basis" >
    <v>       0.00000000       3.36129918       3.36129918 </v>
    <v>       3.36129918       0.00000000       3.36129918 </v>
    <v>       3.36129918       3.36129918       0.00000000 </v>
   </varray>
   <i name="volume">     75.95414921 </i>
   <varray name="rec_basis" >
    <v>      -0.14875201       0.14875201       0.14875201 </v>
    <v>       0.14875201      -0.14875201       0.14875201 </v>
    <v>       0.14875201       0.14875201      -0.14875201 </v>
   </varray>
  </crystal>
  <varray name="positions" >
   <v>       0.25000000       0.25000000       0.25000000 </v>
   <v>       0.75000000       0.75000000       0.75000000 </v>
   <v>       0.00000000       0.00000000       0.00000000 </v>
  </varray>
 </structure>
 <calculation>
  <scstep>
   <time name="dav">    1.53    1.53</time>
   <time name="total">    1.70    1.82</time>
   <energy>
    <i name="alphaZ">    207.02996264 </i>
    <i name="ewald">  -3546.63750822 </i>
    <i name="hartreedc">   -803.92411743 </i>
    <i name="XCdc">     89.87939657 </i>
    <i name="pawpsdc">   3513.29252893 </i>
    <i name="pawaedc">  -3436.88002192 </i>
    <i name="eentropy">     -0.00015734 </i>
    <i name="bandstr">    313.96508400 </i>
    <i name="atom">   4095.35208632 </i>
    <i name="e_fr_energy">    432.07725355 </i>
    <i name="e_wo_entrp">    432.07741089 </i>
    <i name="e_0_energy">    432.07733222 </i>
   </energy>
  </scstep>
  <scstep>
   <time name="dav">    1.63    1.67</time>
   <time name="total">    1.64    1.67</time>
   <energy>
    <i name="e_fr_energy">     29.55521996 </i>
    <i name="e_wo_entrp">     29.55554814 </i>
    <i name="e_0_energy">     29.55538405 </i>
   </energy>
  </scstep>
  <scstep>
   <time name="dav">    1.80    1.82</time>
   <time name="total">    1.81    1.83</time>
   <energy>
    <i name="e_fr_energy">    -20.34025033 </i>
    <i name="e_wo_entrp">    -20.33927075 </i>
    <i name="e_0_energy">    -20.33976054 </i>
   </energy>
  </scstep>
  <scstep>
   <time name="dav">    2.50    2.52</time>
   <time name="total">    2.50    2.53</time>
   <energy>
    <i name="e_fr_energy">    -25.82847868 </i>
    <i name="e_wo_entrp">    -25.82736081 </i>
    <i name="e_0_energy">    -25.82791974 </i>
   </energy>
  </scstep>
  <scstep>
   <time name="dav">    1.94    1.97</time>
   <time name="total">    2.32    2.35</time>
   <energy>
    <i name="e_fr_energy">    -26.01410315 </i>
    <i name="e_wo_entrp">    -26.01300608 </i>
    <i name="e_0_energy">    -26.01355461 </i>
   </energy>
  </scstep>
  <scstep>
   <time name="dav">    2.03    2.03</time>
   <time name="total">    2.50    2.53</time>
   <energy>
    <i name="e_fr_energy">    -34.18251210 </i>
    <i name="e_wo_entrp">    -34.18245741 </i>
    <i name="e_0_energy">    -34.18248475 </i>
   </energy>
  </scstep>
  <scstep>
   <time name="dav">    2.00    2.00</time>
   <time name="total">    2.46    2.49</time>
   <energy>
    <i name="e_fr_energy">    -24.77692558 </i>
    <i name="e_wo_entrp">    -24.77615062 </i>
    <i name="e_0_energy">    -24.77653810 </i>
   </energy>
  </scstep>
  <scstep>
   <time name="dav">    1.98    1.98</time>
   <time name="total">    2.44    2.47</time>
   <energy>
    <i name="e_fr_energy">    -24.59639037 </i>
    <i name="e_wo_entrp">    -24.59496687 </i>
    <i name="e_0_energy">    -24.59567862 </i>
   </energy>
  </scstep>
  <scstep>
   <time name="dav">    2.10    2.10</time>
   <time name="total">    2.55    2.59</time>
   <energy>
    <i name="e_fr_energy">    -23.71782303 </i>
    <i name="e_wo_entrp">    -23.71651210 </i>
    <i name="e_0_energy">    -23.71716756 </i>
   </energy>
  </scstep>
  <scstep>
   <time name="dav">    2.25    2.25</time>
   <time name="total">    2.70    2.75</time>
   <energy>
    <i name="e_fr_energy">    -23.78125594 </i>
    <i name="e_wo_entrp">    -23.77995614 </i>
    <i name="e_0_energy">    -23.78060604 </i>
   </energy>
  </scstep>
  <scstep>
   <time name="dav">    2.04    2.04</time>
   <time name="total">    2.50    2.53</time>
   <energy>
    <i name="e_fr_energy">    -23.72826728 </i>
    <i name="e_wo_entrp">    -23.72654136 </i>
    <i name="e_0_energy">    -23.72740432 </i>
   </energy>
  </scstep>
  <scstep>
   <time name="dav">    2.24    2.24</time>
   <time name="total">    2.69    2.73</time>
   <energy>
    <i name="e_fr_energy">    -23.72970975 </i>
    <i name="e_wo_entrp">    -23.72789566 </i>
    <i name="e_0_energy">    -23.72880271 </i>
   </energy>
  </scstep>
  <scstep>
   <time name="dav">    2.10    2.10</time>
   <time name="total">    2.58    2.61</time>
   <energy>
    <i name="e_fr_energy">    -23.72924183 </i>
    <i name="e_wo_entrp">    -23.72745786 </i>
    <i name="e_0_energy">    -23.72834984 </i>
   </energy>
  </scstep>
  <scstep>
   <time name="dav">    2.30    2.30</time>
   <time name="total">    2.75    2.80</time>
   <energy>
    <i name="e_fr_energy">    -23.72913943 </i>
    <i name="e_wo_entrp">    -23.72738558 </i>
    <i name="e_0_energy">    -23.72826251 </i>
   </energy>
  </scstep>
  <scstep>
   <time name="dav">    2.04    2.04</time>
   <time name="total">    2.51    2.53</time>
   <energy>
    <i name="e_fr_energy">    -23.72913700 </i>
    <i name="e_wo_entrp">    -23.72737246 </i>
    <i name="e_0_energy">    -23.72825473 </i>
   </energy>
  </scstep>
  <scstep>
   <time name="dav">    2.20    2.20</time>
   <time name="total">    2.66    2.71</time>
   <energy>
    <i name="e_fr_energy">    -23.72913623 </i>
    <i name="e_wo_entrp">    -23.72737365 </i>
    <i name="e_0_energy">    -23.72825494 </i>
   </energy>
  </scstep>
  <scstep>
   <time name="dav">    1.93    1.93</time>
   <time name="total">    2.40    2.42</time>
   <energy>
    <i name="e_fr_energy">    -23.72913633 </i>
    <i name="e_wo_entrp">    -23.72737530 </i>
    <i name="e_0_energy">    -23.72825581 </i>
   </energy>
  </scstep>
  <scstep>
   <time name="dav">    1.83    1.83</time>
   <time name="total">    2.32    2.35</time>
   <energy>
    <i name="e_fr_energy">    -23.72913620 </i>
    <i name="e_wo_entrp">    -23.72737361 </i>
    <i name="e_0_energy">    -23.72825490 </i>
   </energy>
  </scstep>
  <scstep>
   <time name="dav">    1.48    1.48</time>
   <time name="total">    1.63    1.66</time>
   <energy>
    <i name="alphaZ">    207.02996264 </i>
    <i name="ewald">  -3546.63750822 </i>
    <i name="hartreedc">   -791.47628090 </i>
    <i name="XCdc">     89.51409778 </i>
    <i name="pawpsdc">   4121.40738068 </i>
    <i name="pawaedc">  -4053.84530261 </i>
    <i name="eentropy">     -0.00176213 </i>
    <i name="bandstr">   -145.07180975 </i>
    <i name="atom">   4095.35208632 </i>
    <i name="e_fr_energy">    -23.72913618 </i>
    <i name="e_wo_entrp">    -23.72737405 </i>
    <i name="e_0_energy">    -23.72825512 </i>
   </energy>
  </scstep>
  <structure>
   <crystal>
    <varray name="basis" >
     <v>       0.00000000       3.36129918       3.36129918 </v>
     <v>       3.36129918       0.00000000       3.36129918 </v>
     <v>       3.36129918       3.36129918       0.00000000 </v>
    </varray>
    <i name="volume">     75.95414921 </i>
    <varray name="rec_basis" >
     <v>      -0.14875201       0.14875201       0.14875201 </v>
     <v>       0.14875201      -0.14875201       0.14875201 </v>
     <v>       0.14875201       0.14875201      -0.14875201 </v>
    </varray>
   </crystal>
   <varray name="positions" >
    <v>       0.25000000       0.25000000       0.25000000 </v>
    <v>       0.75000000       0.75000000       0.75000000 </v>
    <v>       0.00000000       0.00000000       0.00000000 </v>
   </varray>
  </structure>
  <varray name="forces" >
   <v>       0.00000000       0.00000000      -0.00000000 </v>
   <v>       0.00000000       0.00000000      -0.00000000 </v>
   <v>      -0.00000000      -0.00000000       0.00000000 </v>
  </varray>
  <varray name="stress" >
   <v>     -42.52592332       0.00000000      -0.00000000 </v>
   <v>       0.00000000     -42.52592332       0.00000000 </v>
   <v>      -0.00000000       0.00000000     -42.52592332 </v>
  </varray>
  <energy>
   <i name="e_fr_energy">    -23.72913618 </i>
   <i name="e_wo_entrp">    -23.72825512 </i>
   <i name="e_0_energy">     -0.00176213 </i>
  </energy>
  <time name="totalsc">   48.80   50.28</time>
  <eigenvalues>
   <array>
    <dimension dim="1">band</dimension>
    <dimension dim="2">kpoint</dimension>
    <dimension dim="3">spin</dimension>
    <field>eigene</field>
    <field>occ</field>
    <set>
     <set comment="spin 1">
      <set comment="kpoint 1">
       <r>  -34.5962    1.0000 </r>
       <r>  -13.2950    1.0000 </r>
       <r>  -13.2950    1.0000 </r>
       <r>  -13.2686    1.0000 </r>
       <r>  -13.2686    1.0000 </r>
       <r>  -13.2686    1.0000 </r>
       <r>   -9.8525    1.0000 </r>
       <r>   -9.8525    1.0000 </r>
       <r>   -9.8525    1.0000 </r>
       <r>   -2.7523    1.0000 </r>
       <r>    5.1036    1.0000 </r>
       <r>    5.1036    1.0000 </r>
       <r>    5.1036    1.0000 </r>
       <r>    5.3863    1.0000 </r>
       <r>    5.3863    1.0000 </r>
       <r>    7.8355    1.0000 </r>
       <r>    8.4458    1.0000 </r>
       <r>    8.4458    1.0000 </r>
       <r>    8.4458    1.0000 </r>
       <r>    9.5519    0.7870 </r>
       <r>    9.5519    0.7870 </r>
       <r>    9.5519    0.7870 </r>
       <r>    9.6311    0.0000 </r>
       <r>    9.7764    0.0000 </r>
      </set>
      <set comment="kpoint 2">
       <r>  -34.5960    1.0000 </r>
       <r>  -13.2964    1.0000 </r>
       <r>  -13.2964    1.0000 </r>
       <r>  -13.2689    1.0000 </r>
       <r>  -13.2685    1.0000 </r>
       <r>  -13.2685    1.0000 </r>
       <r>   -9.8648    1.0000 </r>
       <r>   -9.8497    1.0000 </r>
       <r>   -9.8497    1.0000 </r>
       <r>   -2.6907    1.0000 </r>
       <r>    4.9768    1.0000 </r>
       <r>    5.0015    1.0000 </r>
       <r>    5.0015    1.0000 </r>
       <r>    5.4820    1.0000 </r>
       <r>    5.4820    1.0000 </r>
       <r>    7.5117    1.0000 </r>
       <r>    8.3893    1.0000 </r>
       <r>    8.3893    1.0000 </r>
       <r>    8.6473    1.0000 </r>
       <r>    9.4922    1.0000 </r>
       <r>    9.5325    0.9998 </r>
       <r>    9.5325    0.9998 </r>
       <r>    9.7684    0.0000 </r>
       <r>    9.8530    0.0000 </r>
      </set>
      <set comment="kpoint 3">
       <r>  -34.5954    1.0000 </r>
       <r>  -13.3000    1.0000 </r>
       <r>  -13.3000    1.0000 </r>
       <r>  -13.2696    1.0000 </r>
       <r>  -13.2679    1.0000 </r>
       <r>  -13.2679    1.0000 </r>
       <r>   -9.8977    1.0000 </r>
       <r>   -9.8420    1.0000 </r>
       <r>   -9.8420    1.0000 </r>
       <r>   -2.5185    1.0000 </r>
       <r>    4.6567    1.0000 </r>
       <r>    4.8496    1.0000 </r>
       <r>    4.8496    1.0000 </r>
       <r>    5.6059    1.0000 </r>
       <r>    5.6059    1.0000 </r>
       <r>    6.9845    1.0000 </r>
       <r>    8.2653    1.0000 </r>
       <r>    8.2653    1.0000 </r>
       <r>    8.7391    1.0000 </r>
       <r>    9.5178    1.0000 </r>
       <r>    9.5178    1.0000 </r>
       <r>    9.6874    0.0000 </r>
       <r>    9.9218    0.0000 </r>
       <r>    9.9516    0.0000 </r>
      </set>
      <set comment="kpoint 4">
       <r>  -34.5946    1.0000 </r>
       <r>  -13.3053    1.0000 </r>
       <r>  -13.3053    1.0000 </r>
       <r>  -13.2707    1.0000 </r>
       <r>  -13.2672    1.0000 </r>
       <r>  -13.2672    1.0000 </r>
       <r>   -9.9417    1.0000 </r>
       <r>   -9.8311    1.0000 </r>
       <r>   -9.8311    1.0000 </r>
       <r>   -2.2715    1.0000 </r>
       <r>    4.2615    1.0000 </r>
       <r>    4.7325    1.0000 </r>
       <r>    4.7325    1.0000 </r>
       <r>    5.6561    1.0000 </r>
       <r>    5.6561    1.0000 </r>
       <r>    6.4783    1.0000 </r>
       <r>    8.1532    1.0000 </r>
       <r>    8.1532    1.0000 </r>
       <r>    8.7407    1.0000 </r>
       <r>    9.5248    1.0000 </r>
       <r>    9.5248    1.0000 </r>
       <r>    9.7843    0.0000 </r>
       <r>    9.8277    0.0000 </r>
       <r>   10.0497    0.0000 </r>
      </set>
      <set comment="kpoint 5">
       <r>  -34.5937    1.0000 </r>
       <r>  -13.3108    1.0000 </r>
       <r>  -13.3108    1.0000 </r>
       <r>  -13.2721    1.0000 </r>
       <r>  -13.2663    1.0000 </r>
       <r>  -13.2663    1.0000 </r>
       <r>   -9.9854    1.0000 </r>
       <r>   -9.8197    1.0000 </r>
       <r>   -9.8197    1.0000 </r>
       <r>   -2.0032    1.0000 </r>
       <r>    3.8910    1.0000 </r>
       <r>    4.6673    1.0000 </r>
       <r>    4.6673    1.0000 </r>
       <r>    5.6166    1.0000 </r>
       <r>    5.6166    1.0000 </r>
       <r>    6.0700    1.0000 </r>
       <r>    8.0957    1.0000 </r>
       <r>    8.0957    1.0000 </r>
       <r>    8.7782    1.0000 </r>
       <r>    9.5496    0.8692 </r>
       <r>    9.5496    0.8692 </r>
       <r>    9.7888    0.0000 </r>
       <r>    9.8908    0.0000 </r>
       <r>   10.0156    0.0000 </r>
      </set>
      <set comment="kpoint 6">
       <r>  -34.5930    1.0000 </r>
       <r>  -13.3154    1.0000 </r>
       <r>  -13.3154    1.0000 </r>
       <r>  -13.2735    1.0000 </r>
       <r>  -13.2656    1.0000 </r>
       <r>  -13.2656    1.0000 </r>
       <r>  -10.0195    1.0000 </r>
       <r>   -9.8102    1.0000 </r>
       <r>   -9.8102    1.0000 </r>
       <r>   -1.7754    1.0000 </r>
       <r>    3.6119    1.0000 </r>
       <r>    4.6493    1.0000 </r>
       <r>    4.6493    1.0000 </r>
       <r>    5.5254    1.0000 </r>
       <r>    5.5254    1.0000 </r>
       <r>    5.7923    1.0000 </r>
       <r>    8.0847    1.0000 </r>
       <r>    8.0847    1.0000 </r>
       <r>    8.8491    1.0000 </r>
       <r>    9.5873    0.0000 </r>
       <r>    9.5873    0.0000 </r>
       <r>    9.9321    0.0000 </r>
       <r>    9.9384    0.0000 </r>
       <r>    9.9402    0.0000 </r>
      </set>
      <set comment="kpoint 7">
       <r>  -34.5926    1.0000 </r>
       <r>  -13.3180    1.0000 </r>
       <r>  -13.3180    1.0000 </r>
       <r>  -13.2743    1.0000 </r>
       <r>  -13.2652    1.0000 </r>
       <r>  -13.2652    1.0000 </r>
       <r>  -10.0379    1.0000 </r>
       <r>   -9.8049    1.0000 </r>
       <r>   -9.8049    1.0000 </r>
       <r>   -1.6443    1.0000 </r>
       <r>    3.4633    1.0000 </r>
       <r>    4.6552    1.0000 </r>
       <r>    4.6552    1.0000 </r>
       <r>    5.4508    1.0000 </r>
       <r>    5.4508    1.0000 </r>
       <r>    5.6536    1.0000 </r>
       <r>    8.0899    1.0000 </r>
       <r>    8.0899    1.0000 </r>
       <r>    8.9091    1.0000 </r>
       <r>    9.6232    0.0000 </r>
       <r>    9.6232    0.0000 </r>
       <r>    9.8716    0.0000 </r>
       <r>    9.8749    0.0000 </r>
       <r>    9.9449    0.0000 </r>
      </set>
      <set comment="kpoint 8">
       <r>  -34.5959    1.0000 </r>
       <r>  -13.2986    1.0000 </r>
       <r>  -13.2947    1.0000 </r>
       <r>  -13.2690    1.0000 </r>
       <r>  -13.2683    1.0000 </r>
       <r>  -13.2683    1.0000 </r>
       <r>   -9.8589    1.0000 </r>
       <r>   -9.8539    1.0000 </r>
       <r>   -9.8539    1.0000 </r>
       <r>   -2.6715    1.0000 </r>
       <r>    4.7447    1.0000 </r>
       <r>    5.1176    1.0000 </r>
       <r>    5.1176    1.0000 </r>
       <r>    5.4002    1.0000 </r>
       <r>    5.5229    1.0000 </r>
       <r>    7.4920    1.0000 </r>
       <r>    8.2985    1.0000 </r>
       <r>    8.2985    1.0000 </r>
       <r>    8.8098    1.0000 </r>
       <r>    9.4171    1.0000 </r>
       <r>    9.5457    0.9526 </r>
       <r>    9.5457    0.9526 </r>
       <r>    9.7867    0.0000 </r>
       <r>    9.7937    0.0000 </r>
      </set>
      <set comment="kpoint 9">
       <r>  -34.5954    1.0000 </r>
       <r>  -13.3027    1.0000 </r>
       <r>  -13.2957    1.0000 </r>
       <r>  -13.2696    1.0000 </r>
       <r>  -13.2680    1.0000 </r>
       <r>  -13.2679    1.0000 </r>
       <r>   -9.8841    1.0000 </r>
       <r>   -9.8523    1.0000 </r>
       <r>   -9.8449    1.0000 </r>
       <r>   -2.5404    1.0000 </r>
       <r>    4.4693    1.0000 </r>
       <r>    5.0112    1.0000 </r>
       <r>    5.0435    1.0000 </r>
       <r>    5.4847    1.0000 </r>
       <r>    5.6152    1.0000 </r>
       <r>    7.1422    1.0000 </r>
       <r>    8.1583    1.0000 </r>
       <r>    8.1638    1.0000 </r>
       <r>    8.9255    1.0000 </r>
       <r>    9.4805    1.0000 </r>
       <r>    9.5382    0.9969 </r>
       <r>    9.6100    0.0000 </r>
       <r>    9.7921    0.0000 </r>
       <r>    9.9101    0.0000 </r>
      </set>
      <set comment="kpoint 10">
       <r>  -34.5947    1.0000 </r>
       <r>  -13.3077    1.0000 </r>
       <r>  -13.2993    1.0000 </r>
       <r>  -13.2705    1.0000 </r>
       <r>  -13.2674    1.0000 </r>
       <r>  -13.2671    1.0000 </r>
       <r>   -9.9247    1.0000 </r>
       <r>   -9.8454    1.0000 </r>
       <r>   -9.8328    1.0000 </r>
       <r>   -2.3257    1.0000 </r>
       <r>    4.1856    1.0000 </r>
       <r>    4.8063    1.0000 </r>
       <r>    4.9306    1.0000 </r>
       <r>    5.5580    1.0000 </r>
       <r>    5.6995    1.0000 </r>
       <r>    6.6783    1.0000 </r>
       <r>    8.0146    1.0000 </r>
       <r>    8.0598    1.0000 </r>
       <r>    8.9085    1.0000 </r>
       <r>    9.5103    1.0000 </r>
       <r>    9.5360    0.9988 </r>
       <r>    9.7880    0.0000 </r>
       <r>    9.7947    0.0000 </r>
       <r>   10.0134    0.0000 </r>
      </set>
      <set comment="kpoint 11">
       <r>  -34.5939    1.0000 </r>
       <r>  -13.3124    1.0000 </r>
       <r>  -13.3046    1.0000 </r>
       <r>  -13.2716    1.0000 </r>
       <r>  -13.2668    1.0000 </r>
       <r>  -13.2662    1.0000 </r>
       <r>   -9.9684    1.0000 </r>
       <r>   -9.8348    1.0000 </r>
       <r>   -9.8218    1.0000 </r>
       <r>   -2.0746    1.0000 </r>
       <r>    3.9102    1.0000 </r>
       <r>    4.6510    1.0000 </r>
       <r>    4.8442    1.0000 </r>
       <r>    5.5471    1.0000 </r>
       <r>    5.7083    1.0000 </r>
       <r>    6.2427    1.0000 </r>
       <r>    7.9309    1.0000 </r>
       <r>    8.0201    1.0000 </r>
       <r>    8.8961    1.0000 </r>
       <r>    9.5429    0.9806 </r>
       <r>    9.5482    0.9059 </r>
       <r>    9.7969    0.0000 </r>
       <r>    9.8567    0.0000 </r>
       <r>   10.0076    0.0000 </r>
      </set>
      <set comment="kpoint 12">
       <r>  -34.5931    1.0000 </r>
       <r>  -13.3158    1.0000 </r>
       <r>  -13.3102    1.0000 </r>
       <r>  -13.2729    1.0000 </r>
       <r>  -13.2661    1.0000 </r>
       <r>  -13.2655    1.0000 </r>
       <r>  -10.0054    1.0000 </r>
       <r>   -9.8230    1.0000 </r>
       <r>   -9.8144    1.0000 </r>
       <r>   -1.8446    1.0000 </r>
       <r>    3.6830    1.0000 </r>
       <r>    4.5869    1.0000 </r>
       <r>    4.7819    1.0000 </r>
       <r>    5.4858    1.0000 </r>
       <r>    5.6422    1.0000 </r>
       <r>    5.9096    1.0000 </r>
       <r>    7.9072    1.0000 </r>
       <r>    8.0274    1.0000 </r>
       <r>    8.9231    1.0000 </r>
       <r>    9.5766    0.0034 </r>
       <r>    9.5843    0.0001 </r>
       <r>    9.7973    0.0000 </r>
       <r>    9.8862    0.0000 </r>
       <r>    9.9653    0.0000 </r>
      </set>
      <set comment="kpoint 13">
       <r>  -34.5926    1.0000 </r>
       <r>  -13.3171    1.0000 </r>
       <r>  -13.3150    1.0000 </r>
       <r>  -13.2738    1.0000 </r>
       <r>  -13.2656    1.0000 </r>
       <r>  -13.2650    1.0000 </r>
       <r>  -10.0286    1.0000 </r>
       <r>   -9.8125    1.0000 </r>
       <r>   -9.8121    1.0000 </r>
       <r>   -1.6897    1.0000 </r>
       <r>    3.5418    1.0000 </r>
       <r>    4.6029    1.0000 </r>
       <r>    4.7182    1.0000 </r>
       <r>    5.4495    1.0000 </r>
       <r>    5.5443    1.0000 </r>
       <r>    5.7104    1.0000 </r>
       <r>    7.9112    1.0000 </r>
       <r>    8.0455    1.0000 </r>
       <r>    8.9697    1.0000 </r>
       <r>    9.6167    0.0000 </r>
       <r>    9.6208    0.0000 </r>
       <r>    9.7929    0.0000 </r>
       <r>    9.8666    0.0000 </r>
       <r>    9.9231    0.0000 </r>
      </set>
      <set comment="kpoint 14">
       <r>  -34.5924    1.0000 </r>
       <r>  -13.3178    1.0000 </r>
       <r>  -13.3160    1.0000 </r>
       <r>  -13.2740    1.0000 </r>
       <r>  -13.2654    1.0000 </r>
       <r>  -13.2650    1.0000 </r>
       <r>  -10.0345    1.0000 </r>
       <r>   -9.8154    1.0000 </r>
       <r>   -9.8058    1.0000 </r>
       <r>   -1.6473    1.0000 </r>
       <r>    3.5050    1.0000 </r>
       <r>    4.6385    1.0000 </r>
       <r>    4.6689    1.0000 </r>
       <r>    5.4659    1.0000 </r>
       <r>    5.4889    1.0000 </r>
       <r>    5.6612    1.0000 </r>
       <r>    7.9068    1.0000 </r>
       <r>    8.0544    1.0000 </r>
       <r>    8.9891    1.0000 </r>
       <r>    9.6229    0.0000 </r>
       <r>    9.6448    0.0000 </r>
       <r>    9.7843    0.0000 </r>
       <r>    9.8721    0.0000 </r>
       <r>    9.8833    0.0000 </r>
      </set>
      <set comment="kpoint 15">
       <r>  -34.5927    1.0000 </r>
       <r>  -13.3180    1.0000 </r>
       <r>  -13.3128    1.0000 </r>
       <r>  -13.2735    1.0000 </r>
       <r>  -13.2655    1.0000 </r>
       <r>  -13.2654    1.0000 </r>
       <r>  -10.0223    1.0000 </r>
       <r>   -9.8234    1.0000 </r>
       <r>   -9.8044    1.0000 </r>
       <r>   -1.7275    1.0000 </r>
       <r>    3.5789    1.0000 </r>
       <r>    4.5662    1.0000 </r>
       <r>    4.7504    1.0000 </r>
       <r>    5.4490    1.0000 </r>
       <r>    5.5887    1.0000 </r>
       <r>    5.7632    1.0000 </r>
       <r>    7.8745    1.0000 </r>
       <r>    8.0596    1.0000 </r>
       <r>    8.9606    1.0000 </r>
       <r>    9.5911    0.0000 </r>
       <r>    9.6244    0.0000 </r>
       <r>    9.7896    0.0000 </r>
       <r>    9.8988    0.0000 </r>
       <r>    9.9145    0.0000 </r>
      </set>
      <set comment="kpoint 16">
       <r>  -34.5933    1.0000 </r>
       <r>  -13.3156    1.0000 </r>
       <r>  -13.3082    1.0000 </r>
       <r>  -13.2724    1.0000 </r>
       <r>  -13.2661    1.0000 </r>
       <r>  -13.2660    1.0000 </r>
       <r>   -9.9938    1.0000 </r>
       <r>   -9.8342    1.0000 </r>
       <r>   -9.8086    1.0000 </r>
       <r>   -1.9115    1.0000 </r>
       <r>    3.7636    1.0000 </r>
       <r>    4.5354    1.0000 </r>
       <r>    4.8337    1.0000 </r>
       <r>    5.4916    1.0000 </r>
       <r>    5.6955    1.0000 </r>
       <r>    6.0071    1.0000 </r>
       <r>    7.8234    1.0000 </r>
       <r>    8.0851    1.0000 </r>
       <r>    8.9161    1.0000 </r>
       <r>    9.5577    0.4918 </r>
       <r>    9.5795    0.0009 </r>
       <r>    9.7941    0.0000 </r>
       <r>    9.8951    0.0000 </r>
       <r>    9.9597    0.0000 </r>
      </set>
      <set comment="kpoint 17">
       <r>  -34.5941    1.0000 </r>
       <r>  -13.3111    1.0000 </r>
       <r>  -13.3031    1.0000 </r>
       <r>  -13.2711    1.0000 </r>
       <r>  -13.2670    1.0000 </r>
       <r>  -13.2667    1.0000 </r>
       <r>   -9.9541    1.0000 </r>
       <r>   -9.8453    1.0000 </r>
       <r>   -9.8175    1.0000 </r>
       <r>   -2.1552    1.0000 </r>
       <r>    4.0437    1.0000 </r>
       <r>    4.5663    1.0000 </r>
       <r>    4.9338    1.0000 </r>
       <r>    5.5317    1.0000 </r>
       <r>    5.7527    1.0000 </r>
       <r>    6.3769    1.0000 </r>
       <r>    7.7983    1.0000 </r>
       <r>    8.1567    1.0000 </r>
       <r>    8.8950    1.0000 </r>
       <r>    9.5364    0.9986 </r>
       <r>    9.5387    0.9962 </r>
       <r>    9.7927    0.0000 </r>
       <r>    9.8465    0.0000 </r>
       <r>   10.0245    0.0000 </r>
      </set>
      <set comment="kpoint 18">
       <r>  -34.5950    1.0000 </r>
       <r>  -13.3056    1.0000 </r>
       <r>  -13.2989    1.0000 </r>
       <r>  -13.2700    1.0000 </r>
       <r>  -13.2677    1.0000 </r>
       <r>  -13.2675    1.0000 </r>
       <r>   -9.9116    1.0000 </r>
       <r>   -9.8536    1.0000 </r>
       <r>   -9.8291    1.0000 </r>
       <r>   -2.4011    1.0000 </r>
       <r>    4.3794    1.0000 </r>
       <r>    4.6638    1.0000 </r>
       <r>    5.0572    1.0000 </r>
       <r>    5.5068    1.0000 </r>
       <r>    5.7266    1.0000 </r>
       <r>    6.8237    1.0000 </r>
       <r>    7.8720    1.0000 </r>
       <r>    8.2710    1.0000 </r>
       <r>    8.9010    1.0000 </r>
       <r>    9.5119    1.0000 </r>
       <r>    9.5270    1.0000 </r>
       <r>    9.7609    0.0000 </r>
       <r>    9.7888    0.0000 </r>
       <r>    9.9986    0.0000 </r>
      </set>
      <set comment="kpoint 19">
       <r>  -34.5956    1.0000 </r>
       <r>  -13.3003    1.0000 </r>
       <r>  -13.2964    1.0000 </r>
       <r>  -13.2692    1.0000 </r>
       <r>  -13.2682    1.0000 </r>
       <r>  -13.2681    1.0000 </r>
       <r>   -9.8784    1.0000 </r>
       <r>   -9.8555    1.0000 </r>
       <r>   -9.8408    1.0000 </r>
       <r>   -2.5936    1.0000 </r>
       <r>    4.7119    1.0000 </r>
       <r>    4.8187    1.0000 </r>
       <r>    5.1297    1.0000 </r>
       <r>    5.4502    1.0000 </r>
       <r>    5.6232    1.0000 </r>
       <r>    7.2388    1.0000 </r>
       <r>    8.1080    1.0000 </r>
       <r>    8.3741    1.0000 </r>
       <r>    8.8469    1.0000 </r>
       <r>    9.5083    1.0000 </r>
       <r>    9.5088    1.0000 </r>
       <r>    9.5902    0.0000 </r>
       <r>    9.7833    0.0000 </r>
       <r>    9.8654    0.0000 </r>
      </set>
      <set comment="kpoint 20">
       <r>  -34.5951    1.0000 </r>
       <r>  -13.3063    1.0000 </r>
       <r>  -13.2938    1.0000 </r>
       <r>  -13.2702    1.0000 </r>
       <r>  -13.2675    1.0000 </r>
       <r>  -13.2675    1.0000 </r>
       <r>   -9.8779    1.0000 </r>
       <r>   -9.8578    1.0000 </r>
       <r>   -9.8578    1.0000 </r>
       <r>   -2.4628    1.0000 </r>
       <r>    4.1844    1.0000 </r>
       <r>    5.1464    1.0000 </r>
       <r>    5.1464    1.0000 </r>
       <r>    5.4393    1.0000 </r>
       <r>    5.5607    1.0000 </r>
       <r>    7.1116    1.0000 </r>
       <r>    8.0309    1.0000 </r>
       <r>    8.0309    1.0000 </r>
       <r>    8.9900    1.0000 </r>
       <r>    9.5454    0.9572 </r>
       <r>    9.5475    0.9209 </r>
       <r>    9.5475    0.9209 </r>
       <r>    9.8173    0.0000 </r>
       <r>    9.9685    0.0000 </r>
      </set>
      <set comment="kpoint 21">
       <r>  -34.5945    1.0000 </r>
       <r>  -13.3097    1.0000 </r>
       <r>  -13.2947    1.0000 </r>
       <r>  -13.2710    1.0000 </r>
       <r>  -13.2670    1.0000 </r>
       <r>  -13.2668    1.0000 </r>
       <r>   -9.9082    1.0000 </r>
       <r>   -9.8572    1.0000 </r>
       <r>   -9.8492    1.0000 </r>
       <r>   -2.3053    1.0000 </r>
       <r>    3.9477    1.0000 </r>
       <r>    5.0318    1.0000 </r>
       <r>    5.1000    1.0000 </r>
       <r>    5.4919    1.0000 </r>
       <r>    5.6077    1.0000 </r>
       <r>    6.8588    1.0000 </r>
       <r>    7.8563    1.0000 </r>
       <r>    7.9363    1.0000 </r>
       <r>    9.0115    1.0000 </r>
       <r>    9.5182    1.0000 </r>
       <r>    9.5505    0.8383 </r>
       <r>    9.7212    0.0000 </r>
       <r>    9.8294    0.0000 </r>
       <r>   10.0252    0.0000 </r>
      </set>
      <set comment="kpoint 22">
       <r>  -34.5938    1.0000 </r>
       <r>  -13.3124    1.0000 </r>
       <r>  -13.2983    1.0000 </r>
       <r>  -13.2718    1.0000 </r>
       <r>  -13.2666    1.0000 </r>
       <r>  -13.2659    1.0000 </r>
       <r>   -9.9486    1.0000 </r>
       <r>   -9.8506    1.0000 </r>
       <r>   -9.8387    1.0000 </r>
       <r>   -2.1062    1.0000 </r>
       <r>    3.7867    1.0000 </r>
       <r>    4.8233    1.0000 </r>
       <r>    5.0176    1.0000 </r>
       <r>    5.5086    1.0000 </r>
       <r>    5.6760    1.0000 </r>
       <r>    6.4964    1.0000 </r>
       <r>    7.6799    1.0000 </r>
       <r>    7.9105    1.0000 </r>
       <r>    9.0371    1.0000 </r>
       <r>    9.5351    0.9993 </r>
       <r>    9.5593    0.3985 </r>
       <r>    9.7980    0.0000 </r>
       <r>    9.8306    0.0000 </r>
       <r>   10.0235    0.0000 </r>
      </set>
      <set comment="kpoint 23">
       <r>  -34.5930    1.0000 </r>
       <r>  -13.3137    1.0000 </r>
       <r>  -13.3036    1.0000 </r>
       <r>  -13.2725    1.0000 </r>
       <r>  -13.2663    1.0000 </r>
       <r>  -13.2651    1.0000 </r>
       <r>   -9.9850    1.0000 </r>
       <r>   -9.8397    1.0000 </r>
       <r>   -9.8332    1.0000 </r>
       <r>   -1.9126    1.0000 </r>
       <r>    3.7066    1.0000 </r>
       <r>    4.6628    1.0000 </r>
       <r>    4.9267    1.0000 </r>
       <r>    5.4846    1.0000 </r>
       <r>    5.6822    1.0000 </r>
       <r>    6.1359    1.0000 </r>
       <r>    7.5867    1.0000 </r>
       <r>    7.9309    1.0000 </r>
       <r>    9.0503    1.0000 </r>
       <r>    9.5761    0.0043 </r>
       <r>    9.5814    0.0004 </r>
       <r>    9.8252    0.0000 </r>
       <r>    9.8256    0.0000 </r>
       <r>    9.9950    0.0000 </r>
      </set>
      <set comment="kpoint 24">
       <r>  -34.5925    1.0000 </r>
       <r>  -13.3134    1.0000 </r>
       <r>  -13.3094    1.0000 </r>
       <r>  -13.2730    1.0000 </r>
       <r>  -13.2662    1.0000 </r>
       <r>  -13.2646    1.0000 </r>
       <r>  -10.0099    1.0000 </r>
       <r>   -9.8342    1.0000 </r>
       <r>   -9.8269    1.0000 </r>
       <r>   -1.7674    1.0000 </r>
       <r>    3.6845    1.0000 </r>
       <r>    4.5979    1.0000 </r>
       <r>    4.8093    1.0000 </r>
       <r>    5.4874    1.0000 </r>
       <r>    5.6244    1.0000 </r>
       <r>    5.8719    1.0000 </r>
       <r>    7.5521    1.0000 </r>
       <r>    7.9553    1.0000 </r>
       <r>    9.0768    1.0000 </r>
       <r>    9.6112    0.0000 </r>
       <r>    9.6190    0.0000 </r>
       <r>    9.8122    0.0000 </r>
       <r>    9.8393    0.0000 </r>
       <r>    9.9743    0.0000 </r>
      </set>
      <set comment="kpoint 25">
       <r>  -34.5922    1.0000 </r>
       <r>  -13.3143    1.0000 </r>
       <r>  -13.3116    1.0000 </r>
       <r>  -13.2731    1.0000 </r>
       <r>  -13.2661    1.0000 </r>
       <r>  -13.2646    1.0000 </r>
       <r>  -10.0193    1.0000 </r>
       <r>   -9.8409    1.0000 </r>
       <r>   -9.8151    1.0000 </r>
       <r>   -1.6989    1.0000 </r>
       <r>    3.6797    1.0000 </r>
       <r>    4.6347    1.0000 </r>
       <r>    4.6714    1.0000 </r>
       <r>    5.5362    1.0000 </r>
       <r>    5.5521    1.0000 </r>
       <r>    5.7658    1.0000 </r>
       <r>    7.5273    1.0000 </r>
       <r>    7.9638    1.0000 </r>
       <r>    9.1033    1.0000 </r>
       <r>    9.6128    0.0000 </r>
       <r>    9.6647    0.0000 </r>
       <r>    9.7843    0.0000 </r>
       <r>    9.8656    0.0000 </r>
       <r>    9.9413    0.0000 </r>
      </set>
      <set comment="kpoint 26">
       <r>  -34.5924    1.0000 </r>
       <r>  -13.3173    1.0000 </r>
       <r>  -13.3086    1.0000 </r>
       <r>  -13.2726    1.0000 </r>
       <r>  -13.2662    1.0000 </r>
       <r>  -13.2650    1.0000 </r>
       <r>  -10.0124    1.0000 </r>
       <r>   -9.8513    1.0000 </r>
       <r>   -9.8070    1.0000 </r>
       <r>   -1.7204    1.0000 </r>
       <r>    3.6784    1.0000 </r>
       <r>    4.5479    1.0000 </r>
       <r>    4.7477    1.0000 </r>
       <r>    5.4693    1.0000 </r>
       <r>    5.6589    1.0000 </r>
       <r>    5.8316    1.0000 </r>
       <r>    7.4731    1.0000 </r>
       <r>    7.9676    1.0000 </r>
       <r>    9.1027    1.0000 </r>
       <r>    9.5856    0.0000 </r>
       <r>    9.6791    0.0000 </r>
       <r>    9.7695    0.0000 </r>
       <r>    9.8958    0.0000 </r>
       <r>    9.9032    0.0000 </r>
      </set>
      <set comment="kpoint 27">
       <r>  -34.5928    1.0000 </r>
       <r>  -13.3178    1.0000 </r>
       <r>  -13.3051    1.0000 </r>
       <r>  -13.2719    1.0000 </r>
       <r>  -13.2664    1.0000 </r>
       <r>  -13.2656    1.0000 </r>
       <r>   -9.9913    1.0000 </r>
       <r>   -9.8621    1.0000 </r>
       <r>   -9.8043    1.0000 </r>
       <r>   -1.8305    1.0000 </r>
       <r>    3.7179    1.0000 </r>
       <r>    4.4719    1.0000 </r>
       <r>    4.8978    1.0000 </r>
       <r>    5.4432    1.0000 </r>
       <r>    5.7641    1.0000 </r>
       <r>    6.0501    1.0000 </r>
       <r>    7.3859    1.0000 </r>
       <r>    7.9958    1.0000 </r>
       <r>    9.0778    1.0000 </r>
       <r>    9.5582    0.4593 </r>
       <r>    9.6346    0.0000 </r>
       <r>    9.7936    0.0000 </r>
       <r>    9.8865    0.0000 </r>
       <r>    9.9213    0.0000 </r>
      </set>
      <set comment="kpoint 28">
       <r>  -34.5935    1.0000 </r>
       <r>  -13.3156    1.0000 </r>
       <r>  -13.3018    1.0000 </r>
       <r>  -13.2711    1.0000 </r>
       <r>  -13.2667    1.0000 </r>
       <r>  -13.2664    1.0000 </r>
       <r>   -9.9612    1.0000 </r>
       <r>   -9.8690    1.0000 </r>
       <r>   -9.8079    1.0000 </r>
       <r>   -2.0092    1.0000 </r>
       <r>    3.8465    1.0000 </r>
       <r>    4.4630    1.0000 </r>
       <r>    5.0487    1.0000 </r>
       <r>    5.4385    1.0000 </r>
       <r>    5.8222    1.0000 </r>
       <r>    6.3678    1.0000 </r>
       <r>    7.3254    1.0000 </r>
       <r>    8.0719    1.0000 </r>
       <r>    9.0485    1.0000 </r>
       <r>    9.5425    0.9831 </r>
       <r>    9.5818    0.0003 </r>
       <r>    9.8036    0.0000 </r>
       <r>    9.8575    0.0000 </r>
       <r>    9.9721    0.0000 </r>
      </set>
      <set comment="kpoint 29">
       <r>  -34.5943    1.0000 </r>
       <r>  -13.3112    1.0000 </r>
       <r>  -13.2995    1.0000 </r>
       <r>  -13.2705    1.0000 </r>
       <r>  -13.2672    1.0000 </r>
       <r>  -13.2670    1.0000 </r>
       <r>   -9.9316    1.0000 </r>
       <r>   -9.8668    1.0000 </r>
       <r>   -9.8168    1.0000 </r>
       <r>   -2.2163    1.0000 </r>
       <r>    4.0775    1.0000 </r>
       <r>    4.5286    1.0000 </r>
       <r>    5.1466    1.0000 </r>
       <r>    5.4335    1.0000 </r>
       <r>    5.8078    1.0000 </r>
       <r>    6.6569    1.0000 </r>
       <r>    7.4559    1.0000 </r>
       <r>    8.1838    1.0000 </r>
       <r>    9.0103    1.0000 </r>
       <r>    9.5345    0.9994 </r>
       <r>    9.5368    0.9983 </r>
       <r>    9.7996    0.0000 </r>
       <r>    9.8185    0.0000 </r>
       <r>   10.0246    0.0000 </r>
      </set>
      <set comment="kpoint 30">
       <r>  -34.5941    1.0000 </r>
       <r>  -13.3109    1.0000 </r>
       <r>  -13.2925    1.0000 </r>
       <r>  -13.2720    1.0000 </r>
       <r>  -13.2662    1.0000 </r>
       <r>  -13.2662    1.0000 </r>
       <r>   -9.9082    1.0000 </r>
       <r>   -9.8637    1.0000 </r>
       <r>   -9.8637    1.0000 </r>
       <r>   -2.2197    1.0000 </r>
       <r>    3.7662    1.0000 </r>
       <r>    5.1585    1.0000 </r>
       <r>    5.1585    1.0000 </r>
       <r>    5.4659    1.0000 </r>
       <r>    5.4959    1.0000 </r>
       <r>    6.8256    1.0000 </r>
       <r>    7.8505    1.0000 </r>
       <r>    7.8505    1.0000 </r>
       <r>    8.9739    1.0000 </r>
       <r>    9.5601    0.3576 </r>
       <r>    9.5601    0.3576 </r>
       <r>    9.6849    0.0000 </r>
       <r>    9.8674    0.0000 </r>
       <r>   10.1033    0.0000 </r>
      </set>
      <set comment="kpoint 31">
       <r>  -34.5935    1.0000 </r>
       <r>  -13.3109    1.0000 </r>
       <r>  -13.2933    1.0000 </r>
       <r>  -13.2728    1.0000 </r>
       <r>  -13.2656    1.0000 </r>
       <r>  -13.2653    1.0000 </r>
       <r>   -9.9364    1.0000 </r>
       <r>   -9.8634    1.0000 </r>
       <r>   -9.8602    1.0000 </r>
       <r>   -2.0954    1.0000 </r>
       <r>    3.6914    1.0000 </r>
       <r>    5.0157    1.0000 </r>
       <r>    5.1201    1.0000 </r>
       <r>    5.5063    1.0000 </r>
       <r>    5.5213    1.0000 </r>
       <r>    6.6298    1.0000 </r>
       <r>    7.6901    1.0000 </r>
       <r>    7.8340    1.0000 </r>
       <r>    9.0546    1.0000 </r>
       <r>    9.5476    0.9202 </r>
       <r>    9.5706    0.0325 </r>
       <r>    9.7287    0.0000 </r>
       <r>    9.8848    0.0000 </r>
       <r>   10.0787    0.0000 </r>
      </set>
      <set comment="kpoint 32">
       <r>  -34.5928    1.0000 </r>
       <r>  -13.3097    1.0000 </r>
       <r>  -13.2970    1.0000 </r>
       <r>  -13.2733    1.0000 </r>
       <r>  -13.2654    1.0000 </r>
       <r>  -13.2645    1.0000 </r>
       <r>   -9.9679    1.0000 </r>
       <r>   -9.8575    1.0000 </r>
       <r>   -9.8566    1.0000 </r>
       <r>   -1.9648    1.0000 </r>
       <r>    3.7305    1.0000 </r>
       <r>    4.8094    1.0000 </r>
       <r>    5.0342    1.0000 </r>
       <r>    5.5262    1.0000 </r>
       <r>    5.5900    1.0000 </r>
       <r>    6.3554    1.0000 </r>
       <r>    7.4531    1.0000 </r>
       <r>    7.8617    1.0000 </r>
       <r>    9.1395    1.0000 </r>
       <r>    9.5603    0.3480 </r>
       <r>    9.5896    0.0000 </r>
       <r>    9.7619    0.0000 </r>
       <r>    9.8820    0.0000 </r>
       <r>   10.0366    0.0000 </r>
      </set>
      <set comment="kpoint 33">
       <r>  -34.5923    1.0000 </r>
       <r>  -13.3077    1.0000 </r>
       <r>  -13.3025    1.0000 </r>
       <r>  -13.2732    1.0000 </r>
       <r>  -13.2658    1.0000 </r>
       <r>  -13.2640    1.0000 </r>
       <r>   -9.9900    1.0000 </r>
       <r>   -9.8619    1.0000 </r>
       <r>   -9.8447    1.0000 </r>
       <r>   -1.8551    1.0000 </r>
       <r>    3.8473    1.0000 </r>
       <r>    4.6662    1.0000 </r>
       <r>    4.9032    1.0000 </r>
       <r>    5.5506    1.0000 </r>
       <r>    5.6137    1.0000 </r>
       <r>    6.0869    1.0000 </r>
       <r>    7.2742    1.0000 </r>
       <r>    7.8843    1.0000 </r>
       <r>    9.1761    1.0000 </r>
       <r>    9.5902    0.0000 </r>
       <r>    9.6216    0.0000 </r>
       <r>    9.7975    0.0000 </r>
       <r>    9.8632    0.0000 </r>
       <r>    9.9964    0.0000 </r>
      </set>
      <set comment="kpoint 34">
       <r>  -34.5920    1.0000 </r>
       <r>  -13.3085    1.0000 </r>
       <r>  -13.3055    1.0000 </r>
       <r>  -13.2726    1.0000 </r>
       <r>  -13.2665    1.0000 </r>
       <r>  -13.2639    1.0000 </r>
       <r>   -9.9982    1.0000 </r>
       <r>   -9.8730    1.0000 </r>
       <r>   -9.8305    1.0000 </r>
       <r>   -1.7826    1.0000 </r>
       <r>    3.9472    1.0000 </r>
       <r>    4.6174    1.0000 </r>
       <r>    4.7439    1.0000 </r>
       <r>    5.5581    1.0000 </r>
       <r>    5.6191    1.0000 </r>
       <r>    5.9477    1.0000 </r>
       <r>    7.1568    1.0000 </r>
       <r>    7.8808    1.0000 </r>
       <r>    9.2004    1.0000 </r>
       <r>    9.5927    0.0000 </r>
       <r>    9.6655    0.0000 </r>
       <r>    9.8247    0.0000 </r>
       <r>    9.8506    0.0000 </r>
       <r>    9.9644    0.0000 </r>
      </set>
      <set comment="kpoint 35">
       <r>  -34.5920    1.0000 </r>
       <r>  -13.3137    1.0000 </r>
       <r>  -13.3035    1.0000 </r>
       <r>  -13.2716    1.0000 </r>
       <r>  -13.2672    1.0000 </r>
       <r>  -13.2643    1.0000 </r>
       <r>   -9.9928    1.0000 </r>
       <r>   -9.8866    1.0000 </r>
       <r>   -9.8171    1.0000 </r>
       <r>   -1.7570    1.0000 </r>
       <r>    3.9256    1.0000 </r>
       <r>    4.5927    1.0000 </r>
       <r>    4.6760    1.0000 </r>
       <r>    5.4932    1.0000 </r>
       <r>    5.7145    1.0000 </r>
       <r>    5.9876    1.0000 </r>
       <r>    7.0634    1.0000 </r>
       <r>    7.8700    1.0000 </r>
       <r>    9.2105    1.0000 </r>
       <r>    9.5681    0.0675 </r>
       <r>    9.7122    0.0000 </r>
       <r>    9.7711    0.0000 </r>
       <r>    9.8848    0.0000 </r>
       <r>    9.9342    0.0000 </r>
      </set>
      <set comment="kpoint 36">
       <r>  -34.5923    1.0000 </r>
       <r>  -13.3170    1.0000 </r>
       <r>  -13.3021    1.0000 </r>
       <r>  -13.2708    1.0000 </r>
       <r>  -13.2675    1.0000 </r>
       <r>  -13.2649    1.0000 </r>
       <r>   -9.9789    1.0000 </r>
       <r>   -9.8958    1.0000 </r>
       <r>   -9.8077    1.0000 </r>
       <r>   -1.7867    1.0000 </r>
       <r>    3.8237    1.0000 </r>
       <r>    4.4824    1.0000 </r>
       <r>    4.8100    1.0000 </r>
       <r>    5.4610    1.0000 </r>
       <r>    5.8006    1.0000 </r>
       <r>    6.1681    1.0000 </r>
       <r>    6.9789    1.0000 </r>
       <r>    7.8890    1.0000 </r>
       <r>    9.1902    1.0000 </r>
       <r>    9.5461    0.9463 </r>
       <r>    9.6975    0.0000 </r>
       <r>    9.7713    0.0000 </r>
       <r>    9.8805    0.0000 </r>
       <r>    9.9196    0.0000 </r>
      </set>
      <set comment="kpoint 37">
       <r>  -34.5929    1.0000 </r>
       <r>  -13.3177    1.0000 </r>
       <r>  -13.3015    1.0000 </r>
       <r>  -13.2709    1.0000 </r>
       <r>  -13.2671    1.0000 </r>
       <r>  -13.2657    1.0000 </r>
       <r>   -9.9670    1.0000 </r>
       <r>   -9.8903    1.0000 </r>
       <r>   -9.8044    1.0000 </r>
       <r>   -1.8751    1.0000 </r>
       <r>    3.7720    1.0000 </r>
       <r>    4.4352    1.0000 </r>
       <r>    4.9641    1.0000 </r>
       <r>    5.4395    1.0000 </r>
       <r>    5.8416    1.0000 </r>
       <r>    6.3472    1.0000 </r>
       <r>    7.0088    1.0000 </r>
       <r>    7.9620    1.0000 </r>
       <r>    9.1369    1.0000 </r>
       <r>    9.5417    0.9876 </r>
       <r>    9.6387    0.0000 </r>
       <r>    9.8001    0.0000 </r>
       <r>    9.8685    0.0000 </r>
       <r>    9.9303    0.0000 </r>
      </set>
      <set comment="kpoint 38">
       <r>  -34.5930    1.0000 </r>
       <r>  -13.3081    1.0000 </r>
       <r>  -13.2911    1.0000 </r>
       <r>  -13.2738    1.0000 </r>
       <r>  -13.2646    1.0000 </r>
       <r>  -13.2646    1.0000 </r>
       <r>   -9.9452    1.0000 </r>
       <r>   -9.8703    1.0000 </r>
       <r>   -9.8703    1.0000 </r>
       <r>   -2.0533    1.0000 </r>
       <r>    3.7014    1.0000 </r>
       <r>    5.1327    1.0000 </r>
       <r>    5.1327    1.0000 </r>
       <r>    5.3079    1.0000 </r>
       <r>    5.5578    1.0000 </r>
       <r>    6.5350    1.0000 </r>
       <r>    7.8263    1.0000 </r>
       <r>    7.8263    1.0000 </r>
       <r>    9.0461    1.0000 </r>
       <r>    9.5821    0.0003 </r>
       <r>    9.5821    0.0003 </r>
       <r>    9.6766    0.0000 </r>
       <r>    9.9330    0.0000 </r>
       <r>   10.1703    0.0000 </r>
      </set>
      <set comment="kpoint 39">
       <r>  -34.5925    1.0000 </r>
       <r>  -13.3046    1.0000 </r>
       <r>  -13.2921    1.0000 </r>
       <r>  -13.2745    1.0000 </r>
       <r>  -13.2641    1.0000 </r>
       <r>  -13.2638    1.0000 </r>
       <r>   -9.9666    1.0000 </r>
       <r>   -9.8726    1.0000 </r>
       <r>   -9.8697    1.0000 </r>
       <r>   -1.9953    1.0000 </r>
       <r>    3.8287    1.0000 </r>
       <r>    4.9605    1.0000 </r>
       <r>    5.0838    1.0000 </r>
       <r>    5.3812    1.0000 </r>
       <r>    5.5793    1.0000 </r>
       <r>    6.3354    1.0000 </r>
       <r>    7.6853    1.0000 </r>
       <r>    7.8623    1.0000 </r>
       <r>    9.1732    1.0000 </r>
       <r>    9.5682    0.0653 </r>
       <r>    9.5988    0.0000 </r>
       <r>    9.6961    0.0000 </r>
       <r>    9.9522    0.0000 </r>
       <r>   10.1019    0.0000 </r>
      </set>
      <set comment="kpoint 40">
       <r>  -34.5920    1.0000 </r>
       <r>  -13.3013    1.0000 </r>
       <r>  -13.2959    1.0000 </r>
       <r>  -13.2744    1.0000 </r>
       <r>  -13.2643    1.0000 </r>
       <r>  -13.2632    1.0000 </r>
       <r>   -9.9821    1.0000 </r>
       <r>   -9.8802    1.0000 </r>
       <r>   -9.8618    1.0000 </r>
       <r>   -1.9333    1.0000 </r>
       <r>    4.0384    1.0000 </r>
       <r>    4.7749    1.0000 </r>
       <r>    4.9813    1.0000 </r>
       <r>    5.4924    1.0000 </r>
       <r>    5.6072    1.0000 </r>
       <r>    6.1138    1.0000 </r>
       <r>    7.3677    1.0000 </r>
       <r>    7.8831    1.0000 </r>
       <r>    9.2704    1.0000 </r>
       <r>    9.5685    0.0609 </r>
       <r>    9.6245    0.0000 </r>
       <r>    9.7477    0.0000 </r>
       <r>    9.9420    0.0000 </r>
       <r>   10.0240    0.0000 </r>
      </set>
      <set comment="kpoint 41">
       <r>  -34.5918    1.0000 </r>
       <r>  -13.3016    1.0000 </r>
       <r>  -13.2991    1.0000 </r>
       <r>  -13.2736    1.0000 </r>
       <r>  -13.2653    1.0000 </r>
       <r>  -13.2632    1.0000 </r>
       <r>   -9.9841    1.0000 </r>
       <r>   -9.8961    1.0000 </r>
       <r>   -9.8485    1.0000 </r>
       <r>   -1.8737    1.0000 </r>
       <r>    4.2367    1.0000 </r>
       <r>    4.6558    1.0000 </r>
       <r>    4.8386    1.0000 </r>
       <r>    5.5203    1.0000 </r>
       <r>    5.6631    1.0000 </r>
       <r>    5.9932    1.0000 </r>
       <r>    7.0533    1.0000 </r>
       <r>    7.8622    1.0000 </r>
       <r>    9.2930    1.0000 </r>
       <r>    9.5733    0.0128 </r>
       <r>    9.6587    0.0000 </r>
       <r>    9.8242    0.0000 </r>
       <r>    9.8993    0.0000 </r>
       <r>    9.9619    0.0000 </r>
      </set>
      <set comment="kpoint 42">
       <r>  -34.5917    1.0000 </r>
       <r>  -13.3079    1.0000 </r>
       <r>  -13.2986    1.0000 </r>
       <r>  -13.2719    1.0000 </r>
       <r>  -13.2669    1.0000 </r>
       <r>  -13.2635    1.0000 </r>
       <r>   -9.9731    1.0000 </r>
       <r>   -9.9162    1.0000 </r>
       <r>   -9.8326    1.0000 </r>
       <r>   -1.8216    1.0000 </r>
       <r>    4.2577    1.0000 </r>
       <r>    4.6177    1.0000 </r>
       <r>    4.6872    1.0000 </r>
       <r>    5.4807    1.0000 </r>
       <r>    5.7342    1.0000 </r>
       <r>    6.0690    1.0000 </r>
       <r>    6.8249    1.0000 </r>
       <r>    7.8267    1.0000 </r>
       <r>    9.2911    1.0000 </r>
       <r>    9.5554    0.6176 </r>
       <r>    9.6968    0.0000 </r>
       <r>    9.8309    0.0000 </r>
       <r>    9.8773    0.0000 </r>
       <r>    9.9603    0.0000 </r>
      </set>
      <set comment="kpoint 43">
       <r>  -34.5919    1.0000 </r>
       <r>  -13.3135    1.0000 </r>
       <r>  -13.2998    1.0000 </r>
       <r>  -13.2702    1.0000 </r>
       <r>  -13.2683    1.0000 </r>
       <r>  -13.2642    1.0000 </r>
       <r>   -9.9655    1.0000 </r>
       <r>   -9.9220    1.0000 </r>
       <r>   -9.8179    1.0000 </r>
       <r>   -1.7874    1.0000 </r>
       <r>    4.0496    1.0000 </r>
       <r>    4.5598    1.0000 </r>
       <r>    4.6915    1.0000 </r>
       <r>    5.4708    1.0000 </r>
       <r>    5.7891    1.0000 </r>
       <r>    6.2051    1.0000 </r>
       <r>    6.7533    1.0000 </r>
       <r>    7.8261    1.0000 </r>
       <r>    9.2618    1.0000 </r>
       <r>    9.5391    0.9954 </r>
       <r>    9.7329    0.0000 </r>
       <r>    9.7650    0.0000 </r>
       <r>    9.8800    0.0000 </r>
       <r>    9.9419    0.0000 </r>
      </set>
      <set comment="kpoint 44">
       <r>  -34.5921    1.0000 </r>
       <r>  -13.2995    1.0000 </r>
       <r>  -13.2900    1.0000 </r>
       <r>  -13.2754    1.0000 </r>
       <r>  -13.2631    1.0000 </r>
       <r>  -13.2631    1.0000 </r>
       <r>   -9.9801    1.0000 </r>
       <r>   -9.8761    1.0000 </r>
       <r>   -9.8761    1.0000 </r>
       <r>   -2.0031    1.0000 </r>
       <r>    4.0208    1.0000 </r>
       <r>    5.0835    1.0000 </r>
       <r>    5.0835    1.0000 </r>
       <r>    5.1615    1.0000 </r>
       <r>    5.6106    1.0000 </r>
       <r>    6.1467    1.0000 </r>
       <r>    7.9132    1.0000 </r>
       <r>    7.9132    1.0000 </r>
       <r>    9.2240    1.0000 </r>
       <r>    9.6114    0.0000 </r>
       <r>    9.6114    0.0000 </r>
       <r>    9.6367    0.0000 </r>
       <r>   10.0023    0.0000 </r>
       <r>   10.1673    0.0000 </r>
      </set>
      <set comment="kpoint 45">
       <r>  -34.5918    1.0000 </r>
       <r>  -13.2956    1.0000 </r>
       <r>  -13.2911    1.0000 </r>
       <r>  -13.2757    1.0000 </r>
       <r>  -13.2629    1.0000 </r>
       <r>  -13.2626    1.0000 </r>
       <r>   -9.9913    1.0000 </r>
       <r>   -9.8815    1.0000 </r>
       <r>   -9.8744    1.0000 </r>
       <r>   -1.9882    1.0000 </r>
       <r>    4.2724    1.0000 </r>
       <r>    4.9050    1.0000 </r>
       <r>    5.0332    1.0000 </r>
       <r>    5.2851    1.0000 </r>
       <r>    5.6334    1.0000 </r>
       <r>    5.9172    1.0000 </r>
       <r>    7.7637    1.0000 </r>
       <r>    7.9455    1.0000 </r>
       <r>    9.3557    1.0000 </r>
       <r>    9.5731    0.0136 </r>
       <r>    9.6293    0.0000 </r>
       <r>    9.6930    0.0000 </r>
       <r>   10.0181    0.0000 </r>
       <r>   10.0354    0.0000 </r>
      </set>
      <set comment="kpoint 46">
       <r>  -34.5916    1.0000 </r>
       <r>  -13.2952    1.0000 </r>
       <r>  -13.2940    1.0000 </r>
       <r>  -13.2751    1.0000 </r>
       <r>  -13.2637    1.0000 </r>
       <r>  -13.2625    1.0000 </r>
       <r>   -9.9901    1.0000 </r>
       <r>   -9.8953    1.0000 </r>
       <r>   -9.8649    1.0000 </r>
       <r>   -1.9504    1.0000 </r>
       <r>    4.4791    1.0000 </r>
       <r>    4.7602    1.0000 </r>
       <r>    4.9351    1.0000 </r>
       <r>    5.4137    1.0000 </r>
       <r>    5.6702    1.0000 </r>
       <r>    5.7773    1.0000 </r>
       <r>    7.3725    1.0000 </r>
       <r>    7.9164    1.0000 </r>
       <r>    9.3893    1.0000 </r>
       <r>    9.5629    0.2226 </r>
       <r>    9.6514    0.0000 </r>
       <r>    9.7967    0.0000 </r>
       <r>    9.9372    0.0000 </r>
       <r>   10.0032    0.0000 </r>
      </set>
      <set comment="kpoint 47">
       <r>  -34.5916    1.0000 </r>
       <r>  -13.3013    1.0000 </r>
       <r>  -13.2951    1.0000 </r>
       <r>  -13.2736    1.0000 </r>
       <r>  -13.2652    1.0000 </r>
       <r>  -13.2629    1.0000 </r>
       <r>   -9.9771    1.0000 </r>
       <r>   -9.9142    1.0000 </r>
       <r>   -9.8499    1.0000 </r>
       <r>   -1.8919    1.0000 </r>
       <r>    4.5089    1.0000 </r>
       <r>    4.6366    1.0000 </r>
       <r>    4.8102    1.0000 </r>
       <r>    5.4465    1.0000 </r>
       <r>    5.7131    1.0000 </r>
       <r>    5.9054    1.0000 </r>
       <r>    6.9831    1.0000 </r>
       <r>    7.8551    1.0000 </r>
       <r>    9.3502    1.0000 </r>
       <r>    9.5584    0.4518 </r>
       <r>    9.6746    0.0000 </r>
       <r>    9.8724    0.0000 </r>
       <r>    9.9113    0.0000 </r>
       <r>    9.9171    0.0000 </r>
      </set>
      <set comment="kpoint 48">
       <r>  -34.5916    1.0000 </r>
       <r>  -13.2921    1.0000 </r>
       <r>  -13.2893    1.0000 </r>
       <r>  -13.2763    1.0000 </r>
       <r>  -13.2622    1.0000 </r>
       <r>  -13.2622    1.0000 </r>
       <r>  -10.0017    1.0000 </r>
       <r>   -9.8796    1.0000 </r>
       <r>   -9.8796    1.0000 </r>
       <r>   -2.0111    1.0000 </r>
       <r>    4.5120    1.0000 </r>
       <r>    5.0466    1.0000 </r>
       <r>    5.0466    1.0000 </r>
       <r>    5.0790    1.0000 </r>
       <r>    5.6411    1.0000 </r>
       <r>    5.6913    1.0000 </r>
       <r>    8.0021    1.0000 </r>
       <r>    8.0021    1.0000 </r>
       <r>    9.4498    1.0000 </r>
       <r>    9.6198    0.0000 </r>
       <r>    9.6361    0.0000 </r>
       <r>    9.6361    0.0000 </r>
       <r>    9.9534    0.0000 </r>
       <r>   10.0506    0.0000 </r>
      </set>
      <set comment="kpoint 49">
       <r>  -34.5915    1.0000 </r>
       <r>  -13.2915    1.0000 </r>
       <r>  -13.2908    1.0000 </r>
       <r>  -13.2761    1.0000 </r>
       <r>  -13.2625    1.0000 </r>
       <r>  -13.2621    1.0000 </r>
       <r>  -10.0011    1.0000 </r>
       <r>   -9.8847    1.0000 </r>
       <r>   -9.8761    1.0000 </r>
       <r>   -1.9983    1.0000 </r>
       <r>    4.6089    1.0000 </r>
       <r>    4.8953    1.0000 </r>
       <r>    5.0114    1.0000 </r>
       <r>    5.2482    1.0000 </r>
       <r>    5.6028    1.0000 </r>
       <r>    5.6544    1.0000 </r>
       <r>    7.8084    1.0000 </r>
       <r>    7.9878    1.0000 </r>
       <r>    9.4756    1.0000 </r>
       <r>    9.5691    0.0508 </r>
       <r>    9.6439    0.0000 </r>
       <r>    9.7397    0.0000 </r>
       <r>    9.8922    0.0000 </r>
       <r>   10.0508    0.0000 </r>
      </set>
      <set comment="kpoint 50">
       <r>  -34.5949    1.0000 </r>
       <r>  -13.3072    1.0000 </r>
       <r>  -13.2963    1.0000 </r>
       <r>  -13.2702    1.0000 </r>
       <r>  -13.2675    1.0000 </r>
       <r>  -13.2674    1.0000 </r>
       <r>   -9.9029    1.0000 </r>
       <r>   -9.8602    1.0000 </r>
       <r>   -9.8356    1.0000 </r>
       <r>   -2.3931    1.0000 </r>
       <r>    4.1912    1.0000 </r>
       <r>    4.8426    1.0000 </r>
       <r>    5.1517    1.0000 </r>
       <r>    5.4553    1.0000 </r>
       <r>    5.6925    1.0000 </r>
       <r>    6.9222    1.0000 </r>
       <r>    7.7963    1.0000 </r>
       <r>    8.1626    1.0000 </r>
       <r>    8.9988    1.0000 </r>
       <r>    9.4997    1.0000 </r>
       <r>    9.5406    0.9917 </r>
       <r>    9.7263    0.0000 </r>
       <r>    9.8037    0.0000 </r>
       <r>    9.9937    0.0000 </r>
      </set>
      <set comment="kpoint 51">
       <r>  -34.5942    1.0000 </r>
       <r>  -13.3116    1.0000 </r>
       <r>  -13.2990    1.0000 </r>
       <r>  -13.2710    1.0000 </r>
       <r>  -13.2670    1.0000 </r>
       <r>  -13.2666    1.0000 </r>
       <r>   -9.9375    1.0000 </r>
       <r>   -9.8600    1.0000 </r>
       <r>   -9.8238    1.0000 </r>
       <r>   -2.1862    1.0000 </r>
       <r>    3.9506    1.0000 </r>
       <r>    4.6750    1.0000 </r>
       <r>    5.0837    1.0000 </r>
       <r>    5.4753    1.0000 </r>
       <r>    5.7540    1.0000 </r>
       <r>    6.5875    1.0000 </r>
       <r>    7.5848    1.0000 </r>
       <r>    8.0859    1.0000 </r>
       <r>    9.0141    1.0000 </r>
       <r>    9.5258    1.0000 </r>
       <r>    9.5486    0.8957 </r>
       <r>    9.8085    0.0000 </r>
       <r>    9.8123    0.0000 </r>
       <r>   10.0201    0.0000 </r>
      </set>
      <set comment="kpoint 52">
       <r>  -34.5934    1.0000 </r>
       <r>  -13.3150    1.0000 </r>
       <r>  -13.3033    1.0000 </r>
       <r>  -13.2719    1.0000 </r>
[...]
       <r>    9.3128    1.0000 </r>
       <r>    9.5830    0.0002 </r>
       <r>    9.7460    0.0000 </r>
       <r>    9.8022    0.0000 </r>
       <r>    9.8786    0.0000 </r>
       <r>    9.9539    0.0000 </r>
      </set>
      <set comment="kpoint 81">
       <r>  -34.5918    1.0000 </r>
       <r>  -13.3103    1.0000 </r>
       <r>  -13.2965    1.0000 </r>
       <r>  -13.2712    1.0000 </r>
       <r>  -13.2683    1.0000 </r>
       <r>  -13.2631    1.0000 </r>
       <r>   -9.9660    1.0000 </r>
       <r>   -9.9164    1.0000 </r>
       <r>   -9.8367    1.0000 </r>
       <r>   -1.8280    1.0000 </r>
       <r>    4.1874    1.0000 </r>
       <r>    4.4923    1.0000 </r>
       <r>    4.9138    1.0000 </r>
       <r>    5.5193    1.0000 </r>
       <r>    5.7291    1.0000 </r>
       <r>    6.1631    1.0000 </r>
       <r>    6.5618    1.0000 </r>
       <r>    7.9540    1.0000 </r>
       <r>    9.2914    1.0000 </r>
       <r>    9.5675    0.0789 </r>
       <r>    9.7365    0.0000 </r>
       <r>    9.7914    0.0000 </r>
       <r>    9.8570    0.0000 </r>
       <r>    9.9602    0.0000 </r>
      </set>
      <set comment="kpoint 82">
       <r>  -34.5916    1.0000 </r>
       <r>  -13.3020    1.0000 </r>
       <r>  -13.2914    1.0000 </r>
       <r>  -13.2740    1.0000 </r>
       <r>  -13.2657    1.0000 </r>
       <r>  -13.2621    1.0000 </r>
       <r>   -9.9789    1.0000 </r>
       <r>   -9.9017    1.0000 </r>
       <r>   -9.8649    1.0000 </r>
       <r>   -1.9140    1.0000 </r>
       <r>    4.4574    1.0000 </r>
       <r>    4.6382    1.0000 </r>
       <r>    5.0341    1.0000 </r>
       <r>    5.4788    1.0000 </r>
       <r>    5.7115    1.0000 </r>
       <r>    5.8153    1.0000 </r>
       <r>    6.8124    1.0000 </r>
       <r>    8.0505    1.0000 </r>
       <r>    9.3683    1.0000 </r>
       <r>    9.5825    0.0002 </r>
       <r>    9.6909    0.0000 </r>
       <r>    9.8406    0.0000 </r>
       <r>    9.9143    0.0000 </r>
       <r>    9.9458    0.0000 </r>
      </set>
      <set comment="kpoint 83">
       <r>  -34.5915    1.0000 </r>
       <r>  -13.3054    1.0000 </r>
       <r>  -13.2915    1.0000 </r>
       <r>  -13.2727    1.0000 </r>
       <r>  -13.2674    1.0000 </r>
       <r>  -13.2621    1.0000 </r>
       <r>   -9.9675    1.0000 </r>
       <r>   -9.9154    1.0000 </r>
       <r>   -9.8591    1.0000 </r>
       <r>   -1.8827    1.0000 </r>
       <r>    4.4571    1.0000 </r>
       <r>    4.6159    1.0000 </r>
       <r>    5.0019    1.0000 </r>
       <r>    5.4962    1.0000 </r>
       <r>    5.7415    1.0000 </r>
       <r>    5.9094    1.0000 </r>
       <r>    6.4918    1.0000 </r>
       <r>    8.0444    1.0000 </r>
       <r>    9.3496    1.0000 </r>
       <r>    9.5933    0.0000 </r>
       <r>    9.7224    0.0000 </r>
       <r>    9.8570    0.0000 </r>
       <r>    9.8965    0.0000 </r>
       <r>    9.9162    0.0000 </r>
      </set>
      <set comment="kpoint 84">
       <r>  -34.5915    1.0000 </r>
       <r>  -13.3073    1.0000 </r>
       <r>  -13.2915    1.0000 </r>
       <r>  -13.2715    1.0000 </r>
       <r>  -13.2687    1.0000 </r>
       <r>  -13.2621    1.0000 </r>
       <r>   -9.9606    1.0000 </r>
       <r>   -9.9203    1.0000 </r>
       <r>   -9.8579    1.0000 </r>
       <r>   -1.8674    1.0000 </r>
       <r>    4.4253    1.0000 </r>
       <r>    4.5812    1.0000 </r>
       <r>    5.0182    1.0000 </r>
       <r>    5.5225    1.0000 </r>
       <r>    5.7708    1.0000 </r>
       <r>    6.0270    1.0000 </r>
       <r>    6.2520    1.0000 </r>
       <r>    8.0616    1.0000 </r>
       <r>    9.3380    1.0000 </r>
       <r>    9.6016    0.0000 </r>
       <r>    9.7553    0.0000 </r>
       <r>    9.8165    0.0000 </r>
       <r>    9.8836    0.0000 </r>
       <r>    9.9401    0.0000 </r>
      </set>
     </set>
    </set>
   </array>
  </eigenvalues>
  <separator name="orbital magnetization" >
   <v name="MAGDIPOLOUT">      0.00000000      0.00000000      0.00000000</v>
  </separator>
  <dos>
   <i name="efermi">      9.55752520 </i>
   <total>
    <array>
     <dimension dim="1">gridpoints</dimension>
     <dimension dim="2">spin</dimension>
     <field>energy</field>
     <field>total</field>
     <field>integrated</field>
     <set>
      <set comment="spin 1">
       <r>   -36.8345     0.0000     0.0000 </r>
       <r>   -36.6703     0.0000     0.0000 </r>
       <r>   -36.5062     0.0000     0.0000 </r>
       <r>   -36.3421     0.0000     0.0000 </r>
       <r>   -36.1779     0.0000     0.0000 </r>
       <r>   -36.0138     0.0000     0.0000 </r>
       <r>   -35.8496     0.0000     0.0000 </r>
       <r>   -35.6855     0.0000     0.0000 </r>
       <r>   -35.5213     0.0000     0.0000 </r>
       <r>   -35.3572     0.0000     0.0000 </r>
       <r>   -35.1930     0.0000     0.0000 </r>
       <r>   -35.0289     0.0000     0.0000 </r>
       <r>   -34.8648     0.0000     0.0000 </r>
       <r>   -34.7006     0.0000     0.0000 </r>
       <r>   -34.5365    12.1844     2.0000 </r>
       <r>   -34.3723     0.0000     2.0000 </r>
       <r>   -34.2082     0.0000     2.0000 </r>
       <r>   -34.0440     0.0000     2.0000 </r>
       <r>   -33.8799     0.0000     2.0000 </r>
       <r>   -33.7158     0.0000     2.0000 </r>
       <r>   -33.5516     0.0000     2.0000 </r>
       <r>   -33.3875     0.0000     2.0000 </r>
       <r>   -33.2233     0.0000     2.0000 </r>
       <r>   -33.0592     0.0000     2.0000 </r>
       <r>   -32.8950     0.0000     2.0000 </r>
       <r>   -32.7309     0.0000     2.0000 </r>
       <r>   -32.5667     0.0000     2.0000 </r>
       <r>   -32.4026     0.0000     2.0000 </r>
       <r>   -32.2385     0.0000     2.0000 </r>
       <r>   -32.0743     0.0000     2.0000 </r>
       <r>   -31.9102     0.0000     2.0000 </r>
       <r>   -31.7460     0.0000     2.0000 </r>
       <r>   -31.5819     0.0000     2.0000 </r>
       <r>   -31.4177     0.0000     2.0000 </r>
       <r>   -31.2536     0.0000     2.0000 </r>
       <r>   -31.0895     0.0000     2.0000 </r>
       <r>   -30.9253     0.0000     2.0000 </r>
       <r>   -30.7612     0.0000     2.0000 </r>
       <r>   -30.5970     0.0000     2.0000 </r>
       <r>   -30.4329     0.0000     2.0000 </r>
       <r>   -30.2687     0.0000     2.0000 </r>
       <r>   -30.1046     0.0000     2.0000 </r>
       <r>   -29.9404     0.0000     2.0000 </r>
       <r>   -29.7763     0.0000     2.0000 </r>
       <r>   -29.6122     0.0000     2.0000 </r>
       <r>   -29.4480     0.0000     2.0000 </r>
       <r>   -29.2839     0.0000     2.0000 </r>
       <r>   -29.1197     0.0000     2.0000 </r>
       <r>   -28.9556     0.0000     2.0000 </r>
       <r>   -28.7914     0.0000     2.0000 </r>
       <r>   -28.6273     0.0000     2.0000 </r>
       <r>   -28.4632     0.0000     2.0000 </r>
       <r>   -28.2990     0.0000     2.0000 </r>
       <r>   -28.1349     0.0000     2.0000 </r>
       <r>   -27.9707     0.0000     2.0000 </r>
       <r>   -27.8066     0.0000     2.0000 </r>
       <r>   -27.6424     0.0000     2.0000 </r>
       <r>   -27.4783     0.0000     2.0000 </r>
       <r>   -27.3141     0.0000     2.0000 </r>
       <r>   -27.1500     0.0000     2.0000 </r>
       <r>   -26.9859     0.0000     2.0000 </r>
       <r>   -26.8217     0.0000     2.0000 </r>
       <r>   -26.6576     0.0000     2.0000 </r>
       <r>   -26.4934     0.0000     2.0000 </r>
       <r>   -26.3293     0.0000     2.0000 </r>
       <r>   -26.1651     0.0000     2.0000 </r>
       <r>   -26.0010     0.0000     2.0000 </r>
       <r>   -25.8368     0.0000     2.0000 </r>
       <r>   -25.6727     0.0000     2.0000 </r>
       <r>   -25.5086     0.0000     2.0000 </r>
       <r>   -25.3444     0.0000     2.0000 </r>
       <r>   -25.1803     0.0000     2.0000 </r>
       <r>   -25.0161     0.0000     2.0000 </r>
       <r>   -24.8520     0.0000     2.0000 </r>
       <r>   -24.6878     0.0000     2.0000 </r>
       <r>   -24.5237     0.0000     2.0000 </r>
       <r>   -24.3596     0.0000     2.0000 </r>
       <r>   -24.1954     0.0000     2.0000 </r>
       <r>   -24.0313     0.0000     2.0000 </r>
       <r>   -23.8671     0.0000     2.0000 </r>
       <r>   -23.7030     0.0000     2.0000 </r>
       <r>   -23.5388     0.0000     2.0000 </r>
       <r>   -23.3747     0.0000     2.0000 </r>
       <r>   -23.2105     0.0000     2.0000 </r>
       <r>   -23.0464     0.0000     2.0000 </r>
       <r>   -22.8823     0.0000     2.0000 </r>
       <r>   -22.7181     0.0000     2.0000 </r>
       <r>   -22.5540     0.0000     2.0000 </r>
       <r>   -22.3898     0.0000     2.0000 </r>
       <r>   -22.2257     0.0000     2.0000 </r>
       <r>   -22.0615     0.0000     2.0000 </r>
       <r>   -21.8974     0.0000     2.0000 </r>
       <r>   -21.7333     0.0000     2.0000 </r>
       <r>   -21.5691     0.0000     2.0000 </r>
       <r>   -21.4050     0.0000     2.0000 </r>
       <r>   -21.2408     0.0000     2.0000 </r>
       <r>   -21.0767     0.0000     2.0000 </r>
       <r>   -20.9125     0.0000     2.0000 </r>
       <r>   -20.7484     0.0000     2.0000 </r>
       <r>   -20.5842     0.0000     2.0000 </r>
       <r>   -20.4201     0.0000     2.0000 </r>
       <r>   -20.2560     0.0000     2.0000 </r>
       <r>   -20.0918     0.0000     2.0000 </r>
       <r>   -19.9277     0.0000     2.0000 </r>
       <r>   -19.7635     0.0000     2.0000 </r>
       <r>   -19.5994     0.0000     2.0000 </r>
       <r>   -19.4352     0.0000     2.0000 </r>
       <r>   -19.2711     0.0000     2.0000 </r>
       <r>   -19.1070     0.0000     2.0000 </r>
       <r>   -18.9428     0.0000     2.0000 </r>
       <r>   -18.7787     0.0000     2.0000 </r>
       <r>   -18.6145     0.0000     2.0000 </r>
       <r>   -18.4504     0.0000     2.0000 </r>
       <r>   -18.2862     0.0000     2.0000 </r>
       <r>   -18.1221     0.0000     2.0000 </r>
       <r>   -17.9579     0.0000     2.0000 </r>
       <r>   -17.7938     0.0000     2.0000 </r>
       <r>   -17.6297     0.0000     2.0000 </r>
       <r>   -17.4655     0.0000     2.0000 </r>
       <r>   -17.3014     0.0000     2.0000 </r>
       <r>   -17.1372     0.0000     2.0000 </r>
       <r>   -16.9731     0.0000     2.0000 </r>
       <r>   -16.8089     0.0000     2.0000 </r>
       <r>   -16.6448     0.0000     2.0000 </r>
       <r>   -16.4806     0.0000     2.0000 </r>
       <r>   -16.3165     0.0000     2.0000 </r>
       <r>   -16.1524     0.0000     2.0000 </r>
       <r>   -15.9882     0.0000     2.0000 </r>
       <r>   -15.8241     0.0000     2.0000 </r>
       <r>   -15.6599     0.0000     2.0000 </r>
       <r>   -15.4958     0.0000     2.0000 </r>
       <r>   -15.3316     0.0000     2.0000 </r>
       <r>   -15.1675     0.0000     2.0000 </r>
       <r>   -15.0034     0.0000     2.0000 </r>
       <r>   -14.8392     0.0000     2.0000 </r>
       <r>   -14.6751     0.0000     2.0000 </r>
       <r>   -14.5109     0.0000     2.0000 </r>
       <r>   -14.3468     0.0000     2.0000 </r>
       <r>   -14.1826     0.0000     2.0000 </r>
       <r>   -14.0185     0.0000     2.0000 </r>
       <r>   -13.8543     0.0000     2.0000 </r>
       <r>   -13.6902     0.0000     2.0000 </r>
       <r>   -13.5261     0.0000     2.0000 </r>
       <r>   -13.3619     0.0000     2.0000 </r>
       <r>   -13.1978    36.5533    12.0000 </r>
       <r>   -13.0336     0.0000    12.0000 </r>
       <r>   -12.8695     0.0000    12.0000 </r>
       <r>   -12.7053     0.0000    12.0000 </r>
       <r>   -12.5412     0.0000    12.0000 </r>
       <r>   -12.3771     0.0000    12.0000 </r>
       <r>   -12.2129     0.0000    12.0000 </r>
       <r>   -12.0488     0.0000    12.0000 </r>
       <r>   -11.8846     0.0000    12.0000 </r>
       <r>   -11.7205     0.0000    12.0000 </r>
       <r>   -11.5563     0.0000    12.0000 </r>
       <r>   -11.3922     0.0000    12.0000 </r>
       <r>   -11.2280     0.0000    12.0000 </r>
       <r>   -11.0639     0.0000    12.0000 </r>
       <r>   -10.8998     0.0000    12.0000 </r>
       <r>   -10.7356     0.0000    12.0000 </r>
       <r>   -10.5715     0.0000    12.0000 </r>
       <r>   -10.4073     0.0000    12.0000 </r>
       <r>   -10.2432     0.0000    12.0000 </r>
       <r>   -10.0790     0.0000    12.0000 </r>
       <r>    -9.9149     9.9050    14.0282 </r>
       <r>    -9.7508     6.4555    18.0000 </r>
       <r>    -9.5866     0.0000    18.0000 </r>
       <r>    -9.4225     0.0000    18.0000 </r>
       <r>    -9.2583     0.0000    18.0000 </r>
       <r>    -9.0942     0.0000    18.0000 </r>
       <r>    -8.9300     0.0000    18.0000 </r>
       <r>    -8.7659     0.0000    18.0000 </r>
       <r>    -8.6017     0.0000    18.0000 </r>
       <r>    -8.4376     0.0000    18.0000 </r>
       <r>    -8.2735     0.0000    18.0000 </r>
       <r>    -8.1093     0.0000    18.0000 </r>
       <r>    -7.9452     0.0000    18.0000 </r>
       <r>    -7.7810     0.0000    18.0000 </r>
       <r>    -7.6169     0.0000    18.0000 </r>
       <r>    -7.4527     0.0000    18.0000 </r>
       <r>    -7.2886     0.0000    18.0000 </r>
       <r>    -7.1245     0.0000    18.0000 </r>
       <r>    -6.9603     0.0000    18.0000 </r>
       <r>    -6.7962     0.0000    18.0000 </r>
       <r>    -6.6320     0.0000    18.0000 </r>
       <r>    -6.4679     0.0000    18.0000 </r>
       <r>    -6.3037     0.0000    18.0000 </r>
       <r>    -6.1396     0.0000    18.0000 </r>
       <r>    -5.9754     0.0000    18.0000 </r>
       <r>    -5.8113     0.0000    18.0000 </r>
       <r>    -5.6472     0.0000    18.0000 </r>
       <r>    -5.4830     0.0000    18.0000 </r>
       <r>    -5.3189     0.0000    18.0000 </r>
       <r>    -5.1547     0.0000    18.0000 </r>
       <r>    -4.9906     0.0000    18.0000 </r>
       <r>    -4.8264     0.0000    18.0000 </r>
       <r>    -4.6623     0.0000    18.0000 </r>
       <r>    -4.4981     0.0000    18.0000 </r>
       <r>    -4.3340     0.0000    18.0000 </r>
       <r>    -4.1699     0.0000    18.0000 </r>
       <r>    -4.0057     0.0000    18.0000 </r>
       <r>    -3.8416     0.0000    18.0000 </r>
       <r>    -3.6774     0.0000    18.0000 </r>
       <r>    -3.5133     0.0000    18.0000 </r>
       <r>    -3.3491     0.0000    18.0000 </r>
       <r>    -3.1850     0.0000    18.0000 </r>
       <r>    -3.0209     0.0000    18.0000 </r>
       <r>    -2.8567     0.0000    18.0000 </r>
       <r>    -2.6926     0.0231    18.0038 </r>
       <r>    -2.5284     0.1972    18.0460 </r>
       <r>    -2.3643     0.2662    18.1029 </r>
       <r>    -2.2001     0.1499    18.1712 </r>
       <r>    -2.0360     0.4341    18.3289 </r>
       <r>    -1.8718     2.3692    19.0088 </r>
       <r>    -1.7077     1.7230    19.8859 </r>
       <r>    -1.5436     0.0000    20.0000 </r>
       <r>    -1.3794     0.0000    20.0000 </r>
       <r>    -1.2153     0.0000    20.0000 </r>
       <r>    -1.0511     0.0000    20.0000 </r>
       <r>    -0.8870     0.0000    20.0000 </r>
       <r>    -0.7228     0.0000    20.0000 </r>
       <r>    -0.5587     0.0000    20.0000 </r>
       <r>    -0.3946     0.0000    20.0000 </r>
       <r>    -0.2304     0.0000    20.0000 </r>
       <r>    -0.0663     0.0000    20.0000 </r>
       <r>     0.0979     0.0000    20.0000 </r>
       <r>     0.2620     0.0000    20.0000 </r>
       <r>     0.4262     0.0000    20.0000 </r>
       <r>     0.5903     0.0000    20.0000 </r>
       <r>     0.7545     0.0000    20.0000 </r>
       <r>     0.9186     0.0000    20.0000 </r>
       <r>     1.0827     0.0000    20.0000 </r>
       <r>     1.2469     0.0000    20.0000 </r>
       <r>     1.4110     0.0000    20.0000 </r>
       <r>     1.5752     0.0000    20.0000 </r>
       <r>     1.7393     0.0000    20.0000 </r>
       <r>     1.9035     0.0000    20.0000 </r>
       <r>     2.0676     0.0000    20.0000 </r>
       <r>     2.2317     0.0000    20.0000 </r>
       <r>     2.3959     0.0000    20.0000 </r>
       <r>     2.5600     0.0000    20.0000 </r>
       <r>     2.7242     0.0000    20.0000 </r>
       <r>     2.8883     0.0000    20.0000 </r>
       <r>     3.0525     0.0000    20.0000 </r>
       <r>     3.2166     0.0000    20.0000 </r>
       <r>     3.3808     0.0000    20.0000 </r>
       <r>     3.5449     0.2220    20.0437 </r>
       <r>     3.7090     1.0849    20.3019 </r>
       <r>     3.8732     1.8263    20.9479 </r>
       <r>     4.0373     0.2107    21.1707 </r>
       <r>     4.2015     0.6840    21.4942 </r>
       <r>     4.3656     0.4017    21.6790 </r>
       <r>     4.5298     3.1141    22.3318 </r>
       <r>     4.6939     2.7669    23.5475 </r>
       <r>     4.8581     3.2030    24.5094 </r>
       <r>     5.0222     2.7037    25.3924 </r>
       <r>     5.1863     0.9650    26.0109 </r>
       <r>     5.3505     0.2995    26.0710 </r>
       <r>     5.5146     7.5881    27.4221 </r>
       <r>     5.6788     4.6799    29.0531 </r>
       <r>     5.8429     1.9385    30.2654 </r>
       <r>     6.0071     1.4556    30.6959 </r>
       <r>     6.1712     1.5618    31.2887 </r>
       <r>     6.3353     0.7365    31.5410 </r>
       <r>     6.4995     1.0410    31.8204 </r>
       <r>     6.6636     0.8557    31.9994 </r>
       <r>     6.8278     0.7203    32.1628 </r>
       <r>     6.9919     0.4930    32.4696 </r>
       <r>     7.1561     0.5080    32.6760 </r>
       <r>     7.3202     0.9623    33.0291 </r>
       <r>     7.4844     0.3301    33.2094 </r>
       <r>     7.6485     1.0648    33.5503 </r>
       <r>     7.8126     0.4587    33.6911 </r>
       <r>     7.9768     5.5341    35.1041 </r>
       <r>     8.1409     1.0048    35.8135 </r>
       <r>     8.3051     0.2768    35.9708 </r>
       <r>     8.4692     0.1054    36.0009 </r>
       <r>     8.6334     0.0011    36.0011 </r>
       <r>     8.7975     0.1343    36.0302 </r>
       <r>     8.9616     1.0688    36.2292 </r>
       <r>     9.1258     1.7984    36.7931 </r>
       <r>     9.2899     2.4210    37.5672 </r>
       <r>     9.4541     0.4569    37.9931 </r>
       <r>     9.6182    14.0619    40.6923 </r>
       <r>     9.7824     5.5289    42.7382 </r>
       <r>     9.9465     9.5844    46.4289 </r>
       <r>    10.1107     1.2229    47.9859 </r>
       <r>    10.2748     0.0000    48.0000 </r>
       <r>    10.4389     0.0000    48.0000 </r>
       <r>    10.6031     0.0000    48.0000 </r>
       <r>    10.7672     0.0000    48.0000 </r>
       <r>    10.9314     0.0000    48.0000 </r>
       <r>    11.0955     0.0000    48.0000 </r>
       <r>    11.2597     0.0000    48.0000 </r>
       <r>    11.4238     0.0000    48.0000 </r>
       <r>    11.5879     0.0000    48.0000 </r>
       <r>    11.7521     0.0000    48.0000 </r>
       <r>    11.9162     0.0000    48.0000 </r>
       <r>    12.0804     0.0000    48.0000 </r>
       <r>    12.2445     0.0000    48.0000 </r>
       <r>    12.4087     0.0000    48.0000 </r>
      </set>
     </set>
    </array>
   </total>
  </dos>
 </calculation>
 <structure name="finalpos" >
  <crystal>
   <varray name="basis" >
    <v>       0.00000000       3.36129918       3.36129918 </v>
    <v>       3.36129918       0.00000000       3.36129918 </v>
    <v>       3.36129918       3.36129918       0.00000000 </v>
   </varray>
   <i name="volume">     75.95414921 </i>
   <varray name="rec_basis" >
    <v>      -0.14875201       0.14875201       0.14875201 </v>
    <v>       0.14875201      -0.14875201       0.14875201 </v>
    <v>       0.14875201       0.14875201      -0.14875201 </v>
   </varray>
  </crystal>
  <varray name="positions" >
   <v>       0.25000000       0.25000000       0.25000000 </v>
   <v>       0.75000000       0.75000000       0.75000000 </v>
   <v>       0.00000000       0.00000000       0.00000000 </v>
  </varray>
 </structure>
</modeling>
