   3   3   0   0
  0.2140360E+02  0.4494772E-09  0.4494772E-09  0.4494772E-09  0.1000000E-16
  1.000000000000000E-004
  CAR
 unknown system
     23.19500619    -25.51355538  301      8.99036960      1.00000000
    -25.514  0.0000E+00  0.0000E+00
    -25.351  0.0000E+00  0.0000E+00
    -25.189  0.0000E+00  0.0000E+00
    -25.026  0.0000E+00  0.0000E+00
    -24.864  0.0000E+00  0.0000E+00
    -24.702  0.0000E+00  0.0000E+00
    -24.539  0.0000E+00  0.0000E+00
    -24.377  0.0000E+00  0.0000E+00
    -24.215  0.0000E+00  0.0000E+00
    -24.052  0.0000E+00  0.0000E+00
    -23.890  0.0000E+00  0.0000E+00
    -23.728  0.0000E+00  0.0000E+00
    -23.565  0.0000E+00  0.0000E+00
    -23.403  0.0000E+00  0.0000E+00
    -23.240  0.5062E+00  0.8219E-01
    -23.078  0.0000E+00  0.8219E-01
    -22.916  0.0000E+00  0.8219E-01
    -22.753  0.0000E+00  0.8219E-01
    -22.591  0.0000E+00  0.8219E-01
    -22.429  0.0000E+00  0.8219E-01
    -22.266  0.0000E+00  0.8219E-01
    -22.104  0.0000E+00  0.8219E-01
    -21.942  0.0000E+00  0.8219E-01
    -21.779  0.0000E+00  0.8219E-01
    -21.617  0.0000E+00  0.8219E-01
    -21.455  0.0000E+00  0.8219E-01
    -21.292  0.0000E+00  0.8219E-01
    -21.130  0.0000E+00  0.8219E-01
    -20.967  0.0000E+00  0.8219E-01
    -20.805  0.0000E+00  0.8219E-01
    -20.643  0.0000E+00  0.8219E-01
    -20.480  0.0000E+00  0.8219E-01
    -20.318  0.0000E+00  0.8219E-01
    -20.156  0.0000E+00  0.8219E-01
    -19.993  0.0000E+00  0.8219E-01
    -19.831  0.0000E+00  0.8219E-01
    -19.669  0.0000E+00  0.8219E-01
    -19.506  0.0000E+00  0.8219E-01
    -19.344  0.0000E+00  0.8219E-01
    -19.181  0.0000E+00  0.8219E-01
    -19.019  0.0000E+00  0.8219E-01
    -18.857  0.0000E+00  0.8219E-01
    -18.694  0.0000E+00  0.8219E-01
    -18.532  0.0000E+00  0.8219E-01
    -18.370  0.0000E+00  0.8219E-01
    -18.207  0.0000E+00  0.8219E-01
    -18.045  0.0000E+00  0.8219E-01
    -17.883  0.0000E+00  0.8219E-01
    -17.720  0.0000E+00  0.8219E-01
    -17.558  0.0000E+00  0.8219E-01
    -17.395  0.0000E+00  0.8219E-01
    -17.233  0.0000E+00  0.8219E-01
    -17.071  0.0000E+00  0.8219E-01
    -16.908  0.0000E+00  0.8219E-01
    -16.746  0.0000E+00  0.8219E-01
    -16.584  0.0000E+00  0.8219E-01
    -16.421  0.0000E+00  0.8219E-01
    -16.259  0.0000E+00  0.8219E-01
    -16.097  0.0000E+00  0.8219E-01
    -15.934  0.0000E+00  0.8219E-01
    -15.772  0.0000E+00  0.8219E-01
    -15.609  0.0000E+00  0.8219E-01
    -15.447  0.0000E+00  0.8219E-01
    -15.285  0.0000E+00  0.8219E-01
    -15.122  0.0000E+00  0.8219E-01
    -14.960  0.0000E+00  0.8219E-01
    -14.798  0.0000E+00  0.8219E-01
    -14.635  0.0000E+00  0.8219E-01
    -14.473  0.0000E+00  0.8219E-01
    -14.311  0.0000E+00  0.8219E-01
    -14.148  0.0000E+00  0.8219E-01
    -13.986  0.0000E+00  0.8219E-01
    -13.824  0.0000E+00  0.8219E-01
    -13.661  0.0000E+00  0.8219E-01
    -13.499  0.0000E+00  0.8219E-01
    -13.336  0.0000E+00  0.8219E-01
    -13.174  0.0000E+00  0.8219E-01
    -13.012  0.0000E+00  0.8219E-01
    -12.849  0.0000E+00  0.8219E-01
    -12.687  0.0000E+00  0.8219E-01
    -12.525  0.0000E+00  0.8219E-01
    -12.362  0.0000E+00  0.8219E-01
    -12.200  0.0000E+00  0.8219E-01
    -12.038  0.0000E+00  0.8219E-01
    -11.875  0.0000E+00  0.8219E-01
    -11.713  0.0000E+00  0.8219E-01
    -11.550  0.0000E+00  0.8219E-01
    -11.388  0.0000E+00  0.8219E-01
    -11.226  0.0000E+00  0.8219E-01
    -11.063  0.0000E+00  0.8219E-01
    -10.901  0.0000E+00  0.8219E-01
    -10.739  0.0000E+00  0.8219E-01
    -10.576  0.0000E+00  0.8219E-01
    -10.414  0.0000E+00  0.8219E-01
    -10.252  0.0000E+00  0.8219E-01
    -10.089  0.0000E+00  0.8219E-01
     -9.927  0.0000E+00  0.8219E-01
     -9.764  0.0000E+00  0.8219E-01
     -9.602  0.0000E+00  0.8219E-01
     -9.440  0.0000E+00  0.8219E-01
     -9.277  0.0000E+00  0.8219E-01
     -9.115  0.0000E+00  0.8219E-01
     -8.953  0.0000E+00  0.8219E-01
     -8.790  0.0000E+00  0.8219E-01
     -8.628  0.0000E+00  0.8219E-01
     -8.466  0.0000E+00  0.8219E-01
     -8.303  0.0000E+00  0.8219E-01
     -8.141  0.0000E+00  0.8219E-01
     -7.978  0.0000E+00  0.8219E-01
     -7.816  0.0000E+00  0.8219E-01
     -7.654  0.0000E+00  0.8219E-01
     -7.491  0.0000E+00  0.8219E-01
     -7.329  0.0000E+00  0.8219E-01
     -7.167  0.0000E+00  0.8219E-01
     -7.004  0.0000E+00  0.8219E-01
     -6.842  0.0000E+00  0.8219E-01
     -6.680  0.0000E+00  0.8219E-01
     -6.517  0.0000E+00  0.8219E-01
     -6.355  0.0000E+00  0.8219E-01
     -6.192  0.0000E+00  0.8219E-01
     -6.030  0.0000E+00  0.8219E-01
     -5.868  0.0000E+00  0.8219E-01
     -5.705  0.0000E+00  0.8219E-01
     -5.543  0.0000E+00  0.8219E-01
     -5.381  0.0000E+00  0.8219E-01
     -5.218  0.0000E+00  0.8219E-01
     -5.056  0.0000E+00  0.8219E-01
     -4.894  0.0000E+00  0.8219E-01
     -4.731  0.0000E+00  0.8219E-01
     -4.569  0.0000E+00  0.8219E-01
     -4.407  0.0000E+00  0.8219E-01
     -4.244  0.0000E+00  0.8219E-01
     -4.082  0.0000E+00  0.8219E-01
     -3.919  0.0000E+00  0.8219E-01
     -3.757  0.1036E-02  0.8237E-01
     -3.595  0.2333E-02  0.8291E-01
     -3.432  0.3612E-02  0.8359E-01
     -3.270  0.2458E-02  0.8430E-01
     -3.108  0.6133E-02  0.8544E-01
     -2.945  0.8242E-03  0.8645E-01
     -2.783  0.9283E-02  0.8882E-01
     -2.621  0.8478E-02  0.9086E-01
     -2.458  0.6517E-02  0.9409E-01
     -2.296  0.2712E-01  0.1021E+00
     -2.133  0.1843E-02  0.1096E+00
     -1.971  0.0000E+00  0.1096E+00
     -1.809  0.0000E+00  0.1096E+00
     -1.646  0.0000E+00  0.1096E+00
     -1.484  0.0000E+00  0.1096E+00
     -1.322  0.0000E+00  0.1096E+00
     -1.159  0.0000E+00  0.1096E+00
     -0.997  0.0000E+00  0.1096E+00
     -0.835  0.0000E+00  0.1096E+00
     -0.672  0.0000E+00  0.1096E+00
     -0.510  0.0000E+00  0.1096E+00
     -0.347  0.0000E+00  0.1096E+00
     -0.185  0.0000E+00  0.1096E+00
     -0.023  0.0000E+00  0.1096E+00
      0.140  0.0000E+00  0.1096E+00
      0.302  0.0000E+00  0.1096E+00
      0.464  0.0000E+00  0.1096E+00
      0.627  0.0000E+00  0.1096E+00
      0.789  0.0000E+00  0.1096E+00
      0.951  0.0000E+00  0.1096E+00
      1.114  0.0000E+00  0.1096E+00
      1.276  0.5721E-04  0.1096E+00
      1.439  0.7748E-02  0.1112E+00
      1.601  0.3592E-01  0.1184E+00
      1.763  0.2577E-01  0.1276E+00
      1.926  0.1109E-01  0.1324E+00
      2.088  0.5481E-02  0.1350E+00
      2.250  0.4147E-02  0.1359E+00
      2.413  0.1843E-02  0.1363E+00
      2.575  0.9269E-02  0.1390E+00
      2.737  0.6390E-01  0.1545E+00
      2.900  0.3242E-01  0.1662E+00
      3.062  0.3004E-01  0.1780E+00
      3.224  0.1876E-01  0.1852E+00
      3.387  0.1505E-01  0.1908E+00
      3.549  0.1046E-01  0.1936E+00
      3.712  0.2654E-01  0.1996E+00
      3.874  0.5005E-01  0.2131E+00
      4.036  0.5865E-01  0.2322E+00
      4.199  0.2956E-01  0.2475E+00
      4.361  0.3623E-01  0.2598E+00
      4.523  0.1179E-01  0.2656E+00
      4.686  0.1702E-02  0.2684E+00
      4.848  0.9049E-02  0.2712E+00
      5.010  0.5530E-02  0.2737E+00
      5.173  0.1723E-01  0.2774E+00
      5.335  0.8863E-02  0.2807E+00
      5.498  0.5170E-02  0.2826E+00
      5.660  0.1288E-01  0.2871E+00
      5.822  0.1213E-01  0.2901E+00
      5.985  0.1377E-01  0.2951E+00
      6.147  0.4328E-01  0.3042E+00
      6.309  0.1327E-01  0.3110E+00
      6.472  0.1749E-01  0.3173E+00
      6.634  0.1900E-01  0.3230E+00
      6.796  0.1052E-01  0.3257E+00
      6.959  0.6285E-02  0.3273E+00
      7.121  0.3899E-02  0.3284E+00
      7.284  0.2151E-02  0.3287E+00
      7.446  0.0000E+00  0.3288E+00
      7.608  0.0000E+00  0.3288E+00
      7.771  0.0000E+00  0.3288E+00
      7.933  0.2132E-19  0.3288E+00
      8.095  0.0000E+00  0.3288E+00
      8.258  0.6144E-03  0.3289E+00
      8.420  0.3920E-02  0.3297E+00
      8.582  0.7654E-02  0.3321E+00
      8.745  0.9827E-02  0.3349E+00
      8.907  0.8170E-02  0.3389E+00
      9.070  0.1479E-01  0.3449E+00
      9.232  0.2365E-01  0.3537E+00
      9.394  0.1430E-01  0.3592E+00
      9.557  0.2221E-01  0.3667E+00
      9.719  0.2630E-01  0.3754E+00
      9.881  0.1780E-01  0.3872E+00
     10.044  0.3506E-01  0.3959E+00
     10.206  0.2214E-01  0.4066E+00
     10.368  0.3457E-02  0.4098E+00
     10.531  0.1388E-01  0.4160E+00
     10.693  0.2399E-01  0.4241E+00
     10.856  0.4270E-01  0.4359E+00
     11.018  0.3200E-01  0.4489E+00
     11.180  0.1388E-01  0.4544E+00
     11.343  0.1751E-01  0.4614E+00
     11.505  0.1007E-01  0.4637E+00
     11.667  0.9575E-02  0.4685E+00
     11.830  0.7989E-02  0.4728E+00
     11.992  0.7407E-02  0.4752E+00
     12.154  0.2044E-01  0.4803E+00
     12.317  0.1067E-01  0.4845E+00
     12.479  0.7383E-02  0.4865E+00
     12.641  0.6071E-02  0.4882E+00
     12.804  0.3044E-02  0.4909E+00
     12.966  0.1844E-02  0.4929E+00
     13.129  0.1180E-01  0.4951E+00
     13.291  0.5611E-02  0.4969E+00
     13.453  0.1464E-01  0.4997E+00
     13.616  0.7919E-02  0.5030E+00
     13.778  0.1591E-01  0.5063E+00
     13.940  0.2324E-01  0.5120E+00
     14.103  0.2052E-01  0.5182E+00
     14.265  0.1169E-01  0.5241E+00
     14.427  0.2229E-02  0.5280E+00
     14.590  0.1391E-01  0.5329E+00
     14.752  0.6298E-02  0.5378E+00
     14.915  0.3574E-02  0.5420E+00
     15.077  0.9631E-02  0.5451E+00
     15.239  0.2458E-02  0.5474E+00
     15.402  0.2396E-01  0.5528E+00
     15.564  0.5222E-02  0.5560E+00
     15.726  0.1036E-01  0.5585E+00
     15.889  0.1658E-01  0.5621E+00
     16.051  0.1010E-01  0.5668E+00
     16.213  0.7932E-02  0.5712E+00
     16.376  0.1260E-01  0.5748E+00
     16.538  0.1177E-01  0.5786E+00
     16.701  0.1060E-01  0.5814E+00
     16.863  0.4798E-02  0.5825E+00
     17.025  0.1716E-02  0.5841E+00
     17.188  0.5780E-02  0.5855E+00
     17.350  0.1843E-02  0.5877E+00
     17.512  0.9826E-02  0.5899E+00
     17.675  0.2127E-01  0.5941E+00
     17.837  0.8582E-02  0.5995E+00
     17.999  0.1277E-01  0.6050E+00
     18.162  0.1211E-01  0.6097E+00
     18.324  0.1102E-01  0.6123E+00
     18.487  0.7460E-02  0.6156E+00
     18.649  0.8289E-02  0.6185E+00
     18.811  0.1073E-01  0.6217E+00
     18.974  0.1092E-01  0.6264E+00
     19.136  0.1843E-01  0.6321E+00
     19.298  0.1609E-01  0.6364E+00
     19.461  0.1172E-01  0.6400E+00
     19.623  0.1737E-01  0.6433E+00
     19.785  0.1526E-01  0.6483E+00
     19.948  0.1549E-01  0.6518E+00
     20.110  0.1083E-01  0.6567E+00
     20.272  0.0000E+00  0.6572E+00
     20.435  0.1843E-02  0.6575E+00
     20.597  0.0000E+00  0.6575E+00
     20.760  0.0000E+00  0.6575E+00
     20.922  0.2558E-19  0.6575E+00
     21.084  0.0000E+00  0.6575E+00
     21.247  0.0000E+00  0.6575E+00
     21.409  0.0000E+00  0.6575E+00
     21.571  0.0000E+00  0.6575E+00
     21.734  0.0000E+00  0.6575E+00
     21.896  0.0000E+00  0.6575E+00
     22.058  0.0000E+00  0.6575E+00
     22.221  0.0000E+00  0.6575E+00
     22.383  0.0000E+00  0.6575E+00
     22.546  0.0000E+00  0.6575E+00
     22.708  0.0000E+00  0.6575E+00
     22.870  0.0000E+00  0.6575E+00
     23.033  0.0000E+00  0.6575E+00
     23.195  0.0000E+00  0.6575E+00
