    3    3   73    1
  0.2140360E+02  0.4494772E-09  0.4494772E-09  0.4494772E-09  0.1000000E-16
  1.000000000000000E-004
  CAR
 unknown system
     25     84     24

  0.0000000E+00  0.0000000E+00  0.0000000E+00  0.4551661E-03
    1      -23.281379   1.000000
    2      -23.281024   1.000000
    3      -23.280207   1.000000
    4       -3.852981   1.000000
    5        2.871148   1.000000
    6        2.891650   1.000000
    7        2.914901   1.000000
    8        3.706342   1.000000
    9        3.708169   1.000000
   10        7.301675   1.000000
   11        7.307353   1.000000
   12        7.313944   1.000000
   13        7.990319   1.000000
   14        9.813422   0.000000
   15        9.851450   0.000000
   16        9.895952   0.000000
   17       10.138272   0.000000
   18       10.140494   0.000000
   19       13.020685   0.000000
   20       16.295003   0.000000
   21       16.307130   0.000000
   22       16.316299   0.000000
   23       17.963620   0.000000
   24       17.999616   0.000000

  0.7692308E-01  0.5874382E-18 -0.1050232E-17  0.3641329E-02
    1      -23.282349   1.000000
    2      -23.281050   1.000000
    3      -23.280154   1.000000
    4       -3.788221   1.000000
    5        2.825220   1.000000
    6        2.843938   1.000000
    7        2.871911   1.000000
    8        3.746757   1.000000
    9        3.749842   1.000000
   10        6.757176   1.000000
   11        7.235180   1.000000
   12        7.244713   1.000000
   13        8.228765   1.000000
   14        9.686006   0.000000
   15        9.718794   0.000000
   16       10.214608   0.000000
   17       10.458948   0.000000
   18       10.478634   0.000000
   19       13.218183   0.000000
   20       15.539728   0.000000
   21       16.001018   0.000000
   22       16.014504   0.000000
   23       18.081276   0.000000
   24       18.128721   0.000000

  0.1538462E+00  0.3230704E-17 -0.4156292E-17  0.3641329E-02
    1      -23.285273   1.000000
    2      -23.280909   1.000000
    3      -23.280032   1.000000
    4       -3.600603   1.000000
    5        2.607565   1.000000
    6        2.786133   1.000000
    7        2.805427   1.000000
    8        3.836796   1.000000
    9        3.841167   1.000000
   10        5.894377   1.000000
   11        7.068299   1.000000
   12        7.083303   1.000000
   13        8.455197   1.000000
   14        9.593880   0.000000
   15        9.616690   0.000000
   16       11.005746   0.000000
   17       11.040165   0.000000
   18       11.063224   0.000000
   19       13.488437   0.000000
   20       14.650187   0.000000
   21       15.343278   0.000000
   22       15.362059   0.000000
   23       18.313683   0.000000
   24       18.358668   0.000000

  0.2307692E+00 -0.3309108E-17  0.1920726E-17  0.3641329E-02
    1      -23.289355   1.000000
    2      -23.280687   1.000000
    3      -23.279853   1.000000
    4       -3.311536   1.000000
    5        2.285240   1.000000
    6        2.734760   1.000000
    7        2.746450   1.000000
    8        3.920791   1.000000
    9        3.924021   1.000000
   10        5.104402   1.000000
   11        6.873151   1.000000
   12        6.899501   1.000000
   13        8.634289   1.000000
   14        9.629213   0.000000
   15        9.648545   0.000000
   16       11.659289   0.000000
   17       11.689198   0.000000
   18       11.750852   0.000000
   19       13.051340   0.000000
   20       14.589716   0.000000
   21       14.616631   0.000000
   22       15.076788   0.000000
   23       18.415721   0.000000
   24       18.459294   0.000000

  0.3076923E+00  0.6461408E-17 -0.8312583E-17  0.3641329E-02
    1      -23.293661   1.000000
    2      -23.280458   1.000000
    3      -23.279674   1.000000
    4       -2.962013   1.000000
    5        1.902944   1.000000
    6        2.707971   1.000000
    7        2.712626   1.000000
    8        3.962148   1.000000
    9        3.962350   1.000000
   10        4.496002   1.000000
   11        6.713252   1.000000
   12        6.754475   1.000000
   13        8.796567   1.000000
   14        9.761778   0.000000
   15        9.780402   0.000000
   16       11.244732   0.000000
   17       12.329835   0.000000
   18       12.353941   0.000000
   19       13.691088   0.000000
   20       13.877007   0.000000
   21       13.908489   0.000000
   22       15.862572   0.000000
   23       18.353818   0.000000
   24       18.398432   0.000000

  0.3846154E+00  0.1665028E-16  0.3089522E-17  0.3641329E-02
    1      -23.297207   1.000000
    2      -23.280269   1.000000
    3      -23.279527   1.000000
    4       -2.622404   1.000000
    5        1.530496   1.000000
    6        2.703166   1.000000
    7        2.704363   1.000000
    8        3.956943   1.000000
    9        3.959604   1.000000
   10        4.104429   1.000000
   11        6.615433   1.000000
   12        6.670113   1.000000
   13        8.957669   0.999915
   14        9.943303   0.000000
   15        9.961365   0.000000
   16       10.503772   0.000000
   17       12.839277   0.000000
   18       12.872097   0.000000
   19       13.368003   0.000000
   20       13.400174   0.000000
   21       14.662533   0.000000
   22       16.686095   0.000000
   23       18.174030   0.000000
   24       18.222018   0.000000

  0.4615385E+00  0.1254301E-16 -0.1531978E-16  0.3641329E-02
    1      -23.299178   1.000000
    2      -23.280149   1.000000
    3      -23.279430   1.000000
    4       -2.400046   1.000000
    5        1.285848   1.000000
    6        2.705084   1.000000
    7        2.709788   1.000000
    8        3.917811   1.000000
    9        3.939801   1.000000
   10        3.942868   1.000000
   11        6.573479   1.000000
   12        6.635875   1.000000
   13        9.105390   0.000000
   14       10.025607   0.000000
   15       10.087466   0.000000
   16       10.103799   0.000000
   17       12.770433   0.000000
   18       12.824610   0.000000
   19       13.458884   0.000000
   20       13.473574   0.000000
   21       15.200677   0.000000
   22       17.807956   0.000000
   23       18.003597   0.000000
   24       18.055533   0.000000

  0.7692308E-01  0.7692308E-01 -0.3289805E-18  0.2730997E-02
    1      -23.282122   1.000000
    2      -23.281140   1.000000
    3      -23.280622   1.000000
    4       -3.766774   1.000000
    5        2.671773   1.000000
    6        2.922416   1.000000
    7        2.925381   1.000000
    8        3.740787   1.000000
    9        3.764567   1.000000
   10        6.794363   1.000000
   11        7.111701   1.000000
   12        7.112464   1.000000
   13        8.303068   1.000000
   14        9.555272   0.000000
   15       10.066093   0.000000
   16       10.138460   0.000000
   17       10.147655   0.000000
   18       10.871598   0.000000
   19       13.283434   0.000000
   20       15.650600   0.000000
   21       15.728530   0.000000
   22       15.730006   0.000000
   23       17.937548   0.000000
   24       18.576900   0.000000

  0.1538462E+00  0.7692308E-01  0.1481796E-17  0.1092399E-01
    1      -23.284458   1.000000
    2      -23.281195   1.000000
    3      -23.280339   1.000000
    4       -3.621368   1.000000
    5        2.463577   1.000000
    6        2.896144   1.000000
    7        2.922618   1.000000
    8        3.807292   1.000000
    9        3.822030   1.000000
   10        6.148297   1.000000
   11        6.922348   1.000000
   12        6.979379   1.000000
   13        8.539011   1.000000
   14        9.423828   0.000000
   15        9.859688   0.000000
   16       10.628082   0.000000
   17       10.670136   0.000000
   18       11.529258   0.000000
   19       13.584900   0.000000
   20       14.619596   0.000000
   21       15.209599   0.000000
   22       15.541006   0.000000
   23       17.909490   0.000000
   24       18.966289   0.000000

  0.2307692E+00  0.7692308E-01 -0.2230979E-17  0.1092399E-01
    1      -23.288125   1.000000
    2      -23.281110   1.000000
    3      -23.280132   1.000000
    4       -3.368158   1.000000
    5        2.220017   1.000000
    6        2.801056   1.000000
    7        2.887622   1.000000
    8        3.893566   1.000000
    9        3.899457   1.000000
   10        5.368375   1.000000
   11        6.743365   1.000000
   12        6.807807   1.000000
   13        8.801306   1.000000
   14        9.428053   0.000000
   15        9.748673   0.000000
   16       11.204923   0.000000
   17       11.280183   0.000000
   18       12.304992   0.000000
   19       13.139211   0.000000
   20       14.345445   0.000000
   21       14.625790   0.000000
   22       15.449779   0.000000
   23       17.943404   0.000000
   24       19.105046   0.000000

  0.3076923E+00  0.7692308E-01  0.1413499E-17  0.1092399E-01
    1      -23.292265   1.000000
    2      -23.280918   1.000000
    3      -23.280005   1.000000
    4       -3.041307   1.000000
    5        1.932958   1.000000
    6        2.710375   1.000000
    7        2.848331   1.000000
    8        3.947429   1.000000
    9        3.955770   1.000000
   10        4.704658   1.000000
   11        6.612384   1.000000
   12        6.644922   1.000000
   13        8.908985   1.000000
   14        9.681607   0.000000
   15        9.764953   0.000000
   16       11.322143   0.000000
   17       11.853384   0.000000
   18       12.442077   0.000000
   19       13.270299   0.000000
   20       14.108006   0.000000
   21       14.208121   0.000000
   22       15.961204   0.000000
   23       18.020541   0.000000
   24       18.983288   0.000000

  0.3846154E+00  0.7692308E-01 -0.3536371E-17  0.1092399E-01
    1      -23.295957   1.000000
    2      -23.280702   1.000000
    3      -23.279969   1.000000
    4       -2.699988   1.000000
    5        1.622254   1.000000
    6        2.666002   1.000000
    7        2.811953   1.000000
    8        3.956345   1.000000
    9        3.967034   1.000000
   10        4.242206   1.000000
   11        6.501323   1.000000
   12        6.570823   1.000000
   13        8.977629   0.825468
   14        9.889015   0.000000
   15        9.991045   0.000000
   16       10.680618   0.000000
   17       12.222435   0.000000
   18       12.913196   0.000000
   19       13.072556   0.000000
   20       13.844468   0.000000
   21       14.782481   0.000000
   22       16.600377   0.000000
   23       18.087178   0.000000
   24       18.677778   0.000000

  0.4615385E+00  0.7692308E-01 -0.5593693E-17  0.1092399E-01
    1      -23.298377   1.000000
    2      -23.280572   1.000000
    3      -23.279956   1.000000
    4       -2.436668   1.000000
    5        1.370811   1.000000
    6        2.671221   1.000000
    7        2.770711   1.000000
    8        3.911182   1.000000
    9        3.954773   1.000000
   10        4.021845   1.000000
   11        6.428809   1.000000
   12        6.555466   1.000000
   13        9.094599   0.000000
   14        9.982478   0.000000
   15       10.051761   0.000000
   16       10.362031   0.000000
   17       12.310094   0.000000
   18       12.546590   0.000000
   19       13.500208   0.000000
   20       13.876288   0.000000
   21       15.365938   0.000000
   22       17.306209   0.000000
   23       18.269766   0.000000
   24       18.324729   0.000000

 -0.4615385E+00  0.7692308E-01  0.2504586E-16  0.1092399E-01
    1      -23.298991   1.000000
    2      -23.280622   1.000000
    3      -23.279878   1.000000
    4       -2.359052   1.000000
    5        1.295878   1.000000
    6        2.710912   1.000000
    7        2.719180   1.000000
    8        3.866293   1.000000
    9        3.964546   1.000000
   10        3.987294   1.000000
   11        6.390444   1.000000
   12        6.570633   1.000000
   13        9.187694   0.000000
   14        9.793227   0.000000
   15       10.119986   0.000000
   16       10.415499   0.000000
   17       12.249441   0.000000
   18       12.436654   0.000000
   19       13.758382   0.000000
   20       13.860170   0.000000
   21       15.449638   0.000000
   22       17.735557   0.000000
   23       18.055696   0.000000
   24       18.629644   0.000000

 -0.3846154E+00  0.7692308E-01 -0.4767041E-17  0.1092399E-01
    1      -23.297684   1.000000
    2      -23.280800   1.000000
    3      -23.279812   1.000000
    4       -2.507587   1.000000
    5        1.444372   1.000000
    6        2.665845   1.000000
    7        2.769529   1.000000
    8        3.907164   1.000000
    9        3.992113   1.000000
   10        4.067841   1.000000
   11        6.370152   1.000000
   12        6.622331   1.000000
   13        9.104918   0.000000
   14        9.989677   0.000000
   15       10.024907   0.000000
   16       10.410676   0.000000
   17       12.152126   0.000000
   18       12.807306   0.000000
   19       13.563778   0.000000
   20       13.724782   0.000000
   21       15.057321   0.000000
   22       17.217907   0.000000
   23       18.000269   0.000000
   24       18.463147   0.000000

 -0.3076923E+00  0.7692308E-01 -0.4015110E-17  0.1092399E-01
    1      -23.294732   1.000000
    2      -23.280996   1.000000
    3      -23.279832   1.000000
    4       -2.808870   1.000000
    5        1.740055   1.000000
    6        2.632995   1.000000
    7        2.834843   1.000000
    8        3.928187   1.000000
    9        4.006644   1.000000
   10        4.373193   1.000000
   11        6.373730   1.000000
   12        6.730838   1.000000
   13        9.020591   0.000000
   14        9.805881   0.000000
   15        9.923401   0.000000
   16       10.907167   0.000000
   17       11.972823   0.000000
   18       12.822032   0.000000
   19       13.618606   0.000000
   20       13.708911   0.000000
   21       14.248942   0.000000
   22       16.475708   0.000000
   23       18.028867   0.000000
   24       18.775729   0.000000

 -0.2307692E+00  0.7692308E-01 -0.6072432E-17  0.1092399E-01
    1      -23.290793   1.000000
    2      -23.281154   1.000000
    3      -23.279962   1.000000
    4       -3.154102   1.000000
    5        2.074622   1.000000
    6        2.637946   1.000000
    7        2.900952   1.000000
    8        3.906561   1.000000
    9        3.980509   1.000000
   10        4.904102   1.000000
   11        6.431901   1.000000
   12        6.902228   1.000000
   13        8.953351   0.999994
   14        9.594134   0.000000
   15        9.751751   0.000000
   16       11.194430   0.000000
   17       12.016745   0.000000
   18       12.189869   0.000000
   19       13.270234   0.000000
   20       13.974148   0.000000
   21       14.362991   0.000000
   22       15.810194   0.000000
   23       18.015696   0.000000
   24       18.854457   0.000000

 -0.1538462E+00  0.7692308E-01 -0.2846314E-17  0.1092399E-01
    1      -23.286734   1.000000
    2      -23.281232   1.000000
    3      -23.280148   1.000000
    4       -3.461920   1.000000
    5        2.383300   1.000000
    6        2.687271   1.000000
    7        2.952369   1.000000
    8        3.842857   1.000000
    9        3.910398   1.000000
   10        5.607640   1.000000
   11        6.581551   1.000000
   12        7.100201   1.000000
   13        8.783951   1.000000
   14        9.452598   0.000000
   15        9.733728   0.000000
   16       10.704167   0.000000
   17       11.535497   0.000000
   18       11.866159   0.000000
   19       13.378565   0.000000
   20       14.113357   0.000000
   21       15.158761   0.000000
   22       15.366877   0.000000
   23       17.940346   0.000000
   24       18.674664   0.000000

 -0.7692308E-01  0.7692308E-01  0.1174876E-17  0.5461994E-02
    1      -23.283483   1.000000
    2      -23.281283   1.000000
    3      -23.280349   1.000000
    4       -3.682440   1.000000
    5        2.638013   1.000000
    6        2.772188   1.000000
    7        2.950987   1.000000
    8        3.775026   1.000000
    9        3.819081   1.000000
   10        6.322086   1.000000
   11        6.875243   1.000000
   12        7.240248   1.000000
   13        8.481431   1.000000
   14        9.461113   0.000000
   15        9.844024   0.000000
   16       10.271061   0.000000
   17       10.949994   0.000000
   18       11.007882   0.000000
   19       13.477955   0.000000
   20       14.779589   0.000000
   21       15.514790   0.000000
   22       15.803462   0.000000
   23       17.900533   0.000000
   24       18.482044   0.000000

  0.1538462E+00  0.1538462E+00 -0.6579609E-18  0.2730997E-02
    1      -23.284856   1.000000
    2      -23.281498   1.000000
    3      -23.281175   1.000000
    4       -3.521850   1.000000
    5        2.213851   1.000000
    6        3.009464   1.000000
    7        3.011109   1.000000
    8        3.803326   1.000000
    9        3.835633   1.000000
   10        6.094345   1.000000
   11        6.710661   1.000000
   12        6.711018   1.000000
   13        8.503603   1.000000
   14        9.429693   0.000000
   15        9.903697   0.000000
   16       10.740404   0.000000
   17       10.741666   0.000000
   18       12.147871   0.000000
   19       13.738479   0.000000
   20       14.578093   0.000000
   21       14.902055   0.000000
   22       14.904831   0.000000
   23       18.100642   0.000000
   24       19.559247   0.000000

  0.2307692E+00  0.1538462E+00  0.5462937E-17  0.1092399E-01
    1      -23.287763   1.000000
    2      -23.281600   1.000000
    3      -23.280997   1.000000
    4       -3.316060   1.000000
    5        1.982984   1.000000
    6        3.001119   1.000000
    7        3.032683   1.000000
    8        3.821372   1.000000
    9        3.913978   1.000000
   10        5.580117   1.000000
   11        6.511249   1.000000
   12        6.528146   1.000000
   13        8.714161   1.000000
   14        9.413114   0.000000
   15        9.772010   0.000000
   16       11.092658   0.000000
   17       11.133001   0.000000
   18       12.736860   0.000000
   19       13.333599   0.000000
   20       14.285031   0.000000
   21       14.558044   0.000000
   22       15.276803   0.000000
   23       18.148045   0.000000
   24       19.824648   0.000000

  0.3076923E+00  0.1538462E+00 -0.6007467E-17  0.1092399E-01
    1      -23.291346   1.000000
    2      -23.281586   1.000000
    3      -23.280981   1.000000
    4       -3.031992   1.000000
    5        1.782090   1.000000
    6        2.897206   1.000000
    7        3.015403   1.000000
    8        3.878163   1.000000
    9        3.980102   1.000000
   10        4.950292   1.000000
   11        6.319793   1.000000
   12        6.414889   1.000000
   13        8.938397   1.000000
   14        9.622643   0.000000
   15        9.707152   0.000000
   16       11.224331   0.000000
   17       11.505826   0.000000
   18       12.474538   0.000000
   19       13.173440   0.000000
   20       14.319956   0.000000
   21       14.588744   0.000000
   22       16.120694   0.000000
   23       18.136103   0.000000
   24       19.721429   0.000000

  0.3846154E+00  0.1538462E+00 -0.8106436E-17  0.1092399E-01
    1      -23.294674   1.000000
    2      -23.281631   1.000000
    3      -23.281008   1.000000
    4       -2.719689   1.000000
    5        1.611973   1.000000
    6        2.769585   1.000000
    7        2.972358   1.000000
    8        3.926473   1.000000
    9        4.004437   1.000000
   10        4.425717   1.000000
   11        6.159790   1.000000
   12        6.376474   1.000000
   13        8.958130   0.999890
   14        9.778302   0.000000
   15       10.115547   0.000000
   16       10.763872   0.000000
   17       11.690788   0.000000
   18       12.365841   0.000000
   19       13.088368   0.000000
   20       14.310973   0.000000
   21       15.306063   0.000000
   22       16.837953   0.000000
   23       18.258591   0.000000
   24       19.330406   0.000000

  0.4615385E+00  0.1538462E+00 -0.1016376E-16  0.1092399E-01
    1      -23.297017   1.000000
    2      -23.282031   1.000000
    3      -23.280770   1.000000
    4       -2.454122   1.000000
    5        1.478375   1.000000
    6        2.681100   1.000000
    7        2.901765   1.000000
    8        3.901685   1.000000
    9        4.009166   1.000000
   10        4.133492   1.000000
   11        6.047865   1.000000
   12        6.382580   1.000000
   13        9.005553   0.001295
   14        9.964465   0.000000
   15       10.135994   0.000000
   16       10.601522   0.000000
   17       11.706407   0.000000
   18       12.075381   0.000000
   19       13.410019   0.000000
   20       14.475868   0.000000
   21       15.849000   0.000000
   22       17.258365   0.000000
   23       18.706520   0.000000
   24       18.811721   0.000000

 -0.4615385E+00  0.1538462E+00  0.1477399E-16  0.1092399E-01
    1      -23.297890   1.000000
    2      -23.282554   1.000000
    3      -23.280414   1.000000
    4       -2.324617   1.000000
    5        1.415585   1.000000
    6        2.672858   1.000000
    7        2.805867   1.000000
    8        3.813376   1.000000
    9        4.026290   1.000000
   10        4.091461   1.000000
   11        5.971390   1.000000
   12        6.411205   1.000000
   13        9.147024   0.000000
   14        9.753596   0.000000
   15       10.131865   0.000000
   16       10.861195   0.000000
   17       11.675723   0.000000
   18       11.788109   0.000000
   19       13.811529   0.000000
   20       14.554285   0.000000
   21       15.828596   0.000000
   22       17.681638   0.000000
   23       18.334427   0.000000
   24       18.966794   0.000000

 -0.3846154E+00  0.1538462E+00  0.2412027E-16  0.1092399E-01
    1      -23.297163   1.000000
    2      -23.282976   1.000000
    3      -23.280103   1.000000
    4       -2.387190   1.000000
    5        1.465170   1.000000
    6        2.704485   1.000000
    7        2.751003   1.000000
    8        3.820954   1.000000
    9        4.055912   1.000000
   10        4.150829   1.000000
   11        5.903302   1.000000
   12        6.472018   1.000000
   13        9.231331   0.000000
   14        9.802778   0.000000
   15       10.109819   0.000000
   16       10.839205   0.000000
   17       11.434983   0.000000
   18       12.143665   0.000000
   19       13.925917   0.000000
   20       14.326697   0.000000
   21       15.379360   0.000000
   22       18.015081   0.000000
   23       18.065823   0.000000
   24       18.568465   0.000000

 -0.3076923E+00  0.1538462E+00  0.1346860E-16  0.1092399E-01
    1      -23.295031   1.000000
    2      -23.283134   1.000000
    3      -23.279903   1.000000
    4       -2.614325   1.000000
    5        1.621339   1.000000
    6        2.625912   1.000000
    7        2.880995   1.000000
    8        3.875436   1.000000
    9        4.071117   1.000000
   10        4.360235   1.000000
   11        5.839691   1.000000
   12        6.589227   1.000000
   13        9.239373   0.000000
   14        9.921624   0.000000
   15       10.178822   0.000000
   16       10.702152   0.000000
   17       11.301603   0.000000
   18       12.665391   0.000000
   19       13.761760   0.000000
   20       13.905622   0.000000
   21       14.753537   0.000000
   22       17.536896   0.000000
   23       17.946901   0.000000
   24       19.061032   0.000000

 -0.2307692E+00  0.1538462E+00 -0.4940698E-17  0.1092399E-01
    1      -23.292026   1.000000
    2      -23.282939   1.000000
    3      -23.279862   1.000000
    4       -2.920840   1.000000
    5        1.845325   1.000000
    6        2.592500   1.000000
    7        2.999658   1.000000
    8        3.888063   1.000000
    9        4.049033   1.000000
   10        4.773637   1.000000
   11        5.836869   1.000000
   12        6.767668   1.000000
   13        9.332888   0.000000
   14        9.690168   0.000000
   15        9.997907   0.000000
   16       10.853141   0.000000
   17       11.487500   0.000000
   18       12.683176   0.000000
   19       13.589621   0.000000
   20       13.984963   0.000000
   21       14.036703   0.000000
   22       16.861229   0.000000
   23       17.867460   0.000000
   24       19.074309   0.000000

 -0.1538462E+00  0.1538462E+00  0.6461408E-17  0.5461994E-02
    1      -23.288882   1.000000
    2      -23.282369   1.000000
    3      -23.280005   1.000000
    4       -3.222763   1.000000
    5        2.105499   1.000000
    6        2.615454   1.000000
    7        3.042040   1.000000
    8        3.861637   1.000000
    9        3.988998   1.000000
   10        5.261133   1.000000
   11        6.041731   1.000000
   12        6.966145   1.000000
   13        9.286215   0.000000
   14        9.500962   0.000000
   15        9.705272   0.000000
   16       10.672054   0.000000
   17       12.128932   0.000000
   18       12.228261   0.000000
   19       13.220720   0.000000
   20       13.723654   0.000000
   21       14.622831   0.000000
   22       16.042119   0.000000
   23       17.828657   0.000000
   24       18.804839   0.000000

  0.2307692E+00  0.2307692E+00 -0.9869414E-18  0.2730997E-02
    1      -23.288991   1.000000
    2      -23.281999   1.000000
    3      -23.281732   1.000000
    4       -3.163276   1.000000
    5        1.762139   1.000000
    6        3.136660   1.000000
    7        3.138001   1.000000
    8        3.737319   1.000000
    9        3.978147   1.000000
   10        5.468522   1.000000
   11        6.318456   1.000000
   12        6.318884   1.000000
   13        8.500954   1.000000
   14        9.529618   0.000000
   15        9.653134   0.000000
   16       11.205783   0.000000
   17       11.207076   0.000000
   18       12.464573   0.000000
   19       14.000706   0.000000
   20       14.513943   0.000000
   21       14.516351   0.000000
   22       15.011353   0.000000
   23       18.597618   0.000000
   24       20.059913   0.000000

  0.3076923E+00  0.2307692E+00 -0.3693788E-18  0.1092399E-01
    1      -23.291774   1.000000
    2      -23.282184   1.000000
    3      -23.281797   1.000000
    4       -2.936821   1.000000
    5        1.606985   1.000000
    6        3.118642   1.000000
    7        3.171219   1.000000
    8        3.738370   1.000000
    9        4.052252   1.000000
   10        5.062703   1.000000
   11        6.100230   1.000000
   12        6.192213   1.000000
   13        8.622916   1.000000
   14        9.548985   0.000000
   15        9.675215   0.000000
   16       11.220228   0.000000
   17       11.298275   0.000000
   18       11.980892   0.000000
   19       13.983082   0.000000
   20       14.588407   0.000000
   21       14.976491   0.000000
   22       15.814602   0.000000
   23       18.851088   0.000000
   24       20.027619   0.000000

  0.3846154E+00  0.2307692E+00  0.1619646E-17  0.1092399E-01
    1      -23.294413   1.000000
    2      -23.282627   1.000000
    3      -23.281833   1.000000
    4       -2.677304   1.000000
    5        1.533463   1.000000
    6        2.972188   1.000000
    7        3.150691   1.000000
    8        3.827966   1.000000
    9        4.089190   1.000000
   10        4.576620   1.000000
   11        5.859220   1.000000
   12        6.153207   1.000000
   13        8.751750   1.000000
   14        9.571557   0.000000
   15       10.101898   0.000000
   16       10.856000   0.000000
   17       11.290586   0.000000
   18       11.690336   0.000000
   19       13.752389   0.000000
   20       14.825717   0.000000
   21       15.623105   0.000000
   22       16.878756   0.000000
   23       18.909842   0.000000
   24       20.022564   0.000000

  0.4615385E+00  0.2307692E+00 -0.6139477E-17  0.1092399E-01
    1      -23.296148   1.000000
    2      -23.283628   1.000000
    3      -23.281559   1.000000
    4       -2.443394   1.000000
    5        1.540791   1.000000
    6        2.798071   1.000000
    7        3.075651   1.000000
    8        3.869721   1.000000
    9        4.100035   1.000000
   10        4.228401   1.000000
   11        5.657299   1.000000
   12        6.167655   1.000000
   13        8.806734   1.000000
   14        9.770477   0.000000
   15       10.321111   0.000000
   16       10.670571   0.000000
   17       11.198286   0.000000
   18       11.554353   0.000000
   19       13.702406   0.000000
   20       15.137949   0.000000
   21       16.052022   0.000000
   22       17.637790   0.000000
   23       19.072868   0.000000
   24       19.465059   0.000000

 -0.4615385E+00  0.2307692E+00 -0.1960748E-16  0.1092399E-01
    1      -23.296642   1.000000
    2      -23.284841   1.000000
    3      -23.281108   1.000000
    4       -2.299318   1.000000
    5        1.591977   1.000000
    6        2.666787   1.000000
    7        2.953516   1.000000
    8        3.745711   1.000000
    9        4.116060   1.000000
   10        4.210028   1.000000
   11        5.511439   1.000000
   12        6.202652   1.000000
   13        8.920093   1.000000
   14        9.895692   0.000000
   15       10.075636   0.000000
   16       10.944845   0.000000
   17       11.146894   0.000000
   18       11.541451   0.000000
   19       13.815723   0.000000
   20       15.320526   0.000000
   21       16.076827   0.000000
   22       17.744201   0.000000
   23       18.811187   0.000000
   24       19.311983   0.000000

 -0.3846154E+00  0.2307692E+00  0.2244275E-16  0.1092399E-01
    1      -23.295950   1.000000
    2      -23.285809   1.000000
    3      -23.280616   1.000000
    4       -2.291691   1.000000
    5        1.618558   1.000000
    6        2.661703   1.000000
    7        2.813139   1.000000
    8        3.707121   1.000000
    9        4.137797   1.000000
   10        4.307200   1.000000
   11        5.408949   1.000000
   12        6.266243   1.000000
   13        9.119323   0.000000
   14        9.710816   0.000000
   15       10.211215   0.000000
   16       10.882024   0.000000
   17       11.403606   0.000000
   18       11.519861   0.000000
   19       13.959953   0.000000
   20       15.146525   0.000000
   21       15.623792   0.000000
   22       17.947970   0.000000