 ----------------------------------------------------
    OOO  PPPP  EEEEE N   N M   M PPPP
   O   O P   P E     NN  N MM MM P   P
   O   O PPPP  EEEEE N N N M M M PPPP   -- VERSION
   O   O P     E     N  NN M   M P
    OOO  P     EEEEE N   N M   M P
 ----------------------------------------------------
 running  192 mpi-ranks, with    1 threads/rank
 distrk:  each k-point on   24 cores,    8 groups
 distr:  one band on    1 cores,   24 groups
 using from now: INCAR
 vasp.6.0.8 29Jun18 (build Jun 13 2019 12:54:44) complex

 POSCAR found type information on POSCAR  Hf Sb Pt
 POSCAR found :  3 types and       3 ions
 scaLAPACK will be used

 -----------------------------------------------------------------------------
|                                                                             |
|  ADVICE TO THIS USER RUNNING 'VASP/VAMP'   (HEAR YOUR MASTER'S VOICE ...):  |
|                                                                             |
|      You enforced a specific xc-type in the INCAR file,                     |
|      a different type was found on the POTCAR file                          |
|          I HOPE YOU KNOW, WHAT YOU ARE  DOING                               |
|                                                                             |
 -----------------------------------------------------------------------------

 LDA part: xc-table for Pade appr. of Perdew
 POSCAR, INCAR and KPOINTS ok, starting setup
 FFT: planning ...
 WAVECAR not read
 entering main loop
       N       E                     dE             d eps       ncg     rms          rms(c)
DAV:   1     0.585886962442E+02    0.58589E+02   -0.15387E+04  4032   0.117E+03
DAV:   2    -0.246032968668E+02   -0.83192E+02   -0.82956E+02  6000   0.133E+02
DAV:   3    -0.249947311300E+02   -0.39143E+00   -0.39143E+00  4104   0.126E+01
DAV:   4    -0.249965830295E+02   -0.18519E-02   -0.18519E-02  7872   0.873E-01
DAV:   5    -0.249965831970E+02   -0.16747E-06   -0.16672E-06  4032   0.791E-03    0.427E+01
DAV:   6    -0.242338143887E+02    0.76277E+00   -0.18572E+00  4608   0.616E+00    0.260E+01
DAV:   7    -0.240928687546E+02    0.14095E+00   -0.10446E+00  5760   0.367E+00    0.391E+00
DAV:   8    -0.240705022065E+02    0.22367E-01   -0.51886E-01  4560   0.250E+00    0.115E+00
DAV:   9    -0.240591314943E+02    0.11371E-01   -0.75396E-02  6000   0.124E+00    0.248E-01
DAV:  10    -0.240588296436E+02    0.30185E-03   -0.35863E-03  4800   0.203E-01    0.161E-01
DAV:  11    -0.240587953163E+02    0.34327E-04   -0.42920E-04  6336   0.744E-02    0.157E-02
DAV:  12    -0.240587951278E+02    0.18849E-06   -0.54147E-06  5544   0.136E-02    0.110E-02
DAV:  13    -0.240587943794E+02    0.74836E-06   -0.19738E-06  6528   0.586E-03    0.747E-03
DAV:  14    -0.240587944935E+02   -0.11405E-06   -0.32440E-08  4704   0.966E-04    0.189E-03
DAV:  15    -0.240587944932E+02    0.28581E-09   -0.96669E-09  4752   0.446E-04
   1 F= -.24058794E+02 E0= -.24058660E+02  d E =-.268509E-03
 Found     3 degrees of freedom:
 Adding 6 more for cell shape distortion
 Finite differences POTIM= 0.01000 DOF=   9
 bond charge predicted
       N       E                     dE             d eps       ncg     rms          rms(c)
DAV:   1    -0.241394659778E+02   -0.80671E-01   -0.33898E+00 11760   0.995E+00    0.276E+00
DAV:   2    -0.240716119807E+02    0.67854E-01   -0.75611E-01 11880   0.385E+00    0.109E+00
DAV:   3    -0.240529112067E+02    0.18701E-01   -0.14787E-01 14112   0.147E+00    0.639E-01
DAV:   4    -0.240478236235E+02    0.50876E-02   -0.16415E-02 15576   0.592E-01    0.274E-01
DAV:   5    -0.240477113111E+02    0.11231E-03   -0.54035E-04 12720   0.102E-01    0.121E-01
DAV:   6    -0.240477129591E+02   -0.16480E-05   -0.42823E-05 16200   0.274E-02    0.292E-02
DAV:   7    -0.240477130716E+02   -0.11255E-06   -0.30385E-06 13080   0.839E-03    0.517E-03
DAV:   8    -0.240477131575E+02   -0.85876E-07   -0.20196E-07 14208   0.208E-03
   2 F= -.24047713E+02 E0= -.24047610E+02  d E =-.207046E-03
 Finite differences progress:
  Degree of freedom:   1/  9
  Displacement:        1/  4
  Total:               1/ 36
 bond charge predicted
       N       E                     dE             d eps       ncg     rms          rms(c)
DAV:   1    -0.240783862231E+02   -0.30673E-01   -0.20001E+00 12288   0.716E+00    0.137E+00
DAV:   2    -0.240625111537E+02    0.15875E-01   -0.21001E-01 12216   0.202E+00    0.530E-01
DAV:   3    -0.240573690846E+02    0.51421E-02   -0.37239E-02 13848   0.766E-01    0.301E-01
DAV:   4    -0.240561521093E+02    0.12170E-02   -0.36029E-03 15624   0.284E-01    0.141E-01
DAV:   5    -0.240561347918E+02    0.17317E-04   -0.14335E-04 12288   0.456E-02    0.599E-02
DAV:   6    -0.240561389393E+02   -0.41475E-05   -0.10563E-05 16656   0.159E-02    0.132E-02
DAV:   7    -0.240561395596E+02   -0.62027E-06   -0.18178E-06 11952   0.527E-03    0.281E-03
DAV:   8    -0.240561396314E+02   -0.71761E-07   -0.16351E-07 14952   0.200E-03
   3 F= -.24056140E+02 E0= -.24056024E+02  d E =-.231326E-03
 Finite differences progress:
  Degree of freedom:   1/  9
  Displacement:        2/  4
  Total:               2/ 36
 bond charge predicted
       N       E                     dE             d eps       ncg     rms          rms(c)
DAV:   1    -0.241494138054E+02   -0.93274E-01   -0.27765E+00 12456   0.909E+00    0.284E+00
DAV:   2    -0.240816488891E+02    0.67765E-01   -0.84278E-01 10704   0.394E+00    0.106E+00
DAV:   3    -0.240607664352E+02    0.20882E-01   -0.14507E-01 13560   0.153E+00    0.610E-01
DAV:   4    -0.240558139784E+02    0.49525E-02   -0.13880E-02 16464   0.556E-01    0.285E-01
DAV:   5    -0.240557190998E+02    0.94879E-04   -0.57937E-04 11928   0.936E-02    0.123E-01
DAV:   6    -0.240557312817E+02   -0.12182E-04   -0.40828E-05 16896   0.322E-02    0.244E-02
DAV:   7    -0.240557329175E+02   -0.16357E-05   -0.59133E-06 11304   0.987E-03    0.523E-03
DAV:   8    -0.240557329505E+02   -0.33049E-07   -0.59949E-07 16440   0.383E-03
   4 F= -.24055733E+02 E0= -.24055620E+02  d E =-.225468E-03
 Finite differences progress:
  Degree of freedom:   1/  9
  Displacement:        3/  4
  Total:               3/ 36
 bond charge predicted
       N       E                     dE             d eps       ncg     rms          rms(c)
DAV:   1    -0.240695928739E+02   -0.13860E-01   -0.21939E+00 11208   0.749E+00    0.149E+00
DAV:   2    -0.240524164170E+02    0.17176E-01   -0.21044E-01 13488   0.207E+00    0.513E-01
DAV:   3    -0.240474720675E+02    0.49443E-02   -0.34033E-02 13776   0.742E-01    0.328E-01
DAV:   4    -0.240461703855E+02    0.13017E-02   -0.36310E-03 16800   0.287E-01    0.154E-01
DAV:   5    -0.240461440519E+02    0.26334E-04   -0.17105E-04 11664   0.487E-02    0.578E-02
DAV:   6    -0.240461471810E+02   -0.31291E-05   -0.97161E-06 17184   0.157E-02    0.145E-02
DAV:   7    -0.240461477653E+02   -0.58434E-06   -0.14462E-06 11256   0.485E-03    0.304E-03
DAV:   8    -0.240461478267E+02   -0.61376E-07   -0.11439E-07 15528   0.173E-03
   5 F= -.24046148E+02 E0= -.24046080E+02  d E =-.135030E-03
 Finite differences progress:
  Degree of freedom:   1/  9
  Displacement:        4/  4
  Total:               4/ 36
 bond charge predicted
       N       E                     dE             d eps       ncg     rms          rms(c)
DAV:   1    -0.243429666109E+02   -0.29682E+00   -0.92337E+00 12984   0.168E+01    0.519E+00
DAV:   2    -0.241133555310E+02    0.22961E+00   -0.28420E+00  9888   0.745E+00    0.206E+00
DAV:   3    -0.240552334416E+02    0.58122E-01   -0.54454E-01 13680   0.281E+00    0.129E+00
DAV:   4    -0.240446522898E+02    0.10581E-01   -0.49541E-02 15360   0.105E+00    0.565E-01
DAV:   5    -0.240461196527E+02   -0.14674E-02   -0.29947E-03 13416   0.220E-01    0.214E-01
DAV:   6    -0.240471889119E+02   -0.10693E-02   -0.26838E-04 15672   0.714E-02    0.517E-02
DAV:   7    -0.240475492797E+02   -0.36037E-03   -0.28157E-05 13656   0.251E-02    0.109E-02
DAV:   8    -0.240476368498E+02   -0.87570E-04   -0.12911E-06 14688   0.501E-03    0.278E-03
DAV:   9    -0.240476979702E+02   -0.61120E-04   -0.28875E-07 13776   0.201E-03    0.766E-04
DAV:  10    -0.240477075110E+02   -0.95408E-05   -0.16630E-08 10752   0.626E-04    0.119E-04
DAV:  11    -0.240477121314E+02   -0.46204E-05   -0.23901E-09  8112   0.208E-04    0.686E-05
DAV:  12    -0.240477130917E+02   -0.96029E-06   -0.25651E-10  8976   0.764E-05    0.355E-05
DAV:  13    -0.240477131426E+02   -0.50866E-07   -0.22270E-11  6816   0.244E-05
   6 F= -.24047713E+02 E0= -.24047610E+02  d E =-.207024E-03
 Finite differences progress:
  Degree of freedom:   2/  9
  Displacement:        1/  4
  Total:               5/ 36
 bond charge predicted
       N       E                     dE             d eps       ncg     rms          rms(c)
DAV:   1    -0.240783905526E+02   -0.30677E-01   -0.20179E+00 11904   0.717E+00    0.136E+00
DAV:   2    -0.240624856421E+02    0.15905E-01   -0.20986E-01 12504   0.203E+00    0.529E-01
DAV:   3    -0.240573630962E+02    0.51225E-02   -0.37065E-02 13440   0.763E-01    0.304E-01
DAV:   4    -0.240561527710E+02    0.12103E-02   -0.35898E-03 16056   0.284E-01    0.143E-01
DAV:   5    -0.240561348593E+02    0.17912E-04   -0.14683E-04 11880   0.457E-02    0.592E-02
DAV:   6    -0.240561389803E+02   -0.41210E-05   -0.10859E-05 16992   0.162E-02    0.128E-02
DAV:   7    -0.240561395364E+02   -0.55614E-06   -0.18038E-06 11712   0.525E-03    0.293E-03
DAV:   8    -0.240561396298E+02   -0.93325E-07   -0.15508E-07 15408   0.198E-03
   7 F= -.24056140E+02 E0= -.24056024E+02  d E =-.231326E-03
 Finite differences progress:
  Degree of freedom:   2/  9
  Displacement:        2/  4
  Total:               6/ 36
 bond charge predicted
       N       E                     dE             d eps       ncg     rms          rms(c)
DAV:   1    -0.241493846990E+02   -0.93245E-01   -0.27864E+00 12288   0.910E+00    0.284E+00
DAV:   2    -0.240816552961E+02    0.67729E-01   -0.84320E-01 10728   0.395E+00    0.106E+00
DAV:   3    -0.240607640714E+02    0.20891E-01   -0.14502E-01 13440   0.153E+00    0.609E-01
DAV:   4    -0.240558135878E+02    0.49505E-02   -0.13899E-02 16560   0.557E-01    0.285E-01
DAV:   5    -0.240557190230E+02    0.94565E-04   -0.57391E-04 11688   0.932E-02    0.124E-01
DAV:   6    -0.240557312726E+02   -0.12250E-04   -0.41400E-05 17088   0.324E-02    0.244E-02
DAV:   7    -0.240557329079E+02   -0.16353E-05   -0.59557E-06 10992   0.991E-03    0.527E-03
DAV:   8    -0.240557329505E+02   -0.42615E-07   -0.60911E-07 16896   0.386E-03
   8 F= -.24055733E+02 E0= -.24055620E+02  d E =-.225468E-03
 Finite differences progress:
  Degree of freedom:   2/  9
  Displacement:        3/  4
  Total:               7/ 36
 bond charge predicted
       N       E                     dE             d eps       ncg     rms          rms(c)
DAV:   1    -0.240695455144E+02   -0.13813E-01   -0.21811E+00 11088   0.747E+00    0.151E+00
DAV:   2    -0.240524525697E+02    0.17093E-01   -0.21135E-01 13464   0.208E+00    0.515E-01
DAV:   3    -0.240474782103E+02    0.49744E-02   -0.34225E-02 13632   0.744E-01    0.322E-01
DAV:   4    -0.240461699548E+02    0.13083E-02   -0.36704E-03 16584   0.289E-01    0.152E-01
DAV:   5    -0.240461438644E+02    0.26090E-04   -0.15725E-04 11640   0.474E-02    0.618E-02
DAV:   6    -0.240461471361E+02   -0.32717E-05   -0.95852E-06 17208   0.156E-02    0.149E-02
DAV:   7    -0.240461477719E+02   -0.63584E-06   -0.13953E-06 11208   0.480E-03    0.302E-03
DAV:   8    -0.240461478245E+02   -0.52612E-07   -0.11485E-07 15480   0.172E-03
   9 F= -.24046148E+02 E0= -.24046080E+02  d E =-.135031E-03
 Finite differences progress:
  Degree of freedom:   2/  9
  Displacement:        4/  4
  Total:               8/ 36
 bond charge predicted
       N       E                     dE             d eps       ncg     rms          rms(c)
DAV:   1    -0.243630506595E+02   -0.31690E+00   -0.92305E+00 12456   0.167E+01    0.522E+00
DAV:   2    -0.241270696209E+02    0.23598E+00   -0.28596E+00 10224   0.750E+00    0.207E+00
DAV:   3    -0.240648641585E+02    0.62205E-01   -0.54956E-01 13608   0.282E+00    0.129E+00
DAV:   4    -0.240493278907E+02    0.15536E-01   -0.50737E-02 15360   0.106E+00    0.565E-01
DAV:   5    -0.240480542910E+02    0.12736E-02   -0.30835E-03 13584   0.222E-01    0.212E-01
DAV:   6    -0.240478101353E+02    0.24416E-03   -0.27394E-04 15168   0.708E-02    0.543E-02
DAV:   7    -0.240477416217E+02    0.68514E-04   -0.31090E-05 14424   0.265E-02    0.111E-02
DAV:   8    -0.240477265994E+02    0.15022E-04   -0.13449E-06 13872   0.525E-03    0.282E-03
DAV:   9    -0.240477161212E+02    0.10478E-04   -0.30885E-07 14376   0.208E-03    0.684E-04
DAV:  10    -0.240477142240E+02    0.18972E-05   -0.17484E-08 10392   0.629E-04    0.102E-04
DAV:  11    -0.240477134108E+02    0.81324E-06   -0.22849E-09  8088   0.209E-04    0.631E-05
DAV:  12    -0.240477132068E+02    0.20399E-06   -0.25653E-10  8496   0.774E-05    0.333E-05
DAV:  13    -0.240477131853E+02    0.21506E-07   -0.23591E-11  7032   0.253E-05
  10 F= -.24047713E+02 E0= -.24047610E+02  d E =-.207024E-03
 Finite differences progress:
  Degree of freedom:   3/  9
  Displacement:        1/  4
  Total:               9/ 36
 bond charge predicted
       N       E                     dE             d eps       ncg     rms          rms(c)
DAV:   1    -0.240780640289E+02   -0.30351E-01   -0.22504E+00 11088   0.765E+00    0.137E+00
DAV:   2    -0.240625173013E+02    0.15547E-01   -0.21230E-01 13008   0.206E+00    0.536E-01
DAV:   3    -0.240573713360E+02    0.51460E-02   -0.37073E-02 13632   0.762E-01    0.302E-01
DAV:   4    -0.240561515767E+02    0.12198E-02   -0.36681E-03 15720   0.287E-01    0.146E-01
DAV:   5    -0.240561348289E+02    0.16748E-04   -0.13867E-04 11760   0.450E-02    0.638E-02
DAV:   6    -0.240561389414E+02   -0.41125E-05   -0.10788E-05 16848   0.158E-02    0.139E-02
DAV:   7    -0.240561395483E+02   -0.60690E-06   -0.19701E-06 11688   0.546E-03    0.292E-03
DAV:   8    -0.240561396282E+02   -0.79929E-07   -0.17941E-07 15096   0.208E-03
  11 F= -.24056140E+02 E0= -.24056024E+02  d E =-.231326E-03
 Finite differences progress:
  Degree of freedom:   3/  9
  Displacement:        2/  4
  Total:              10/ 36
 bond charge predicted
       N       E                     dE             d eps       ncg     rms          rms(c)
DAV:   1    -0.241493569147E+02   -0.93217E-01   -0.25712E+00 11640   0.881E+00    0.285E+00
DAV:   2    -0.240816445250E+02    0.67712E-01   -0.84047E-01 11016   0.394E+00    0.107E+00
DAV:   3    -0.240607703294E+02    0.20874E-01   -0.14460E-01 13248   0.153E+00    0.604E-01
DAV:   4    -0.240558116157E+02    0.49587E-02   -0.14044E-02 16584   0.560E-01    0.287E-01
DAV:   5    -0.240557189699E+02    0.92646E-04   -0.53979E-04 11496   0.909E-02    0.129E-01
DAV:   6    -0.240557311348E+02   -0.12165E-04   -0.41052E-05 17232   0.317E-02    0.255E-02
DAV:   7    -0.240557329213E+02   -0.17865E-05   -0.55811E-06 10944   0.964E-03    0.530E-03
DAV:   8    -0.240557329470E+02   -0.25696E-07   -0.58446E-07 16824   0.378E-03
  12 F= -.24055733E+02 E0= -.24055620E+02  d E =-.225468E-03
 Finite differences progress:
  Degree of freedom:   3/  9
  Displacement:        3/  4
  Total:              11/ 36
 bond charge predicted
       N       E                     dE             d eps       ncg     rms          rms(c)
DAV:   1    -0.240695081846E+02   -0.13775E-01   -0.25471E+00 11712   0.809E+00    0.149E+00
DAV:   2    -0.240524071052E+02    0.17101E-01   -0.21149E-01 12792   0.208E+00    0.512E-01
DAV:   3    -0.240474716775E+02    0.49354E-02   -0.34100E-02 13776   0.744E-01    0.326E-01
DAV:   4    -0.240461705677E+02    0.13011E-02   -0.36170E-03 16536   0.286E-01    0.153E-01
DAV:   5    -0.240461439396E+02    0.26628E-04   -0.16664E-04 11712   0.486E-02    0.588E-02
DAV:   6    -0.240461471719E+02   -0.32323E-05   -0.96185E-06 17016   0.158E-02    0.144E-02
DAV:   7    -0.240461477676E+02   -0.59565E-06   -0.13890E-06 11184   0.477E-03    0.301E-03
DAV:   8    -0.240461478245E+02   -0.56886E-07   -0.11225E-07 15504   0.171E-03
  13 F= -.24046148E+02 E0= -.24046080E+02  d E =-.135031E-03
 Finite differences progress:
  Degree of freedom:   3/  9
  Displacement:        4/  4
  Total:              12/ 36
 bond charge predicted
       N       E                     dE             d eps       ncg     rms          rms(c)
DAV:   1    -0.241834834159E+02   -0.13734E+00   -0.49775E+00 39528   0.120E+01    0.312E+00
DAV:   2    -0.240867418570E+02    0.96742E-01   -0.83116E-01 36672   0.412E+00    0.121E+00
DAV:   3    -0.240631720346E+02    0.23570E-01   -0.16819E-01 47016   0.160E+00    0.749E-01
DAV:   4    -0.240554149715E+02    0.77571E-02   -0.25340E-02 47496   0.724E-01    0.308E-01
DAV:   5    -0.240552215073E+02    0.19346E-03   -0.92245E-04 40176   0.147E-01    0.131E-01
DAV:   6    -0.240552192683E+02    0.22390E-05   -0.66364E-05 48456   0.370E-02    0.412E-02
DAV:   7    -0.240552192323E+02    0.36081E-07   -0.55265E-06 39024   0.120E-02    0.581E-03
DAV:   8    -0.240552192388E+02   -0.65329E-08   -0.50539E-07 42336   0.296E-03
  14 F= -.24055219E+02 E0= -.24055096E+02  d E =-.246771E-03
 Finite differences progress:
  Degree of freedom:   4/  9
  Displacement:        1/  4
  Total:              13/ 36
 bond charge predicted
       N       E                     dE             d eps       ncg     rms          rms(c)
DAV:   1    -0.240651643577E+02   -0.99451E-02   -0.14871E+00 38568   0.604E+00    0.559E-01
DAV:   2    -0.240596654784E+02    0.54989E-02   -0.18208E-02 42408   0.701E-01    0.268E-01
DAV:   3    -0.240579475807E+02    0.17179E-02   -0.52438E-03 46248   0.304E-01    0.603E-02
DAV:   4    -0.240579179058E+02    0.29675E-04   -0.18729E-04 36816   0.748E-02    0.417E-02
DAV:   5    -0.240579119294E+02    0.59764E-05   -0.23797E-05 51024   0.225E-02    0.205E-02
DAV:   6    -0.240579114141E+02    0.51528E-06   -0.50762E-06 36672   0.937E-03    0.105E-02
DAV:   7    -0.240579113936E+02    0.20502E-07   -0.28437E-07 41520   0.255E-03
  15 F= -.24057911E+02 E0= -.24057790E+02  d E =-.242222E-03
 Finite differences progress:
  Degree of freedom:   4/  9
  Displacement:        2/  4
  Total:              14/ 36
 bond charge predicted
       N       E                     dE             d eps       ncg     rms          rms(c)
DAV:   1    -0.240898368280E+02   -0.31925E-01   -0.93100E-01 41976   0.459E+00    0.125E+00
DAV:   2    -0.240649878970E+02    0.24849E-01   -0.42706E-02 42792   0.914E-01    0.483E-01
DAV:   3    -0.240581087973E+02    0.68791E-02   -0.19856E-02 51168   0.586E-01    0.138E-01
DAV:   4    -0.240579196346E+02    0.18916E-03   -0.85356E-04 39024   0.155E-01    0.804E-02
DAV:   5    -0.240579131859E+02    0.64487E-05   -0.60566E-05 53232   0.362E-02    0.391E-02
DAV:   6    -0.240579116413E+02    0.15445E-05   -0.22974E-05 35088   0.192E-02    0.966E-03
DAV:   7    -0.240579114129E+02    0.22838E-06   -0.16319E-06 41952   0.585E-03    0.153E-03
DAV:   8    -0.240579113970E+02    0.15911E-07   -0.67922E-08 30816   0.115E-03
  16 F= -.24057911E+02 E0= -.24057790E+02  d E =-.242190E-03
 Finite differences progress:
  Degree of freedom:   4/  9
  Displacement:        3/  4
  Total:              15/ 36
 bond charge predicted
       N       E                     dE             d eps       ncg     rms          rms(c)
DAV:   1    -0.240625158547E+02   -0.46044E-02   -0.16643E+00 41928   0.636E+00    0.707E-01
DAV:   2    -0.240570050352E+02    0.55108E-02   -0.17320E-02 40128   0.669E-01    0.225E-01
DAV:   3    -0.240553085985E+02    0.16964E-02   -0.42281E-03 49392   0.278E-01    0.764E-02
DAV:   4    -0.240552226415E+02    0.85957E-04   -0.28473E-04 43104   0.862E-02    0.480E-02
DAV:   5    -0.240552197944E+02    0.28471E-05   -0.23572E-05 45960   0.228E-02    0.291E-02
DAV:   6    -0.240552194654E+02    0.32907E-06   -0.54225E-06 42720   0.949E-03    0.116E-02
DAV:   7    -0.240552193005E+02    0.16488E-06   -0.11286E-06 41160   0.478E-03    0.856E-04
DAV:   8    -0.240552192967E+02    0.38015E-08   -0.21330E-08 27456   0.852E-04
  17 F= -.24055219E+02 E0= -.24055096E+02  d E =-.246750E-03
 Finite differences progress:
  Degree of freedom:   4/  9
  Displacement:        4/  4
  Total:              16/ 36
 bond charge predicted
       N       E                     dE             d eps       ncg     rms          rms(c)
DAV:   1    -0.241262503392E+02   -0.71031E-01   -0.32640E+00 42072   0.861E+00    0.152E+00
DAV:   2    -0.240823968555E+02    0.43853E-01   -0.67255E-02 41592   0.124E+00    0.662E-01
DAV:   3    -0.240607241086E+02    0.21673E-01   -0.39864E-02 50496   0.833E-01    0.220E-01
DAV:   4    -0.240569460462E+02    0.37781E-02   -0.53887E-03 46800   0.331E-01    0.113E-01
DAV:   5    -0.240561543390E+02    0.79171E-03   -0.69762E-04 47592   0.119E-01    0.569E-02
DAV:   6    -0.240555651242E+02    0.58921E-03   -0.23930E-04 43152   0.654E-02    0.140E-02
DAV:   7    -0.240553838339E+02    0.18129E-03   -0.23161E-05 44928   0.222E-02    0.638E-03
DAV:   8    -0.240552472497E+02    0.13658E-03   -0.70955E-06 40944   0.104E-02    0.144E-03
DAV:   9    -0.240552318298E+02    0.15420E-04   -0.31027E-07 39384   0.275E-03    0.634E-04
DAV:  10    -0.240552208895E+02    0.10940E-04   -0.49247E-08 29064   0.872E-04    0.197E-04
DAV:  11    -0.240552197809E+02    0.11087E-05   -0.28778E-09 22656   0.271E-04    0.791E-05
DAV:  12    -0.240552193124E+02    0.46845E-06   -0.33555E-10 19512   0.910E-05    0.342E-05
DAV:  13    -0.240552192872E+02    0.25257E-07   -0.49968E-11 18768   0.375E-05
  18 F= -.24055219E+02 E0= -.24055096E+02  d E =-.246745E-03
 Finite differences progress:
  Degree of freedom:   5/  9
  Displacement:        1/  4
  Total:              17/ 36
 bond charge predicted
       N       E                     dE             d eps       ncg     rms          rms(c)
DAV:   1    -0.240654158734E+02   -0.10197E-01   -0.14363E+00 45696   0.598E+00    0.573E-01
DAV:   2    -0.240596566009E+02    0.57593E-02   -0.15829E-02 36216   0.641E-01    0.262E-01
DAV:   3    -0.240579488819E+02    0.17077E-02   -0.53009E-03 51216   0.306E-01    0.639E-02
DAV:   4    -0.240579172533E+02    0.31629E-04   -0.18513E-04 32232   0.750E-02    0.415E-02
DAV:   5    -0.240579118371E+02    0.54162E-05   -0.21616E-05 54432   0.217E-02    0.201E-02
DAV:   6    -0.240579114185E+02    0.41856E-06   -0.41390E-06 32184   0.846E-03    0.100E-02
DAV:   7    -0.240579113938E+02    0.24677E-07   -0.26896E-07 45360   0.244E-03
  19 F= -.24057911E+02 E0= -.24057790E+02  d E =-.242223E-03
 Finite differences progress:
  Degree of freedom:   5/  9
  Displacement:        2/  4
  Total:              18/ 36
 bond charge predicted
       N       E                     dE             d eps       ncg     rms          rms(c)
DAV:   1    -0.240898973352E+02   -0.31986E-01   -0.91479E-01 44208   0.457E+00    0.125E+00
DAV:   2    -0.240649790389E+02    0.24918E-01   -0.42286E-02 41640   0.907E-01    0.485E-01
DAV:   3    -0.240581052629E+02    0.68738E-02   -0.19995E-02 51648   0.589E-01    0.138E-01
DAV:   4    -0.240579199972E+02    0.18527E-03   -0.85340E-04 37272   0.155E-01    0.800E-02
DAV:   5    -0.240579136038E+02    0.63934E-05   -0.70751E-05 53616   0.385E-02    0.404E-02
DAV:   6    -0.240579115732E+02    0.20307E-05   -0.24504E-05 34776   0.199E-02    0.989E-03
DAV:   7    -0.240579114119E+02    0.16128E-06   -0.11432E-06 43920   0.517E-03    0.156E-03
DAV:   8    -0.240579113941E+02    0.17769E-07   -0.64590E-08 31248   0.108E-03
  20 F= -.24057911E+02 E0= -.24057790E+02  d E =-.242191E-03
 Finite differences progress:
  Degree of freedom:   5/  9
  Displacement:        3/  4
  Total:              19/ 36
 bond charge predicted
       N       E                     dE             d eps       ncg     rms          rms(c)
DAV:   1    -0.240625565736E+02   -0.46452E-02   -0.16649E+00 43296   0.638E+00    0.701E-01
DAV:   2    -0.240570025377E+02    0.55540E-02   -0.16950E-02 40080   0.664E-01    0.226E-01
DAV:   3    -0.240553043618E+02    0.16982E-02   -0.42933E-03 50400   0.280E-01    0.762E-02
DAV:   4    -0.240552223121E+02    0.82050E-04   -0.27353E-04 42000   0.851E-02    0.472E-02
DAV:   5    -0.240552197610E+02    0.25511E-05   -0.21297E-05 46872   0.217E-02    0.281E-02
DAV:   6    -0.240552194765E+02    0.28454E-06   -0.55725E-06 41400   0.955E-03    0.107E-02
DAV:   7    -0.240552192984E+02    0.17815E-06   -0.12239E-06 41400   0.492E-03    0.833E-04
DAV:   8    -0.240552192948E+02    0.35654E-08   -0.22937E-08 28224   0.876E-04
  21 F= -.24055219E+02 E0= -.24055096E+02  d E =-.246751E-03
 Finite differences progress:
  Degree of freedom:   5/  9
  Displacement:        4/  4
  Total:              20/ 36
 bond charge predicted
       N       E                     dE             d eps       ncg     rms          rms(c)
DAV:   1    -0.241182566194E+02   -0.63037E-01   -0.31407E+00 45840   0.850E+00    0.151E+00
DAV:   2    -0.240761021136E+02    0.42155E-01   -0.64877E-02 38376   0.121E+00    0.671E-01
DAV:   3    -0.240573910792E+02    0.18711E-01   -0.41724E-02 52080   0.853E-01    0.224E-01
DAV:   4    -0.240554599128E+02    0.19312E-02   -0.52259E-03 44448   0.326E-01    0.112E-01
DAV:   5    -0.240552727023E+02    0.18721E-03   -0.70019E-04 48648   0.118E-01    0.607E-02
DAV:   6    -0.240552223995E+02    0.50303E-04   -0.24161E-04 41208   0.665E-02    0.108E-02
DAV:   7    -0.240552202520E+02    0.21475E-05   -0.19272E-05 45312   0.210E-02    0.456E-03
DAV:   8    -0.240552197067E+02    0.54539E-06   -0.46505E-06 40032   0.853E-03    0.125E-03
DAV:   9    -0.240552197086E+02   -0.19502E-08   -0.65281E-07 45960   0.338E-03
  22 F= -.24055220E+02 E0= -.24055096E+02  d E =-.246705E-03
 Finite differences progress:
  Degree of freedom:   6/  9
  Displacement:        1/  4
  Total:              21/ 36
 bond charge predicted
       N       E                     dE             d eps       ncg     rms          rms(c)
DAV:   1    -0.240654313170E+02   -0.10212E-01   -0.14761E+00 48360   0.609E+00    0.575E-01
DAV:   2    -0.240596533818E+02    0.57779E-02   -0.15667E-02 32736   0.638E-01    0.262E-01
DAV:   3    -0.240579491184E+02    0.17043E-02   -0.53477E-03 52992   0.307E-01    0.652E-02
DAV:   4    -0.240579174368E+02    0.31682E-04   -0.18390E-04 30000   0.750E-02    0.421E-02
DAV:   5    -0.240579119078E+02    0.55290E-05   -0.22930E-05 56232   0.224E-02    0.205E-02
DAV:   6    -0.240579114287E+02    0.47907E-06   -0.43217E-06 30696   0.863E-03    0.105E-02
DAV:   7    -0.240579113989E+02    0.29768E-07   -0.25029E-07 47472   0.238E-03
  23 F= -.24057911E+02 E0= -.24057790E+02  d E =-.242222E-03
 Finite differences progress:
  Degree of freedom:   6/  9
  Displacement:        2/  4
  Total:              22/ 36
 bond charge predicted
       N       E                     dE             d eps       ncg     rms          rms(c)
DAV:   1    -0.240899301927E+02   -0.32019E-01   -0.89015E-01 46224   0.450E+00    0.125E+00
DAV:   2    -0.240649686588E+02    0.24962E-01   -0.42064E-02 38952   0.903E-01    0.486E-01
DAV:   3    -0.240581049604E+02    0.68637E-02   -0.20151E-02 53592   0.591E-01    0.140E-01
DAV:   4    -0.240579203680E+02    0.18459E-03   -0.84357E-04 35760   0.155E-01    0.795E-02
DAV:   5    -0.240579137179E+02    0.66501E-05   -0.74596E-05 55008   0.395E-02    0.406E-02
DAV:   6    -0.240579115728E+02    0.21452E-05   -0.24747E-05 34080   0.200E-02    0.103E-02
DAV:   7    -0.240579114118E+02    0.16099E-06   -0.11021E-06 45048   0.511E-03    0.156E-03
DAV:   8    -0.240579113935E+02    0.18247E-07   -0.67432E-08 30552   0.111E-03
  24 F= -.24057911E+02 E0= -.24057790E+02  d E =-.242192E-03
 Finite differences progress:
  Degree of freedom:   6/  9
  Displacement:        3/  4
  Total:              23/ 36
 bond charge predicted
       N       E                     dE             d eps       ncg     rms          rms(c)
DAV:   1    -0.240625514146E+02   -0.46400E-02   -0.17028E+00 44472   0.645E+00    0.701E-01
DAV:   2    -0.240570004877E+02    0.55509E-02   -0.17031E-02 38880   0.666E-01    0.226E-01
DAV:   3    -0.240553045691E+02    0.16959E-02   -0.43026E-03 51600   0.280E-01    0.765E-02
DAV:   4    -0.240552224179E+02    0.82151E-04   -0.27314E-04 40656   0.850E-02    0.471E-02
DAV:   5    -0.240552197871E+02    0.26308E-05   -0.22931E-05 48360   0.224E-02    0.284E-02
DAV:   6    -0.240552194581E+02    0.32902E-06   -0.55371E-06 40536   0.954E-03    0.108E-02
DAV:   7    -0.240552192979E+02    0.16021E-06   -0.11101E-06 42432   0.474E-03    0.822E-04
DAV:   8    -0.240552192948E+02    0.30491E-08   -0.21885E-08 27192   0.847E-04
  25 F= -.24055219E+02 E0= -.24055096E+02  d E =-.246750E-03
 Finite differences progress:
  Degree of freedom:   6/  9
  Displacement:        4/  4
  Total:              24/ 36
 bond charge predicted
       N       E                     dE             d eps       ncg     rms          rms(c)
DAV:   1    -0.240895944643E+02   -0.34375E-01   -0.32692E+00 19968   0.884E+00    0.915E-01
DAV:   2    -0.240742571160E+02    0.15337E-01   -0.52957E-02 23568   0.132E+00    0.525E-01
DAV:   3    -0.240586630009E+02    0.15594E-01   -0.33631E-02 29592   0.756E-01    0.604E-02
DAV:   4    -0.240579244866E+02    0.73851E-03   -0.16554E-03 21168   0.200E-01    0.391E-02
DAV:   5    -0.240577567884E+02    0.16770E-03   -0.16206E-04 28536   0.558E-02    0.191E-02
DAV:   6    -0.240576374824E+02    0.11931E-03   -0.70713E-05 20064   0.340E-02    0.564E-03
DAV:   7    -0.240575911255E+02    0.46357E-04   -0.14720E-05 27480   0.158E-02    0.136E-03
DAV:   8    -0.240575858723E+02    0.52532E-05   -0.49167E-07 19992   0.339E-03    0.856E-04
DAV:   9    -0.240575841159E+02    0.17563E-05   -0.30253E-08 20952   0.774E-04    0.218E-04
DAV:  10    -0.240575837455E+02    0.37043E-06   -0.26690E-09 13008   0.245E-04    0.466E-05
DAV:  11    -0.240575837291E+02    0.16385E-07   -0.26020E-10 12864   0.804E-05
  26 F= -.24057584E+02 E0= -.24057458E+02  d E =-.250500E-03
 Finite differences progress:
  Degree of freedom:   7/  9
  Displacement:        1/  4
  Total:              25/ 36
 bond charge predicted
       N       E                     dE             d eps       ncg     rms          rms(c)
DAV:   1    -0.240570398226E+02    0.54392E-03   -0.20711E+00 16464   0.603E+00    0.201E-01
DAV:   2    -0.240584955556E+02   -0.14557E-02   -0.14814E-02 23160   0.740E-01    0.140E-01
DAV:   3    -0.240584966718E+02   -0.11162E-05   -0.11316E-04 27336   0.541E-02    0.201E-02
DAV:   4    -0.240584956552E+02    0.10166E-05   -0.14435E-05 21768   0.168E-02    0.904E-03
DAV:   5    -0.240584952521E+02    0.40318E-06   -0.36003E-06 25584   0.830E-03    0.411E-03
DAV:   6    -0.240584952517E+02    0.36266E-09   -0.16357E-07 21048   0.206E-03
  27 F= -.24058495E+02 E0= -.24058367E+02  d E =-.256508E-03
 Finite differences progress:
  Degree of freedom:   7/  9
  Displacement:        2/  4
  Total:              26/ 36
 bond charge predicted
       N       E                     dE             d eps       ncg     rms          rms(c)
DAV:   1    -0.240577048904E+02    0.79036E-03   -0.11226E+00 16728   0.439E+00    0.486E-01
DAV:   2    -0.240585126982E+02   -0.80781E-03   -0.91367E-03 22152   0.553E-01    0.250E-01
DAV:   3    -0.240584952898E+02    0.17408E-04   -0.19051E-04 27312   0.667E-02    0.443E-02
DAV:   4    -0.240584957553E+02   -0.46549E-06   -0.73622E-06 20952   0.142E-02    0.107E-02
DAV:   5    -0.240584953288E+02    0.42654E-06   -0.38744E-06 27624   0.784E-03    0.343E-03
DAV:   6    -0.240584952515E+02    0.77270E-07   -0.92894E-07 21936   0.404E-03
  28 F= -.24058495E+02 E0= -.24058367E+02  d E =-.256586E-03
 Finite differences progress:
  Degree of freedom:   7/  9
  Displacement:        3/  4
  Total:              27/ 36
 bond charge predicted
       N       E                     dE             d eps       ncg     rms          rms(c)
DAV:   1    -0.240561180731E+02    0.23773E-02   -0.20612E+00 16464   0.599E+00    0.305E-01
DAV:   2    -0.240575868263E+02   -0.14688E-02   -0.14953E-02 22968   0.737E-01    0.109E-01
DAV:   3    -0.240575837701E+02    0.30561E-05   -0.76216E-05 26904   0.424E-02    0.378E-02
DAV:   4    -0.240575837915E+02   -0.21415E-07   -0.32445E-06 21912   0.930E-03    0.608E-03
DAV:   5    -0.240575837431E+02    0.48405E-07   -0.87228E-07 26952   0.405E-03
  29 F= -.24057584E+02 E0= -.24057459E+02  d E =-.250341E-03
 Finite differences progress:
  Degree of freedom:   7/  9
  Displacement:        4/  4
  Total:              28/ 36
 bond charge predicted
       N       E                     dE             d eps       ncg     rms          rms(c)
DAV:   1    -0.240549663823E+02    0.26174E-02   -0.20338E+00 16464   0.641E+00    0.395E-01
DAV:   2    -0.240575278037E+02   -0.25614E-02   -0.27648E-02 22560   0.101E+00    0.229E-01
DAV:   3    -0.240575090095E+02    0.18794E-04   -0.31758E-04 26976   0.919E-02    0.515E-02
DAV:   4    -0.240575083321E+02    0.67734E-06   -0.40311E-05 22488   0.265E-02    0.155E-02
DAV:   5    -0.240575070264E+02    0.13057E-05   -0.12251E-05 24840   0.144E-02    0.469E-03
DAV:   6    -0.240575069514E+02    0.74986E-07   -0.90941E-07 24216   0.451E-03
  30 F= -.24057507E+02 E0= -.24057383E+02  d E =-.248131E-03
 Finite differences progress:
  Degree of freedom:   8/  9
  Displacement:        1/  4
  Total:              29/ 36
 bond charge predicted
       N       E                     dE             d eps       ncg     rms          rms(c)
DAV:   1    -0.240583633077E+02   -0.85628E-03   -0.14473E-01 16512   0.132E+00    0.789E-02
DAV:   2    -0.240584763321E+02   -0.11302E-03   -0.12339E-03 29760   0.179E-01    0.429E-02
DAV:   3    -0.240584734469E+02    0.28852E-05   -0.87946E-06 19824   0.128E-02    0.840E-03
DAV:   4    -0.240584733168E+02    0.13006E-06   -0.20891E-06 29640   0.609E-03    0.263E-03
DAV:   5    -0.240584732504E+02    0.66420E-07   -0.42630E-07 19272   0.266E-03
  31 F= -.24058473E+02 E0= -.24058342E+02  d E =-.262434E-03
 Finite differences progress:
  Degree of freedom:   8/  9
  Displacement:        2/  4
  Total:              30/ 36
 bond charge predicted
       N       E                     dE             d eps       ncg     rms          rms(c)
DAV:   1    -0.240584542326E+02    0.19084E-04   -0.81422E-02 16560   0.976E-01    0.162E-01
DAV:   2    -0.240584844712E+02   -0.30239E-04   -0.72028E-04 27192   0.137E-01    0.831E-02
DAV:   3    -0.240584735709E+02    0.10900E-04   -0.34069E-05 20616   0.242E-02    0.132E-02
DAV:   4    -0.240584732748E+02    0.29601E-06   -0.12223E-06 27792   0.607E-03    0.250E-03
DAV:   5    -0.240584732471E+02    0.27709E-07   -0.24997E-07 21960   0.232E-03
  32 F= -.24058473E+02 E0= -.24058342E+02  d E =-.262464E-03
 Finite differences progress:
  Degree of freedom:   8/  9
  Displacement:        3/  4
  Total:              31/ 36
 bond charge predicted
       N       E                     dE             d eps       ncg     rms          rms(c)
DAV:   1    -0.240573958005E+02    0.10775E-02   -0.14522E-01 16704   0.132E+00    0.892E-02
DAV:   2    -0.240575094422E+02   -0.11364E-03   -0.12452E-03 28536   0.180E-01    0.408E-02
DAV:   3    -0.240575072202E+02    0.22220E-05   -0.76722E-06 20952   0.122E-02    0.144E-02
DAV:   4    -0.240575070154E+02    0.20477E-06   -0.23542E-06 28560   0.651E-03    0.306E-03
DAV:   5    -0.240575069588E+02    0.56637E-07   -0.59814E-07 20112   0.309E-03
  33 F= -.24057507E+02 E0= -.24057383E+02  d E =-.248216E-03
 Finite differences progress:
  Degree of freedom:   8/  9
  Displacement:        4/  4
  Total:              32/ 36
 bond charge predicted
       N       E                     dE             d eps       ncg     rms          rms(c)
DAV:   1    -0.240557677788E+02    0.17392E-02   -0.23673E+00 16464   0.543E+00    0.443E-01
DAV:   2    -0.240576877895E+02   -0.19200E-02   -0.22059E-02 26520   0.771E-01    0.296E-01
DAV:   3    -0.240573517098E+02    0.33608E-03   -0.74874E-04 22440   0.107E-01    0.154E-01
DAV:   4    -0.240573061229E+02    0.45587E-04   -0.37859E-04 24024   0.756E-02    0.214E-02
DAV:   5    -0.240572955934E+02    0.10530E-04   -0.40641E-05 23664   0.247E-02    0.120E-02
DAV:   6    -0.240572914132E+02    0.41802E-05   -0.18714E-05 22296   0.154E-02    0.330E-03
DAV:   7    -0.240572913658E+02    0.47445E-07   -0.50512E-07 26640   0.353E-03
  34 F= -.24057291E+02 E0= -.24057173E+02  d E =-.235888E-03
 Finite differences progress:
  Degree of freedom:   9/  9
  Displacement:        1/  4
  Total:              33/ 36
 bond charge predicted
       N       E                     dE             d eps       ncg     rms          rms(c)
DAV:   1    -0.240566337107E+02    0.65770E-03   -0.24072E+00 16464   0.517E+00    0.219E-01
DAV:   2    -0.240584341415E+02   -0.18004E-02   -0.19973E-02 25032   0.670E-01    0.118E-01
DAV:   3    -0.240584211618E+02    0.12980E-04   -0.16766E-04 24000   0.519E-02    0.410E-02
DAV:   4    -0.240584197426E+02    0.14192E-05   -0.70558E-06 25224   0.120E-02    0.550E-03
DAV:   5    -0.240584197607E+02   -0.18127E-07   -0.59389E-07 22920   0.360E-03
  35 F= -.24058420E+02 E0= -.24058291E+02  d E =-.257932E-03
 Finite differences progress:
  Degree of freedom:   9/  9
  Displacement:        2/  4
  Total:              34/ 36
 bond charge predicted
       N       E                     dE             d eps       ncg     rms          rms(c)
DAV:   1    -0.240579161627E+02    0.50358E-03   -0.13168E+00 16464   0.377E+00    0.376E-01
DAV:   2    -0.240586331727E+02   -0.71701E-03   -0.10138E-02 24144   0.504E-01    0.249E-01
DAV:   3    -0.240584285587E+02    0.20461E-03   -0.80525E-04 22320   0.113E-01    0.440E-02
DAV:   4    -0.240584245975E+02    0.39612E-05   -0.32463E-05 26232   0.242E-02    0.131E-02
DAV:   5    -0.240584205165E+02    0.40810E-05   -0.15984E-05 21384   0.149E-02    0.672E-03
DAV:   6    -0.240584197530E+02    0.76349E-06   -0.43658E-06 22992   0.813E-03    0.223E-03
DAV:   7    -0.240584197579E+02   -0.48933E-08   -0.11316E-07 22560   0.188E-03
  36 F= -.24058420E+02 E0= -.24058291E+02  d E =-.257964E-03
 Finite differences progress:
  Degree of freedom:   9/  9
  Displacement:        3/  4
  Total:              35/ 36
 bond charge predicted
       N       E                     dE             d eps       ncg     rms          rms(c)
DAV:   1    -0.240554906222E+02    0.29291E-02   -0.24074E+00 16464   0.515E+00    0.169E-01
DAV:   2    -0.240574045740E+02   -0.19140E-02   -0.19683E-02 24144   0.674E-01    0.144E-01
DAV:   3    -0.240573533462E+02    0.51228E-04   -0.15456E-04 24432   0.498E-02    0.114E-01
DAV:   4    -0.240572958173E+02    0.57529E-04   -0.33190E-04 21816   0.660E-02    0.153E-02
DAV:   5    -0.240572936510E+02    0.21663E-05   -0.14203E-05 26016   0.153E-02    0.959E-03
DAV:   6    -0.240572916652E+02    0.19858E-05   -0.58710E-06 21552   0.871E-03    0.403E-03
DAV:   7    -0.240572913733E+02    0.29194E-06   -0.15378E-06 20880   0.452E-03    0.899E-04
DAV:   8    -0.240572913719E+02    0.13506E-08   -0.36696E-08 18192   0.903E-04
  37 F= -.24057291E+02 E0= -.24057173E+02  d E =-.235886E-03
 Finite differences progress:
  Degree of freedom:   9/  9
  Displacement:        4/  4
  Total:              36/ 36
