<?xml version="1.0" encoding="ISO-8859-1"?>
<modeling>
 <generator>
  <i name="program" type="string">vasp </i>
  <i name="version" type="string">6.0.8  </i>
  <i name="subversion" type="string">29Jun18 (build Jun 13 2019 12:54:44) complex                          parallel </i>
  <i name="platform" type="string">IFC18_CrayMPICH </i>
  <i name="date" type="string">2021 11 12 </i>
  <i name="time" type="string">22:45:05 </i>
 </generator>
 <incar>
  <i type="int" name="KPAR">     8</i>
  <i type="int" name="ISTART">     0</i>
  <i type="string" name="PREC"> ACC</i>
  <i type="string" name="ALGO"> Normal</i>
  <i type="logical" name="ADDGRID"> T  </i>
  <i type="int" name="ISPIN">     1</i>
  <i type="int" name="NELMIN">     5</i>
  <i type="int" name="IBRION">     6</i>
  <i type="int" name="NFREE">     4</i>
  <i name="EDIFF">      0.00000010</i>
  <i name="EDIFFG">     -0.01000000</i>
  <i type="int" name="NSW">    60</i>
  <i type="int" name="ISIF">     3</i>
  <i name="SYMPREC">      0.00000001</i>
  <i name="ENCUT">    700.00000000</i>
  <i name="POTIM">      0.01000000</i>
  <i type="logical" name="LREAL"> F  </i>
  <i type="int" name="ISMEAR">     0</i>
  <i name="SIGMA">      0.01000000</i>
  <i type="logical" name="LWAVE"> F  </i>
  <i type="logical" name="LCHARG"> F  </i>
  <i type="logical" name="LVTOT"> F  </i>
  <i type="string" name="ALGO"> Normal</i>
  <i type="string" name="GGA"> PS</i>
  <i name="EDIFF">      0.00000010</i>
  <i type="int" name="ISPIN">     1</i>
 </incar>
 <structure name="primitive_cell" >
  <crystal>
   <varray name="basis" >
    <v>       0.00000000       3.17828400       3.17828400 </v>
    <v>       3.17828400       0.00000000       3.17828400 </v>
    <v>       3.17828400       3.17828400       0.00000000 </v>
   </varray>
   <i name="volume">     64.21080290 </i>
   <varray name="rec_basis" >
    <v>      -0.15731760       0.15731760       0.15731760 </v>
    <v>       0.15731760      -0.15731760       0.15731760 </v>
    <v>       0.15731760       0.15731760      -0.15731760 </v>
   </varray>
  </crystal>
  <varray name="positions" >
   <v>       0.75000000       0.75000000       0.75000000 </v>
   <v>       0.25000000       0.25000000       0.25000000 </v>
   <v>       0.00000000       0.00000000       0.00000000 </v>
  </varray>
 </structure>
 <varray name="primitive_index" >
  <v type="int" >        1 </v>
  <v type="int" >        2 </v>
  <v type="int" >        3 </v>
 </varray>
 <kpoints>
  <generation param="Gamma">
   <v type="int" name="divisions">      13       13       13 </v>
   <v name="usershift">      0.00000000       0.00000000       0.00000000 </v>
   <v name="genvec1">      0.07692308       0.00000000      -0.00000000 </v>
   <v name="genvec2">      0.00000000       0.07692308       0.00000000 </v>
   <v name="genvec3">     -0.00000000      -0.00000000       0.07692308 </v>
   <v name="shift">      0.00000000       0.00000000       0.00000000 </v>
  </generation>
  <varray name="kpointlist" >
   <v>       0.00000000       0.00000000       0.00000000 </v>
   <v>       0.07692308       0.00000000      -0.00000000 </v>
   <v>       0.15384615       0.00000000      -0.00000000 </v>
   <v>       0.23076923      -0.00000000       0.00000000 </v>
   <v>       0.30769231       0.00000000      -0.00000000 </v>
   <v>       0.38461538       0.00000000       0.00000000 </v>
   <v>       0.46153846       0.00000000      -0.00000000 </v>
   <v>       0.07692308       0.07692308      -0.00000000 </v>
   <v>       0.15384615       0.07692308       0.00000000 </v>
   <v>       0.23076923       0.07692308      -0.00000000 </v>
   <v>       0.30769231       0.07692308       0.00000000 </v>
   <v>       0.38461538       0.07692308      -0.00000000 </v>
   <v>       0.46153846       0.07692308      -0.00000000 </v>
   <v>      -0.46153846       0.07692308       0.00000000 </v>
   <v>      -0.38461538       0.07692308      -0.00000000 </v>
   <v>      -0.30769231       0.07692308      -0.00000000 </v>
   <v>      -0.23076923       0.07692308      -0.00000000 </v>
   <v>      -0.15384615       0.07692308      -0.00000000 </v>
   <v>      -0.07692308       0.07692308       0.00000000 </v>
   <v>       0.15384615       0.15384615      -0.00000000 </v>
   <v>       0.23076923       0.15384615       0.00000000 </v>
   <v>       0.30769231       0.15384615      -0.00000000 </v>
   <v>       0.38461538       0.15384615      -0.00000000 </v>
   <v>       0.46153846       0.15384615      -0.00000000 </v>
   <v>      -0.46153846       0.15384615       0.00000000 </v>
   <v>      -0.38461538       0.15384615       0.00000000 </v>
   <v>      -0.30769231       0.15384615       0.00000000 </v>
   <v>      -0.23076923       0.15384615      -0.00000000 </v>
   <v>      -0.15384615       0.15384615       0.00000000 </v>
   <v>       0.23076923       0.23076923      -0.00000000 </v>
   <v>       0.30769231       0.23076923      -0.00000000 </v>
   <v>       0.38461538       0.23076923       0.00000000 </v>
   <v>       0.46153846       0.23076923      -0.00000000 </v>
   <v>      -0.46153846       0.23076923      -0.00000000 </v>
   <v>      -0.38461538       0.23076923       0.00000000 </v>
   <v>      -0.30769231       0.23076923       0.00000000 </v>
   <v>      -0.23076923       0.23076923      -0.00000000 </v>
   <v>       0.30769231       0.30769231      -0.00000000 </v>
   <v>       0.38461538       0.30769231      -0.00000000 </v>
   <v>       0.46153846       0.30769231       0.00000000 </v>
   <v>      -0.46153846       0.30769231       0.00000000 </v>
   <v>      -0.38461538       0.30769231      -0.00000000 </v>
   <v>      -0.30769231       0.30769231       0.00000000 </v>
   <v>       0.38461538       0.38461538      -0.00000000 </v>
   <v>       0.46153846       0.38461538      -0.00000000 </v>
   <v>      -0.46153846       0.38461538       0.00000000 </v>
   <v>      -0.38461538       0.38461538      -0.00000000 </v>
   <v>       0.46153846       0.46153846      -0.00000000 </v>
   <v>      -0.46153846       0.46153846       0.00000000 </v>
   <v>       0.23076923       0.15384615       0.07692308 </v>
   <v>       0.30769231       0.15384615       0.07692308 </v>
   <v>       0.38461538       0.15384615       0.07692308 </v>
   <v>       0.46153846       0.15384615       0.07692308 </v>
   <v>      -0.46153846       0.15384615       0.07692308 </v>
   <v>       0.30769231       0.23076923       0.07692308 </v>
   <v>       0.38461538       0.23076923       0.07692308 </v>
   <v>       0.46153846       0.23076923       0.07692308 </v>
   <v>      -0.46153846       0.23076923       0.07692308 </v>
   <v>      -0.38461538       0.23076923       0.07692308 </v>
   <v>      -0.30769231       0.23076923       0.07692308 </v>
   <v>      -0.23076923       0.23076923       0.07692308 </v>
   <v>      -0.15384615       0.23076923       0.07692308 </v>
   <v>       0.38461538       0.30769231       0.07692308 </v>
   <v>       0.46153846       0.30769231       0.07692308 </v>
   <v>      -0.46153846       0.30769231       0.07692308 </v>
   <v>      -0.38461538       0.30769231       0.07692308 </v>
   <v>      -0.30769231       0.30769231       0.07692308 </v>
   <v>      -0.23076923       0.30769231       0.07692308 </v>
   <v>       0.46153846       0.38461538       0.07692308 </v>
   <v>      -0.46153846       0.38461538       0.07692308 </v>
   <v>      -0.38461538       0.38461538       0.07692308 </v>
   <v>      -0.30769231       0.38461538       0.07692308 </v>
   <v>      -0.46153846       0.46153846       0.07692308 </v>
   <v>      -0.38461538       0.46153846       0.07692308 </v>
   <v>       0.46153846       0.30769231       0.15384615 </v>
   <v>      -0.46153846       0.30769231       0.15384615 </v>
   <v>      -0.38461538       0.30769231       0.15384615 </v>
   <v>      -0.46153846       0.38461538       0.15384615 </v>
   <v>      -0.38461538       0.38461538       0.15384615 </v>
   <v>      -0.30769231       0.38461538       0.15384615 </v>
   <v>      -0.23076923       0.38461538       0.15384615 </v>
   <v>      -0.38461538       0.46153846       0.15384615 </v>
   <v>      -0.30769231       0.46153846       0.15384615 </v>
   <v>      -0.30769231       0.46153846       0.23076923 </v>
  </varray>
  <varray name="weights" >
   <v>       0.00045517 </v>
   <v>       0.00364133 </v>
   <v>       0.00364133 </v>
   <v>       0.00364133 </v>
   <v>       0.00364133 </v>
   <v>       0.00364133 </v>
   <v>       0.00364133 </v>
   <v>       0.00273100 </v>
   <v>       0.01092399 </v>
   <v>       0.01092399 </v>
   <v>       0.01092399 </v>
   <v>       0.01092399 </v>
   <v>       0.01092399 </v>
   <v>       0.01092399 </v>
   <v>       0.01092399 </v>
   <v>       0.01092399 </v>
   <v>       0.01092399 </v>
   <v>       0.01092399 </v>
   <v>       0.00546199 </v>
   <v>       0.00273100 </v>
   <v>       0.01092399 </v>
   <v>       0.01092399 </v>
   <v>       0.01092399 </v>
   <v>       0.01092399 </v>
   <v>       0.01092399 </v>
   <v>       0.01092399 </v>
   <v>       0.01092399 </v>
   <v>       0.01092399 </v>
   <v>       0.00546199 </v>
   <v>       0.00273100 </v>
   <v>       0.01092399 </v>
   <v>       0.01092399 </v>
   <v>       0.01092399 </v>
   <v>       0.01092399 </v>
   <v>       0.01092399 </v>
   <v>       0.01092399 </v>
   <v>       0.00546199 </v>
   <v>       0.00273100 </v>
   <v>       0.01092399 </v>
   <v>       0.01092399 </v>
   <v>       0.01092399 </v>
   <v>       0.01092399 </v>
   <v>       0.00546199 </v>
   <v>       0.00273100 </v>
   <v>       0.01092399 </v>
   <v>       0.01092399 </v>
   <v>       0.00546199 </v>
   <v>       0.00273100 </v>
   <v>       0.00546199 </v>
   <v>       0.01092399 </v>
   <v>       0.02184797 </v>
   <v>       0.02184797 </v>
   <v>       0.02184797 </v>
   <v>       0.02184797 </v>
   <v>       0.01092399 </v>
   <v>       0.02184797 </v>
   <v>       0.02184797 </v>
   <v>       0.02184797 </v>
   <v>       0.02184797 </v>
   <v>       0.02184797 </v>
   <v>       0.02184797 </v>
   <v>       0.01092399 </v>
   <v>       0.01092399 </v>
   <v>       0.02184797 </v>
   <v>       0.02184797 </v>
   <v>       0.02184797 </v>
   <v>       0.02184797 </v>
   <v>       0.01092399 </v>
   <v>       0.01092399 </v>
   <v>       0.02184797 </v>
   <v>       0.02184797 </v>
   <v>       0.01092399 </v>
   <v>       0.01092399 </v>
   <v>       0.01092399 </v>
   <v>       0.01092399 </v>
   <v>       0.02184797 </v>
   <v>       0.02184797 </v>
   <v>       0.01092399 </v>
   <v>       0.02184797 </v>
   <v>       0.02184797 </v>
   <v>       0.01092399 </v>
   <v>       0.01092399 </v>
   <v>       0.01092399 </v>
   <v>       0.01092399 </v>
  </varray>
 </kpoints>
 <parameters>
  <separator name="general" >
   <i type="string" name="SYSTEM">unknown system</i>
   <i type="logical" name="LCOMPAT"> F  </i>
  </separator>
  <separator name="electronic" >
   <i type="string" name="PREC">acc</i>
   <i name="ENMAX">    700.00000000</i>
   <i name="ENAUG">    380.87800000</i>
   <i name="EDIFF">      0.00000010</i>
   <i type="int" name="IALGO">    38</i>
   <i type="int" name="IWAVPR">    11</i>
   <i type="int" name="NBANDS">    24</i>
   <i type="int" name="NBANDSLOW">    -1</i>
   <i type="int" name="NBANDSHIGH">    -1</i>
   <i name="NELECT">     25.00000000</i>
   <i type="int" name="TURBO">     0</i>
   <i type="int" name="IRESTART">     0</i>
   <i type="int" name="NREBOOT">     0</i>
   <i type="int" name="NMIN">     0</i>
   <i name="EREF">      0.00000000</i>
   <separator name="electronic smearing" >
    <i type="int" name="ISMEAR">     0</i>
    <i name="SIGMA">      0.01000000</i>
    <i name="KSPACING">      0.50000000</i>
    <i type="logical" name="KGAMMA"> T  </i>
    <i type="logical" name="KBLOWUP"> T  </i>
   </separator>
   <separator name="electronic projectors" >
    <i type="logical" name="LREAL"> F  </i>
    <v name="ROPT">      0.00000000      0.00000000      0.00000000</v>
    <i type="int" name="LMAXPAW">  -100</i>
    <i type="int" name="LMAXMIX">     2</i>
    <i type="logical" name="NLSPLINE"> F  </i>
   </separator>
   <separator name="electronic startup" >
    <i type="int" name="ISTART">     0</i>
    <i type="int" name="ICHARG">     2</i>
    <i type="int" name="INIWAV">     1</i>
   </separator>
   <separator name="electronic spin" >
    <i type="int" name="ISPIN">     1</i>
    <i type="logical" name="LNONCOLLINEAR"> F  </i>
    <v name="MAGMOM">      1.00000000      1.00000000      1.00000000</v>
    <i name="NUPDOWN">     -1.00000000</i>
    <i type="logical" name="LSORBIT"> F  </i>
    <v name="SAXIS">      0.00000000      0.00000000      1.00000000</v>
    <i type="logical" name="LSPIRAL"> F  </i>
    <v name="QSPIRAL">      0.00000000      0.00000000      0.00000000</v>
    <i type="logical" name="LZEROZ"> F  </i>
   </separator>
   <separator name="electronic exchange-correlation" >
    <i type="logical" name="LASPH"> F  </i>
    <i type="logical" name="LMETAGGA"> F  </i>
   </separator>
   <separator name="electronic convergence" >
    <i type="int" name="NELM">    60</i>
    <i type="int" name="NELMDL">    -5</i>
    <i type="int" name="NELMIN">     5</i>
    <i name="ENINI">    700.00000000</i>
    <separator name="electronic convergence detail" >
     <i type="logical" name="LDIAG"> T  </i>
     <i type="logical" name="LSUBROT"> F  </i>
     <i name="WEIMIN">      0.00100000</i>
     <i name="EBREAK">      0.00000000</i>
     <i name="DEPER">      0.30000000</i>
     <i type="int" name="NRMM">     4</i>
     <i name="TIME">      0.40000000</i>
    </separator>
   </separator>
   <separator name="electronic mixer" >
    <i name="AMIX">      0.40000000</i>
    <i name="BMIX">      1.00000000</i>
    <i name="AMIN">      0.10000000</i>
    <i name="AMIX_MAG">      1.60000000</i>
    <i name="BMIX_MAG">      1.00000000</i>
    <separator name="electronic mixer details" >
     <i type="int" name="IMIX">     4</i>
     <i type="logical" name="MIXFIRST"> F  </i>
     <i type="int" name="MAXMIX">   -45</i>
     <i name="WC">    100.00000000</i>
     <i type="int" name="INIMIX">     1</i>
     <i type="int" name="MIXPRE">     1</i>
     <i type="int" name="MREMOVE">     5</i>
    </separator>
   </separator>
   <separator name="electronic dipolcorrection" >
    <i type="logical" name="LDIPOL"> F  </i>
    <i type="logical" name="LMONO"> F  </i>
    <i type="int" name="IDIPOL">     0</i>
    <i name="EPSILON">      1.00000000</i>
    <v name="DIPOL">   -100.00000000   -100.00000000   -100.00000000</v>
    <i name="EFIELD">      0.00000000</i>
   </separator>
  </separator>
  <separator name="grids" >
   <i type="int" name="NGX">    40</i>
   <i type="int" name="NGY">    40</i>
   <i type="int" name="NGZ">    40</i>
   <i type="int" name="NGXF">    80</i>
   <i type="int" name="NGYF">    80</i>
   <i type="int" name="NGZF">    80</i>
   <i type="logical" name="ADDGRID"> T  </i>
  </separator>
  <separator name="ionic" >
   <i type="int" name="NSW">    73</i>
   <i type="int" name="IBRION">     6</i>
   <i type="int" name="MDALGO">     0</i>
   <i type="int" name="ISIF">     3</i>
   <i name="PSTRESS">      0.00000000</i>
   <i name="EDIFFG">     -0.01000000</i>
   <i type="int" name="NFREE">     4</i>
   <i name="POTIM">      0.01000000</i>
   <i name="SMASS">     -3.00000000</i>
   <i name="SCALEE">      1.00000000</i>
  </separator>
  <separator name="ionic md" >
   <i name="TEBEG">      0.00010000</i>
   <i name="TEEND">      0.00010000</i>
   <i type="int" name="NBLOCK">     1</i>
   <i type="int" name="KBLOCK">    73</i>
   <i type="int" name="NPACO">   256</i>
   <i name="APACO">     16.00000000</i>
  </separator>
  <separator name="symmetry" >
   <i type="int" name="ISYM">     2</i>
   <i name="SYMPREC">      0.00000001</i>
  </separator>
  <separator name="dos" >
   <i type="int" name="LORBIT">     0</i>
   <v name="RWIGS">     -1.00000000     -1.00000000     -1.00000000</v>
   <i type="int" name="NEDOS">   301</i>
   <i name="EMIN">     10.00000000</i>
   <i name="EMAX">    -10.00000000</i>
   <i name="EFERMI">      0.00000000</i>
  </separator>
  <separator name="writing" >
   <i type="int" name="NWRITE">     2</i>
   <i type="logical" name="LWAVE"> F  </i>
   <i type="logical" name="LDOWNSAMPLE"> F  </i>
   <i type="logical" name="LCHARG"> F  </i>
   <i type="logical" name="LPARD"> F  </i>
   <i type="logical" name="LVTOT"> F  </i>
   <i type="logical" name="LVHAR"> F  </i>
   <i type="logical" name="LELF"> F  </i>
   <i type="logical" name="LOPTICS"> F  </i>
   <v name="STM">      0.00000000      0.00000000      0.00000000      0.00000000      0.00000000      0.00000000      0.00000000</v>
  </separator>
  <separator name="performance" >
   <i type="int" name="NPAR">    24</i>
   <i type="int" name="NSIM">     4</i>
   <i type="int" name="NBLK">    -1</i>
   <i type="logical" name="LPLANE"> T  </i>
   <i type="logical" name="LSCALAPACK"> T  </i>
   <i type="logical" name="LSCAAWARE"> F  </i>
   <i type="logical" name="LSCALU"> F  </i>
   <i type="logical" name="LASYNC"> F  </i>
   <i type="logical" name="LORBITALREAL"> F  </i>
  </separator>
  <separator name="miscellaneous" >
   <i type="int" name="IDIOT">     3</i>
   <i type="int" name="PHON_NSTRUCT">    -1</i>
   <i type="logical" name="LMUSIC"> F  </i>
   <v name="POMASS">    178.49000000    121.75000000    195.08000000</v>
   <v name="DARWINR">      0.00000000      0.00000000      0.00000000</v>
   <v name="DARWINV">      1.00000000      1.00000000      1.00000000</v>
   <i type="logical" name="LCORR"> T  </i>
  </separator>
  <i type="logical" name="GGA_COMPAT"> T  </i>
  <i type="logical" name="LBERRY"> F  </i>
  <i type="int" name="ICORELEVEL">     0</i>
  <i type="logical" name="LDAU"> F  </i>
  <i type="int" name="I_CONSTRAINED_M">     0</i>
  <separator name="electronic exchange-correlation" >
   <i type="string" name="GGA">PS</i>
   <i type="int" name="VOSKOWN">     0</i>
   <i type="logical" name="LHFCALC"> F  </i>
   <i type="string" name="PRECFOCK"></i>
   <i type="logical" name="LSYMGRAD"> F  </i>
   <i type="logical" name="LHFONE"> F  </i>
   <i type="logical" name="LRHFCALC"> F  </i>
   <i type="logical" name="LTHOMAS"> F  </i>
   <i type="logical" name="LMODELHF"> F  </i>
   <i type="logical" name="LFOCKACE"> F  </i>
   <i name="ENCUT4O">     -1.00000000</i>
   <i type="int" name="EXXOEP">     0</i>
   <i type="int" name="FOURORBIT">     0</i>
   <i name="AEXX">      0.00000000</i>
   <i name="HFALPHA">      0.00000000</i>
   <i name="MCALPHA">      0.00000000</i>
   <i name="ALDAX">      1.00000000</i>
   <i name="AGGAX">      1.00000000</i>
   <i name="ALDAC">      1.00000000</i>
   <i name="AGGAC">      1.00000000</i>
   <i type="int" name="NKREDX">     1</i>
   <i type="int" name="NKREDY">     1</i>
   <i type="int" name="NKREDZ">     1</i>
   <i type="logical" name="SHIFTRED"> F  </i>
   <i type="logical" name="ODDONLY"> F  </i>
   <i type="logical" name="EVENONLY"> F  </i>
   <i type="int" name="LMAXFOCK">     0</i>
   <i type="int" name="NMAXFOCKAE">     0</i>
   <i type="logical" name="LFOCKAEDFT"> F  </i>
   <i name="HFSCREEN">      0.00000000</i>
   <i name="HFSCREENC">      0.00000000</i>
   <i type="int" name="NBANDSGWLOW">     0</i>
  </separator>
  <separator name="vdW DFT" >
   <i type="logical" name="LUSE_VDW"> F  </i>
   <i name="Zab_VDW">     -0.84910000</i>
   <i name="PARAM1">      0.12340000</i>
   <i name="PARAM2">      1.00000000</i>
   <i name="PARAM3">      0.00000000</i>
  </separator>
  <separator name="model GW" >
   <i type="int" name="MODEL_GW">     0</i>
   <i name="MODEL_EPS0">     12.84216058</i>
   <i name="MODEL_ALPHA">      1.00000000</i>
  </separator>
  <separator name="linear response parameters" >
   <i type="logical" name="LEPSILON"> F  </i>
   <i type="logical" name="LRPA"> F  </i>
   <i type="logical" name="LNABLA"> F  </i>
   <i type="logical" name="LVEL"> F  </i>
   <i type="int" name="KINTER">     0</i>
   <i name="CSHIFT">      0.10000000</i>
   <i name="OMEGAMAX">     -1.00000000</i>
   <i name="DEG_THRESHOLD">      0.00200000</i>
   <i name="RTIME">     -0.10000000</i>
   <i name="WPLASMAI">      0.00000000</i>
   <v name="DFIELD">      0.00000000      0.00000000      0.00000000</v>
   <v name="WPLASMA">      0.00000000      0.00000000      0.00000000      0.00000000      0.00000000      0.00000000      0.00000000      0.00000000      0.00000000</v>
  </separator>
  <separator name="orbital magnetization" >
   <i type="logical" name="NUCIND"> F  </i>
   <v name="MAGPOS">      0.00000000      0.00000000      0.00000000</v>
   <i type="logical" name="LNICSALL"> T  </i>
   <i type="logical" name="ORBITALMAG"> F  </i>
   <i type="logical" name="LMAGBLOCH"> F  </i>
   <i type="logical" name="LCHIMAG"> F  </i>
   <i type="logical" name="LGAUGE"> T  </i>
   <i type="int" name="MAGATOM">     0</i>
   <v name="MAGDIPOL">      0.00000000      0.00000000      0.00000000</v>
   <v name="AVECCONST">      0.00000000      0.00000000      0.00000000</v>
  </separator>
  <separator name="response functions" >
   <i type="logical" name="LFINITE_TEMPERATURE"> F  </i>
   <i type="logical" name="LADDER"> F  </i>
   <i type="logical" name="LRPAFORCE"> F  </i>
   <i type="logical" name="LFXC"> F  </i>
   <i type="logical" name="LHARTREE"> T  </i>
   <i type="int" name="IBSE">     0</i>
   <v type="int" name="KPOINT">    -1     0     0     0</v>
   <i type="logical" name="LTCTC"> F  </i>
   <i type="logical" name="LTCTE"> F  </i>
   <i type="logical" name="LTETE"> F  </i>
   <i type="logical" name="LTRIPLET"> F  </i>
   <i type="logical" name="LFXCEPS"> F  </i>
   <i type="logical" name="LFXHEG"> F  </i>
   <i type="int" name="NATURALO">     2</i>
   <i type="logical" name="L2ORDER"> F  </i>
   <i type="logical" name="LDMP1"> F  </i>
   <i type="logical" name="LMP2LT"> F  </i>
   <i type="logical" name="LSMP2LT"> F  </i>
   <i type="logical" name="LUSEW"> F  </i>
   <i name="ENCUTGW">     -2.00000000</i>
   <i name="ENCUTGWSOFT">     -2.00000000</i>
   <i name="ENCUTLF">     -1.00000000</i>
   <i type="int" name="LMAXMP2">    -1</i>
   <i name="SCISSOR">      0.00000000</i>
   <i type="int" name="NOMEGA">     0</i>
   <i type="int" name="NOMEGAR">     0</i>
   <i type="int" name="NBANDSGW">    -1</i>
   <i type="int" name="NBANDSO">    -1</i>
   <i type="int" name="NBANDSV">    -1</i>
   <i type="int" name="NELM">     1</i>
   <i type="int" name="NELMHF">     1</i>
   <i type="int" name="DIM">     3</i>
   <i type="int" name="IESPILON">     4</i>
   <i type="int" name="ANTIRES">     0</i>
   <i name="OMEGAMAX">    -30.00000000</i>
   <i name="OMEGAMIN">    -30.00000000</i>
   <i name="OMEGATL">   -200.00000000</i>
   <i type="int" name="OMEGAGRID">   145</i>
   <i name="CSHIFT">     -0.10000000</i>
   <i type="logical" name="LSELFENERGY"> F  </i>
   <i type="logical" name="LSPECTRAL"> F  </i>
   <i type="logical" name="LSPECTRALGW"> F  </i>
   <i type="logical" name="LSINGLES"> F  </i>
   <i type="logical" name="LFERMIGW"> F  </i>
   <i type="logical" name="ODDONLYGW"> F  </i>
   <i type="logical" name="EVENONLYGW"> F  </i>
   <i type="int" name="NKREDLFX">     1</i>
   <i type="int" name="NKREDLFY">     1</i>
   <i type="int" name="NKREDLFZ">     1</i>
   <i type="int" name="MAXMEM">  2800</i>
   <i type="int" name="TELESCOPE">     0</i>
   <i type="int" name="NTAUPAR">     1</i>
   <i type="int" name="NOMEGAPAR">    -1</i>
   <i name="LAMBDA">      1.00000000</i>
  </separator>
  <separator name="External order field" >
   <i name="OFIELD_KAPPA">      0.00000000</i>
   <v name="OFIELD_K">      0.00000000      0.00000000      0.00000000</v>
   <i name="OFIELD_Q6_NEAR">      0.00000000</i>
   <i name="OFIELD_Q6_FAR">      0.00000000</i>
   <i name="OFIELD_A">      0.00000000</i>
  </separator>
 </parameters>
 <atominfo>
  <atoms>       3 </atoms>
  <types>       3 </types>
  <array name="atoms" >
   <dimension dim="1">ion</dimension>
   <field type="string">element</field>
   <field type="int">atomtype</field>
   <set>
    <rc><c>Hf</c><c>   1</c></rc>
    <rc><c>Sb</c><c>   2</c></rc>
    <rc><c>Pt</c><c>   3</c></rc>
   </set>
  </array>
  <array name="atomtypes" >
   <dimension dim="1">type</dimension>
   <field type="int">atomspertype</field>
   <field type="string">element</field>
   <field>mass</field>
   <field>valence</field>
   <field type="string">pseudopotential</field>
   <set>
    <rc><c>   1</c><c>Hf</c><c>    178.49000000</c><c>     10.00000000</c><c>  PAW_PBE Hf_pv 06Sep2000               </c></rc>
    <rc><c>   1</c><c>Sb</c><c>    121.75000000</c><c>      5.00000000</c><c>  PAW_PBE Sb 06Sep2000                  </c></rc>
    <rc><c>   1</c><c>Pt</c><c>    195.08000000</c><c>     10.00000000</c><c>  PAW_PBE Pt 04Feb2005                  </c></rc>
   </set>
  </array>
 </atominfo>
 <structure name="initialpos" >
  <crystal>
   <varray name="basis" >
    <v>       0.00000000       3.17828400       3.17828400 </v>
    <v>       3.17828400       0.00000000       3.17828400 </v>
    <v>       3.17828400       3.17828400       0.00000000 </v>
   </varray>
   <i name="volume">     64.21080290 </i>
   <varray name="rec_basis" >
    <v>      -0.15731760       0.15731760       0.15731760 </v>
    <v>       0.15731760      -0.15731760       0.15731760 </v>
    <v>       0.15731760       0.15731760      -0.15731760 </v>
   </varray>
  </crystal>
  <varray name="positions" >
   <v>       0.75000000       0.75000000       0.75000000 </v>
   <v>       0.25000000       0.25000000       0.25000000 </v>
   <v>       0.00000000       0.00000000       0.00000000 </v>
  </varray>
 </structure>
 <calculation>
  <scstep>
   <time name="dav">    0.39    0.42</time>
   <time name="total">    0.51    0.58</time>
   <energy>
    <i name="alphaZ">    106.09980279 </i>
    <i name="ewald">  -1564.38492109 </i>
    <i name="hartreedc">   -323.83127478 </i>
    <i name="XCdc">    -18.98576271 </i>
    <i name="pawpsdc">   1514.36848356 </i>
    <i name="pawaedc">  -1421.27055995 </i>
    <i name="eentropy">     -0.00012342 </i>
    <i name="bandstr">     25.48854064 </i>
    <i name="atom">   1741.10451121 </i>
    <i name="e_fr_energy">     58.58869624 </i>
    <i name="e_wo_entrp">     58.58881966 </i>
    <i name="e_0_energy">     58.58875795 </i>
   </energy>
  </scstep>
  <scstep>
   <time name="dav">    0.56    0.58</time>
   <time name="total">    0.57    0.62</time>
   <energy>
    <i name="e_fr_energy">    -24.60329687 </i>
    <i name="e_wo_entrp">    -24.60314567 </i>
    <i name="e_0_energy">    -24.60322127 </i>
   </energy>
  </scstep>
  <scstep>
   <time name="dav">    0.39    0.46</time>
   <time name="total">    0.39    0.47</time>
   <energy>
    <i name="e_fr_energy">    -24.99473113 </i>
    <i name="e_wo_entrp">    -24.99457960 </i>
    <i name="e_0_energy">    -24.99465537 </i>
   </energy>
  </scstep>
  <scstep>
   <time name="dav">    0.82    0.84</time>
   <time name="total">    0.82    0.84</time>
   <energy>
    <i name="e_fr_energy">    -24.99658303 </i>
    <i name="e_wo_entrp">    -24.99643129 </i>
    <i name="e_0_energy">    -24.99650716 </i>
   </energy>
  </scstep>
  <scstep>
   <time name="dav">    0.37    0.40</time>
   <time name="total">    0.54    0.59</time>
   <energy>
    <i name="e_fr_energy">    -24.99658320 </i>
    <i name="e_wo_entrp">    -24.99643146 </i>
    <i name="e_0_energy">    -24.99650733 </i>
   </energy>
  </scstep>
  <scstep>
   <time name="dav">    0.48    0.48</time>
   <time name="total">    0.70    0.71</time>
   <energy>
    <i name="e_fr_energy">    -24.23381439 </i>
    <i name="e_wo_entrp">    -24.23361321 </i>
    <i name="e_0_energy">    -24.23371380 </i>
   </energy>
  </scstep>
  <scstep>
   <time name="dav">    0.58    0.58</time>
   <time name="total">    0.77    0.79</time>
   <energy>
    <i name="e_fr_energy">    -24.09286875 </i>
    <i name="e_wo_entrp">    -24.09253435 </i>
    <i name="e_0_energy">    -24.09270155 </i>
   </energy>
  </scstep>
  <scstep>
   <time name="dav">    0.45    0.45</time>
   <time name="total">    0.65    0.66</time>
   <energy>
    <i name="e_fr_energy">    -24.07050221 </i>
    <i name="e_wo_entrp">    -24.07028467 </i>
    <i name="e_0_energy">    -24.07039344 </i>
   </energy>
  </scstep>
  <scstep>
   <time name="dav">    0.63    0.63</time>
   <time name="total">    0.82    0.89</time>
   <energy>
    <i name="e_fr_energy">    -24.05913149 </i>
    <i name="e_wo_entrp">    -24.05889028 </i>
    <i name="e_0_energy">    -24.05901088 </i>
   </energy>
  </scstep>
  <scstep>
   <time name="dav">    0.49    0.49</time>
   <time name="total">    0.68    0.72</time>
   <energy>
    <i name="e_fr_energy">    -24.05882964 </i>
    <i name="e_wo_entrp">    -24.05855195 </i>
    <i name="e_0_energy">    -24.05869080 </i>
   </energy>
  </scstep>
  <scstep>
   <time name="dav">    0.65    0.65</time>
   <time name="total">    0.86    0.91</time>
   <energy>
    <i name="e_fr_energy">    -24.05879532 </i>
    <i name="e_wo_entrp">    -24.05852835 </i>
    <i name="e_0_energy">    -24.05866183 </i>
   </energy>
  </scstep>
  <scstep>
   <time name="dav">    0.58    0.58</time>
   <time name="total">    0.78    0.81</time>
   <energy>
    <i name="e_fr_energy">    -24.05879513 </i>
    <i name="e_wo_entrp">    -24.05852715 </i>
    <i name="e_0_energy">    -24.05866114 </i>
   </energy>
  </scstep>
  <scstep>
   <time name="dav">    0.66    0.66</time>
   <time name="total">    0.87    0.90</time>
   <energy>
    <i name="e_fr_energy">    -24.05879438 </i>
    <i name="e_wo_entrp">    -24.05852582 </i>
    <i name="e_0_energy">    -24.05866010 </i>
   </energy>
  </scstep>
  <scstep>
   <time name="dav">    0.55    0.55</time>
   <time name="total">    0.74    0.76</time>
   <energy>
    <i name="e_fr_energy">    -24.05879449 </i>
    <i name="e_wo_entrp">    -24.05852595 </i>
    <i name="e_0_energy">    -24.05866022 </i>
   </energy>
  </scstep>
  <scstep>
   <time name="dav">    0.57    0.57</time>
   <time name="total">    0.66    0.68</time>
   <energy>
    <i name="alphaZ">    106.09980279 </i>
    <i name="ewald">  -1564.38492109 </i>
    <i name="hartreedc">   -302.63518742 </i>
    <i name="XCdc">    -19.60804067 </i>
    <i name="pawpsdc">   2630.76080619 </i>
    <i name="pawaedc">  -2543.07084345 </i>
    <i name="eentropy">     -0.00026851 </i>
    <i name="bandstr">    -72.32465354 </i>
    <i name="atom">   1741.10451121 </i>
    <i name="e_fr_energy">    -24.05879449 </i>
    <i name="e_wo_entrp">    -24.05852598 </i>
    <i name="e_0_energy">    -24.05866024 </i>
   </energy>
  </scstep>
  <structure>
   <crystal>
    <varray name="basis" >
     <v>       0.00000000       3.17828400       3.17828400 </v>
     <v>       3.17828400       0.00000000       3.17828400 </v>
     <v>       3.17828400       3.17828400       0.00000000 </v>
    </varray>
    <i name="volume">     64.21080290 </i>
    <varray name="rec_basis" >
     <v>      -0.15731760       0.15731760       0.15731760 </v>
     <v>       0.15731760      -0.15731760       0.15731760 </v>
     <v>       0.15731760       0.15731760      -0.15731760 </v>
    </varray>
   </crystal>
   <varray name="positions" >
    <v>       0.75000000       0.75000000       0.75000000 </v>
    <v>       0.25000000       0.25000000       0.25000000 </v>
    <v>       0.00000000       0.00000000       0.00000000 </v>
   </varray>
  </structure>
  <varray name="forces" >
   <v>      -0.00000000      -0.00000000      -0.00000000 </v>
   <v>       0.00000000       0.00000000       0.00000000 </v>
   <v>       0.00000000       0.00000000       0.00000000 </v>
  </varray>
  <varray name="stress" >
   <v>       0.54311054      -0.00000000       0.00000000 </v>
   <v>       0.00000000       0.54311054       0.00000000 </v>
   <v>       0.00000000      -0.00000000       0.54311054 </v>
  </varray>
  <energy>
   <i name="e_fr_energy">    -24.05879449 </i>
   <i name="e_wo_entrp">    -24.05866024 </i>
   <i name="e_0_energy">     -0.00026851 </i>
  </energy>
  <kpoints>
   <generation param="Gamma">
    <v type="int" name="divisions">      13       13       13 </v>
    <v name="usershift">      0.00000000       0.00000000       0.00000000 </v>
    <v name="genvec1">      0.07692308       0.00000000       0.00000000 </v>
    <v name="genvec2">     -0.00000000       0.07692308      -0.00000000 </v>
    <v name="genvec3">      0.00000000      -0.00000000       0.07692308 </v>
    <v name="shift">      0.00000000       0.00000000       0.00000000 </v>
   </generation>
   <varray name="kpointlist" >
    <v>       0.00000000       0.00000000       0.00000000 </v>
    <v>       0.07692308      -0.00000000       0.00000000 </v>
    <v>       0.15384615      -0.00000000      -0.00000000 </v>
    <v>       0.23076923       0.00000000       0.00000000 </v>
    <v>       0.30769231      -0.00000000      -0.00000000 </v>
    <v>       0.38461538      -0.00000000       0.00000000 </v>
    <v>       0.46153846       0.00000000      -0.00000000 </v>
    <v>       0.07692308       0.07692308       0.00000000 </v>
    <v>       0.15384615       0.07692308      -0.00000000 </v>
    <v>       0.23076923       0.07692308       0.00000000 </v>
    <v>       0.30769231       0.07692308      -0.00000000 </v>
    <v>       0.38461538       0.07692308      -0.00000000 </v>
    <v>       0.46153846       0.07692308       0.00000000 </v>
    <v>      -0.46153846       0.07692308       0.00000000 </v>
    <v>      -0.38461538       0.07692308       0.00000000 </v>
    <v>      -0.30769231       0.07692308       0.00000000 </v>
    <v>      -0.23076923       0.07692308      -0.00000000 </v>
    <v>      -0.15384615       0.07692308       0.00000000 </v>
    <v>      -0.07692308       0.07692308      -0.00000000 </v>
    <v>       0.15384615       0.15384615       0.00000000 </v>
    <v>       0.23076923       0.15384615       0.00000000 </v>
    <v>       0.30769231       0.15384615      -0.00000000 </v>
    <v>       0.38461538       0.15384615       0.00000000 </v>
    <v>       0.46153846       0.15384615       0.00000000 </v>
    <v>      -0.46153846       0.15384615      -0.00000000 </v>
    <v>      -0.38461538       0.15384615      -0.00000000 </v>
    <v>      -0.30769231       0.15384615       0.00000000 </v>
    <v>      -0.23076923       0.15384615      -0.00000000 </v>
    <v>      -0.15384615       0.15384615       0.00000000 </v>
    <v>       0.23076923       0.23076923       0.00000000 </v>
    <v>       0.30769231       0.23076923      -0.00000000 </v>
    <v>       0.38461538       0.23076923       0.00000000 </v>
    <v>       0.46153846       0.23076923       0.00000000 </v>
    <v>      -0.46153846       0.23076923      -0.00000000 </v>
    <v>      -0.38461538       0.23076923      -0.00000000 </v>
    <v>      -0.30769231       0.23076923       0.00000000 </v>
    <v>      -0.23076923       0.23076923      -0.00000000 </v>
    <v>       0.30769231       0.30769231       0.00000000 </v>
    <v>       0.38461538       0.30769231       0.00000000 </v>
    <v>       0.46153846       0.30769231      -0.00000000 </v>
    <v>      -0.46153846       0.30769231      -0.00000000 </v>
    <v>      -0.38461538       0.30769231      -0.00000000 </v>
    <v>      -0.30769231       0.30769231       0.00000000 </v>
    <v>       0.38461538       0.38461538       0.00000000 </v>
    <v>       0.46153846       0.38461538       0.00000000 </v>
    <v>      -0.46153846       0.38461538      -0.00000000 </v>
    <v>      -0.38461538       0.38461538       0.00000000 </v>
    <v>       0.46153846       0.46153846       0.00000000 </v>
    <v>      -0.46153846       0.46153846       0.00000000 </v>
    <v>       0.00000000       0.07692308       0.07692308 </v>
    <v>       0.15384615       0.07692308       0.07692308 </v>
    <v>       0.23076923       0.07692308       0.07692308 </v>
    <v>       0.30769231       0.07692308       0.07692308 </v>
    <v>       0.38461538       0.07692308       0.07692308 </v>
    <v>       0.46153846       0.07692308       0.07692308 </v>
    <v>      -0.46153846       0.07692308       0.07692308 </v>
    <v>      -0.38461538       0.07692308       0.07692308 </v>
    <v>      -0.30769231       0.07692308       0.07692308 </v>
    <v>      -0.23076923       0.07692308       0.07692308 </v>
    <v>      -0.15384615       0.07692308       0.07692308 </v>
    <v>      -0.07692308       0.07692308       0.07692308 </v>
    <v>       0.23076923       0.15384615       0.07692308 </v>
    <v>       0.30769231       0.15384615       0.07692308 </v>
    <v>       0.38461538       0.15384615       0.07692308 </v>
    <v>       0.46153846       0.15384615       0.07692308 </v>
    <v>      -0.46153846       0.15384615       0.07692308 </v>
    <v>      -0.38461538       0.15384615       0.07692308 </v>
    <v>      -0.30769231       0.15384615       0.07692308 </v>
    <v>      -0.23076923       0.15384615       0.07692308 </v>
    <v>      -0.15384615       0.15384615       0.07692308 </v>
    <v>      -0.07692308       0.15384615       0.07692308 </v>
    <v>       0.15384615       0.23076923       0.07692308 </v>
    <v>       0.30769231       0.23076923       0.07692308 </v>
    <v>       0.38461538       0.23076923       0.07692308 </v>
    <v>       0.46153846       0.23076923       0.07692308 </v>
    <v>      -0.46153846       0.23076923       0.07692308 </v>
    <v>      -0.38461538       0.23076923       0.07692308 </v>
    <v>      -0.30769231       0.23076923       0.07692308 </v>
    <v>      -0.23076923       0.23076923       0.07692308 </v>
    <v>      -0.15384615       0.23076923       0.07692308 </v>
    <v>       0.15384615       0.30769231       0.07692308 </v>
    <v>       0.23076923       0.30769231       0.07692308 </v>
    <v>       0.38461538       0.30769231       0.07692308 </v>
    <v>       0.46153846       0.30769231       0.07692308 </v>
    <v>      -0.46153846       0.30769231       0.07692308 </v>
    <v>      -0.38461538       0.30769231       0.07692308 </v>
    <v>      -0.30769231       0.30769231       0.07692308 </v>
    <v>      -0.23076923       0.30769231       0.07692308 </v>
    <v>       0.15384615       0.38461538       0.07692308 </v>
    <v>       0.23076923       0.38461538       0.07692308 </v>
    <v>       0.30769231       0.38461538       0.07692308 </v>
    <v>       0.46153846       0.38461538       0.07692308 </v>
    <v>      -0.46153846       0.38461538       0.07692308 </v>
    <v>      -0.38461538       0.38461538       0.07692308 </v>
    <v>      -0.30769231       0.38461538       0.07692308 </v>
    <v>       0.15384615       0.46153846       0.07692308 </v>
    <v>       0.23076923       0.46153846       0.07692308 </v>
    <v>       0.30769231       0.46153846       0.07692308 </v>
    <v>       0.38461538       0.46153846       0.07692308 </v>
    <v>      -0.46153846       0.46153846       0.07692308 </v>
    <v>      -0.38461538       0.46153846       0.07692308 </v>
    <v>       0.15384615      -0.46153846       0.07692308 </v>
    <v>       0.23076923      -0.46153846       0.07692308 </v>
    <v>       0.30769231      -0.46153846       0.07692308 </v>
    <v>       0.38461538      -0.46153846       0.07692308 </v>
    <v>       0.46153846      -0.46153846       0.07692308 </v>
    <v>       0.23076923      -0.38461538       0.07692308 </v>
    <v>       0.30769231      -0.38461538       0.07692308 </v>
    <v>       0.38461538      -0.38461538       0.07692308 </v>
    <v>       0.46153846      -0.38461538       0.07692308 </v>
    <v>       0.23076923      -0.30769231       0.07692308 </v>
    <v>       0.30769231      -0.30769231       0.07692308 </v>
    <v>       0.38461538      -0.30769231       0.07692308 </v>
    <v>       0.23076923      -0.23076923       0.07692308 </v>
    <v>       0.30769231      -0.23076923       0.07692308 </v>
    <v>       0.23076923      -0.15384615       0.07692308 </v>
    <v>       0.00000000       0.15384615       0.15384615 </v>
    <v>       0.30769231       0.15384615       0.15384615 </v>
    <v>       0.38461538       0.15384615       0.15384615 </v>
    <v>       0.46153846       0.15384615       0.15384615 </v>
    <v>      -0.46153846       0.15384615       0.15384615 </v>
    <v>      -0.38461538       0.15384615       0.15384615 </v>
    <v>      -0.30769231       0.15384615       0.15384615 </v>
    <v>      -0.23076923       0.15384615       0.15384615 </v>
    <v>      -0.15384615       0.15384615       0.15384615 </v>
    <v>      -0.07692308       0.15384615       0.15384615 </v>
    <v>       0.38461538       0.23076923       0.15384615 </v>
    <v>       0.46153846       0.23076923       0.15384615 </v>
    <v>      -0.46153846       0.23076923       0.15384615 </v>
    <v>      -0.38461538       0.23076923       0.15384615 </v>
    <v>      -0.30769231       0.23076923       0.15384615 </v>
    <v>      -0.23076923       0.23076923       0.15384615 </v>
    <v>      -0.15384615       0.23076923       0.15384615 </v>
    <v>      -0.07692308       0.23076923       0.15384615 </v>
    <v>       0.46153846       0.30769231       0.15384615 </v>
    <v>      -0.46153846       0.30769231       0.15384615 </v>
    <v>      -0.38461538       0.30769231       0.15384615 </v>
    <v>      -0.30769231       0.30769231       0.15384615 </v>
    <v>      -0.23076923       0.30769231       0.15384615 </v>
    <v>      -0.15384615       0.30769231       0.15384615 </v>
    <v>      -0.46153846       0.38461538       0.15384615 </v>
    <v>      -0.38461538       0.38461538       0.15384615 </v>
    <v>      -0.30769231       0.38461538       0.15384615 </v>
    <v>      -0.23076923       0.38461538       0.15384615 </v>
    <v>       0.30769231       0.46153846       0.15384615 </v>
    <v>      -0.38461538       0.46153846       0.15384615 </v>
    <v>      -0.30769231       0.46153846       0.15384615 </v>
    <v>       0.30769231      -0.46153846       0.15384615 </v>
    <v>       0.38461538      -0.46153846       0.15384615 </v>
    <v>       0.30769231      -0.38461538       0.15384615 </v>
    <v>       0.38461538      -0.38461538       0.15384615 </v>
    <v>       0.46153846      -0.38461538       0.15384615 </v>
    <v>       0.38461538      -0.30769231       0.15384615 </v>
    <v>       0.46153846      -0.30769231       0.15384615 </v>
    <v>       0.38461538      -0.23076923       0.15384615 </v>
    <v>       0.00000000       0.23076923       0.23076923 </v>
    <v>       0.46153846       0.23076923       0.23076923 </v>
    <v>      -0.46153846       0.23076923       0.23076923 </v>
    <v>      -0.38461538       0.23076923       0.23076923 </v>
    <v>      -0.30769231       0.23076923       0.23076923 </v>
    <v>      -0.23076923       0.23076923       0.23076923 </v>
    <v>      -0.15384615       0.23076923       0.23076923 </v>
    <v>      -0.07692308       0.23076923       0.23076923 </v>
    <v>      -0.46153846       0.30769231       0.23076923 </v>
    <v>      -0.38461538       0.30769231       0.23076923 </v>
    <v>      -0.30769231       0.30769231       0.23076923 </v>
    <v>      -0.23076923       0.30769231       0.23076923 </v>
    <v>      -0.15384615       0.30769231       0.23076923 </v>
    <v>      -0.07692308       0.30769231       0.23076923 </v>
    <v>      -0.38461538       0.38461538       0.23076923 </v>
    <v>      -0.30769231       0.38461538       0.23076923 </v>
    <v>      -0.23076923       0.38461538       0.23076923 </v>
    <v>      -0.15384615       0.38461538       0.23076923 </v>
    <v>      -0.30769231       0.46153846       0.23076923 </v>
    <v>      -0.23076923       0.46153846       0.23076923 </v>
    <v>       0.46153846      -0.30769231       0.23076923 </v>
    <v>       0.00000000       0.30769231       0.30769231 </v>
    <v>      -0.38461538       0.30769231       0.30769231 </v>
    <v>      -0.30769231       0.30769231       0.30769231 </v>
    <v>      -0.23076923       0.30769231       0.30769231 </v>
    <v>      -0.15384615       0.30769231       0.30769231 </v>
    <v>      -0.07692308       0.30769231       0.30769231 </v>
    <v>      -0.30769231       0.38461538       0.30769231 </v>
    <v>      -0.23076923       0.38461538       0.30769231 </v>
    <v>      -0.15384615       0.38461538       0.30769231 </v>
    <v>      -0.07692308       0.38461538       0.30769231 </v>
    <v>      -0.23076923       0.46153846       0.30769231 </v>
    <v>      -0.15384615       0.46153846       0.30769231 </v>
    <v>       0.00000000       0.38461538       0.38461538 </v>
    <v>      -0.23076923       0.38461538       0.38461538 </v>
    <v>      -0.15384615       0.38461538       0.38461538 </v>
    <v>      -0.07692308       0.38461538       0.38461538 </v>
    <v>      -0.15384615       0.46153846       0.38461538 </v>
    <v>      -0.07692308       0.46153846       0.38461538 </v>
    <v>       0.00000000       0.46153846       0.46153846 </v>
    <v>      -0.07692308       0.46153846       0.46153846 </v>
   </varray>
   <varray name="weights" >
    <v>       0.00045517 </v>
    <v>       0.00364133 </v>
    <v>       0.00364133 </v>
    <v>       0.00364133 </v>
    <v>       0.00364133 </v>
    <v>       0.00364133 </v>
    <v>       0.00364133 </v>
    <v>       0.00182066 </v>
    <v>       0.00728266 </v>
    <v>       0.00728266 </v>
    <v>       0.00728266 </v>
    <v>       0.00728266 </v>
    <v>       0.00728266 </v>
    <v>       0.00728266 </v>
    <v>       0.00728266 </v>
    <v>       0.00728266 </v>
    <v>       0.00728266 </v>
    <v>       0.00728266 </v>
    <v>       0.00364133 </v>
    <v>       0.00182066 </v>
    <v>       0.00728266 </v>
    <v>       0.00728266 </v>
    <v>       0.00728266 </v>
    <v>       0.00728266 </v>
    <v>       0.00728266 </v>
    <v>       0.00728266 </v>
    <v>       0.00728266 </v>
    <v>       0.00728266 </v>
    <v>       0.00364133 </v>
    <v>       0.00182066 </v>
    <v>       0.00728266 </v>
    <v>       0.00728266 </v>
    <v>       0.00728266 </v>
    <v>       0.00728266 </v>
    <v>       0.00728266 </v>
    <v>       0.00728266 </v>
    <v>       0.00364133 </v>
    <v>       0.00182066 </v>
    <v>       0.00728266 </v>
    <v>       0.00728266 </v>
    <v>       0.00728266 </v>
    <v>       0.00728266 </v>
    <v>       0.00364133 </v>
    <v>       0.00182066 </v>
    <v>       0.00728266 </v>
    <v>       0.00728266 </v>
    <v>       0.00364133 </v>
    <v>       0.00182066 </v>
    <v>       0.00364133 </v>
    <v>       0.00091033 </v>
    <v>       0.00182066 </v>
    <v>       0.00364133 </v>
    <v>       0.00364133 </v>
    <v>       0.00364133 </v>
    <v>       0.00364133 </v>
    <v>       0.00364133 </v>
    <v>       0.00364133 </v>
    <v>       0.00364133 </v>
    <v>       0.00364133 </v>
    <v>       0.00364133 </v>
    <v>       0.00364133 </v>
    <v>       0.00364133 </v>
    <v>       0.00728266 </v>
    <v>       0.00728266 </v>
    <v>       0.00728266 </v>
    <v>       0.00728266 </v>
    <v>       0.00728266 </v>
    <v>       0.00728266 </v>
    <v>       0.00728266 </v>
    <v>       0.00728266 </v>
    <v>       0.00364133 </v>
    <v>       0.00364133 </v>
    <v>       0.00364133 </v>
    <v>       0.00728266 </v>
    <v>       0.00728266 </v>
    <v>       0.00728266 </v>
    <v>       0.00728266 </v>
    <v>       0.00728266 </v>
    <v>       0.00728266 </v>
    <v>       0.00364133 </v>
    <v>       0.00728266 </v>
    <v>       0.00364133 </v>
    <v>       0.00364133 </v>
    <v>       0.00728266 </v>
    <v>       0.00728266 </v>
    <v>       0.00728266 </v>
    <v>       0.00728266 </v>
    <v>       0.00364133 </v>
    <v>       0.00728266 </v>
    <v>       0.00728266 </v>
    <v>       0.00364133 </v>
    <v>       0.00364133 </v>
    <v>       0.00728266 </v>
    <v>       0.00728266 </v>
    <v>       0.00364133 </v>
    <v>       0.00728266 </v>
    <v>       0.00728266 </v>
    <v>       0.00728266 </v>
    <v>       0.00364133 </v>
    <v>       0.00364133 </v>
    <v>       0.00364133 </v>
    <v>       0.00728266 </v>
    <v>       0.00728266 </v>
    <v>       0.00728266 </v>
    <v>       0.00728266 </v>
    <v>       0.00364133 </v>
    <v>       0.00728266 </v>
    <v>       0.00728266 </v>
    <v>       0.00728266 </v>
    <v>       0.00364133 </v>
    <v>       0.00728266 </v>
    <v>       0.00728266 </v>
    <v>       0.00364133 </v>
    <v>       0.00728266 </v>
    <v>       0.00364133 </v>
    <v>       0.00364133 </v>
    <v>       0.00091033 </v>
    <v>       0.00182066 </v>
    <v>       0.00364133 </v>
    <v>       0.00364133 </v>
    <v>       0.00364133 </v>
    <v>       0.00364133 </v>
    <v>       0.00364133 </v>
    <v>       0.00364133 </v>
    <v>       0.00364133 </v>
    <v>       0.00364133 </v>
    <v>       0.00364133 </v>
    <v>       0.00728266 </v>
    <v>       0.00728266 </v>
    <v>       0.00728266 </v>
    <v>       0.00728266 </v>
    <v>       0.00728266 </v>
    <v>       0.00728266 </v>
    <v>       0.00364133 </v>
    <v>       0.00364133 </v>
    <v>       0.00728266 </v>
    <v>       0.00728266 </v>
    <v>       0.00728266 </v>
    <v>       0.00728266 </v>
    <v>       0.00364133 </v>
    <v>       0.00364133 </v>
    <v>       0.00728266 </v>
    <v>       0.00728266 </v>
    <v>       0.00364133 </v>
    <v>       0.00364133 </v>
    <v>       0.00364133 </v>
    <v>       0.00364133 </v>
    <v>       0.00728266 </v>
    <v>       0.00364133 </v>
    <v>       0.00728266 </v>
    <v>       0.00728266 </v>
    <v>       0.00364133 </v>
    <v>       0.00728266 </v>
    <v>       0.00364133 </v>
    <v>       0.00364133 </v>
    <v>       0.00091033 </v>
    <v>       0.00182066 </v>
    <v>       0.00364133 </v>
    <v>       0.00364133 </v>
    <v>       0.00364133 </v>
    <v>       0.00364133 </v>
    <v>       0.00364133 </v>
    <v>       0.00364133 </v>
    <v>       0.00364133 </v>
    <v>       0.00728266 </v>
    <v>       0.00728266 </v>
    <v>       0.00728266 </v>
    <v>       0.00728266 </v>
    <v>       0.00364133 </v>
    <v>       0.00364133 </v>
    <v>       0.00728266 </v>
    <v>       0.00728266 </v>
    <v>       0.00364133 </v>
    <v>       0.00364133 </v>
    <v>       0.00364133 </v>
    <v>       0.00364133 </v>
    <v>       0.00091033 </v>
    <v>       0.00182066 </v>
    <v>       0.00364133 </v>
    <v>       0.00364133 </v>
    <v>       0.00364133 </v>
    <v>       0.00364133 </v>
    <v>       0.00364133 </v>
    <v>       0.00728266 </v>
    <v>       0.00728266 </v>
    <v>       0.00364133 </v>
    <v>       0.00364133 </v>
    <v>       0.00364133 </v>
    <v>       0.00091033 </v>
    <v>       0.00182066 </v>
    <v>       0.00364133 </v>
    <v>       0.00364133 </v>
    <v>       0.00364133 </v>
    <v>       0.00364133 </v>
    <v>       0.00091033 </v>
    <v>       0.00182066 </v>
   </varray>
  </kpoints>
  <time name="totalsc">   17.08   18.34</time>
 </calculation>
 <calculation>
  <scstep>
   <time name="dav">    1.21    1.21</time>
   <time name="total">    1.51    1.54</time>
   <energy>
    <i name="alphaZ">    104.01941450 </i>
    <i name="ewald">  -1554.12279591 </i>
    <i name="hartreedc">   -300.60407298 </i>
    <i name="XCdc">    -19.98287464 </i>
    <i name="pawpsdc">   2630.76387690 </i>
    <i name="pawaedc">  -2543.07389322 </i>
    <i name="eentropy">     -0.00014494 </i>
    <i name="bandstr">    -82.24348690 </i>
    <i name="atom">   1741.10451121 </i>
    <i name="e_fr_energy">    -24.13946598 </i>
    <i name="e_wo_entrp">    -24.13932104 </i>
    <i name="e_0_energy">    -24.13939351 </i>
   </energy>
  </scstep>
  <scstep>
   <time name="dav">    1.17    1.17</time>
   <time name="total">    1.43    1.46</time>
   <energy>
    <i name="e_fr_energy">    -24.07161198 </i>
    <i name="e_wo_entrp">    -24.07136692 </i>
    <i name="e_0_energy">    -24.07148945 </i>
   </energy>
  </scstep>
  <scstep>
   <time name="dav">    1.43    1.43</time>
   <time name="total">    1.65    1.67</time>
   <energy>
    <i name="e_fr_energy">    -24.05291121 </i>
    <i name="e_wo_entrp">    -24.05268561 </i>
    <i name="e_0_energy">    -24.05279841 </i>
   </energy>
  </scstep>
  <scstep>
   <time name="dav">    1.52    1.52</time>
   <time name="total">    1.74    1.77</time>
   <energy>
    <i name="e_fr_energy">    -24.04782362 </i>
    <i name="e_wo_entrp">    -24.04760931 </i>
    <i name="e_0_energy">    -24.04771647 </i>
   </energy>
  </scstep>
  <scstep>
   <time name="dav">    1.31    1.31</time>
   <time name="total">    1.56    1.58</time>
   <energy>
    <i name="e_fr_energy">    -24.04771131 </i>
    <i name="e_wo_entrp">    -24.04750485 </i>
    <i name="e_0_energy">    -24.04760808 </i>
   </energy>
  </scstep>
  <scstep>
   <time name="dav">    1.57    1.57</time>
   <time name="total">    1.85    1.87</time>
   <energy>
    <i name="e_fr_energy">    -24.04771296 </i>
    <i name="e_wo_entrp">    -24.04750640 </i>
    <i name="e_0_energy">    -24.04760968 </i>
   </energy>
  </scstep>
  <scstep>
   <time name="dav">    1.32    1.32</time>
   <time name="total">    1.57    1.58</time>
   <energy>
    <i name="e_fr_energy">    -24.04771307 </i>
    <i name="e_wo_entrp">    -24.04750594 </i>
    <i name="e_0_energy">    -24.04760950 </i>
   </energy>
  </scstep>
  <scstep>
   <time name="dav">    1.42    1.42</time>
   <time name="total">    1.51    1.53</time>
   <energy>
    <i name="alphaZ">    104.01941450 </i>
    <i name="ewald">  -1554.12279591 </i>
    <i name="hartreedc">   -305.95067590 </i>
    <i name="XCdc">    -19.79646635 </i>
    <i name="pawpsdc">   2556.94880425 </i>
    <i name="pawaedc">  -2469.13090551 </i>
    <i name="eentropy">     -0.00020705 </i>
    <i name="bandstr">    -77.11939240 </i>
    <i name="atom">   1741.10451121 </i>
    <i name="e_fr_energy">    -24.04771316 </i>
    <i name="e_wo_entrp">    -24.04750611 </i>
    <i name="e_0_energy">    -24.04760963 </i>
   </energy>
  </scstep>
  <structure>
   <crystal>
    <varray name="basis" >
     <v>       0.00000000       3.17828400       3.17828400 </v>
     <v>       3.24184968       0.00000000       3.17828400 </v>
     <v>       3.24184968       3.17828400       0.00000000 </v>
    </varray>
    <i name="volume">     65.49501896 </i>
    <varray name="rec_basis" >
     <v>      -0.15423294       0.15731760       0.15731760 </v>
     <v>       0.15423294      -0.15731760       0.15731760 </v>
     <v>       0.15423294       0.15731760      -0.15731760 </v>
    </varray>
   </crystal>
   <varray name="positions" >
    <v>       0.75000000       0.75000000       0.75000000 </v>
    <v>       0.25000000       0.25000000       0.25000000 </v>
    <v>       0.00000000       0.00000000       0.00000000 </v>
   </varray>
  </structure>
  <varray name="forces" >
   <v>      -0.00000000      -0.00000000       0.00000000 </v>
   <v>      -0.00000000      -0.00000000       0.00000000 </v>
   <v>       0.00000000       0.00000000      -0.00000000 </v>
  </varray>
  <varray name="stress" >
   <v>     -28.44178189       0.00000000       0.00000000 </v>
   <v>      -0.00000000     -24.40115460       0.00000000 </v>
   <v>      -0.00000000       0.00000000     -24.40115460 </v>
  </varray>
  <energy>
   <i name="e_fr_energy">    -24.04771316 </i>
   <i name="e_wo_entrp">    -24.04760963 </i>
   <i name="e_0_energy">     -0.00020705 </i>
  </energy>
  <kpoints>
   <generation param="Gamma">
    <v type="int" name="divisions">      13       13       13 </v>
    <v name="usershift">      0.00000000       0.00000000       0.00000000 </v>
    <v name="genvec1">      0.07692308      -0.00000000      -0.00000000 </v>
    <v name="genvec2">      0.00000000       0.07692308       0.00000000 </v>
    <v name="genvec3">     -0.00000000       0.00000000       0.07692308 </v>
    <v name="shift">      0.00000000       0.00000000       0.00000000 </v>
   </generation>
   <varray name="kpointlist" >
    <v>       0.00000000       0.00000000       0.00000000 </v>
    <v>       0.07692308      -0.00000000      -0.00000000 </v>
    <v>       0.15384615       0.00000000      -0.00000000 </v>
    <v>       0.23076923       0.00000000      -0.00000000 </v>
    <v>       0.30769231       0.00000000      -0.00000000 </v>
    <v>       0.38461538      -0.00000000      -0.00000000 </v>
    <v>       0.46153846      -0.00000000      -0.00000000 </v>
    <v>       0.07692308       0.07692308      -0.00000000 </v>
    <v>       0.15384615       0.07692308      -0.00000000 </v>
    <v>       0.23076923       0.07692308       0.00000000 </v>
    <v>       0.30769231       0.07692308      -0.00000000 </v>
    <v>       0.38461538       0.07692308      -0.00000000 </v>
    <v>       0.46153846       0.07692308      -0.00000000 </v>
    <v>      -0.46153846       0.07692308       0.00000000 </v>
    <v>      -0.38461538       0.07692308       0.00000000 </v>
    <v>      -0.30769231       0.07692308       0.00000000 </v>
    <v>      -0.23076923       0.07692308      -0.00000000 </v>
    <v>      -0.15384615       0.07692308       0.00000000 </v>
    <v>      -0.07692308       0.07692308       0.00000000 </v>
    <v>       0.15384615       0.15384615      -0.00000000 </v>
    <v>       0.23076923       0.15384615      -0.00000000 </v>
    <v>       0.30769231       0.15384615      -0.00000000 </v>
    <v>       0.38461538       0.15384615      -0.00000000 </v>
    <v>       0.46153846       0.15384615      -0.00000000 </v>
    <v>      -0.46153846       0.15384615       0.00000000 </v>
    <v>      -0.38461538       0.15384615       0.00000000 </v>
    <v>      -0.30769231       0.15384615       0.00000000 </v>
    <v>      -0.23076923       0.15384615       0.00000000 </v>
    <v>      -0.15384615       0.15384615       0.00000000 </v>
    <v>       0.23076923       0.23076923      -0.00000000 </v>
    <v>       0.30769231       0.23076923      -0.00000000 </v>
    <v>       0.38461538       0.23076923      -0.00000000 </v>
    <v>       0.46153846       0.23076923      -0.00000000 </v>
    <v>      -0.46153846       0.23076923       0.00000000 </v>
    <v>      -0.38461538       0.23076923       0.00000000 </v>
    <v>      -0.30769231       0.23076923       0.00000000 </v>
    <v>      -0.23076923       0.23076923       0.00000000 </v>
    <v>       0.30769231       0.30769231      -0.00000000 </v>
    <v>       0.38461538       0.30769231       0.00000000 </v>
    <v>       0.46153846       0.30769231      -0.00000000 </v>
    <v>      -0.46153846       0.30769231       0.00000000 </v>
    <v>      -0.38461538       0.30769231       0.00000000 </v>
    <v>      -0.30769231       0.30769231       0.00000000 </v>
    <v>       0.38461538       0.38461538      -0.00000000 </v>
    <v>       0.46153846       0.38461538       0.00000000 </v>
    <v>      -0.46153846       0.38461538       0.00000000 </v>
    <v>      -0.38461538       0.38461538       0.00000000 </v>
    <v>       0.46153846       0.46153846      -0.00000000 </v>
    <v>      -0.46153846       0.46153846       0.00000000 </v>
    <v>      -0.00000000       0.07692308       0.07692308 </v>
    <v>       0.15384615       0.07692308       0.07692308 </v>
    <v>       0.23076923       0.07692308       0.07692308 </v>
    <v>       0.30769231       0.07692308       0.07692308 </v>
    <v>       0.38461538       0.07692308       0.07692308 </v>
    <v>       0.46153846       0.07692308       0.07692308 </v>
    <v>      -0.46153846       0.07692308       0.07692308 </v>
    <v>      -0.38461538       0.07692308       0.07692308 </v>
    <v>      -0.30769231       0.07692308       0.07692308 </v>
    <v>      -0.23076923       0.07692308       0.07692308 </v>
    <v>      -0.15384615       0.07692308       0.07692308 </v>
    <v>      -0.07692308       0.07692308       0.07692308 </v>
    <v>       0.23076923       0.15384615       0.07692308 </v>
    <v>       0.30769231       0.15384615       0.07692308 </v>
    <v>       0.38461538       0.15384615       0.07692308 </v>
    <v>       0.46153846       0.15384615       0.07692308 </v>
    <v>      -0.46153846       0.15384615       0.07692308 </v>
    <v>      -0.38461538       0.15384615       0.07692308 </v>
    <v>      -0.30769231       0.15384615       0.07692308 </v>
    <v>      -0.23076923       0.15384615       0.07692308 </v>
    <v>      -0.15384615       0.15384615       0.07692308 </v>
    <v>      -0.07692308       0.15384615       0.07692308 </v>
    <v>       0.15384615       0.23076923       0.07692308 </v>
    <v>       0.30769231       0.23076923       0.07692308 </v>
    <v>       0.38461538       0.23076923       0.07692308 </v>
    <v>       0.46153846       0.23076923       0.07692308 </v>
    <v>      -0.46153846       0.23076923       0.07692308 </v>
    <v>      -0.38461538       0.23076923       0.07692308 </v>
    <v>      -0.30769231       0.23076923       0.07692308 </v>
    <v>      -0.23076923       0.23076923       0.07692308 </v>
    <v>      -0.15384615       0.23076923       0.07692308 </v>
    <v>       0.15384615       0.30769231       0.07692308 </v>
    <v>       0.23076923       0.30769231       0.07692308 </v>
    <v>       0.38461538       0.30769231       0.07692308 </v>
    <v>       0.46153846       0.30769231       0.07692308 </v>
    <v>      -0.46153846       0.30769231       0.07692308 </v>
    <v>      -0.38461538       0.30769231       0.07692308 </v>
    <v>      -0.30769231       0.30769231       0.07692308 </v>
    <v>      -0.23076923       0.30769231       0.07692308 </v>
    <v>       0.15384615       0.38461538       0.07692308 </v>
    <v>       0.23076923       0.38461538       0.07692308 </v>
    <v>       0.30769231       0.38461538       0.07692308 </v>
    <v>       0.46153846       0.38461538       0.07692308 </v>
    <v>      -0.46153846       0.38461538       0.07692308 </v>
    <v>      -0.38461538       0.38461538       0.07692308 </v>
    <v>      -0.30769231       0.38461538       0.07692308 </v>
    <v>       0.15384615       0.46153846       0.07692308 </v>
    <v>       0.23076923       0.46153846       0.07692308 </v>
    <v>       0.30769231       0.46153846       0.07692308 </v>
    <v>       0.38461538       0.46153846       0.07692308 </v>
    <v>      -0.46153846       0.46153846       0.07692308 </v>
    <v>      -0.38461538       0.46153846       0.07692308 </v>
    <v>       0.15384615      -0.46153846       0.07692308 </v>
    <v>       0.23076923      -0.46153846       0.07692308 </v>
    <v>       0.30769231      -0.46153846       0.07692308 </v>
    <v>       0.38461538      -0.46153846       0.07692308 </v>
    <v>       0.46153846      -0.46153846       0.07692308 </v>
    <v>       0.23076923      -0.38461538       0.07692308 </v>
    <v>       0.30769231      -0.38461538       0.07692308 </v>
    <v>       0.38461538      -0.38461538       0.07692308 </v>
    <v>       0.46153846      -0.38461538       0.07692308 </v>
    <v>       0.23076923      -0.30769231       0.07692308 </v>
    <v>       0.30769231      -0.30769231       0.07692308 </v>
    <v>       0.38461538      -0.30769231       0.07692308 </v>
    <v>       0.23076923      -0.23076923       0.07692308 </v>
    <v>       0.30769231      -0.23076923       0.07692308 </v>
    <v>       0.23076923      -0.15384615       0.07692308 </v>
    <v>      -0.00000000       0.15384615       0.15384615 </v>
    <v>       0.30769231       0.15384615       0.15384615 </v>
    <v>       0.38461538       0.15384615       0.15384615 </v>
    <v>       0.46153846       0.15384615       0.15384615 </v>
    <v>      -0.46153846       0.15384615       0.15384615 </v>
    <v>      -0.38461538       0.15384615       0.15384615 </v>
    <v>      -0.30769231       0.15384615       0.15384615 </v>
    <v>      -0.23076923       0.15384615       0.15384615 </v>
    <v>      -0.15384615       0.15384615       0.15384615 </v>
    <v>      -0.07692308       0.15384615       0.15384615 </v>
    <v>       0.38461538       0.23076923       0.15384615 </v>
    <v>       0.46153846       0.23076923       0.15384615 </v>
    <v>      -0.46153846       0.23076923       0.15384615 </v>
    <v>      -0.38461538       0.23076923       0.15384615 </v>
    <v>      -0.30769231       0.23076923       0.15384615 </v>
    <v>      -0.23076923       0.23076923       0.15384615 </v>
    <v>      -0.15384615       0.23076923       0.15384615 </v>
    <v>      -0.07692308       0.23076923       0.15384615 </v>
    <v>       0.46153846       0.30769231       0.15384615 </v>
    <v>      -0.46153846       0.30769231       0.15384615 </v>
    <v>      -0.38461538       0.30769231       0.15384615 </v>
    <v>      -0.30769231       0.30769231       0.15384615 </v>
    <v>      -0.23076923       0.30769231       0.15384615 </v>
    <v>      -0.15384615       0.30769231       0.15384615 </v>
    <v>      -0.46153846       0.38461538       0.15384615 </v>
    <v>      -0.38461538       0.38461538       0.15384615 </v>
    <v>      -0.30769231       0.38461538       0.15384615 </v>
    <v>      -0.23076923       0.38461538       0.15384615 </v>
    <v>       0.30769231       0.46153846       0.15384615 </v>
    <v>      -0.38461538       0.46153846       0.15384615 </v>
    <v>      -0.30769231       0.46153846       0.15384615 </v>
    <v>       0.30769231      -0.46153846       0.15384615 </v>
    <v>       0.38461538      -0.46153846       0.15384615 </v>
    <v>       0.30769231      -0.38461538       0.15384615 </v>
    <v>       0.38461538      -0.38461538       0.15384615 </v>
    <v>       0.46153846      -0.38461538       0.15384615 </v>
    <v>       0.38461538      -0.30769231       0.15384615 </v>
    <v>       0.46153846      -0.30769231       0.15384615 </v>
    <v>       0.38461538      -0.23076923       0.15384615 </v>
    <v>      -0.00000000       0.23076923       0.23076923 </v>
    <v>       0.46153846       0.23076923       0.23076923 </v>
    <v>      -0.46153846       0.23076923       0.23076923 </v>
    <v>      -0.38461538       0.23076923       0.23076923 </v>
    <v>      -0.30769231       0.23076923       0.23076923 </v>
    <v>      -0.23076923       0.23076923       0.23076923 </v>
    <v>      -0.15384615       0.23076923       0.23076923 </v>
    <v>      -0.07692308       0.23076923       0.23076923 </v>
    <v>      -0.46153846       0.30769231       0.23076923 </v>
    <v>      -0.38461538       0.30769231       0.23076923 </v>
    <v>      -0.30769231       0.30769231       0.23076923 </v>
    <v>      -0.23076923       0.30769231       0.23076923 </v>
    <v>      -0.15384615       0.30769231       0.23076923 </v>
    <v>      -0.07692308       0.30769231       0.23076923 </v>
    <v>      -0.38461538       0.38461538       0.23076923 </v>
    <v>      -0.30769231       0.38461538       0.23076923 </v>
    <v>      -0.23076923       0.38461538       0.23076923 </v>
    <v>      -0.15384615       0.38461538       0.23076923 </v>
    <v>      -0.30769231       0.46153846       0.23076923 </v>
    <v>      -0.23076923       0.46153846       0.23076923 </v>
    <v>       0.46153846      -0.30769231       0.23076923 </v>
    <v>      -0.00000000       0.30769231       0.30769231 </v>
    <v>      -0.38461538       0.30769231       0.30769231 </v>
    <v>      -0.30769231       0.30769231       0.30769231 </v>
    <v>      -0.23076923       0.30769231       0.30769231 </v>
    <v>      -0.15384615       0.30769231       0.30769231 </v>
    <v>      -0.07692308       0.30769231       0.30769231 </v>
    <v>      -0.30769231       0.38461538       0.30769231 </v>
    <v>      -0.23076923       0.38461538       0.30769231 </v>
    <v>      -0.15384615       0.38461538       0.30769231 </v>
    <v>      -0.07692308       0.38461538       0.30769231 </v>
    <v>      -0.23076923       0.46153846       0.30769231 </v>
    <v>      -0.15384615       0.46153846       0.30769231 </v>
    <v>      -0.00000000       0.38461538       0.38461538 </v>
    <v>      -0.23076923       0.38461538       0.38461538 </v>
    <v>      -0.15384615       0.38461538       0.38461538 </v>
    <v>      -0.07692308       0.38461538       0.38461538 </v>
    <v>      -0.15384615       0.46153846       0.38461538 </v>
    <v>      -0.07692308       0.46153846       0.38461538 </v>
    <v>      -0.00000000       0.46153846       0.46153846 </v>
    <v>      -0.07692308       0.46153846       0.46153846 </v>
   </varray>
   <varray name="weights" >
    <v>       0.00045517 </v>
    <v>       0.00364133 </v>
    <v>       0.00364133 </v>
    <v>       0.00364133 </v>
    <v>       0.00364133 </v>
    <v>       0.00364133 </v>
    <v>       0.00364133 </v>
    <v>       0.00182066 </v>
    <v>       0.00728266 </v>
    <v>       0.00728266 </v>
    <v>       0.00728266 </v>
    <v>       0.00728266 </v>
    <v>       0.00728266 </v>
    <v>       0.00728266 </v>
    <v>       0.00728266 </v>
    <v>       0.00728266 </v>
    <v>       0.00728266 </v>
    <v>       0.00728266 </v>
    <v>       0.00364133 </v>
    <v>       0.00182066 </v>
    <v>       0.00728266 </v>
    <v>       0.00728266 </v>
    <v>       0.00728266 </v>
    <v>       0.00728266 </v>
    <v>       0.00728266 </v>
    <v>       0.00728266 </v>
    <v>       0.00728266 </v>
    <v>       0.00728266 </v>
    <v>       0.00364133 </v>
    <v>       0.00182066 </v>
    <v>       0.00728266 </v>
    <v>       0.00728266 </v>
    <v>       0.00728266 </v>
    <v>       0.00728266 </v>
    <v>       0.00728266 </v>
    <v>       0.00728266 </v>
    <v>       0.00364133 </v>
    <v>       0.00182066 </v>
    <v>       0.00728266 </v>
    <v>       0.00728266 </v>
    <v>       0.00728266 </v>
    <v>       0.00728266 </v>
    <v>       0.00364133 </v>
    <v>       0.00182066 </v>
    <v>       0.00728266 </v>
    <v>       0.00728266 </v>
    <v>       0.00364133 </v>
    <v>       0.00182066 </v>
    <v>       0.00364133 </v>
    <v>       0.00091033 </v>
    <v>       0.00182066 </v>
    <v>       0.00364133 </v>
    <v>       0.00364133 </v>
    <v>       0.00364133 </v>
    <v>       0.00364133 </v>
    <v>       0.00364133 </v>
    <v>       0.00364133 </v>
    <v>       0.00364133 </v>
    <v>       0.00364133 </v>
    <v>       0.00364133 </v>
    <v>       0.00364133 </v>
    <v>       0.00364133 </v>
    <v>       0.00728266 </v>
    <v>       0.00728266 </v>
    <v>       0.00728266 </v>
    <v>       0.00728266 </v>
    <v>       0.00728266 </v>
    <v>       0.00728266 </v>
    <v>       0.00728266 </v>
    <v>       0.00728266 </v>
    <v>       0.00364133 </v>
    <v>       0.00364133 </v>
    <v>       0.00364133 </v>
    <v>       0.00728266 </v>
    <v>       0.00728266 </v>
    <v>       0.00728266 </v>
    <v>       0.00728266 </v>
    <v>       0.00728266 </v>
    <v>       0.00728266 </v>
    <v>       0.00364133 </v>
    <v>       0.00728266 </v>
    <v>       0.00364133 </v>
    <v>       0.00364133 </v>
    <v>       0.00728266 </v>
    <v>       0.00728266 </v>
    <v>       0.00728266 </v>
    <v>       0.00728266 </v>
    <v>       0.00364133 </v>
    <v>       0.00728266 </v>
    <v>       0.00728266 </v>
    <v>       0.00364133 </v>
    <v>       0.00364133 </v>
    <v>       0.00728266 </v>
    <v>       0.00728266 </v>
    <v>       0.00364133 </v>
    <v>       0.00728266 </v>
    <v>       0.00728266 </v>
    <v>       0.00728266 </v>
    <v>       0.00364133 </v>
    <v>       0.00364133 </v>
    <v>       0.00364133 </v>
    <v>       0.00728266 </v>
    <v>       0.00728266 </v>
    <v>       0.00728266 </v>
    <v>       0.00728266 </v>
    <v>       0.00364133 </v>
    <v>       0.00728266 </v>
    <v>       0.00728266 </v>
    <v>       0.00728266 </v>
    <v>       0.00364133 </v>
    <v>       0.00728266 </v>
    <v>       0.00728266 </v>
    <v>       0.00364133 </v>
    <v>       0.00728266 </v>
    <v>       0.00364133 </v>
    <v>       0.00364133 </v>
    <v>       0.00091033 </v>
    <v>       0.00182066 </v>
    <v>       0.00364133 </v>
    <v>       0.00364133 </v>
    <v>       0.00364133 </v>
    <v>       0.00364133 </v>
    <v>       0.00364133 </v>
    <v>       0.00364133 </v>
    <v>       0.00364133 </v>
    <v>       0.00364133 </v>
    <v>       0.00364133 </v>
    <v>       0.00728266 </v>
    <v>       0.00728266 </v>
    <v>       0.00728266 </v>
    <v>       0.00728266 </v>
    <v>       0.00728266 </v>
    <v>       0.00728266 </v>
    <v>       0.00364133 </v>
    <v>       0.00364133 </v>
    <v>       0.00728266 </v>
    <v>       0.00728266 </v>
    <v>       0.00728266 </v>
    <v>       0.00728266 </v>
    <v>       0.00364133 </v>
    <v>       0.00364133 </v>
    <v>       0.00728266 </v>
    <v>       0.00728266 </v>
    <v>       0.00364133 </v>
    <v>       0.00364133 </v>
    <v>       0.00364133 </v>
    <v>       0.00364133 </v>
    <v>       0.00728266 </v>
    <v>       0.00364133 </v>
    <v>       0.00728266 </v>
    <v>       0.00728266 </v>
    <v>       0.00364133 </v>
    <v>       0.00728266 </v>
    <v>       0.00364133 </v>
    <v>       0.00364133 </v>
    <v>       0.00091033 </v>
    <v>       0.00182066 </v>
    <v>       0.00364133 </v>
    <v>       0.00364133 </v>
    <v>       0.00364133 </v>
    <v>       0.00364133 </v>
    <v>       0.00364133 </v>
    <v>       0.00364133 </v>
    <v>       0.00364133 </v>
    <v>       0.00728266 </v>
    <v>       0.00728266 </v>
    <v>       0.00728266 </v>
    <v>       0.00728266 </v>
    <v>       0.00364133 </v>
    <v>       0.00364133 </v>
    <v>       0.00728266 </v>
    <v>       0.00728266 </v>
    <v>       0.00364133 </v>
    <v>       0.00364133 </v>
    <v>       0.00364133 </v>
    <v>       0.00364133 </v>
    <v>       0.00091033 </v>
    <v>       0.00182066 </v>
    <v>       0.00364133 </v>
    <v>       0.00364133 </v>
    <v>       0.00364133 </v>
    <v>       0.00364133 </v>
    <v>       0.00364133 </v>
    <v>       0.00728266 </v>
    <v>       0.00728266 </v>
    <v>       0.00364133 </v>
    <v>       0.00364133 </v>
    <v>       0.00364133 </v>
    <v>       0.00091033 </v>
    <v>       0.00182066 </v>
    <v>       0.00364133 </v>
    <v>       0.00364133 </v>
    <v>       0.00364133 </v>
    <v>       0.00364133 </v>
    <v>       0.00091033 </v>
    <v>       0.00182066 </v>
   </varray>
  </kpoints>
  <time name="totalsc">   22.99   24.51</time>
 </calculation>
 <calculation>
  <scstep>
   <time name="dav">    1.23    1.23</time>
   <time name="total">    1.52    1.58</time>
   <energy>
    <i name="alphaZ">    105.04930969 </i>
    <i name="ewald">  -1559.21238687 </i>
    <i name="hartreedc">   -306.97077729 </i>
    <i name="XCdc">    -19.60811654 </i>
    <i name="pawpsdc">   2556.76290855 </i>
    <i name="pawaedc">  -2468.94588672 </i>
    <i name="eentropy">     -0.00027248 </i>
    <i name="bandstr">    -72.25767578 </i>
    <i name="atom">   1741.10451121 </i>
    <i name="e_fr_energy">    -24.07838622 </i>
    <i name="e_wo_entrp">    -24.07811375 </i>
    <i name="e_0_energy">    -24.07824999 </i>
   </energy>
  </scstep>
  <scstep>
   <time name="dav">    1.17    1.17</time>
   <time name="total">    1.40    1.83</time>
   <energy>
    <i name="e_fr_energy">    -24.06251115 </i>
    <i name="e_wo_entrp">    -24.06228734 </i>
    <i name="e_0_energy">    -24.06239925 </i>
   </energy>
  </scstep>
  <scstep>
   <time name="dav">    1.34    1.34</time>
   <time name="total">    1.56    1.58</time>
   <energy>
    <i name="e_fr_energy">    -24.05736908 </i>
    <i name="e_wo_entrp">    -24.05713448 </i>
    <i name="e_0_energy">    -24.05725178 </i>
   </energy>
  </scstep>
  <scstep>
   <time name="dav">    1.54    1.54</time>
   <time name="total">    1.77    1.79</time>
   <energy>
    <i name="e_fr_energy">    -24.05615211 </i>
    <i name="e_wo_entrp">    -24.05592029 </i>
    <i name="e_0_energy">    -24.05603620 </i>
   </energy>
  </scstep>
  <scstep>
   <time name="dav">    1.24    1.24</time>
   <time name="total">    1.49    1.51</time>
   <energy>
    <i name="e_fr_energy">    -24.05613479 </i>
    <i name="e_wo_entrp">    -24.05590276 </i>
    <i name="e_0_energy">    -24.05601878 </i>
   </energy>
  </scstep>
  <scstep>
   <time name="dav">    1.70    1.70</time>
   <time name="total">    1.94    1.97</time>
   <energy>
    <i name="e_fr_energy">    -24.05613894 </i>
    <i name="e_wo_entrp">    -24.05590737 </i>
    <i name="e_0_energy">    -24.05602315 </i>
   </energy>
  </scstep>
  <scstep>
   <time name="dav">    1.25    1.25</time>
   <time name="total">    1.49    1.51</time>
   <energy>
    <i name="e_fr_energy">    -24.05613956 </i>
    <i name="e_wo_entrp">    -24.05590826 </i>
    <i name="e_0_energy">    -24.05602391 </i>
   </energy>
  </scstep>
  <scstep>
   <time name="dav">    1.53    1.53</time>
   <time name="total">    1.62    1.63</time>
   <energy>
    <i name="alphaZ">    105.04930969 </i>
    <i name="ewald">  -1559.21238687 </i>
    <i name="hartreedc">   -304.29882093 </i>
    <i name="XCdc">    -19.70323586 </i>
    <i name="pawpsdc">   2592.66530203 </i>
    <i name="pawaedc">  -2504.91185512 </i>
    <i name="eentropy">     -0.00023133 </i>
    <i name="bandstr">    -74.74873246 </i>
    <i name="atom">   1741.10451121 </i>
    <i name="e_fr_energy">    -24.05613963 </i>
    <i name="e_wo_entrp">    -24.05590831 </i>
    <i name="e_0_energy">    -24.05602397 </i>
   </energy>
  </scstep>
  <structure>
   <crystal>
    <varray name="basis" >
     <v>       0.00000000       3.17828400       3.17828400 </v>
     <v>       3.21006684       0.00000000       3.17828400 </v>
     <v>       3.21006684       3.17828400       0.00000000 </v>
    </varray>
    <i name="volume">     64.85291093 </i>
    <varray name="rec_basis" >
     <v>      -0.15576000       0.15731760       0.15731760 </v>
     <v>       0.15576000      -0.15731760       0.15731760 </v>
     <v>       0.15576000       0.15731760      -0.15731760 </v>
    </varray>
   </crystal>
   <varray name="positions" >
    <v>       0.75000000       0.75000000       0.75000000 </v>
    <v>       0.25000000       0.25000000       0.25000000 </v>
    <v>       0.00000000       0.00000000       0.00000000 </v>
   </varray>
  </structure>
  <varray name="forces" >
   <v>       0.00000000      -0.00000000      -0.00000000 </v>
   <v>      -0.00000000      -0.00000000      -0.00000000 </v>
   <v>       0.00000000       0.00000000       0.00000000 </v>
  </varray>
  <varray name="stress" >
   <v>     -13.67770582       0.00000000       0.00000000 </v>
   <v>      -0.00000000     -12.83909653       0.00000000 </v>
   <v>       0.00000000       0.00000000     -12.83909653 </v>
  </varray>
  <energy>
   <i name="e_fr_energy">    -24.05613963 </i>
   <i name="e_wo_entrp">    -24.05602397 </i>
   <i name="e_0_energy">     -0.00023133 </i>
  </energy>
  <kpoints>
   <generation param="Gamma">
    <v type="int" name="divisions">      13       13       13 </v>
    <v name="usershift">      0.00000000       0.00000000       0.00000000 </v>
    <v name="genvec1">      0.07692308       0.00000000      -0.00000000 </v>
    <v name="genvec2">      0.00000000       0.07692308       0.00000000 </v>
    <v name="genvec3">     -0.00000000      -0.00000000       0.07692308 </v>
    <v name="shift">      0.00000000       0.00000000       0.00000000 </v>
   </generation>
   <varray name="kpointlist" >
    <v>       0.00000000       0.00000000       0.00000000 </v>
    <v>       0.07692308      -0.00000000      -0.00000000 </v>
[...]
       <r>   14.3246    0.0000 </r>
       <r>   14.7687    0.0000 </r>
       <r>   16.3611    0.0000 </r>
       <r>   17.8439    0.0000 </r>
       <r>   19.0459    0.0000 </r>
       <r>   19.9356    0.0000 </r>
      </set>
      <set comment="kpoint 81">
       <r>  -23.2945    1.0000 </r>
       <r>  -23.2878    1.0000 </r>
       <r>  -23.2816    1.0000 </r>
       <r>   -2.2693    1.0000 </r>
       <r>    1.7940    1.0000 </r>
       <r>    2.5552    1.0000 </r>
       <r>    3.1553    1.0000 </r>
       <r>    3.6856    1.0000 </r>
       <r>    4.1090    1.0000 </r>
       <r>    4.4892    1.0000 </r>
       <r>    4.8389    1.0000 </r>
       <r>    6.1583    1.0000 </r>
       <r>    9.2590    0.0000 </r>
       <r>    9.5173    0.0000 </r>
       <r>    9.7658    0.0000 </r>
       <r>   10.7139    0.0000 </r>
       <r>   10.8351    0.0000 </r>
       <r>   12.4611    0.0000 </r>
       <r>   14.2680    0.0000 </r>
       <r>   14.5030    0.0000 </r>
       <r>   16.4328    0.0000 </r>
       <r>   17.6752    0.0000 </r>
       <r>   18.8843    0.0000 </r>
       <r>   19.8923    0.0000 </r>
      </set>
      <set comment="kpoint 82">
       <r>  -23.2968    1.0000 </r>
       <r>  -23.2861    1.0000 </r>
       <r>  -23.2826    1.0000 </r>
       <r>   -2.2474    1.0000 </r>
       <r>    1.8886    1.0000 </r>
       <r>    2.7398    1.0000 </r>
       <r>    3.3597    1.0000 </r>
       <r>    3.7261    1.0000 </r>
       <r>    3.9284    1.0000 </r>
       <r>    4.2702    1.0000 </r>
       <r>    4.9272    1.0000 </r>
       <r>    6.0398    1.0000 </r>
       <r>    8.7523    1.0000 </r>
       <r>    9.3357    0.0000 </r>
       <r>   10.0353    0.0000 </r>
       <r>   10.3914    0.0000 </r>
       <r>   10.8347    0.0000 </r>
       <r>   11.6251    0.0000 </r>
       <r>   14.7580    0.0000 </r>
       <r>   15.8229    0.0000 </r>
       <r>   16.4764    0.0000 </r>
       <r>   17.8776    0.0000 </r>
       <r>   19.3496    0.0000 </r>
       <r>   19.7054    0.0000 </r>
      </set>
      <set comment="kpoint 83">
       <r>  -23.2954    1.0000 </r>
       <r>  -23.2876    1.0000 </r>
       <r>  -23.2825    1.0000 </r>
       <r>   -2.2153    1.0000 </r>
       <r>    2.0123    1.0000 </r>
       <r>    2.5641    1.0000 </r>
       <r>    3.3205    1.0000 </r>
       <r>    3.6210    1.0000 </r>
       <r>    4.1617    1.0000 </r>
       <r>    4.2253    1.0000 </r>
       <r>    4.6873    1.0000 </r>
       <r>    6.0918    1.0000 </r>
       <r>    8.9452    1.0000 </r>
       <r>    9.4999    0.0000 </r>
       <r>    9.8244    0.0000 </r>
       <r>   10.2305    0.0000 </r>
       <r>   10.8214    0.0000 </r>
       <r>   12.3732    0.0000 </r>
       <r>   14.5206    0.0000 </r>
       <r>   15.3368    0.0000 </r>
       <r>   16.3690    0.0000 </r>
       <r>   18.1123    0.0000 </r>
       <r>   19.0690    0.0000 </r>
       <r>   19.6217    0.0000 </r>
      </set>
      <set comment="kpoint 84">
       <r>  -23.2947    1.0000 </r>
       <r>  -23.2884    1.0000 </r>
       <r>  -23.2823    1.0000 </r>
       <r>   -2.2127    1.0000 </r>
       <r>    2.0535    1.0000 </r>
       <r>    2.4720    1.0000 </r>
       <r>    3.3211    1.0000 </r>
       <r>    3.7043    1.0000 </r>
       <r>    4.0916    1.0000 </r>
       <r>    4.2720    1.0000 </r>
       <r>    4.5718    1.0000 </r>
       <r>    6.1384    1.0000 </r>
       <r>    9.2430    0.0000 </r>
       <r>    9.4796    0.0000 </r>
       <r>    9.5481    0.0000 </r>
       <r>   10.2330    0.0000 </r>
       <r>   10.8320    0.0000 </r>
       <r>   12.9911    0.0000 </r>
       <r>   14.4335    0.0000 </r>
       <r>   14.6300    0.0000 </r>
       <r>   16.4544    0.0000 </r>
       <r>   18.1089    0.0000 </r>
       <r>   19.0698    0.0000 </r>
       <r>   19.5432    0.0000 </r>
      </set>
     </set>
    </set>
   </array>
  </eigenvalues>
  <separator name="orbital magnetization" >
   <v name="MAGDIPOLOUT">      0.00000000      0.00000000      0.00000000</v>
  </separator>
  <dos>
   <i name="efermi">      8.99036960 </i>
   <total>
    <array>
     <dimension dim="1">gridpoints</dimension>
     <dimension dim="2">spin</dimension>
     <field>energy</field>
     <field>total</field>
     <field>integrated</field>
     <set>
      <set comment="spin 1">
       <r>   -25.5136     0.0000     0.0000 </r>
       <r>   -25.3512     0.0000     0.0000 </r>
       <r>   -25.1888     0.0000     0.0000 </r>
       <r>   -25.0265     0.0000     0.0000 </r>
       <r>   -24.8641     0.0000     0.0000 </r>
       <r>   -24.7017     0.0000     0.0000 </r>
       <r>   -24.5394     0.0000     0.0000 </r>
       <r>   -24.3770     0.0000     0.0000 </r>
       <r>   -24.2147     0.0000     0.0000 </r>
       <r>   -24.0523     0.0000     0.0000 </r>
       <r>   -23.8899     0.0000     0.0000 </r>
       <r>   -23.7276     0.0000     0.0000 </r>
       <r>   -23.5652     0.0000     0.0000 </r>
       <r>   -23.4029     0.0000     0.0000 </r>
       <r>   -23.2405    36.9545     6.0000 </r>
       <r>   -23.0781     0.0000     6.0000 </r>
       <r>   -22.9158     0.0000     6.0000 </r>
       <r>   -22.7534     0.0000     6.0000 </r>
       <r>   -22.5910     0.0000     6.0000 </r>
       <r>   -22.4287     0.0000     6.0000 </r>
       <r>   -22.2663     0.0000     6.0000 </r>
       <r>   -22.1040     0.0000     6.0000 </r>
       <r>   -21.9416     0.0000     6.0000 </r>
       <r>   -21.7792     0.0000     6.0000 </r>
       <r>   -21.6169     0.0000     6.0000 </r>
       <r>   -21.4545     0.0000     6.0000 </r>
       <r>   -21.2921     0.0000     6.0000 </r>
       <r>   -21.1298     0.0000     6.0000 </r>
       <r>   -20.9674     0.0000     6.0000 </r>
       <r>   -20.8051     0.0000     6.0000 </r>
       <r>   -20.6427     0.0000     6.0000 </r>
       <r>   -20.4803     0.0000     6.0000 </r>
       <r>   -20.3180     0.0000     6.0000 </r>
       <r>   -20.1556     0.0000     6.0000 </r>
       <r>   -19.9933     0.0000     6.0000 </r>
       <r>   -19.8309     0.0000     6.0000 </r>
       <r>   -19.6685     0.0000     6.0000 </r>
       <r>   -19.5062     0.0000     6.0000 </r>
       <r>   -19.3438     0.0000     6.0000 </r>
       <r>   -19.1814     0.0000     6.0000 </r>
       <r>   -19.0191     0.0000     6.0000 </r>
       <r>   -18.8567     0.0000     6.0000 </r>
       <r>   -18.6944     0.0000     6.0000 </r>
       <r>   -18.5320     0.0000     6.0000 </r>
       <r>   -18.3696     0.0000     6.0000 </r>
       <r>   -18.2073     0.0000     6.0000 </r>
       <r>   -18.0449     0.0000     6.0000 </r>
       <r>   -17.8825     0.0000     6.0000 </r>
       <r>   -17.7202     0.0000     6.0000 </r>
       <r>   -17.5578     0.0000     6.0000 </r>
       <r>   -17.3955     0.0000     6.0000 </r>
       <r>   -17.2331     0.0000     6.0000 </r>
       <r>   -17.0707     0.0000     6.0000 </r>
       <r>   -16.9084     0.0000     6.0000 </r>
       <r>   -16.7460     0.0000     6.0000 </r>
       <r>   -16.5837     0.0000     6.0000 </r>
       <r>   -16.4213     0.0000     6.0000 </r>
       <r>   -16.2589     0.0000     6.0000 </r>
       <r>   -16.0966     0.0000     6.0000 </r>
       <r>   -15.9342     0.0000     6.0000 </r>
       <r>   -15.7718     0.0000     6.0000 </r>
       <r>   -15.6095     0.0000     6.0000 </r>
       <r>   -15.4471     0.0000     6.0000 </r>
       <r>   -15.2848     0.0000     6.0000 </r>
       <r>   -15.1224     0.0000     6.0000 </r>
       <r>   -14.9600     0.0000     6.0000 </r>
       <r>   -14.7977     0.0000     6.0000 </r>
       <r>   -14.6353     0.0000     6.0000 </r>
       <r>   -14.4729     0.0000     6.0000 </r>
       <r>   -14.3106     0.0000     6.0000 </r>
       <r>   -14.1482     0.0000     6.0000 </r>
       <r>   -13.9859     0.0000     6.0000 </r>
       <r>   -13.8235     0.0000     6.0000 </r>
       <r>   -13.6611     0.0000     6.0000 </r>
       <r>   -13.4988     0.0000     6.0000 </r>
       <r>   -13.3364     0.0000     6.0000 </r>
       <r>   -13.1741     0.0000     6.0000 </r>
       <r>   -13.0117     0.0000     6.0000 </r>
       <r>   -12.8493     0.0000     6.0000 </r>
       <r>   -12.6870     0.0000     6.0000 </r>
       <r>   -12.5246     0.0000     6.0000 </r>
       <r>   -12.3622     0.0000     6.0000 </r>
       <r>   -12.1999     0.0000     6.0000 </r>
       <r>   -12.0375     0.0000     6.0000 </r>
       <r>   -11.8752     0.0000     6.0000 </r>
       <r>   -11.7128     0.0000     6.0000 </r>
       <r>   -11.5504     0.0000     6.0000 </r>
       <r>   -11.3881     0.0000     6.0000 </r>
       <r>   -11.2257     0.0000     6.0000 </r>
       <r>   -11.0633     0.0000     6.0000 </r>
       <r>   -10.9010     0.0000     6.0000 </r>
       <r>   -10.7386     0.0000     6.0000 </r>
       <r>   -10.5763     0.0000     6.0000 </r>
       <r>   -10.4139     0.0000     6.0000 </r>
       <r>   -10.2515     0.0000     6.0000 </r>
       <r>   -10.0892     0.0000     6.0000 </r>
       <r>    -9.9268     0.0000     6.0000 </r>
       <r>    -9.7645     0.0000     6.0000 </r>
       <r>    -9.6021     0.0000     6.0000 </r>
       <r>    -9.4397     0.0000     6.0000 </r>
       <r>    -9.2774     0.0000     6.0000 </r>
       <r>    -9.1150     0.0000     6.0000 </r>
       <r>    -8.9526     0.0000     6.0000 </r>
       <r>    -8.7903     0.0000     6.0000 </r>
       <r>    -8.6279     0.0000     6.0000 </r>
       <r>    -8.4656     0.0000     6.0000 </r>
       <r>    -8.3032     0.0000     6.0000 </r>
       <r>    -8.1408     0.0000     6.0000 </r>
       <r>    -7.9785     0.0000     6.0000 </r>
       <r>    -7.8161     0.0000     6.0000 </r>
       <r>    -7.6537     0.0000     6.0000 </r>
       <r>    -7.4914     0.0000     6.0000 </r>
       <r>    -7.3290     0.0000     6.0000 </r>
       <r>    -7.1667     0.0000     6.0000 </r>
       <r>    -7.0043     0.0000     6.0000 </r>
       <r>    -6.8419     0.0000     6.0000 </r>
       <r>    -6.6796     0.0000     6.0000 </r>
       <r>    -6.5172     0.0000     6.0000 </r>
       <r>    -6.3549     0.0000     6.0000 </r>
       <r>    -6.1925     0.0000     6.0000 </r>
       <r>    -6.0301     0.0000     6.0000 </r>
       <r>    -5.8678     0.0000     6.0000 </r>
       <r>    -5.7054     0.0000     6.0000 </r>
       <r>    -5.5430     0.0000     6.0000 </r>
       <r>    -5.3807     0.0000     6.0000 </r>
       <r>    -5.2183     0.0000     6.0000 </r>
       <r>    -5.0560     0.0000     6.0000 </r>
       <r>    -4.8936     0.0000     6.0000 </r>
       <r>    -4.7312     0.0000     6.0000 </r>
       <r>    -4.5689     0.0000     6.0000 </r>
       <r>    -4.4065     0.0000     6.0000 </r>
       <r>    -4.2442     0.0000     6.0000 </r>
       <r>    -4.0818     0.0000     6.0000 </r>
       <r>    -3.9194     0.0000     6.0000 </r>
       <r>    -3.7571     0.0756     6.0132 </r>
       <r>    -3.5947     0.1703     6.0522 </r>
       <r>    -3.4323     0.2637     6.1020 </r>
       <r>    -3.2700     0.1794     6.1538 </r>
       <r>    -3.1076     0.4477     6.2375 </r>
       <r>    -2.9453     0.0602     6.3111 </r>
       <r>    -2.7829     0.6777     6.4842 </r>
       <r>    -2.6205     0.6189     6.6330 </r>
       <r>    -2.4582     0.4757     6.8683 </r>
       <r>    -2.2958     1.9795     7.4529 </r>
       <r>    -2.1334     0.1346     8.0000 </r>
       <r>    -1.9711     0.0000     8.0000 </r>
       <r>    -1.8087     0.0000     8.0000 </r>
       <r>    -1.6464     0.0000     8.0000 </r>
       <r>    -1.4840     0.0000     8.0000 </r>
       <r>    -1.3216     0.0000     8.0000 </r>
       <r>    -1.1593     0.0000     8.0000 </r>
       <r>    -0.9969     0.0000     8.0000 </r>
       <r>    -0.8346     0.0000     8.0000 </r>
       <r>    -0.6722     0.0000     8.0000 </r>
       <r>    -0.5098     0.0000     8.0000 </r>
       <r>    -0.3475     0.0000     8.0000 </r>
       <r>    -0.1851     0.0000     8.0000 </r>
       <r>    -0.0227     0.0000     8.0000 </r>
       <r>     0.1396     0.0000     8.0000 </r>
       <r>     0.3020     0.0000     8.0000 </r>
       <r>     0.4643     0.0000     8.0000 </r>
       <r>     0.6267     0.0000     8.0000 </r>
       <r>     0.7891     0.0000     8.0000 </r>
       <r>     0.9514     0.0000     8.0000 </r>
       <r>     1.1138     0.0000     8.0000 </r>
       <r>     1.2762     0.0042     8.0007 </r>
       <r>     1.4385     0.5656     8.1210 </r>
       <r>     1.6009     2.6222     8.6406 </r>
       <r>     1.7632     1.8811     9.3141 </r>
       <r>     1.9256     0.8095     9.6644 </r>
       <r>     2.0880     0.4001     9.8565 </r>
       <r>     2.2503     0.3027     9.9172 </r>
       <r>     2.4127     0.1346     9.9463 </r>
       <r>     2.5750     0.6766    10.1435 </r>
       <r>     2.7374     4.6644    11.2789 </r>
       <r>     2.8998     2.3670    12.1312 </r>
       <r>     3.0621     2.1928    12.9905 </r>
       <r>     3.2245     1.3694    13.5232 </r>
       <r>     3.3869     1.0988    13.9271 </r>
       <r>     3.5492     0.7638    14.1349 </r>
       <r>     3.7116     1.9371    14.5712 </r>
       <r>     3.8739     3.6538    15.5545 </r>
       <r>     4.0363     4.2812    16.9527 </r>
       <r>     4.1987     2.1580    18.0700 </r>
       <r>     4.3610     2.6449    18.9684 </r>
       <r>     4.5234     0.8607    19.3887 </r>
       <r>     4.6858     0.1242    19.5932 </r>
       <r>     4.8481     0.6606    19.8005 </r>
       <r>     5.0105     0.4037    19.9827 </r>
       <r>     5.1728     1.2577    20.2524 </r>
       <r>     5.3352     0.6470    20.4883 </r>
       <r>     5.4976     0.3774    20.6302 </r>
       <r>     5.6599     0.9404    20.9565 </r>
       <r>     5.8223     0.8857    21.1770 </r>
       <r>     5.9846     1.0051    21.5423 </r>
       <r>     6.1470     3.1597    22.2090 </r>
       <r>     6.3094     0.9689    22.6999 </r>
       <r>     6.4717     1.2769    23.1650 </r>
       <r>     6.6341     1.3871    23.5761 </r>
       <r>     6.7965     0.7677    23.7742 </r>
       <r>     6.9588     0.4588    23.8933 </r>
       <r>     7.1212     0.2847    23.9707 </r>
       <r>     7.2835     0.1570    23.9973 </r>
       <r>     7.4459     0.0000    24.0000 </r>
       <r>     7.6083     0.0000    24.0000 </r>
       <r>     7.7706     0.0000    24.0000 </r>
       <r>     7.9330     0.0000    24.0000 </r>
       <r>     8.0954     0.0000    24.0009 </r>
       <r>     8.2577     0.0449    24.0082 </r>
       <r>     8.4201     0.2862    24.0656 </r>
       <r>     8.5824     0.5587    24.2427 </r>
       <r>     8.7448     0.7174    24.4451 </r>
       <r>     8.9072     0.5964    24.7386 </r>
       <r>     9.0695     1.0794    25.1793 </r>
       <r>     9.2319     1.7263    25.8215 </r>
       <r>     9.3942     1.0436    26.2241 </r>
       <r>     9.5566     1.6216    26.7658 </r>
       <r>     9.7190     1.9198    27.4041 </r>
       <r>     9.8813     1.2996    28.2684 </r>
       <r>    10.0437     2.5592    28.8998 </r>
       <r>    10.2061     1.6162    29.6807 </r>
       <r>    10.3684     0.2524    29.9163 </r>
       <r>    10.5308     1.0133    30.3675 </r>
       <r>    10.6931     1.7516    30.9571 </r>
       <r>    10.8555     3.1173    31.8234 </r>
       <r>    11.0179     2.3363    32.7671 </r>
       <r>    11.1802     1.0129    33.1695 </r>
       <r>    11.3426     1.2781    33.6786 </r>
       <r>    11.5050     0.7351    33.8526 </r>
       <r>    11.6673     0.6989    34.2018 </r>
       <r>    11.8297     0.5832    34.5143 </r>
       <r>    11.9920     0.5407    34.6895 </r>
       <r>    12.1544     1.4923    35.0625 </r>
       <r>    12.3168     0.7789    35.3673 </r>
       <r>    12.4791     0.5390    35.5176 </r>
       <r>    12.6415     0.4432    35.6386 </r>
       <r>    12.8038     0.2222    35.8322 </r>
       <r>    12.9662     0.1346    35.9782 </r>
       <r>    13.1286     0.8611    36.1407 </r>
       <r>    13.2909     0.4096    36.2713 </r>
       <r>    13.4533     1.0686    36.4748 </r>
       <r>    13.6157     0.5781    36.7193 </r>
       <r>    13.7780     1.1616    36.9633 </r>
       <r>    13.9404     1.6967    37.3724 </r>
       <r>    14.1027     1.4976    37.8299 </r>
       <r>    14.2651     0.8536    38.2606 </r>
       <r>    14.4275     0.1627    38.5417 </r>
       <r>    14.5898     1.0153    38.8986 </r>
       <r>    14.7522     0.4598    39.2581 </r>
       <r>    14.9146     0.2609    39.5644 </r>
       <r>    15.0769     0.7030    39.7892 </r>
       <r>    15.2393     0.1794    39.9627 </r>
       <r>    15.4016     1.7488    40.3559 </r>
       <r>    15.5640     0.3812    40.5853 </r>
       <r>    15.7264     0.7561    40.7682 </r>
       <r>    15.8887     1.2101    41.0331 </r>
       <r>    16.0511     0.7373    41.3787 </r>
       <r>    16.2134     0.5790    41.6953 </r>
       <r>    16.3758     0.9201    41.9591 </r>
       <r>    16.5382     0.8590    42.2351 </r>
       <r>    16.7005     0.7738    42.4397 </r>
       <r>    16.8629     0.3503    42.5202 </r>
       <r>    17.0253     0.1252    42.6366 </r>
       <r>    17.1876     0.4220    42.7394 </r>
       <r>    17.3500     0.1346    42.9003 </r>
       <r>    17.5123     0.7173    43.0605 </r>
       <r>    17.6747     1.5528    43.3709 </r>
       <r>    17.8371     0.6265    43.7667 </r>
       <r>    17.9994     0.9323    44.1623 </r>
       <r>    18.1618     0.8842    44.5113 </r>
       <r>    18.3242     0.8046    44.7005 </r>
       <r>    18.4865     0.5446    44.9387 </r>
       <r>    18.6489     0.6051    45.1488 </r>
       <r>    18.8112     0.7836    45.3853 </r>
       <r>    18.9736     0.7970    45.7261 </r>
       <r>    19.1360     1.3456    46.1429 </r>
       <r>    19.2983     1.1742    46.4537 </r>
       <r>    19.4607     0.8557    46.7188 </r>
       <r>    19.6230     1.2678    46.9605 </r>
       <r>    19.7854     1.1143    47.3288 </r>
       <r>    19.9478     1.1306    47.5827 </r>
       <r>    20.1101     0.7904    47.9426 </r>
       <r>    20.2725     0.0000    47.9727 </r>
       <r>    20.4349     0.1346    47.9945 </r>
       <r>    20.5972     0.0000    47.9945 </r>
       <r>    20.7596     0.0000    47.9945 </r>
       <r>    20.9219     0.0000    47.9945 </r>
       <r>    21.0843     0.0000    48.0000 </r>
       <r>    21.2467     0.0000    48.0000 </r>
       <r>    21.4090     0.0000    48.0000 </r>
       <r>    21.5714     0.0000    48.0000 </r>
       <r>    21.7337     0.0000    48.0000 </r>
       <r>    21.8961     0.0000    48.0000 </r>
       <r>    22.0585     0.0000    48.0000 </r>
       <r>    22.2208     0.0000    48.0000 </r>
       <r>    22.3832     0.0000    48.0000 </r>
       <r>    22.5456     0.0000    48.0000 </r>
       <r>    22.7079     0.0000    48.0000 </r>
       <r>    22.8703     0.0000    48.0000 </r>
       <r>    23.0326     0.0000    48.0000 </r>
       <r>    23.1950     0.0000    48.0000 </r>
      </set>
     </set>
    </array>
   </total>
  </dos>
 </calculation>
 <structure name="finalpos" >
  <crystal>
   <varray name="basis" >
    <v>       0.00000000       3.17828400       3.17828400 </v>
    <v>       3.17828400       0.00000000       3.17828400 </v>
    <v>       3.17828400       3.17828400       0.00000000 </v>
   </varray>
   <i name="volume">     64.21080290 </i>
   <varray name="rec_basis" >
    <v>      -0.15731760       0.15731760       0.15731760 </v>
    <v>       0.15731760      -0.15731760       0.15731760 </v>
    <v>       0.15731760       0.15731760      -0.15731760 </v>
   </varray>
  </crystal>
  <varray name="positions" >
   <v>       0.75000000       0.75000000       0.75000000 </v>
   <v>       0.25000000       0.25000000       0.25000000 </v>
   <v>       0.00314635      -0.00314635      -0.00314635 </v>
  </varray>
 </structure>
</modeling>
