   3   3   0   0
  0.2892415E+02  0.4969343E-09  0.4969343E-09  0.4969343E-09  0.5000000E-15
  1.000000000000000E-004
  CAR
 unknown system
     11.57586954    -34.81928136  301      7.59340824      1.00000000
    -34.819  0.0000E+00  0.0000E+00
    -34.665  0.0000E+00  0.0000E+00
    -34.510  0.0000E+00  0.0000E+00
    -34.355  0.0000E+00  0.0000E+00
    -34.201  0.0000E+00  0.0000E+00
    -34.046  0.0000E+00  0.0000E+00
    -33.891  0.0000E+00  0.0000E+00
    -33.737  0.0000E+00  0.0000E+00
    -33.582  0.0000E+00  0.0000E+00
    -33.427  0.0000E+00  0.0000E+00
    -33.273  0.0000E+00  0.0000E+00
    -33.118  0.0000E+00  0.0000E+00
    -32.963  0.0000E+00  0.0000E+00
    -32.809  0.0000E+00  0.0000E+00
    -32.654  0.1293E+02  0.2000E+01
    -32.500  0.0000E+00  0.2000E+01
    -32.345  0.0000E+00  0.2000E+01
    -32.190  0.0000E+00  0.2000E+01
    -32.036  0.0000E+00  0.2000E+01
    -31.881  0.0000E+00  0.2000E+01
    -31.726  0.0000E+00  0.2000E+01
    -31.572  0.0000E+00  0.2000E+01
    -31.417  0.0000E+00  0.2000E+01
    -31.262  0.0000E+00  0.2000E+01
    -31.108  0.0000E+00  0.2000E+01
    -30.953  0.0000E+00  0.2000E+01
    -30.798  0.0000E+00  0.2000E+01
    -30.644  0.0000E+00  0.2000E+01
    -30.489  0.0000E+00  0.2000E+01
    -30.334  0.0000E+00  0.2000E+01
    -30.180  0.0000E+00  0.2000E+01
    -30.025  0.0000E+00  0.2000E+01
    -29.870  0.0000E+00  0.2000E+01
    -29.716  0.0000E+00  0.2000E+01
    -29.561  0.0000E+00  0.2000E+01
    -29.407  0.0000E+00  0.2000E+01
    -29.252  0.0000E+00  0.2000E+01
    -29.097  0.0000E+00  0.2000E+01
    -28.943  0.0000E+00  0.2000E+01
    -28.788  0.0000E+00  0.2000E+01
    -28.633  0.0000E+00  0.2000E+01
    -28.479  0.0000E+00  0.2000E+01
    -28.324  0.0000E+00  0.2000E+01
    -28.169  0.0000E+00  0.2000E+01
    -28.015  0.0000E+00  0.2000E+01
    -27.860  0.0000E+00  0.2000E+01
    -27.705  0.0000E+00  0.2000E+01
    -27.551  0.0000E+00  0.2000E+01
    -27.396  0.0000E+00  0.2000E+01
    -27.241  0.0000E+00  0.2000E+01
    -27.087  0.0000E+00  0.2000E+01
    -26.932  0.0000E+00  0.2000E+01
    -26.777  0.0000E+00  0.2000E+01
    -26.623  0.0000E+00  0.2000E+01
    -26.468  0.0000E+00  0.2000E+01
    -26.314  0.0000E+00  0.2000E+01
    -26.159  0.0000E+00  0.2000E+01
    -26.004  0.0000E+00  0.2000E+01
    -25.850  0.0000E+00  0.2000E+01
    -25.695  0.0000E+00  0.2000E+01
    -25.540  0.0000E+00  0.2000E+01
    -25.386  0.0000E+00  0.2000E+01
    -25.231  0.0000E+00  0.2000E+01
    -25.076  0.0000E+00  0.2000E+01
    -24.922  0.0000E+00  0.2000E+01
    -24.767  0.0000E+00  0.2000E+01
    -24.612  0.0000E+00  0.2000E+01
    -24.458  0.0000E+00  0.2000E+01
    -24.303  0.0000E+00  0.2000E+01
    -24.148  0.0000E+00  0.2000E+01
    -23.994  0.0000E+00  0.2000E+01
    -23.839  0.0000E+00  0.2000E+01
    -23.684  0.0000E+00  0.2000E+01
    -23.530  0.0000E+00  0.2000E+01
    -23.375  0.0000E+00  0.2000E+01
    -23.220  0.0000E+00  0.2000E+01
    -23.066  0.0000E+00  0.2000E+01
    -22.911  0.0000E+00  0.2000E+01
    -22.757  0.0000E+00  0.2000E+01
    -22.602  0.0000E+00  0.2000E+01
    -22.447  0.0000E+00  0.2000E+01
    -22.293  0.0000E+00  0.2000E+01
    -22.138  0.0000E+00  0.2000E+01
    -21.983  0.0000E+00  0.2000E+01
    -21.829  0.0000E+00  0.2000E+01
    -21.674  0.0000E+00  0.2000E+01
    -21.519  0.0000E+00  0.2000E+01
    -21.365  0.0000E+00  0.2000E+01
    -21.210  0.0000E+00  0.2000E+01
    -21.055  0.0000E+00  0.2000E+01
    -20.901  0.0000E+00  0.2000E+01
    -20.746  0.0000E+00  0.2000E+01
    -20.591  0.0000E+00  0.2000E+01
    -20.437  0.0000E+00  0.2000E+01
    -20.282  0.0000E+00  0.2000E+01
    -20.127  0.0000E+00  0.2000E+01
    -19.973  0.0000E+00  0.2000E+01
    -19.818  0.0000E+00  0.2000E+01
    -19.664  0.0000E+00  0.2000E+01
    -19.509  0.0000E+00  0.2000E+01
    -19.354  0.0000E+00  0.2000E+01
    -19.200  0.0000E+00  0.2000E+01
    -19.045  0.0000E+00  0.2000E+01
    -18.890  0.0000E+00  0.2000E+01
    -18.736  0.0000E+00  0.2000E+01
    -18.581  0.0000E+00  0.2000E+01
    -18.426  0.0000E+00  0.2000E+01
    -18.272  0.0000E+00  0.2000E+01
    -18.117  0.0000E+00  0.2000E+01
    -17.962  0.0000E+00  0.2000E+01
    -17.808  0.0000E+00  0.2000E+01
    -17.653  0.0000E+00  0.2000E+01
    -17.498  0.0000E+00  0.2000E+01
    -17.344  0.0000E+00  0.2000E+01
    -17.189  0.0000E+00  0.2000E+01
    -17.034  0.0000E+00  0.2000E+01
    -16.880  0.0000E+00  0.2000E+01
    -16.725  0.0000E+00  0.2000E+01
    -16.571  0.0000E+00  0.2000E+01
    -16.416  0.0000E+00  0.2000E+01
    -16.261  0.0000E+00  0.2000E+01
    -16.107  0.0000E+00  0.2000E+01
    -15.952  0.0000E+00  0.2000E+01
    -15.797  0.0000E+00  0.2000E+01
    -15.643  0.0000E+00  0.2000E+01
    -15.488  0.0000E+00  0.2000E+01
    -15.333  0.0000E+00  0.2000E+01
    -15.179  0.4007E+02  0.1200E+02
    -15.024  0.0000E+00  0.1200E+02
    -14.869  0.0000E+00  0.1200E+02
    -14.715  0.0000E+00  0.1200E+02
    -14.560  0.0000E+00  0.1200E+02
    -14.405  0.0000E+00  0.1200E+02
    -14.251  0.0000E+00  0.1200E+02
    -14.096  0.0000E+00  0.1200E+02
    -13.941  0.0000E+00  0.1200E+02
    -13.787  0.0000E+00  0.1200E+02
    -13.632  0.0000E+00  0.1200E+02
    -13.478  0.0000E+00  0.1200E+02
    -13.323  0.0000E+00  0.1200E+02
    -13.168  0.0000E+00  0.1200E+02
    -13.014  0.0000E+00  0.1200E+02
    -12.859  0.0000E+00  0.1200E+02
    -12.704  0.0000E+00  0.1200E+02
    -12.550  0.0000E+00  0.1200E+02
    -12.395  0.0000E+00  0.1200E+02
    -12.240  0.0000E+00  0.1200E+02
    -12.086  0.0000E+00  0.1200E+02
    -11.931  0.0000E+00  0.1200E+02
    -11.776  0.0000E+00  0.1200E+02
    -11.622  0.0000E+00  0.1200E+02
    -11.467  0.0000E+00  0.1200E+02
    -11.312  0.0000E+00  0.1200E+02
    -11.158  0.0000E+00  0.1200E+02
    -11.003  0.0000E+00  0.1200E+02
    -10.848  0.0000E+00  0.1200E+02
    -10.694  0.1025E+02  0.1358E+02
    -10.539  0.1854E+02  0.1800E+02
    -10.385  0.0000E+00  0.1800E+02
    -10.230  0.0000E+00  0.1800E+02
    -10.075  0.0000E+00  0.1800E+02
     -9.921  0.0000E+00  0.1800E+02
     -9.766  0.0000E+00  0.1800E+02
     -9.611  0.0000E+00  0.1800E+02
     -9.457  0.0000E+00  0.1800E+02
     -9.302  0.0000E+00  0.1800E+02
     -9.147  0.0000E+00  0.1800E+02
     -8.993  0.0000E+00  0.1800E+02
     -8.838  0.0000E+00  0.1800E+02
     -8.683  0.0000E+00  0.1800E+02
     -8.529  0.0000E+00  0.1800E+02
     -8.374  0.0000E+00  0.1800E+02
     -8.219  0.0000E+00  0.1800E+02
     -8.065  0.0000E+00  0.1800E+02
     -7.910  0.0000E+00  0.1800E+02
     -7.755  0.0000E+00  0.1800E+02
     -7.601  0.0000E+00  0.1800E+02
     -7.446  0.0000E+00  0.1800E+02
     -7.291  0.0000E+00  0.1800E+02
     -7.137  0.0000E+00  0.1800E+02
     -6.982  0.0000E+00  0.1800E+02
     -6.828  0.0000E+00  0.1800E+02
     -6.673  0.0000E+00  0.1800E+02
     -6.518  0.0000E+00  0.1800E+02
     -6.364  0.0000E+00  0.1800E+02
     -6.209  0.0000E+00  0.1800E+02
     -6.054  0.0000E+00  0.1800E+02
     -5.900  0.0000E+00  0.1800E+02
     -5.745  0.0000E+00  0.1800E+02
     -5.590  0.0000E+00  0.1800E+02
     -5.436  0.0000E+00  0.1800E+02
     -5.281  0.0000E+00  0.1800E+02
     -5.126  0.0000E+00  0.1800E+02
     -4.972  0.0000E+00  0.1800E+02
     -4.817  0.0000E+00  0.1800E+02
     -4.662  0.0000E+00  0.1800E+02
     -4.508  0.0000E+00  0.1800E+02
     -4.353  0.0000E+00  0.1800E+02
     -4.198  0.6370E-01  0.1801E+02
     -4.044  0.1952E+00  0.1805E+02
     -3.889  0.3070E+00  0.1815E+02
     -3.735  0.7180E+00  0.1832E+02
     -3.580  0.3620E+01  0.1922E+02
     -3.425  0.1206E+01  0.1998E+02
     -3.271  0.0000E+00  0.2000E+02
     -3.116  0.0000E+00  0.2000E+02
     -2.961  0.0000E+00  0.2000E+02
     -2.807  0.0000E+00  0.2000E+02
     -2.652  0.0000E+00  0.2000E+02
     -2.497  0.0000E+00  0.2000E+02
     -2.343  0.0000E+00  0.2000E+02
     -2.188  0.0000E+00  0.2000E+02
     -2.033  0.0000E+00  0.2000E+02
     -1.879  0.0000E+00  0.2000E+02
     -1.724  0.0000E+00  0.2000E+02
     -1.569  0.0000E+00  0.2000E+02
     -1.415  0.0000E+00  0.2000E+02
     -1.260  0.0000E+00  0.2000E+02
     -1.105  0.0000E+00  0.2000E+02
     -0.951  0.0000E+00  0.2000E+02
     -0.796  0.0000E+00  0.2000E+02
     -0.642  0.0000E+00  0.2000E+02
     -0.487  0.0000E+00  0.2000E+02
     -0.332  0.0000E+00  0.2000E+02
     -0.178  0.0000E+00  0.2000E+02
     -0.023  0.0000E+00  0.2000E+02
      0.132  0.0000E+00  0.2000E+02
      0.286  0.0000E+00  0.2000E+02
      0.441  0.0000E+00  0.2000E+02
      0.596  0.0000E+00  0.2000E+02
      0.750  0.0000E+00  0.2000E+02
      0.905  0.0000E+00  0.2000E+02
      1.060  0.0000E+00  0.2000E+02
      1.214  0.0000E+00  0.2000E+02
      1.369  0.0000E+00  0.2000E+02
      1.524  0.0000E+00  0.2000E+02
      1.678  0.0000E+00  0.2000E+02
      1.833  0.0000E+00  0.2000E+02
      1.988  0.1879E+00  0.2003E+02
      2.142  0.7734E+00  0.2019E+02
      2.297  0.2964E+01  0.2076E+02
      2.451  0.6331E+00  0.2110E+02
      2.606  0.6533E+00  0.2145E+02
      2.761  0.1354E+01  0.2172E+02
      2.915  0.8998E+00  0.2192E+02
      3.070  0.2483E+01  0.2235E+02
      3.225  0.2943E+01  0.2360E+02
      3.379  0.3449E+01  0.2454E+02
      3.534  0.3054E+01  0.2543E+02
      3.689  0.9183E+00  0.2601E+02
      3.843  0.3189E+00  0.2610E+02
      3.998  0.8171E+01  0.2745E+02
      4.153  0.6512E+01  0.2940E+02
      4.307  0.2968E+01  0.3063E+02
      4.462  0.2523E+01  0.3138E+02
      4.617  0.8372E+00  0.3166E+02
      4.771  0.1017E+01  0.3192E+02
      4.926  0.4667E+00  0.3209E+02
      5.081  0.1372E+01  0.3246E+02
      5.235  0.7765E+00  0.3263E+02
      5.390  0.1214E+01  0.3301E+02
      5.544  0.6900E+00  0.3319E+02
      5.699  0.1666E+01  0.3355E+02
      5.854  0.2449E+00  0.3365E+02
      6.008  0.6152E+01  0.3501E+02
      6.163  0.1397E+01  0.3579E+02
      6.318  0.4945E+00  0.3593E+02
      6.472  0.7064E-01  0.3597E+02
      6.627  0.1033E+00  0.3600E+02
      6.782  0.4712E-01  0.3601E+02
      6.936  0.8239E-01  0.3603E+02
      7.091  0.4710E-01  0.3605E+02
      7.246  0.5631E+00  0.3618E+02
      7.400  0.7291E+00  0.3635E+02
      7.555  0.1598E+01  0.3683E+02
      7.710  0.1439E+01  0.3740E+02
      7.864  0.1098E+01  0.3781E+02
      8.019  0.7241E+00  0.3814E+02
      8.174  0.5131E+00  0.3833E+02
      8.328  0.9009E+00  0.3847E+02
      8.483  0.1502E+01  0.3877E+02
      8.638  0.2886E+01  0.3946E+02
      8.792  0.2945E+01  0.4036E+02
      8.947  0.2136E+01  0.4094E+02
      9.101  0.5320E+01  0.4218E+02
      9.256  0.8551E+01  0.4434E+02
      9.411  0.5104E+01  0.4680E+02
      9.565  0.0000E+00  0.4800E+02
      9.720  0.0000E+00  0.4800E+02
      9.875  0.0000E+00  0.4800E+02
     10.029  0.0000E+00  0.4800E+02
     10.184  0.0000E+00  0.4800E+02
     10.339  0.0000E+00  0.4800E+02
     10.493  0.0000E+00  0.4800E+02
     10.648  0.0000E+00  0.4800E+02
     10.803  0.0000E+00  0.4800E+02
     10.957  0.0000E+00  0.4800E+02
     11.112  0.0000E+00  0.4800E+02
     11.267  0.0000E+00  0.4800E+02
     11.421  0.0000E+00  0.4800E+02
     11.576  0.0000E+00  0.4800E+02
