    3    3    1    1
  0.2892415E+02  0.4969343E-09  0.4969343E-09  0.4969343E-09  0.5000000E-15
  1.000000000000000E-004
  CAR
 unknown system
     37     84     24

  0.0000000E+00  0.0000000E+00  0.0000000E+00  0.4551661E-03
    1      -32.710411   1.000000
    2      -15.260346   1.000000
    3      -15.260346   1.000000
    4      -15.232028   1.000000
    5      -15.232028   1.000000
    6      -15.232028   1.000000
    7      -10.595779   1.000000
    8      -10.595779   1.000000
    9      -10.595779   1.000000
   10       -4.258238   1.000000
   11        3.591826   1.000000
   12        3.591826   1.000000
   13        3.591826   1.000000
   14        3.863147   1.000000
   15        3.863147   1.000000
   16        5.447372   1.000000
   17        6.626751   1.000000
   18        6.626751   1.000000
   19        6.626751   1.000000
   20        7.857023   0.000000
   21        7.857023   0.000000
   22        7.857023   0.000000
   23        8.585527   0.000000
   24        9.374640   0.000000

  0.7692308E-01 -0.1916550E-17  0.1828089E-17  0.3641329E-02
    1      -32.710225   1.000000
    2      -15.260826   1.000000
    3      -15.260826   1.000000
    4      -15.232116   1.000000
    5      -15.231926   1.000000
    6      -15.231926   1.000000
    7      -10.606572   1.000000
    8      -10.594541   1.000000
    9      -10.594541   1.000000
   10       -4.210589   1.000000
   11        3.451888   1.000000
   12        3.503016   1.000000
   13        3.503016   1.000000
   14        3.946836   1.000000
   15        3.946836   1.000000
   16        5.295297   1.000000
   17        6.547819   1.000000
   18        6.547819   1.000000
   19        6.702444   1.000000
   20        7.941645   0.000000
   21        7.945056   0.000000
   22        7.945056   0.000000
   23        8.771444   0.000000
   24        9.382764   0.000000

  0.1538462E+00  0.2946462E-17 -0.3123383E-17  0.3641329E-02
    1      -32.709703   1.000000
    2      -15.262146   1.000000
    3      -15.262146   1.000000
    4      -15.232373   1.000000
    5      -15.231629   1.000000
    6      -15.231629   1.000000
    7      -10.635744   1.000000
    8      -10.591122   1.000000
    9      -10.591122   1.000000
   10       -4.077992   1.000000
   11        3.112520   1.000000
   12        3.366860   1.000000
   13        3.366860   1.000000
   14        4.059344   1.000000
   15        4.059344   1.000000
   16        4.962932   1.000000
   17        6.381603   1.000000
   18        6.381603   1.000000
   19        6.804283   1.000000
   20        8.152220   0.000000
   21        8.152220   0.000000
   22        8.304241   0.000000
   23        9.094929   0.000000
   24        9.406172   0.000000

  0.2307692E+00  0.1029912E-17 -0.1295295E-17  0.3641329E-02
    1      -32.708965   1.000000
    2      -15.264021   1.000000
    3      -15.264021   1.000000
    4      -15.232766   1.000000
    5      -15.231185   1.000000
    6      -15.231185   1.000000
    7      -10.675121   1.000000
    8      -10.586316   1.000000
    9      -10.586316   1.000000
   10       -3.889514   1.000000
   11        2.711460   1.000000
   12        3.258905   1.000000
   13        3.258905   1.000000
   14        4.108937   1.000000
   15        4.108937   1.000000
   16        4.613591   1.000000
   17        6.230394   1.000000
   18        6.230394   1.000000
   19        6.894443   1.000000
   20        8.400222   0.000000
   21        8.400222   0.000000
   22        8.829016   0.000000
   23        9.337020   0.000000
   24        9.406363   0.000000

  0.3076923E+00  0.5892923E-17 -0.6246767E-17  0.3641329E-02
    1      -32.708184   1.000000
    2      -15.266026   1.000000
    3      -15.266026   1.000000
    4      -15.233238   1.000000
    5      -15.230698   1.000000
    6      -15.230698   1.000000
    7      -10.714830   1.000000
    8      -10.581239   1.000000
    9      -10.581239   1.000000
   10       -3.687201   1.000000
   11        2.346417   1.000000
   12        3.194711   1.000000
   13        3.194711   1.000000
   14        4.079675   1.000000
   15        4.079675   1.000000
   16        4.333691   1.000000
   17        6.140763   1.000000
   18        6.140763   1.000000
   19        7.015076   1.000000
   20        8.636538   0.000000
   21        8.636538   0.000000
   22        9.253146   0.000000
   23        9.371535   0.000000
   24        9.372303   0.000000

  0.3846154E+00  0.3976374E-17 -0.4418678E-17  0.3641329E-02
    1      -32.707537   1.000000
    2      -15.267690   1.000000
    3      -15.267690   1.000000
    4      -15.233666   1.000000
    5      -15.230282   1.000000
    6      -15.230282   1.000000
    7      -10.746219   1.000000
    8      -10.577046   1.000000
    9      -10.577046   1.000000
   10       -3.517581   1.000000
   11        2.075598   1.000000
   12        3.170791   1.000000
   13        3.170791   1.000000
   14        4.004947   1.000000
   15        4.004947   1.000000
   16        4.151860   1.000000
   17        6.106033   1.000000
   18        6.106033   1.000000
   19        7.169836   1.000000
   20        8.815863   0.000000
   21        8.815863   0.000000
   22        9.336175   0.000000
   23        9.336444   0.000000
   24        9.388898   0.000000

  0.4615385E+00 -0.5038403E-17  0.4507638E-17  0.3641329E-02
    1      -32.707170   1.000000
    2      -15.268635   1.000000
    3      -15.268635   1.000000
    4      -15.233926   1.000000
    5      -15.230041   1.000000
    6      -15.230041   1.000000
    7      -10.763359   1.000000
    8      -10.574683   1.000000
    9      -10.574683   1.000000
   10       -3.421007   1.000000
   11        1.932418   1.000000
   12        3.169297   1.000000
   13        3.169297   1.000000
   14        3.944027   1.000000
   15        3.944027   1.000000
   16        4.065719   1.000000
   17        6.098292   1.000000
   18        6.098292   1.000000
   19        7.302268   1.000000
   20        8.910108   0.000000
   21        8.910108   0.000000
   22        9.313508   0.000000
   23        9.313521   0.000000
   24        9.316713   0.000000

  0.7692308E-01  0.7692308E-01  0.2050283E-18  0.2730997E-02
    1      -32.710164   1.000000
    2      -15.261690   1.000000
    3      -15.260179   1.000000
    4      -15.232245   1.000000
    5      -15.231841   1.000000
    6      -15.231841   1.000000
    7      -10.603874   1.000000
    8      -10.597306   1.000000
    9      -10.597306   1.000000
   10       -4.195976   1.000000
   11        3.245488   1.000000
   12        3.605874   1.000000
   13        3.605874   1.000000
   14        3.878961   1.000000
   15        3.973070   1.000000
   16        5.286899   1.000000
   17        6.437759   1.000000
   18        6.437759   1.000000
   19        6.914166   1.000000
   20        7.689743   0.000000
   21        8.092023   0.000000
   22        8.092023   0.000000
   23        8.804717   0.000000
   24        9.368455   0.000000

  0.1538462E+00  0.7692308E-01  0.9671746E-18  0.1092399E-01
    1      -32.709753   1.000000
    2      -15.263189   1.000000
    3      -15.260506   1.000000
    4      -15.232475   1.000000
    5      -15.231608   1.000000
    6      -15.231553   1.000000
    7      -10.625524   1.000000
    8      -10.597438   1.000000
    9      -10.593333   1.000000
   10       -4.095510   1.000000
   11        2.970985   1.000000
   12        3.500560   1.000000
   13        3.542572   1.000000
   14        3.956511   1.000000
   15        4.054611   1.000000
   16        5.076674   1.000000
   17        6.256178   1.000000
   18        6.276076   1.000000
   19        7.118838   1.000000
   20        7.708337   0.000000
   21        8.306109   0.000000
   22        8.361278   0.000000
   23        9.045668   0.000000
   24        9.362855   0.000000

  0.2307692E+00  0.7692308E-01 -0.3300305E-17  0.1092399E-01
    1      -32.709090   1.000000
    2      -15.264971   1.000000
    3      -15.261750   1.000000
    4      -15.232769   1.000000
    5      -15.231294   1.000000
    6      -15.231117   1.000000
    7      -10.661190   1.000000
    8      -10.594923   1.000000
    9      -10.587633   1.000000
   10       -3.931923   1.000000
   11        2.677256   1.000000
   12        3.310912   1.000000
   13        3.440201   1.000000
   14        4.026917   1.000000
   15        4.135299   1.000000
   16        4.762146   1.000000
   17        6.082351   1.000000
   18        6.145101   1.000000
   19        7.186535   1.000000
   20        8.016606   0.000000
   21        8.523413   0.000000
   22        8.743300   0.000000
   23        9.286264   0.000000
   24        9.358378   0.000000

  0.3076923E+00  0.7692308E-01 -0.4878475E-17  0.1092399E-01
    1      -32.708327   1.000000
    2      -15.266647   1.000000
    3      -15.263623   1.000000
    4      -15.233127   1.000000
    5      -15.230923   1.000000
    6      -15.230628   1.000000
    7      -10.700193   1.000000
    8      -10.590350   1.000000
    9      -10.582909   1.000000
   10       -3.742431   1.000000
   11        2.390565   1.000000
   12        3.173487   1.000000
   13        3.356974   1.000000
   14        4.023278   1.000000
   15        4.148495   1.000000
   16        4.459346   1.000000
   17        5.982794   1.000000
   18        6.078377   1.000000
   19        7.200020   1.000000
   20        8.404078   0.000000
   21        8.715992   0.000000
   22        9.128393   0.000000
   23        9.348609   0.000000
   24        9.386213   0.000000

  0.3846154E+00  0.7692308E-01 -0.6423688E-17  0.1092399E-01
    1      -32.707637   1.000000
    2      -15.267832   1.000000
    3      -15.265690   1.000000
    4      -15.233485   1.000000
    5      -15.230549   1.000000
    6      -15.230200   1.000000
    7      -10.733636   1.000000
    8      -10.584771   1.000000
    9      -10.580227   1.000000
   10       -3.570511   1.000000
   11        2.155310   1.000000
   12        3.116182   1.000000
   13        3.292568   1.000000
   14        3.974495   1.000000
   15        4.095717   1.000000
   16        4.234024   1.000000
   17        5.947653   1.000000
   18        6.061413   1.000000
   19        7.266350   1.000000
   20        8.694693   0.000000
   21        8.860494   0.000000
   22        9.286647   0.000000
   23        9.328653   0.000000
   24        9.414840   0.000000

  0.4615385E+00  0.7692308E-01  0.2502627E-17  0.1092399E-01
    1      -32.707180   1.000000
    2      -15.268254   1.000000
    3      -15.267457   1.000000
    4      -15.233738   1.000000
    5      -15.230266   1.000000
    6      -15.229949   1.000000
    7      -10.754937   1.000000
    8      -10.580134   1.000000
    9      -10.579449   1.000000
   10       -3.455691   1.000000
   11        2.008299   1.000000
   12        3.127906   1.000000
   13        3.229097   1.000000
   14        3.945183   1.000000
   15        4.018112   1.000000
   16        4.102088   1.000000
   17        5.943905   1.000000
   18        6.062937   1.000000
   19        7.373141   1.000000
   20        8.836045   0.000000
   21        8.938965   0.000000
   22        9.276648   0.000000
   23        9.305568   0.000000
   24        9.399240   0.000000

 -0.4615385E+00  0.7692308E-01  0.2124293E-16  0.1092399E-01
    1      -32.707057   1.000000
    2      -15.268526   1.000000
    3      -15.267817   1.000000
    4      -15.233794   1.000000
    5      -15.230151   1.000000
    6      -15.229938   1.000000
    7      -10.760414   1.000000
    8      -10.582579   1.000000
    9      -10.575590   1.000000
   10       -3.424249   1.000000
   11        1.969440   1.000000
   12        3.158294   1.000000
   13        3.184348   1.000000
   14        3.954185   1.000000
   15        3.977198   1.000000
   16        4.070887   1.000000
   17        5.938766   1.000000
   18        6.066697   1.000000
   19        7.423225   1.000000
   20        8.867090   0.000000
   21        8.936222   0.000000
   22        9.281349   0.000000
   23        9.295642   0.000000
   24        9.368660   0.000000

 -0.3846154E+00  0.7692308E-01  0.2413668E-17  0.1092399E-01
    1      -32.707301   1.000000
    2      -15.268656   1.000000
    3      -15.266608   1.000000
    4      -15.233629   1.000000
    5      -15.230240   1.000000
    6      -15.230165   1.000000
    7      -10.749240   1.000000
    8      -10.586941   1.000000
    9      -10.574071   1.000000
   10       -3.483466   1.000000
   11        2.045379   1.000000
   12        3.098690   1.000000
   13        3.259147   1.000000
   14        3.938866   1.000000
   15        4.059686   1.000000
   16        4.136013   1.000000
   17        5.913799   1.000000
   18        6.078802   1.000000
   19        7.356808   1.000000
   20        8.836453   0.000000
   21        8.877224   0.000000
   22        9.292504   0.000000
   23        9.306859   0.000000
   24        9.416158   0.000000

 -0.3076923E+00  0.7692308E-01  0.4241756E-17  0.1092399E-01
    1      -32.707852   1.000000
    2      -15.267820   1.000000
    3      -15.264899   1.000000
    4      -15.233298   1.000000
    5      -15.230571   1.000000
    6      -15.230513   1.000000
    7      -10.723346   1.000000
    8      -10.592151   1.000000
    9      -10.575249   1.000000
   10       -3.620042   1.000000
   11        2.231874   1.000000
   12        3.076578   1.000000
   13        3.340985   1.000000
   14        3.972433   1.000000
   15        4.148245   1.000000
   16        4.295302   1.000000
   17        5.874653   1.000000
   18        6.122334   1.000000
   19        7.262233   1.000000
   20        8.642105   0.000000
   21        8.785399   0.000000
   22        9.274396   0.000000
   23        9.329651   0.000000
   24        9.416596   0.000000

 -0.2307692E+00  0.7692308E-01  0.1316807E-16  0.1092399E-01
    1      -32.708585   1.000000
    2      -15.266224   1.000000
    3      -15.263091   1.000000
    4      -15.232907   1.000000
    5      -15.231050   1.000000
    6      -15.230905   1.000000
    7      -10.687574   1.000000
    8      -10.596901   1.000000
    9      -10.578872   1.000000
   10       -3.802571   1.000000
   11        2.511454   1.000000
   12        3.108508   1.000000
   13        3.438021   1.000000
   14        4.003023   1.000000
   15        4.193092   1.000000
   16        4.548143   1.000000
   17        5.861883   1.000000
   18        6.222523   1.000000
   19        7.205541   1.000000
   20        8.387074   0.000000
   21        8.542986   0.000000
   22        9.033070   0.000000
   23        9.353205   0.000000
   24        9.408248   0.000000

 -0.1538462E+00  0.7692308E-01  0.1118373E-17  0.1092399E-01
    1      -32.709333   1.000000
    2      -15.264230   1.000000
    3      -15.261600   1.000000
    4      -15.232551   1.000000
    5      -15.231492   1.000000
    6      -15.231320   1.000000
    7      -10.649680   1.000000
    8      -10.599788   1.000000
    9      -10.584115   1.000000
   10       -3.988795   1.000000
   11        2.848589   1.000000
   12        3.198664   1.000000
   13        3.552427   1.000000
   14        3.974507   1.000000
   15        4.165108   1.000000
   16        4.858063   1.000000
   17        5.950963   1.000000
   18        6.375857   1.000000
   19        7.153930   1.000000
   20        8.132967   0.000000
   21        8.160611   0.000000
   22        8.693538   0.000000
   23        9.218383   0.000000
   24        9.384558   0.000000

 -0.7692308E-01  0.7692308E-01 -0.3833099E-17  0.5461994E-02
    1      -32.709926   1.000000
    2      -15.262282   1.000000
    3      -15.260786   1.000000
    4      -15.232280   1.000000
    5      -15.231802   1.000000
    6      -15.231678   1.000000
    7      -10.619871   1.000000
    8      -10.599046   1.000000
    9      -10.589779   1.000000
   10       -4.135942   1.000000
   11        3.187804   1.000000
   12        3.338913   1.000000
   13        3.617907   1.000000
   14        3.918696   1.000000
   15        4.071015   1.000000
   16        5.132160   1.000000
   17        6.212458   1.000000
   18        6.519199   1.000000
   19        6.962872   1.000000
   20        7.910534   0.000000
   21        7.957856   0.000000
   22        8.337749   0.000000
   23        8.967071   0.000000
   24        9.391430   0.000000

  0.1538462E+00  0.1538462E+00  0.4100566E-18  0.2730997E-02
    1      -32.709476   1.000000
    2      -15.264479   1.000000
    3      -15.259703   1.000000
    4      -15.232837   1.000000
    5      -15.231286   1.000000
    6      -15.231286   1.000000
    7      -10.625820   1.000000
    8      -10.601613   1.000000
    9      -10.601613   1.000000
   10       -4.037748   1.000000
   11        2.706563   1.000000
   12        3.636405   1.000000
   13        3.636405   1.000000
   14        3.923614   1.000000
   15        3.984999   1.000000
   16        5.073584   1.000000
   17        6.133511   1.000000
   18        6.133511   1.000000
   19        7.244505   1.000000
   20        7.609973   0.009573
   21        8.502432   0.000000
   22        8.502432   0.000000
   23        9.132650   0.000000
   24        9.339506   0.000000

  0.2307692E+00  0.1538462E+00  0.1474245E-17  0.1092399E-01
    1      -32.708932   1.000000
    2      -15.265710   1.000000
    3      -15.259943   1.000000
    4      -15.233185   1.000000
    5      -15.230949   1.000000
    6      -15.230864   1.000000
    7      -10.650934   1.000000
    8      -10.602696   1.000000
    9      -10.598839   1.000000
   10       -3.919761   1.000000
   11        2.479136   1.000000
   12        3.521917   1.000000
   13        3.597238   1.000000
   14        3.976241   1.000000
   15        4.032718   1.000000
   16        4.910116   1.000000
   17        5.937045   1.000000
   18        6.025049   1.000000
   19        7.423800   1.000000
   20        7.708614   0.000000
   21        8.680078   0.000000
   22        8.747478   0.000000
   23        9.292501   0.000000
   24        9.321046   0.000000

  0.3076923E+00  0.1538462E+00 -0.5163878E-17  0.1092399E-01
    1      -32.708248   1.000000
    2      -15.266613   1.000000
    3      -15.261173   1.000000
    4      -15.233431   1.000000
    5      -15.230688   1.000000
    6      -15.230370   1.000000
    7      -10.685002   1.000000
    8      -10.600466   1.000000
    9      -10.594736   1.000000
   10       -3.770761   1.000000
   11        2.313209   1.000000
   12        3.324578   1.000000
   13        3.520232   1.000000
   14        3.997230   1.000000
   15        4.103562   1.000000
   16        4.656899   1.000000
   17        5.747662   1.000000
   18        5.980429   1.000000
   19        7.469658   1.000000
   20        8.113543   0.000000
   21        8.824132   0.000000
   22        9.028191   0.000000
   23        9.307950   0.000000
   24        9.393743   0.000000

  0.3846154E+00  0.1538462E+00 -0.1649138E-17  0.1092399E-01
    1      -32.707581   1.000000
    2      -15.266987   1.000000
    3      -15.263100   1.000000
    4      -15.233555   1.000000
    5      -15.230535   1.000000
    6      -15.229933   1.000000
    7      -10.716365   1.000000
    8      -10.595441   1.000000
    9      -10.593784   1.000000
   10       -3.625962   1.000000
   11        2.209857   1.000000
   12        3.178882   1.000000
   13        3.431769   1.000000
   14        3.980212   1.000000
   15        4.116576   1.000000
   16        4.403691   1.000000
   17        5.654486   1.000000
   18        5.979919   1.000000
   19        7.456403   1.000000
   20        8.555664   0.000000
   21        8.932003   0.000000
   22        9.216317   0.000000
   23        9.298251   0.000000
   24        9.425342   0.000000

  0.4615385E+00  0.1538462E+00 -0.6600610E-17  0.1092399E-01
    1      -32.707082   1.000000
    2      -15.266756   1.000000
    3      -15.265266   1.000000
    4      -15.233557   1.000000
    5      -15.230477   1.000000
    6      -15.229668   1.000000
    7      -10.738229   1.000000
    8      -10.596436   1.000000
    9      -10.588764   1.000000
   10       -3.516938   1.000000
   11        2.153193   1.000000
   12        3.124527   1.000000
   13        3.321517   1.000000
   14        3.982783   1.000000
   15        4.074541   1.000000
   16        4.222015   1.000000
   17        5.625314   1.000000
   18        5.987093   1.000000
   19        7.508687   1.000000
   20        8.753690   0.000000
   21        8.998183   0.000000
   22        9.247540   0.000000
   23        9.284963   0.000000
   24        9.440610   0.000000

 -0.4615385E+00  0.1538462E+00  0.1213969E-16  0.1092399E-01
    1      -32.706865   1.000000
    2      -15.267160   1.000000
    3      -15.265976   1.000000
    4      -15.233448   1.000000
    5      -15.230489   1.000000
    6      -15.229643   1.000000
    7      -10.746818   1.000000
    8      -10.601829   1.000000
    9      -10.581947   1.000000
   10       -3.465209   1.000000
   11        2.126463   1.000000
   12        3.161675   1.000000
   13        3.197252   1.000000
   14        4.007253   1.000000
   15        4.036108   1.000000
   16        4.148185   1.000000
   17        5.607885   1.000000
   18        5.987212   1.000000
   19        7.594716   0.426612
   20        8.743657   0.000000
   21        9.006025   0.000000
   22        9.271480   0.000000
   23        9.284668   0.000000
   24        9.413212   0.000000

 -0.3846154E+00  0.1538462E+00  0.2106601E-16  0.1092399E-01
    1      -32.706981   1.000000
    2      -15.268363   1.000000
    3      -15.264814   1.000000
    4      -15.233260   1.000000
    5      -15.230557   1.000000
    6      -15.229860   1.000000
    7      -10.741172   1.000000
    8      -10.608259   1.000000
    9      -10.576537   1.000000
   10       -3.480859   1.000000
   11        2.131647   1.000000
   12        3.088332   1.000000
   13        3.265735   1.000000
   14        3.950420   1.000000
   15        4.125246   1.000000
   16        4.190168   1.000000
   17        5.562749   1.000000
   18        5.992717   1.000000
   19        7.623547   0.000010
   20        8.775116   0.000000
   21        8.923867   0.000000
   22        9.274323   0.000000
   23        9.297734   0.000000
   24        9.424156   0.000000

 -0.3076923E+00  0.1538462E+00 -0.1160809E-16  0.1092399E-01
    1      -32.707404   1.000000
    2      -15.268616   1.000000
    3      -15.263526   1.000000
    4      -15.233052   1.000000
    5      -15.230663   1.000000
    6      -15.230257   1.000000
    7      -10.723003   1.000000
    8      -10.613509   1.000000
    9      -10.573774   1.000000
   10       -3.562532   1.000000
   11        2.190780   1.000000
   12        3.022311   1.000000
   13        3.405857   1.000000
   14        3.926042   1.000000
   15        4.212438   1.000000
   16        4.334197   1.000000
   17        5.484631   1.000000
   18        6.031204   1.000000
   19        7.607439   0.023618
   20        8.744782   0.000000
   21        8.793561   0.000000
   22        9.279751   0.000000
   23        9.292434   0.000000
   24        9.451196   0.000000

 -0.2307692E+00  0.1538462E+00  0.4064835E-17  0.1092399E-01
    1      -32.708036   1.000000
    2      -15.267868   1.000000
    3      -15.262395   1.000000
    4      -15.232879   1.000000
    5      -15.230810   1.000000
    6      -15.230735   1.000000
    7      -10.696835   1.000000
    8      -10.615087   1.000000
    9      -10.574312   1.000000
   10       -3.695228   1.000000
   11        2.329703   1.000000
   12        3.016145   1.000000
   13        3.548742   1.000000
   14        3.920270   1.000000
   15        4.257531   1.000000
   16        4.550765   1.000000
   17        5.430609   1.000000
   18        6.125390   1.000000
   19        7.597869   0.264082
   20        8.505027   0.000000
   21        8.617450   0.000000
   22        9.188517   0.000000
   23        9.315791   0.000000
   24        9.453563   0.000000

 -0.1538462E+00  0.1538462E+00  0.5892923E-17  0.5461994E-02
    1      -32.708733   1.000000
    2      -15.266290   1.000000
    3      -15.261693   1.000000
    4      -15.232727   1.000000
    5      -15.231178   1.000000
    6      -15.231021   1.000000
    7      -10.670035   1.000000
    8      -10.610459   1.000000
    9      -10.578044   1.000000
   10       -3.849743   1.000000
   11        2.556794   1.000000
   12        3.076237   1.000000
   13        3.638226   1.000000
   14        3.913193   1.000000
   15        4.239326   1.000000
   16        4.748217   1.000000
   17        5.554518   1.000000
   18        6.262647   1.000000
   19        7.511805   1.000000
   20        8.272964   0.000000
   21        8.290440   0.000000
   22        8.993935   0.000000
   23        9.340977   0.000000
   24        9.356084   0.000000

  0.2307692E+00  0.2307692E+00  0.6150848E-18  0.2730997E-02
    1      -32.708525   1.000000
    2      -15.266060   1.000000
    3      -15.259039   1.000000
    4      -15.233699   1.000000
    5      -15.230459   1.000000
    6      -15.230459   1.000000
    7      -10.655779   1.000000
    8      -10.607862   1.000000
    9      -10.607862   1.000000
   10       -3.859129   1.000000
   11        2.317067   1.000000
   12        3.654823   1.000000
   13        3.654823   1.000000
   14        3.881913   1.000000
   15        3.988767   1.000000
   16        4.904298   1.000000
   17        5.935654   1.000000
   18        5.935654   1.000000
   19        7.213243   1.000000
   20        7.915217   0.000000
   21        8.814640   0.000000
   22        8.814640   0.000000
   23        9.281826   0.000000
   24        9.356569   0.000000

  0.3076923E+00  0.2307692E+00  0.6133310E-18  0.1092399E-01
    1      -32.707963   1.000000
    2      -15.265918   1.000000
    3      -15.259252   1.000000
    4      -15.234055   1.000000
    5      -15.230079   1.000000
    6      -15.229968   1.000000
    7      -10.678147   1.000000
    8      -10.609256   1.000000
    9      -10.608363   1.000000
   10       -3.768602   1.000000
   11        2.241482   1.000000
   12        3.508013   1.000000
   13        3.621861   1.000000
   14        3.935871   1.000000
   15        4.018541   1.000000
   16        4.770372   1.000000
   17        5.766039   1.000000
   18        5.907891   1.000000
   19        7.361232   1.000000
   20        8.091463   0.000000
   21        8.916983   0.000000
   22        8.970804   0.000000
   23        9.254268   0.000000
   24        9.382059   0.000000

  0.3846154E+00  0.2307692E+00 -0.5340800E-17  0.1092399E-01
    1      -32.707377   1.000000
    2      -15.265342   1.000000
    3      -15.260539   1.000000
    4      -15.234153   1.000000
    5      -15.229948   1.000000
    6      -15.229531   1.000000
    7      -10.702846   1.000000
    8      -10.609925   1.000000
    9      -10.606584   1.000000
   10       -3.671466   1.000000
   11        2.254983   1.000000
   12        3.312048   1.000000
   13        3.541758   1.000000
   14        4.025689   1.000000
   15        4.026386   1.000000
   16        4.572636   1.000000
   17        5.537456   1.000000
   18        5.919073   1.000000
   19        7.496264   1.000000
   20        8.448426   0.000000
   21        8.994819   0.000000
   22        9.141980   0.000000
   23        9.252961   0.000000
   24        9.399383   0.000000

  0.4615385E+00  0.2307692E+00  0.5272167E-17  0.1092399E-01
    1      -32.706900   1.000000
    2      -15.264465   1.000000
    3      -15.262563   1.000000
    4      -15.233955   1.000000
    5      -15.230087   1.000000
    6      -15.229253   1.000000
    7      -10.720518   1.000000
    8      -10.616177   1.000000
    9      -10.600460   1.000000
   10       -3.587940   1.000000
   11        2.321427   1.000000
   12        3.182440   1.000000
   13        3.420386   1.000000
   14        4.047129   1.000000
   15        4.058745   1.000000
   16        4.382706   1.000000
   17        5.379328   1.000000
   18        5.925261   1.000000
   19        7.560283   0.999999
   20        8.713710   0.000000
   21        9.052175   0.000000
   22        9.212374   0.000000
   23        9.261195   0.000000
   24        9.451533   0.000000

 -0.4615385E+00  0.2307692E+00  0.1013468E-16  0.1092399E-01
    1      -32.706639   1.000000
    2      -15.264860   1.000000
    3      -15.263510   1.000000
    4      -15.233494   1.000000
    5      -15.230454   1.000000
    6      -15.229219   1.000000
    7      -10.727466   1.000000
    8      -10.626007   1.000000
    9      -10.592266   1.000000
   10       -3.531535   1.000000
   11        2.368160   1.000000
   12        3.147553   1.000000
   13        3.274607   1.000000
   14        4.020220   1.000000
   15        4.103970   1.000000
   16        4.291171   1.000000
   17        5.286011   1.000000
   18        5.911858   1.000000
   19        7.666857   0.000000
   20        8.689677   0.000000
   21        9.079739   0.000000
   22        9.256160   0.000000
   23        9.256531   0.000000
   24        9.430566   0.000000

 -0.3846154E+00  0.2307692E+00  0.1906100E-16  0.1092399E-01
    1      -32.706655   1.000000
    2      -15.266904   1.000000
    3      -15.262696   1.000000
    4      -15.232914   1.000000
    5      -15.230906   1.000000
    6      -15.229432   1.000000
    7      -10.723956   1.000000
    8      -10.635794   1.000000
    9      -10.583858   1.000000
   10       -3.510930   1.000000
   11        2.340216   1.000000
   12        3.136798   1.000000
   13        3.208146   1.000000
   14        3.968440   1.000000
   15        4.183314   1.000000
   16        4.317380   1.000000
   17        5.215935   1.000000
   18        5.899719   1.000000
   19        7.790758   0.000000
   20        8.643216   0.000000
   21        9.039706   0.000000
   22        9.250232   0.000000