 vasp.6.0.8 29Jun18 (build Jun 13 2019 12:54:44) complex

 executed on      IFC18_CrayMPICH date 2021.12.05  13:55:53
 running   64 mpi-ranks, with    1 threads/rank
 distrk:  each k-point on   16 cores,    4 groups
 distr:  one band on NCORES_PER_BAND=   4 cores,    4 groups


--------------------------------------------------------------------------------------------------------


 INCAR:
 POTCAR:    PAW_PBE Th 07Sep2000
 POTCAR:    PAW_PBE Bi_d 06Sep2000
 POTCAR:    PAW_PBE Pt 04Feb2005
 POTCAR:    PAW_PBE Th 07Sep2000
   VRHFIN =Th:  [Xe,5d,4f]
   LEXCH  = PE
   EATOM  =   984.7553 eV,   72.3775 Ry

   TITEL  = PAW_PBE Th 07Sep2000
   LULTRA =        F    use ultrasoft PP ?
   IUNSCR =        1    unscreen: 0-lin 1-nonlin 2-no
   RPACOR =    2.200    partial core radius
   POMASS =  232.039; ZVAL   =   12.000    mass and valenz
   RCORE  =    2.800    outmost cutoff radius
   RWIGS  =    3.000; RWIGS  =    1.588    wigner-seitz radius (au A)
   ENMAX  =  247.306; ENMIN  =  185.480 eV
   RCLOC  =    2.211    cutoff for local pot
   LCOR   =        T    correct aug charges
   LPAW   =        T    paw PP
   EAUG   =  535.431
   DEXC   =    0.000
   RMAX   =    2.862    core radius for proj-oper
   RAUG   =    1.300    factor for augmentation sphere
   RDEP   =    2.926    radius for radial grids
   RDEPT  =    2.250    core radius for aug-charge

   Atomic configuration
   18 entries
     n  l   j            E        occ.
     1  0  0.50   -109990.1879   2.0000
     2  0  0.50    -20388.0147   2.0000
     2  1  1.50    -17049.6156   6.0000
     3  0  0.50     -5106.5436   2.0000
     3  1  1.50     -4175.1262   6.0000
     3  2  2.50     -3342.8437  10.0000
     4  0  0.50     -1280.8211   2.0000
     4  1  1.50      -976.4859   6.0000
     4  2  2.50      -661.8358  10.0000
     4  3  3.50      -324.9124  14.0000
     5  0  0.50      -278.7726   2.0000
     5  1  1.50      -186.2212   6.0000
     5  2  2.50       -86.9031  10.0000
     6  0  0.50       -43.3059   2.0000
     7  0  0.50        -4.0783   2.0000
     6  1  1.50       -21.4071   6.0000
     6  2  1.50        -2.3664   1.0000
     5  3  2.50        -1.2804   1.0000
   Description
     l       E           TYP  RCUT    TYP  RCUT
     0    -43.3059201     23  2.800
     0     -4.0782900     23  2.800
     1    -21.4071032     23  2.500
     1    -22.7676858     23  2.500
     2     -2.3664170     23  2.500
     2      3.0546543     23  2.500
     3     -1.2803910     23  2.800
     3      0.1360583     23  2.800
  local pseudopotential read in
  partial core-charges read in
  partial kinetic energy density read in
  atomic valenz-charges read in
  non local Contribution for L=           0  read in
    real space projection operators read in
  non local Contribution for L=           0  read in
    real space projection operators read in
  non local Contribution for L=           1  read in
    real space projection operators read in
  non local Contribution for L=           1  read in
    real space projection operators read in
  non local Contribution for L=           2  read in
    real space projection operators read in
  non local Contribution for L=           2  read in
    real space projection operators read in
  non local Contribution for L=           3  read in
    real space projection operators read in
  non local Contribution for L=           3  read in
    real space projection operators read in
    PAW grid and wavefunctions read in

   number of l-projection  operators is LMAX  =           8
   number of lm-projection operators is LMMAX =          32

 POTCAR:    PAW_PBE Bi_d 06Sep2000
   VRHFIN =Bi:
   LEXCH  = PE
   EATOM  =  1959.2045 eV,  143.9975 Ry

   TITEL  = PAW_PBE Bi_d 06Sep2000
   LULTRA =        F    use ultrasoft PP ?
   IUNSCR =        1    unscreen: 0-lin 1-nonlin 2-no
   RPACOR =    2.200    partial core radius
   POMASS =  208.980; ZVAL   =   15.000    mass and valenz
   RCORE  =    2.500    outmost cutoff radius
   RWIGS  =    3.090; RWIGS  =    1.635    wigner-seitz radius (au A)
   ENMAX  =  242.839; ENMIN  =  182.129 eV
   ICORE  =        3    local potential
   LCOR   =        T    correct aug charges
   LPAW   =        T    paw PP
   EAUG   =  442.899
   DEXC   =    0.000
   RMAX   =    2.551    core radius for proj-oper
   RAUG   =    1.300    factor for augmentation sphere
   RDEP   =    2.650    radius for radial grids
   RDEPT  =    2.039    core radius for aug-charge

   Atomic configuration
   16 entries
     n  l   j            E        occ.
     1  0  0.50    -90639.6581   2.0000
     2  0  0.50    -16282.4666   2.0000
     2  1  1.50    -13922.8286   6.0000
     3  0  0.50     -3930.4763   2.0000
     3  1  1.50     -3256.7013   6.0000
     3  2  2.50     -2581.6168  10.0000
     4  0  0.50      -902.2614   2.0000
     4  1  1.50      -681.5915   6.0000
     4  2  2.50      -429.8249  10.0000
     4  3  3.50      -152.6004  14.0000
     5  0  0.50      -157.7156   2.0000
     5  1  1.50       -95.8054   6.0000
     5  2  2.50       -27.0806  10.0000
     6  0  0.50       -14.4732   2.0000
     6  1  1.50        -4.5702   3.0000
     5  3  2.50        -2.7212   0.0000
   Description
     l       E           TYP  RCUT    TYP  RCUT
     2    -27.0805982     23  2.500
     2     -1.3605826     23  2.500
     0    -14.4732271     23  2.500
     0      6.8029130     23  2.500
     1     -4.5701651     23  2.500
     1     13.6058260     23  2.500
     3     -1.3605826      7  2.500
  local pseudopotential read in
  partial core-charges read in
  partial kinetic energy density read in
  atomic valenz-charges read in
  non local Contribution for L=           2  read in
    real space projection operators read in
  non local Contribution for L=           2  read in
    real space projection operators read in
  non local Contribution for L=           0  read in
    real space projection operators read in
  non local Contribution for L=           0  read in
    real space projection operators read in
  non local Contribution for L=           1  read in
    real space projection operators read in
  non local Contribution for L=           1  read in
    real space projection operators read in
    PAW grid and wavefunctions read in

   number of l-projection  operators is LMAX  =           6
   number of lm-projection operators is LMMAX =          18

 POTCAR:    PAW_PBE Pt 04Feb2005
   VRHFIN =Pt: s1d9
   LEXCH  = PE
   EATOM  =   729.1176 eV,   53.5886 Ry

   TITEL  = PAW_PBE Pt 04Feb2005
   LULTRA =        F    use ultrasoft PP ?
   IUNSCR =        1    unscreen: 0-lin 1-nonlin 2-no
   RPACOR =    2.330    partial core radius
   POMASS =  195.080; ZVAL   =   10.000    mass and valenz
   RCORE  =    2.600    outmost cutoff radius
   RWIGS  =    2.750; RWIGS  =    1.455    wigner-seitz radius (au A)
   ENMAX  =  230.283; ENMIN  =  172.712 eV
   ICORE  =        3    local potential
   LCOR   =        T    correct aug charges
   LPAW   =        T    paw PP
   EAUG   =  358.966
   DEXC   =    0.000
   RMAX   =    2.658    core radius for proj-oper
   RAUG   =    1.300    factor for augmentation sphere
   RDEP   =    2.761    radius for radial grids
   RDEPT  =    2.203    core radius for aug-charge

   Atomic configuration
   16 entries
     n  l   j            E        occ.
     1  0  0.50    -78401.1885   2.0000
     2  0  0.50    -13770.7750   2.0000
     2  1  1.50    -11931.0468   6.0000
     3  0  0.50     -3234.7234   2.0000
     3  1  1.50     -2699.2216   6.0000
     3  2  2.50     -2119.5714  10.0000
     4  0  0.50      -695.1528   2.0000
     4  1  1.50      -519.6034   6.0000
     4  2  2.50      -306.6786  10.0000
     4  3  3.50       -70.1041  14.0000
     5  0  0.50      -101.7747   2.0000
     5  1  1.50       -55.9873   6.0000
     5  2  2.50        -6.1423   9.0000
     6  0  0.50        -5.6573   1.0000
     6  1  1.50        -6.8029   0.0000
     5  3  2.50        -1.3606   0.0000
   Description
     l       E           TYP  RCUT    TYP  RCUT
     2     -6.1423404     23  2.500
     2     -7.5029230     23  2.500
     0     -5.6573207     23  2.500
     0      0.7416693     23  2.500
     1     -2.7211652     23  2.600
     1     20.4087390     23  2.600
     3     -1.3605826     23  2.500
  local pseudopotential read in
  partial core-charges read in
  partial kinetic energy density read in
  atomic valenz-charges read in
  non local Contribution for L=           2  read in
    real space projection operators read in
  non local Contribution for L=           2  read in
    real space projection operators read in
  non local Contribution for L=           0  read in
    real space projection operators read in
  non local Contribution for L=           0  read in
    real space projection operators read in
  non local Contribution for L=           1  read in
    real space projection operators read in
  non local Contribution for L=           1  read in
    real space projection operators read in
    PAW grid and wavefunctions read in

   number of l-projection  operators is LMAX  =           6
   number of lm-projection operators is LMMAX =          18

 WARNING: PSMAXN for non-local potential too small
          PSMAXN should be >   13.5545592237991       NTYP=           1

 -----------------------------------------------------------------------------
|                                                                             |
|  ADVICE TO THIS USER RUNNING 'VASP/VAMP'   (HEAR YOUR MASTER'S VOICE ...):  |
|                                                                             |
|      You enforced a specific xc-type in the INCAR file,                     |
|      a different type was found on the POTCAR file                          |
|          I HOPE YOU KNOW, WHAT YOU ARE  DOING                               |
|                                                                             |
 -----------------------------------------------------------------------------

  PAW_PBE Th 07Sep2000                  :
 energy of atom  1       EATOM= -984.7553
 kinetic energy error for atom=    0.0005 (will be added to EATOM!!)
  PAW_PBE Bi_d 06Sep2000                :
 energy of atom  2       EATOM=-1959.2045
 kinetic energy error for atom=    0.0012 (will be added to EATOM!!)
  PAW_PBE Pt 04Feb2005                  :
 energy of atom  3       EATOM= -729.1176
 kinetic energy error for atom=    0.0010 (will be added to EATOM!!)


 POSCAR: Th1 Bi1 Pt1
  positions in direct lattice
  No initial velocities read in
 exchange correlation table for  LEXCH =       14
   RHO(1)=    0.500       N(1)  =     2000
   RHO(2)=  100.500       N(2)  =     4000



--------------------------------------------------------------------------------------------------------


 ion  position               nearest neighbor table
   1  0.250  0.250  0.250-   3 3.04   3 3.04   3 3.04   3 3.04   2 3.51   2 3.51   2 3.51   2 3.51
                             2 3.51   2 3.51
   2  0.750  0.750  0.750-   3 3.04   3 3.04   3 3.04   3 3.04   1 3.51   1 3.51   1 3.51   1 3.51
                             1 3.51   1 3.51
   3  0.000  0.000  0.000-   2 3.04   2 3.04   2 3.04   1 3.04   2 3.04   1 3.04   1 3.04   1 3.04


  LATTYP: Found a face centered cubic cell.
 ALAT       =     7.0277118129

  Lattice vectors:

 A1 = (   0.0000000000,   3.5138559065,   3.5138559065)
 A2 = (   3.5138559065,   0.0000000000,   3.5138559065)
 A3 = (   3.5138559065,   3.5138559065,   0.0000000000)


Analysis of symmetry for initial positions (statically):
=====================================================================
 Subroutine PRICEL returns:
 Original cell was already a primitive cell.


 Routine SETGRP: Setting up the symmetry group for a
 face centered cubic supercell.


 Subroutine GETGRP returns: Found 24 space group operations
 (whereof 24 operations were pure point group operations)
 out of a pool of 48 trial point group operations.


The static configuration has the point symmetry T_d .


Analysis of symmetry for dynamics (positions and initial velocities):
=====================================================================
 Subroutine PRICEL returns:
 Original cell was already a primitive cell.


 Routine SETGRP: Setting up the symmetry group for a
 face centered cubic supercell.


 Subroutine GETGRP returns: Found 24 space group operations
 (whereof 24 operations were pure point group operations)
 out of a pool of 48 trial point group operations.


The dynamic configuration has the point symmetry T_d .


 Subroutine INISYM returns: Found 24 space group operations
 (whereof 24 operations are pure point group operations),
 and found     1 'primitive' translations


----------------------------------------------------------------------------------------

                                     Primitive cell

  volume of cell :      86.7724

  direct lattice vectors                    reciprocal lattice vectors
     0.000000000  3.513855906  3.513855906    -0.142293826  0.142293826  0.142293826
     3.513855906  0.000000000  3.513855906     0.142293826 -0.142293826  0.142293826
     3.513855906  3.513855906  0.000000000     0.142293826  0.142293826 -0.142293826

  length of vectors
     4.969342679  4.969342679  4.969342679     0.246460136  0.246460136  0.246460136

  position of ions in fractional coordinates (direct lattice)
     0.250000000  0.250000000  0.250000000
     0.750000000  0.750000000  0.750000000
     0.000000000  0.000000000  0.000000000

  ion indices of the primitive-cell ions
   primitive index   ion index
                 1           1
                 2           2
                 3           3

----------------------------------------------------------------------------------------



 KPOINTS: KPOINTS

Automatic generation of k-mesh.
Space group operators:
 irot       det(A)        alpha          n_x          n_y          n_z        tau_x        tau_y        tau_z
    1     1.000000     0.000000     1.000000     0.000000     0.000000     0.000000     0.000000     0.000000
    2     1.000000   120.000000    -0.577350    -0.577350    -0.577350     0.000000     0.000000     0.000000
    3     1.000000   120.000000     0.577350     0.577350     0.577350     0.000000     0.000000     0.000000
    4    -1.000000    90.000000    -0.000000    -0.000000    -1.000000     0.000000     0.000000     0.000000
    5    -1.000000   180.000000     0.000000     0.707107     0.707107     0.000000     0.000000     0.000000
    6    -1.000000    90.000000    -0.000000     1.000000    -0.000000     0.000000     0.000000     0.000000
    7     1.000000   180.000000    -0.000000    -0.000000     1.000000     0.000000     0.000000     0.000000
    8     1.000000   120.000000    -0.577350     0.577350     0.577350     0.000000     0.000000     0.000000
    9     1.000000   120.000000    -0.577350     0.577350    -0.577350     0.000000     0.000000     0.000000
   10    -1.000000    90.000000     0.000000     0.000000     1.000000     0.000000     0.000000     0.000000
   11    -1.000000    90.000000    -1.000000     0.000000     0.000000     0.000000     0.000000     0.000000
   12    -1.000000   180.000000     0.707107     0.000000     0.707107     0.000000     0.000000     0.000000
   13     1.000000   120.000000     0.577350    -0.577350     0.577350     0.000000     0.000000     0.000000
   14     1.000000   120.000000    -0.577350    -0.577350     0.577350     0.000000     0.000000     0.000000
   15     1.000000   180.000000     1.000000     0.000000     0.000000     0.000000     0.000000     0.000000
   16    -1.000000    90.000000     0.000000    -1.000000     0.000000     0.000000     0.000000     0.000000
   17    -1.000000   180.000000     0.707107     0.707107    -0.000000     0.000000     0.000000     0.000000
   18    -1.000000    90.000000     1.000000     0.000000     0.000000     0.000000     0.000000     0.000000
   19     1.000000   120.000000     0.577350    -0.577350    -0.577350     0.000000     0.000000     0.000000
   20     1.000000   180.000000    -0.000000     1.000000     0.000000     0.000000     0.000000     0.000000
   21     1.000000   120.000000     0.577350     0.577350    -0.577350     0.000000     0.000000     0.000000
   22    -1.000000   180.000000    -0.000000    -0.707107     0.707107     0.000000     0.000000     0.000000
   23    -1.000000   180.000000     0.707107    -0.707107     0.000000     0.000000     0.000000     0.000000
   24    -1.000000   180.000000     0.707107     0.000000    -0.707107     0.000000     0.000000     0.000000

 Subroutine IBZKPT returns following result:
 ===========================================

 Found     84 irreducible k-points:

 Following reciprocal coordinates:
            Coordinates               Weight
  0.000000  0.000000  0.000000      1.000000
  0.076923 -0.000000  0.000000      8.000000
  0.153846  0.000000 -0.000000      8.000000
  0.230769  0.000000 -0.000000      8.000000
  0.307692  0.000000 -0.000000      8.000000
  0.384615  0.000000 -0.000000      8.000000
  0.461538 -0.000000  0.000000      8.000000
  0.076923  0.076923  0.000000      6.000000
  0.153846  0.076923  0.000000     24.000000
  0.230769  0.076923 -0.000000     24.000000
  0.307692  0.076923 -0.000000     24.000000
  0.384615  0.076923 -0.000000     24.000000
  0.461538  0.076923  0.000000     24.000000
 -0.461538  0.076923  0.000000     24.000000
 -0.384615  0.076923  0.000000     24.000000
 -0.307692  0.076923  0.000000     24.000000
 -0.230769  0.076923  0.000000     24.000000
 -0.153846  0.076923  0.000000     24.000000
 -0.076923  0.076923 -0.000000     12.000000
  0.153846  0.153846  0.000000      6.000000
  0.230769  0.153846  0.000000     24.000000
  0.307692  0.153846 -0.000000     24.000000
  0.384615  0.153846 -0.000000     24.000000
  0.461538  0.153846 -0.000000     24.000000
 -0.461538  0.153846  0.000000     24.000000
 -0.384615  0.153846  0.000000     24.000000
 -0.307692  0.153846 -0.000000     24.000000
 -0.230769  0.153846  0.000000     24.000000
 -0.153846  0.153846  0.000000     12.000000
  0.230769  0.230769  0.000000      6.000000
  0.307692  0.230769  0.000000     24.000000
  0.384615  0.230769 -0.000000     24.000000
  0.461538  0.230769  0.000000     24.000000
 -0.461538  0.230769  0.000000     24.000000
 -0.384615  0.230769  0.000000     24.000000
 -0.307692  0.230769  0.000000     24.000000
 -0.230769  0.230769  0.000000     12.000000
  0.307692  0.307692  0.000000      6.000000
  0.384615  0.307692  0.000000     24.000000
  0.461538  0.307692 -0.000000     24.000000
 -0.461538  0.307692  0.000000     24.000000
 -0.384615  0.307692  0.000000     24.000000
 -0.307692  0.307692  0.000000     12.000000
  0.384615  0.384615  0.000000      6.000000
  0.461538  0.384615 -0.000000     24.000000
 -0.461538  0.384615 -0.000000     24.000000
 -0.384615  0.384615  0.000000     12.000000
  0.461538  0.461538  0.000000      6.000000
 -0.461538  0.461538 -0.000000     12.000000
  0.230769  0.153846  0.076923     24.000000
  0.307692  0.153846  0.076923     48.000000
  0.384615  0.153846  0.076923     48.000000
  0.461538  0.153846  0.076923     48.000000
 -0.461538  0.153846  0.076923     48.000000
  0.307692  0.230769  0.076923     24.000000
  0.384615  0.230769  0.076923     48.000000
  0.461538  0.230769  0.076923     48.000000
 -0.461538  0.230769  0.076923     48.000000
 -0.384615  0.230769  0.076923     48.000000
 -0.307692  0.230769  0.076923     48.000000
 -0.230769  0.230769  0.076923     48.000000
 -0.153846  0.230769  0.076923     24.000000
  0.384615  0.307692  0.076923     24.000000
  0.461538  0.307692  0.076923     48.000000
 -0.461538  0.307692  0.076923     48.000000
 -0.384615  0.307692  0.076923     48.000000
 -0.307692  0.307692  0.076923     48.000000
 -0.230769  0.307692  0.076923     24.000000
  0.461538  0.384615  0.076923     24.000000
 -0.461538  0.384615  0.076923     48.000000
 -0.384615  0.384615  0.076923     48.000000
 -0.307692  0.384615  0.076923     24.000000
 -0.461538  0.461538  0.076923     24.000000
 -0.384615  0.461538  0.076923     24.000000
  0.461538  0.307692  0.153846     24.000000
 -0.461538  0.307692  0.153846     48.000000
 -0.384615  0.307692  0.153846     48.000000
 -0.461538  0.384615  0.153846     24.000000
 -0.384615  0.384615  0.153846     48.000000
 -0.307692  0.384615  0.153846     48.000000
 -0.230769  0.384615  0.153846     24.000000
 -0.384615  0.461538  0.153846     24.000000
 -0.307692  0.461538  0.153846     24.000000
 -0.307692  0.461538  0.230769     24.000000

 Following cartesian coordinates:
            Coordinates               Weight
  0.000000  0.000000  0.000000      1.000000
 -0.011230  0.011230  0.011230      8.000000
 -0.022460  0.022460  0.022460      8.000000
 -0.033690  0.033690  0.033690      8.000000
 -0.044920  0.044920  0.044920      8.000000
 -0.056151  0.056151  0.056151      8.000000
 -0.067381  0.067381  0.067381      8.000000
 -0.000000  0.000000  0.022460      6.000000
 -0.011230  0.011230  0.033690     24.000000
 -0.022460  0.022460  0.044920     24.000000
 -0.033690  0.033690  0.056151     24.000000
 -0.044920  0.044920  0.067381     24.000000
 -0.056151  0.056151  0.078611     24.000000
  0.078611 -0.078611 -0.056151     24.000000
  0.067381 -0.067381 -0.044920     24.000000
  0.056151 -0.056151 -0.033690     24.000000
  0.044920 -0.044920 -0.022460     24.000000
  0.033690 -0.033690 -0.011230     24.000000
  0.022460 -0.022460  0.000000     12.000000
 -0.000000  0.000000  0.044920      6.000000
 -0.011230  0.011230  0.056151     24.000000
 -0.022460  0.022460  0.067381     24.000000
 -0.033690  0.033690  0.078611     24.000000
 -0.044920  0.044920  0.089841     24.000000
  0.089841 -0.089841 -0.044920     24.000000
  0.078611 -0.078611 -0.033690     24.000000
  0.067381 -0.067381 -0.022460     24.000000
  0.056151 -0.056151 -0.011230     24.000000
  0.044920 -0.044920 -0.000000     12.000000
 -0.000000  0.000000  0.067381      6.000000
 -0.011230  0.011230  0.078611     24.000000
 -0.022460  0.022460  0.089841     24.000000
 -0.033690  0.033690  0.101071     24.000000
  0.101071 -0.101071 -0.033690     24.000000
  0.089841 -0.089841 -0.022460     24.000000
  0.078611 -0.078611 -0.011230     24.000000
  0.067381 -0.067381 -0.000000     12.000000
 -0.000000  0.000000  0.089841      6.000000
 -0.011230  0.011230  0.101071     24.000000
 -0.022460  0.022460  0.112301     24.000000
  0.112301 -0.112301 -0.022460     24.000000
  0.101071 -0.101071 -0.011230     24.000000
  0.089841 -0.089841 -0.000000     12.000000
  0.000000 -0.000000  0.112301      6.000000
 -0.011230  0.011230  0.123531     24.000000
  0.123531 -0.123531 -0.011230     24.000000
  0.112301 -0.112301 -0.000000     12.000000
  0.000000 -0.000000  0.134761      6.000000
  0.134761 -0.134761 -0.000000     12.000000
 -0.000000  0.022460  0.044920     24.000000
 -0.011230  0.033690  0.056151     48.000000
 -0.022460  0.044920  0.067381     48.000000
 -0.033690  0.056151  0.078611     48.000000
  0.101071 -0.078611 -0.056151     48.000000
  0.000000  0.022460  0.067381     24.000000
 -0.011230  0.033690  0.078611     48.000000
 -0.022460  0.044920  0.089841     48.000000
  0.112301 -0.089841 -0.044920     48.000000
  0.101071 -0.078611 -0.033690     48.000000
  0.089841 -0.067381 -0.022460     48.000000
  0.078611 -0.056151 -0.011230     48.000000
  0.067381 -0.044920 -0.000000     24.000000
  0.000000  0.022460  0.089841     24.000000
 -0.011230  0.033690  0.101071     48.000000
  0.123531 -0.101071 -0.033690     48.000000
  0.112301 -0.089841 -0.022460     48.000000
  0.101071 -0.078611 -0.011230     48.000000
  0.089841 -0.067381 -0.000000     24.000000
  0.000000  0.022460  0.112301     24.000000
  0.134761 -0.112301 -0.022460     48.000000
  0.123531 -0.101071 -0.011230     48.000000
  0.112301 -0.089841 -0.000000     24.000000
  0.145991 -0.123531 -0.011230     24.000000
  0.134761 -0.112301 -0.000000     24.000000
 -0.000000  0.044920  0.089841     24.000000
  0.134761 -0.089841 -0.044920     48.000000
  0.123531 -0.078611 -0.033690     48.000000
  0.145991 -0.101071 -0.033690     24.000000
  0.134761 -0.089841 -0.022460     48.000000
  0.123531 -0.078611 -0.011230     48.000000
  0.112301 -0.067381 -0.000000     24.000000
  0.145991 -0.101071 -0.011230     24.000000
  0.134761 -0.089841 -0.000000     24.000000
  0.145991 -0.078611 -0.011230     24.000000



--------------------------------------------------------------------------------------------------------




 Dimension of arrays:
   k-points           NKPTS =     84   k-points in BZ     NKDIM =     84   number of bands    NBANDS=     24
   number of dos      NEDOS =    301   number of ions     NIONS =      3
   non local maximal  LDIM  =      8   non local SUM 2l+1 LMDIM =     32
   total plane-waves  NPLWV = 110592
   max r-space proj   IRMAX =      1   max aug-charges    IRDMAX= 617676
   dimension x,y,z NGX =    48 NGY =   48 NGZ =   48
   dimension x,y,z NGXF=    96 NGYF=   96 NGZF=   96
   support grid    NGXF=   192 NGYF=  192 NGZF=  192
   ions per type =               1   1   1
   NGX,Y,Z   is equivalent  to a cutoff of  16.06, 16.06, 16.06 a.u.
   NGXF,Y,Z  is equivalent  to a cutoff of  32.12, 32.12, 32.12 a.u.

 SYSTEM =  unknown system
 POSCAR =  Th1 Bi1 Pt1

 Startparameter for this run:
   NWRITE =      2    write-flag & timer
   PREC   = acc       normal or accurate (medium, high low for compatibility)
   ISTART =      0    job   : 0-new  1-cont  2-samecut
   ICHARG =      2    charge: 1-file 2-atom 10-const
   ISPIN  =      1    spin polarized calculation?
   LNONCOLLINEAR =      F non collinear calculations
   LSORBIT =      F    spin-orbit coupling
   INIWAV =      1    electr: 0-lowe 1-rand  2-diag
   LASPH  =      F    aspherical Exc in radial PAW
   METAGGA=      F    non-selfconsistent MetaGGA calc.

 Electronic Relaxation 1
   ENCUT  =  700.0 eV  51.45 Ry    7.17 a.u.  10.72 10.72 10.72*2*pi/ulx,y,z
   ENINI  =  700.0     initial cutoff
   ENAUG  =  535.4 eV  augmentation charge cutoff
   NELM   =     60;   NELMIN=  5; NELMDL= -5     # of ELM steps
   EDIFF  = 0.1E-06   stopping-criterion for ELM
   LREAL  =      F    real-space projection
   NLSPLINE    = F    spline interpolate recip. space projectors
   LCOMPAT=      F    compatible to vasp.4.4
   GGA_COMPAT  = T    GGA compatible to vasp.4.4-vasp.4.6
   LMAXPAW     = -100 max onsite density
   LMAXMIX     =    2 max onsite mixed and CHGCAR
   VOSKOWN=      0    Vosko Wilk Nusair interpolation
   ROPT   =    0.00000   0.00000   0.00000
 Ionic relaxation
   EDIFFG = 0.1E-05   stopping-criterion for IOM
   NSW    =      0    number of steps for IOM
   NBLOCK =      1;   KBLOCK =      1    inner block; outer block
   IBRION =     -1    ionic relax: 0-MD 1-quasi-New 2-CG
   NFREE  =      0    steps in history (QN), initial steepest desc. (CG)
   ISIF   =      3    stress and relaxation
   IWAVPR =     10    prediction:  0-non 1-charg 2-wave 3-comb
   ISYM   =      2    0-nonsym 1-usesym 2-fastsym
   LCORR  =      T    Harris-Foulkes like correction to forces

   POTIM  = 0.5000    time-step for ionic-motion
   TEIN   =    0.0    initial temperature
   TEBEG  =    0.0;   TEEND  =   0.0 temperature during run
   SMASS  =  -3.00    Nose mass-parameter (am)
   estimated Nose-frequenzy (Omega)   =  0.10E-29 period in steps = 0.13E+47 mass=  -0.564E-27a.u.
   SCALEE = 1.0000    scale energy and forces
   NPACO  =    256;   APACO  = 16.0  distance and # of slots for P.C.
   PSTRESS=    0.0 pullay stress

  Mass of Ions in am
   POMASS = 232.04208.98195.08
  Ionic Valenz
   ZVAL   =  12.00 15.00 10.00
  Atomic Wigner-Seitz radii
   RWIGS  =  -1.00 -1.00 -1.00
  virtual crystal weights
   VCA    =   1.00  1.00  1.00
   NELECT =      37.0000    total number of electrons
   NUPDOWN=      -1.0000    fix difference up-down

 DOS related values:
   EMIN   =  10.00;   EMAX   =-10.00  energy-range for DOS
   EFERMI =   0.00
   ISMEAR =     0;   SIGMA  =   0.01  broadening in eV -4-tet -1-fermi 0-gaus

 Electronic relaxation 2 (details)
   IALGO  =     38    algorithm
   LDIAG  =      T    sub-space diagonalisation (order eigenvalues)
   LSUBROT=      F    optimize rotation matrix (better conditioning)
   TURBO    =      0    0=normal 1=particle mesh
   IRESTART =      0    0=no restart 2=restart with 2 vectors
   NREBOOT  =      0    no. of reboots
   NMIN     =      0    reboot dimension
   EREF     =   0.00    reference energy to select bands
   IMIX   =      4    mixing-type and parameters
     AMIX     =   0.40;   BMIX     =  1.00
     AMIX_MAG =   1.60;   BMIX_MAG =  1.00
     AMIN     =   0.10
     WC   =   100.;   INIMIX=   1;  MIXPRE=   1;  MAXMIX= -45

 Intra band minimization:
   WEIMIN = 0.0000     energy-eigenvalue tresh-hold
   EBREAK =  0.10E-08  absolut break condition
   DEPER  =   0.30     relativ break condition

   TIME   =   0.40     timestep for ELM

  volume/ion in A,a.u.               =      28.92       195.19
  Fermi-wavevector in a.u.,A,eV,Ry     =   1.232201  2.328522 20.657979  1.518319
  Thomas-Fermi vector in A             =   2.366980

 Write flags
   LWAVE        =      F    write WAVECAR
   LDOWNSAMPLE  =      F    k-point downsampling of WAVECAR
   LCHARG       =      F    write CHGCAR
   LVTOT        =      F    write LOCPOT, total local potential
   LVHAR        =      F    write LOCPOT, Hartree potential only
   LELF         =      F    write electronic localiz. function (ELF)
   LORBIT       =      0    0 simple, 1 ext, 2 COOP (PROOUT), +10 PAW based schemes


 Dipole corrections
   LMONO  =      F    monopole corrections only (constant potential shift)
   LDIPOL =      F    correct potential (dipole corrections)
   IDIPOL =      0    1-x, 2-y, 3-z, 4-all directions
   EPSILON=  1.0000000 bulk dielectric constant

 Exchange correlation treatment:
   GGA     =    PS    GGA type
   LEXCH   =    14    internal setting for exchange type
   VOSKOWN=      0    Vosko Wilk Nusair interpolation
   LHFCALC =     F    Hartree Fock is set to
   LHFONE  =     F    Hartree Fock one center treatment
   AEXX    =    0.0000 exact exchange contribution

 Linear response parameters
   LEPSILON=     F    determine dielectric tensor
   LRPA    =     F    only Hartree local field effects (RPA)
   LNABLA  =     F    use nabla operator in PAW spheres
   LVEL    =     F    velocity operator in full k-point grid
   LINTERFAST=   F  fast interpolation
   KINTER  =     0    interpolate to denser k-point grid
   CSHIFT  =0.1000    complex shift for real part using Kramers Kronig
   OMEGAMAX=  -1.0    maximum frequency
   DEG_THRESHOLD= 0.2000000E-02 threshold for treating states as degnerate
   RTIME   =   -0.100 relaxation time in fs
  (WPLASMAI=    0.000 imaginary part of plasma frequency in eV, 0.658/RTIME)
   DFIELD  = 0.0000000 0.0000000 0.0000000 field for delta impulse in time

 Orbital magnetization related:
   ORBITALMAG=     F  switch on orbital magnetization
   LCHIMAG   =     F  perturbation theory with respect to B field
   DQ        =  0.001000  dq finite difference perturbation B field
   LLRAUG    =     F  two centre corrections for induced B field



--------------------------------------------------------------------------------------------------------


 Static calculation
 charge density and potential will be updated during run
 non-spin polarized calculation
 Variant of blocked Davidson
 Davidson routine will perform the subspace rotation
 perform sub-space diagonalisation
    after iterative eigenvector-optimisation
 modified Broyden-mixing scheme, WC =      100.0
 initial mixing is a Kerker type mixing with AMIX =  0.4000 and BMIX =      1.0000
 Hartree-type preconditioning will be used
 using additional bands            5
 reciprocal scheme for non local part
 use partial core corrections
 calculate Harris-corrections to forces
   (improved forces if not selfconsistent)
 use gradient corrections
 use of overlap-Matrix (Vanderbilt PP)
 Gauss-broadening in eV      SIGMA  =   0.01


--------------------------------------------------------------------------------------------------------


  energy-cutoff  :      700.00
  volume of cell :       86.77
      direct lattice vectors                 reciprocal lattice vectors
     0.000000000  3.513855906  3.513855906    -0.142293826  0.142293826  0.142293826
     3.513855906  0.000000000  3.513855906     0.142293826 -0.142293826  0.142293826
     3.513855906  3.513855906  0.000000000     0.142293826  0.142293826 -0.142293826

  length of vectors
     4.969342679  4.969342679  4.969342679     0.246460136  0.246460136  0.246460136



 k-points in units of 2pi/SCALE and weight: KPOINTS
   0.00000000  0.00000000  0.00000000       0.000
  -0.01123011  0.01123011  0.01123011       0.004
  -0.02246022  0.02246022  0.02246022       0.004
  -0.03369033  0.03369033  0.03369033       0.004
  -0.04492043  0.04492043  0.04492043       0.004
  -0.05615054  0.05615054  0.05615054       0.004
  -0.06738065  0.06738065  0.06738065       0.004
  -0.00000000  0.00000000  0.02246022       0.003
  -0.01123011  0.01123011  0.03369033       0.011
  -0.02246022  0.02246022  0.04492043       0.011
  -0.03369033  0.03369033  0.05615054       0.011
  -0.04492043  0.04492043  0.06738065       0.011
  -0.05615054  0.05615054  0.07861076       0.011
   0.07861076 -0.07861076 -0.05615054       0.011
   0.06738065 -0.06738065 -0.04492043       0.011
   0.05615054 -0.05615054 -0.03369033       0.011
   0.04492043 -0.04492043 -0.02246022       0.011
   0.03369033 -0.03369033 -0.01123011       0.011
   0.02246022 -0.02246022  0.00000000       0.005
  -0.00000000  0.00000000  0.04492043       0.003
  -0.01123011  0.01123011  0.05615054       0.011
  -0.02246022  0.02246022  0.06738065       0.011
  -0.03369033  0.03369033  0.07861076       0.011
  -0.04492043  0.04492043  0.08984087       0.011
   0.08984087 -0.08984087 -0.04492043       0.011
   0.07861076 -0.07861076 -0.03369033       0.011
   0.06738065 -0.06738065 -0.02246022       0.011
   0.05615054 -0.05615054 -0.01123011       0.011
   0.04492043 -0.04492043 -0.00000000       0.005
  -0.00000000  0.00000000  0.06738065       0.003
  -0.01123011  0.01123011  0.07861076       0.011
  -0.02246022  0.02246022  0.08984087       0.011
  -0.03369033  0.03369033  0.10107098       0.011
   0.10107098 -0.10107098 -0.03369033       0.011
   0.08984087 -0.08984087 -0.02246022       0.011
   0.07861076 -0.07861076 -0.01123011       0.011
   0.06738065 -0.06738065 -0.00000000       0.005
  -0.00000000  0.00000000  0.08984087       0.003
  -0.01123011  0.01123011  0.10107098       0.011
  -0.02246022  0.02246022  0.11230109       0.011
   0.11230109 -0.11230109 -0.02246022       0.011
   0.10107098 -0.10107098 -0.01123011       0.011
   0.08984087 -0.08984087 -0.00000000       0.005
   0.00000000 -0.00000000  0.11230109       0.003
  -0.01123011  0.01123011  0.12353119       0.011
   0.12353119 -0.12353119 -0.01123011       0.011
   0.11230109 -0.11230109 -0.00000000       0.005
   0.00000000 -0.00000000  0.13476130       0.003
   0.13476130 -0.13476130 -0.00000000       0.005
  -0.00000000  0.02246022  0.04492043       0.011
  -0.01123011  0.03369033  0.05615054       0.022
  -0.02246022  0.04492043  0.06738065       0.022
  -0.03369033  0.05615054  0.07861076       0.022
   0.10107098 -0.07861076 -0.05615054       0.022
   0.00000000  0.02246022  0.06738065       0.011
  -0.01123011  0.03369033  0.07861076       0.022
  -0.02246022  0.04492043  0.08984087       0.022
   0.11230109 -0.08984087 -0.04492043       0.022
   0.10107098 -0.07861076 -0.03369033       0.022
   0.08984087 -0.06738065 -0.02246022       0.022
   0.07861076 -0.05615054 -0.01123011       0.022
   0.06738065 -0.04492043 -0.00000000       0.011
   0.00000000  0.02246022  0.08984087       0.011
  -0.01123011  0.03369033  0.10107098       0.022
   0.12353119 -0.10107098 -0.03369033       0.022
   0.11230109 -0.08984087 -0.02246022       0.022
   0.10107098 -0.07861076 -0.01123011       0.022
   0.08984087 -0.06738065 -0.00000000       0.011
   0.00000000  0.02246022  0.11230109       0.011
   0.13476130 -0.11230109 -0.02246022       0.022
   0.12353119 -0.10107098 -0.01123011       0.022
   0.11230109 -0.08984087 -0.00000000       0.011
   0.14599141 -0.12353119 -0.01123011       0.011
   0.13476130 -0.11230109 -0.00000000       0.011
  -0.00000000  0.04492043  0.08984087       0.011
   0.13476130 -0.08984087 -0.04492043       0.022
   0.12353119 -0.07861076 -0.03369033       0.022
   0.14599141 -0.10107098 -0.03369033       0.011
   0.13476130 -0.08984087 -0.02246022       0.022
   0.12353119 -0.07861076 -0.01123011       0.022
   0.11230109 -0.06738065 -0.00000000       0.011
   0.14599141 -0.10107098 -0.01123011       0.011
   0.13476130 -0.08984087 -0.00000000       0.011
   0.14599141 -0.07861076 -0.01123011       0.011

 k-points in reciprocal lattice and weights: KPOINTS
   0.00000000  0.00000000  0.00000000       0.000
   0.07692308 -0.00000000  0.00000000       0.004
   0.15384615  0.00000000 -0.00000000       0.004
   0.23076923  0.00000000 -0.00000000       0.004
   0.30769231  0.00000000 -0.00000000       0.004
   0.38461538  0.00000000 -0.00000000       0.004
   0.46153846 -0.00000000  0.00000000       0.004
   0.07692308  0.07692308  0.00000000       0.003
   0.15384615  0.07692308  0.00000000       0.011
   0.23076923  0.07692308 -0.00000000       0.011
   0.30769231  0.07692308 -0.00000000       0.011
   0.38461538  0.07692308 -0.00000000       0.011
   0.46153846  0.07692308  0.00000000       0.011
  -0.46153846  0.07692308  0.00000000       0.011
  -0.38461538  0.07692308  0.00000000       0.011
  -0.30769231  0.07692308  0.00000000       0.011
  -0.23076923  0.07692308  0.00000000       0.011
  -0.15384615  0.07692308  0.00000000       0.011
  -0.07692308  0.07692308 -0.00000000       0.005
   0.15384615  0.15384615  0.00000000       0.003
   0.23076923  0.15384615  0.00000000       0.011
   0.30769231  0.15384615 -0.00000000       0.011
   0.38461538  0.15384615 -0.00000000       0.011
   0.46153846  0.15384615 -0.00000000       0.011
  -0.46153846  0.15384615  0.00000000       0.011
  -0.38461538  0.15384615  0.00000000       0.011
  -0.30769231  0.15384615 -0.00000000       0.011
  -0.23076923  0.15384615  0.00000000       0.011
  -0.15384615  0.15384615  0.00000000       0.005
   0.23076923  0.23076923  0.00000000       0.003
   0.30769231  0.23076923  0.00000000       0.011
   0.38461538  0.23076923 -0.00000000       0.011
   0.46153846  0.23076923  0.00000000       0.011
  -0.46153846  0.23076923  0.00000000       0.011
  -0.38461538  0.23076923  0.00000000       0.011
  -0.30769231  0.23076923  0.00000000       0.011
  -0.23076923  0.23076923  0.00000000       0.005
   0.30769231  0.30769231  0.00000000       0.003
   0.38461538  0.30769231  0.00000000       0.011
   0.46153846  0.30769231 -0.00000000       0.011
  -0.46153846  0.30769231  0.00000000       0.011
  -0.38461538  0.30769231  0.00000000       0.011
  -0.30769231  0.30769231  0.00000000       0.005
   0.38461538  0.38461538  0.00000000       0.003
   0.46153846  0.38461538 -0.00000000       0.011
  -0.46153846  0.38461538 -0.00000000       0.011
  -0.38461538  0.38461538  0.00000000       0.005
   0.46153846  0.46153846  0.00000000       0.003
  -0.46153846  0.46153846 -0.00000000       0.005
   0.23076923  0.15384615  0.07692308       0.011
   0.30769231  0.15384615  0.07692308       0.022
   0.38461538  0.15384615  0.07692308       0.022
   0.46153846  0.15384615  0.07692308       0.022
  -0.46153846  0.15384615  0.07692308       0.022
   0.30769231  0.23076923  0.07692308       0.011
   0.38461538  0.23076923  0.07692308       0.022
   0.46153846  0.23076923  0.07692308       0.022
  -0.46153846  0.23076923  0.07692308       0.022
  -0.38461538  0.23076923  0.07692308       0.022
  -0.30769231  0.23076923  0.07692308       0.022
  -0.23076923  0.23076923  0.07692308       0.022
  -0.15384615  0.23076923  0.07692308       0.011
   0.38461538  0.30769231  0.07692308       0.011
   0.46153846  0.30769231  0.07692308       0.022
  -0.46153846  0.30769231  0.07692308       0.022
  -0.38461538  0.30769231  0.07692308       0.022
  -0.30769231  0.30769231  0.07692308       0.022
  -0.23076923  0.30769231  0.07692308       0.011
   0.46153846  0.38461538  0.07692308       0.011
  -0.46153846  0.38461538  0.07692308       0.022
  -0.38461538  0.38461538  0.07692308       0.022
  -0.30769231  0.38461538  0.07692308       0.011
  -0.46153846  0.46153846  0.07692308       0.011
  -0.38461538  0.46153846  0.07692308       0.011
   0.46153846  0.30769231  0.15384615       0.011
  -0.46153846  0.30769231  0.15384615       0.022
  -0.38461538  0.30769231  0.15384615       0.022
  -0.46153846  0.38461538  0.15384615       0.011
  -0.38461538  0.38461538  0.15384615       0.022
  -0.30769231  0.38461538  0.15384615       0.022
  -0.23076923  0.38461538  0.15384615       0.011
  -0.38461538  0.46153846  0.15384615       0.011
  -0.30769231  0.46153846  0.15384615       0.011
  -0.30769231  0.46153846  0.23076923       0.011

 position of ions in fractional coordinates (direct lattice)
   0.25000000  0.25000000  0.25000000
   0.75000000  0.75000000  0.75000000
   0.00000000  0.00000000  0.00000000

 position of ions in cartesian coordinates  (Angst):
   1.75692795  1.75692795  1.75692795
   5.27078386  5.27078386  5.27078386
   0.00000000  0.00000000  0.00000000



--------------------------------------------------------------------------------------------------------


 k-point  1 :   0.0000 0.0000 0.0000  plane waves:    3695
 k-point  2 :   0.0769-0.0000 0.0000  plane waves:    3677
 k-point  3 :   0.1538 0.0000-0.0000  plane waves:    3662
 k-point  4 :   0.2308 0.0000-0.0000  plane waves:    3656
 k-point  5 :   0.3077 0.0000-0.0000  plane waves:    3657
 k-point  6 :   0.3846 0.0000-0.0000  plane waves:    3660
 k-point  7 :   0.4615-0.0000 0.0000  plane waves:    3654
 k-point  8 :   0.0769 0.0769 0.0000  plane waves:    3663
 k-point  9 :   0.1538 0.0769 0.0000  plane waves:    3657
 k-point 10 :   0.2308 0.0769-0.0000  plane waves:    3655
 k-point 11 :   0.3077 0.0769-0.0000  plane waves:    3654
 k-point 12 :   0.3846 0.0769-0.0000  plane waves:    3663
 k-point 13 :   0.4615 0.0769 0.0000  plane waves:    3652
 k-point 14 :  -0.4615 0.0769 0.0000  plane waves:    3664
 k-point 15 :  -0.3846 0.0769 0.0000  plane waves:    3659
 k-point 16 :  -0.3077 0.0769 0.0000  plane waves:    3648
 k-point 17 :  -0.2308 0.0769 0.0000  plane waves:    3653
 k-point 18 :  -0.1538 0.0769 0.0000  plane waves:    3663
 k-point 19 :  -0.0769 0.0769-0.0000  plane waves:    3651
 k-point 20 :   0.1538 0.1538 0.0000  plane waves:    3643
 k-point 21 :   0.2308 0.1538 0.0000  plane waves:    3643
 k-point 22 :   0.3077 0.1538-0.0000  plane waves:    3645
 k-point 23 :   0.3846 0.1538-0.0000  plane waves:    3648
 k-point 24 :   0.4615 0.1538-0.0000  plane waves:    3647
 k-point 25 :  -0.4615 0.1538 0.0000  plane waves:    3658
 k-point 26 :  -0.3846 0.1538 0.0000  plane waves:    3659
 k-point 27 :  -0.3077 0.1538-0.0000  plane waves:    3651
 k-point 28 :  -0.2308 0.1538 0.0000  plane waves:    3660
 k-point 29 :  -0.1538 0.1538 0.0000  plane waves:    3659
 k-point 30 :   0.2308 0.2308 0.0000  plane waves:    3627
 k-point 31 :   0.3077 0.2308 0.0000  plane waves:    3640
 k-point 32 :   0.3846 0.2308-0.0000  plane waves:    3635
 k-point 33 :   0.4615 0.2308 0.0000  plane waves:    3636
 k-point 34 :  -0.4615 0.2308 0.0000  plane waves:    3646
 k-point 35 :  -0.3846 0.2308 0.0000  plane waves:    3654
 k-point 36 :  -0.3077 0.2308 0.0000  plane waves:    3640
 k-point 37 :  -0.2308 0.2308 0.0000  plane waves:    3647
 k-point 38 :   0.3077 0.3077 0.0000  plane waves:    3651
 k-point 39 :   0.3846 0.3077 0.0000  plane waves:    3635
 k-point 40 :   0.4615 0.3077-0.0000  plane waves:    3651
 k-point 41 :  -0.4615 0.3077 0.0000  plane waves:    3651
 k-point 42 :  -0.3846 0.3077 0.0000  plane waves:    3636
 k-point 43 :  -0.3077 0.3077 0.0000  plane waves:    3653
 k-point 44 :   0.3846 0.3846 0.0000  plane waves:    3631
 k-point 45 :   0.4615 0.3846-0.0000  plane waves:    3651
 k-point 46 :  -0.4615 0.3846-0.0000  plane waves:    3643
 k-point 47 :  -0.3846 0.3846 0.0000  plane waves:    3652
 k-point 48 :   0.4615 0.4615 0.0000  plane waves:    3632
 k-point 49 :  -0.4615 0.4615-0.0000  plane waves:    3636
 k-point 50 :   0.2308 0.1538 0.0769  plane waves:    3652
 k-point 51 :   0.3077 0.1538 0.0769  plane waves:    3654
 k-point 52 :   0.3846 0.1538 0.0769  plane waves:    3651
 k-point 53 :   0.4615 0.1538 0.0769  plane waves:    3648
 k-point 54 :  -0.4615 0.1538 0.0769  plane waves:    3664
 k-point 55 :   0.3077 0.2308 0.0769  plane waves:    3644
 k-point 56 :   0.3846 0.2308 0.0769  plane waves:    3638
 k-point 57 :   0.4615 0.2308 0.0769  plane waves:    3643
 k-point 58 :  -0.4615 0.2308 0.0769  plane waves:    3651
 k-point 59 :  -0.3846 0.2308 0.0769  plane waves:    3649
 k-point 60 :  -0.3077 0.2308 0.0769  plane waves:    3651
 k-point 61 :  -0.2308 0.2308 0.0769  plane waves:    3648
 k-point 62 :  -0.1538 0.2308 0.0769  plane waves:    3657
 k-point 63 :   0.3846 0.3077 0.0769  plane waves:    3640
 k-point 64 :   0.4615 0.3077 0.0769  plane waves:    3648
 k-point 65 :  -0.4615 0.3077 0.0769  plane waves:    3649
 k-point 66 :  -0.3846 0.3077 0.0769  plane waves:    3649
 k-point 67 :  -0.3077 0.3077 0.0769  plane waves:    3653
 k-point 68 :  -0.2308 0.3077 0.0769  plane waves:    3652
 k-point 69 :   0.4615 0.3846 0.0769  plane waves:    3648
 k-point 70 :  -0.4615 0.3846 0.0769  plane waves:    3653
 k-point 71 :  -0.3846 0.3846 0.0769  plane waves:    3643
 k-point 72 :  -0.3077 0.3846 0.0769  plane waves:    3642
 k-point 73 :  -0.4615 0.4615 0.0769  plane waves:    3644
 k-point 74 :  -0.3846 0.4615 0.0769  plane waves:    3648
 k-point 75 :   0.4615 0.3077 0.1538  plane waves:    3645
 k-point 76 :  -0.4615 0.3077 0.1538  plane waves:    3652
 k-point 77 :  -0.3846 0.3077 0.1538  plane waves:    3648
 k-point 78 :  -0.4615 0.3846 0.1538  plane waves:    3655
 k-point 79 :  -0.3846 0.3846 0.1538  plane waves:    3657
 k-point 80 :  -0.3077 0.3846 0.1538  plane waves:    3647
 k-point 81 :  -0.2308 0.3846 0.1538  plane waves:    3654
 k-point 82 :  -0.3846 0.4615 0.1538  plane waves:    3656
 k-point 83 :  -0.3077 0.4615 0.1538  plane waves:    3653
 k-point 84 :  -0.3077 0.4615 0.2308  plane waves:    3672

 maximum and minimum number of plane-waves per node :       935      895

 maximum number of plane-waves:      3695
 maximum index in each direction:
   IXMAX=   11   IYMAX=   10   IZMAX=   10
   IXMIN=  -11   IYMIN=  -11   IZMIN=  -10


 parallel 3D FFT for wavefunctions:
    minimum data exchange during FFTs selected (reduces bandwidth)
 parallel 3D FFT for charge:
    minimum data exchange during FFTs selected (reduces bandwidth)


 total amount of memory used by VASP MPI-rank0   111362. kBytes
=======================================================================

   base      :      30000. kBytes
   nonl-proj :      59911. kBytes
   fftplans  :       8952. kBytes
   grid      :       4709. kBytes
   one-center:         49. kBytes
   wavefun   :       7741. kBytes

     INWAV:  cpu time    0.0003: real time    0.0058
 Broyden mixing: mesh for mixing (old mesh)
   NGX = 21   NGY = 21   NGZ = 21
  (NGX  = 96   NGY  = 96   NGZ  = 96)
  gives a total of   9261 points

 initial charge density was supplied:
 charge density of overlapping atoms calculated
 number of electron      37.0000000 magnetization
 keeping initial charge density in first step


--------------------------------------------------------------------------------------------------------


 Maximum index for augmentation-charges        37779 (set IRDMAX)


--------------------------------------------------------------------------------------------------------


 First call to EWALD:  gamma=   0.400
 Maximum number of real-space cells 3x 3x 3
 Maximum number of reciprocal cells 3x 3x 3

    FEWALD:  cpu time    0.0053: real time    0.0056


--------------------------------------- Iteration      1(   1)  ---------------------------------------


    POTLOK:  cpu time    0.0594: real time    0.1204
    SETDIJ:  cpu time    0.1366: real time    0.1374
     EDDAV:  cpu time    1.6890: real time    1.6960
       DOS:  cpu time    0.0038: real time    0.0050
    --------------------------------------------
      LOOP:  cpu time    1.8891: real time    1.9593

 eigenvalue-minimisations  :  4032
 total energy-change (2. order) : 0.4392360E+03  (-0.2030869E+04)
 number of electron      37.0000000 magnetization
 augmentation part       37.0000000 magnetization

 Free energy of the ion-electron system (eV)
  ---------------------------------------------------
  alpha Z        PSCENC =       198.00712946
  Ewald energy   TEWEN  =     -3048.55424172
  -Hartree energ DENC   =      -791.33664617
  -exchange      EXHF   =         0.00000000
  -V(xc)+E(xc)   XCENC  =        67.50727156
  PAW double counting   =      3147.30828992    -3070.62761383
  entropy T*S    EENTRO =        -0.00027813
  eigenvalues    EBANDS =       262.25864150
  atomic energy  EATOM  =      3674.67342263
  Solvation  Ediel_sol  =         0.00000000
  ---------------------------------------------------
  free energy    TOTEN  =       439.23597522 eV

  energy without entropy =      439.23625336  energy(sigma->0) =      439.23611429


--------------------------------------------------------------------------------------------------------




--------------------------------------- Iteration      1(   2)  ---------------------------------------


     EDDAV:  cpu time    1.7115: real time    1.7325
       DOS:  cpu time    0.0030: real time    0.0033
    --------------------------------------------
      LOOP:  cpu time    1.7146: real time    1.7371

 eigenvalue-minimisations  :  4184
 total energy-change (2. order) :-0.3939740E+03  (-0.3862970E+03)
 number of electron      37.0000000 magnetization
 augmentation part       37.0000000 magnetization

 Free energy of the ion-electron system (eV)
  ---------------------------------------------------
  alpha Z        PSCENC =       198.00712946
  Ewald energy   TEWEN  =     -3048.55424172
  -Hartree energ DENC   =      -791.33664617
  -exchange      EXHF   =         0.00000000
  -V(xc)+E(xc)   XCENC  =        67.50727156
  PAW double counting   =      3147.30828992    -3070.62761383
  entropy T*S    EENTRO =        -0.00015276
  eigenvalues    EBANDS =      -131.71548858
  atomic energy  EATOM  =      3674.67342263
  Solvation  Ediel_sol  =         0.00000000
  ---------------------------------------------------
  free energy    TOTEN  =        45.26197051 eV

  energy without entropy =       45.26212327  energy(sigma->0) =       45.26204689


--------------------------------------------------------------------------------------------------------




--------------------------------------- Iteration      1(   3)  ---------------------------------------


     EDDAV:  cpu time    2.1116: real time    2.1440
       DOS:  cpu time    0.0029: real time    0.0031
    --------------------------------------------
      LOOP:  cpu time    2.1144: real time    2.1518

 eigenvalue-minimisations  :  5528
 total energy-change (2. order) :-0.6374786E+02  (-0.6295915E+02)
 number of electron      37.0000000 magnetization
 augmentation part       37.0000000 magnetization

 Free energy of the ion-electron system (eV)
  ---------------------------------------------------
  alpha Z        PSCENC =       198.00712946
  Ewald energy   TEWEN  =     -3048.55424172
  -Hartree energ DENC   =      -791.33664617
  -exchange      EXHF   =         0.00000000
  -V(xc)+E(xc)   XCENC  =        67.50727156
  PAW double counting   =      3147.30828992    -3070.62761383
  entropy T*S    EENTRO =        -0.00012659
  eigenvalues    EBANDS =      -195.46337882
  atomic energy  EATOM  =      3674.67342263
  Solvation  Ediel_sol  =         0.00000000
  ---------------------------------------------------
  free energy    TOTEN  =       -18.48589355 eV

  energy without entropy =      -18.48576697  energy(sigma->0) =      -18.48583026


--------------------------------------------------------------------------------------------------------




--------------------------------------- Iteration      1(   4)  ---------------------------------------


     EDDAV:  cpu time    2.6168: real time    2.6478
       DOS:  cpu time    0.0031: real time    0.0034
    --------------------------------------------
      LOOP:  cpu time    2.6200: real time    2.6461

 eigenvalue-minimisations  :  7136
 total energy-change (2. order) :-0.4255474E+01  (-0.4237255E+01)
 number of electron      37.0000000 magnetization
 augmentation part       37.0000000 magnetization

 Free energy of the ion-electron system (eV)
  ---------------------------------------------------
  alpha Z        PSCENC =       198.00712946
  Ewald energy   TEWEN  =     -3048.55424172
  -Hartree energ DENC   =      -791.33664617
  -exchange      EXHF   =         0.00000000
  -V(xc)+E(xc)   XCENC  =        67.50727156
  PAW double counting   =      3147.30828992    -3070.62761383
  entropy T*S    EENTRO =        -0.00026048
  eigenvalues    EBANDS =      -199.71871926
  atomic energy  EATOM  =      3674.67342263
  Solvation  Ediel_sol  =         0.00000000
  ---------------------------------------------------
  free energy    TOTEN  =       -22.74136789 eV

  energy without entropy =      -22.74110741  energy(sigma->0) =      -22.74123765


--------------------------------------------------------------------------------------------------------




--------------------------------------- Iteration      1(   5)  ---------------------------------------


     EDDAV:  cpu time    2.1861: real time    2.2284
       DOS:  cpu time    0.0029: real time    0.0074
    CHARGE:  cpu time    0.4373: real time    0.4393
    MIXING:  cpu time    0.0098: real time    0.0112
    --------------------------------------------
      LOOP:  cpu time    2.6361: real time    2.6869

 eigenvalue-minimisations  :  5712
 total energy-change (2. order) :-0.1454119E+00  (-0.1453720E+00)
 number of electron      37.0000000 magnetization
 augmentation part        6.0100383 magnetization

 Broyden mixing:
  rms(total) = 0.29033E+01    rms(broyden)= 0.29033E+01
  rms(prec ) = 0.32572E+01
  weight for this iteration     100.00

 Free energy of the ion-electron system (eV)
  ---------------------------------------------------
  alpha Z        PSCENC =       198.00712946
  Ewald energy   TEWEN  =     -3048.55424172
  -Hartree energ DENC   =      -791.33664617
  -exchange      EXHF   =         0.00000000
  -V(xc)+E(xc)   XCENC  =        67.50727156
  PAW double counting   =      3147.30828992    -3070.62761383
  entropy T*S    EENTRO =        -0.00027677
  eigenvalues    EBANDS =      -199.86411485
  atomic energy  EATOM  =      3674.67342263
  Solvation  Ediel_sol  =         0.00000000
  ---------------------------------------------------
  free energy    TOTEN  =       -22.88677977 eV

  energy without entropy =      -22.88650300  energy(sigma->0) =      -22.88664138


--------------------------------------------------------------------------------------------------------




--------------------------------------- Iteration      1(   6)  ---------------------------------------


    POTLOK:  cpu time    0.0630: real time    0.0825
    SETDIJ:  cpu time    0.1261: real time    0.1262
     EDDAV:  cpu time    1.9766: real time    1.9769
       DOS:  cpu time    0.0031: real time    0.0033
    CHARGE:  cpu time    0.4215: real time    0.4217
    MIXING:  cpu time    0.0069: real time    0.0070
    --------------------------------------------
      LOOP:  cpu time    2.5973: real time    2.6204

 eigenvalue-minimisations  :  5120
 total energy-change (2. order) : 0.1002422E+01  (-0.1980390E+00)
 number of electron      37.0000000 magnetization
 augmentation part        6.0584383 magnetization

 Broyden mixing:
  rms(total) = 0.18333E+01    rms(broyden)= 0.18333E+01
  rms(prec ) = 0.19554E+01
  weight for this iteration     100.00

 eigenvalues of (default mixing * dielectric matrix)
  average eigenvalue GAMMA=   2.6279
  2.6279

 Free energy of the ion-electron system (eV)
  ---------------------------------------------------
  alpha Z        PSCENC =       198.00712946
  Ewald energy   TEWEN  =     -3048.55424172
  -Hartree energ DENC   =      -776.20876652
  -exchange      EXHF   =         0.00000000
  -V(xc)+E(xc)   XCENC  =        67.04430630
  PAW double counting   =      3381.83148024    -3309.28508422
  entropy T*S    EENTRO =        -0.00023929
  eigenvalues    EBANDS =      -209.39236475
  atomic energy  EATOM  =      3674.67342263
  Solvation  Ediel_sol  =         0.00000000
  ---------------------------------------------------
  free energy    TOTEN  =       -21.88435787 eV

  energy without entropy =      -21.88411858  energy(sigma->0) =      -21.88423822


--------------------------------------------------------------------------------------------------------




--------------------------------------- Iteration      1(   7)  ---------------------------------------


    POTLOK:  cpu time    0.0540: real time    0.0862
    SETDIJ:  cpu time    0.1232: real time    0.1233
     EDDAV:  cpu time    2.2482: real time    2.2491
       DOS:  cpu time    0.0030: real time    0.0034
    CHARGE:  cpu time    0.3845: real time    0.3846
    MIXING:  cpu time    0.0091: real time    0.0096
    --------------------------------------------
      LOOP:  cpu time    2.8220: real time    2.8538

 eigenvalue-minimisations  :  6088
 total energy-change (2. order) : 0.1064997E+00  (-0.2675136E+00)
 number of electron      37.0000000 magnetization
 augmentation part        6.0200902 magnetization

 Broyden mixing:
  rms(total) = 0.63620E+00    rms(broyden)= 0.63620E+00
  rms(prec ) = 0.77242E+00
  weight for this iteration     100.00

 eigenvalues of (default mixing * dielectric matrix)
  average eigenvalue GAMMA=   2.1491
  1.0298  3.2685

 Free energy of the ion-electron system (eV)
  ---------------------------------------------------
  alpha Z        PSCENC =       198.00712946
  Ewald energy   TEWEN  =     -3048.55424172
  -Hartree energ DENC   =      -762.30082498
  -exchange      EXHF   =         0.00000000
  -V(xc)+E(xc)   XCENC  =        66.79090267
  PAW double counting   =      3688.45298064    -3620.30680492
  entropy T*S    EENTRO =        -0.00026614
  eigenvalues    EBANDS =      -218.54015577
  atomic energy  EATOM  =      3674.67342263
  Solvation  Ediel_sol  =         0.00000000
  ---------------------------------------------------
  free energy    TOTEN  =       -21.77785815 eV

  energy without entropy =      -21.77759200  energy(sigma->0) =      -21.77772508


--------------------------------------------------------------------------------------------------------




--------------------------------------- Iteration      1(   8)  ---------------------------------------


    POTLOK:  cpu time    0.0453: real time    0.0771
    SETDIJ:  cpu time    0.1188: real time    0.1189
     EDDAV:  cpu time    1.9831: real time    1.9834
       DOS:  cpu time    0.0030: real time    0.0032
    CHARGE:  cpu time    0.3909: real time    0.3927
    MIXING:  cpu time    0.0052: real time    0.0054
    --------------------------------------------
      LOOP:  cpu time    2.5463: real time    2.5815

 eigenvalue-minimisations  :  5080
 total energy-change (2. order) : 0.5778661E-01  (-0.3608042E-01)
 number of electron      37.0000000 magnetization
 augmentation part        5.9685591 magnetization

 Broyden mixing:
  rms(total) = 0.48388E+00    rms(broyden)= 0.48388E+00
  rms(prec ) = 0.52656E+00
  weight for this iteration     100.00

 eigenvalues of (default mixing * dielectric matrix)
  average eigenvalue GAMMA=   1.8630
  3.4713  1.0589  1.0589

 Free energy of the ion-electron system (eV)
  ---------------------------------------------------
  alpha Z        PSCENC =       198.00712946
  Ewald energy   TEWEN  =     -3048.55424172
  -Hartree energ DENC   =      -762.99894342
  -exchange      EXHF   =         0.00000000
  -V(xc)+E(xc)   XCENC  =        66.81058151
  PAW double counting   =      3704.63253245    -3636.43820952
  entropy T*S    EENTRO =        -0.00048194
  eigenvalues    EBANDS =      -217.85186099
  atomic energy  EATOM  =      3674.67342263
  Solvation  Ediel_sol  =         0.00000000
  ---------------------------------------------------
  free energy    TOTEN  =       -21.72007154 eV

  energy without entropy =      -21.71958959  energy(sigma->0) =      -21.71983056


--------------------------------------------------------------------------------------------------------




--------------------------------------- Iteration      1(   9)  ---------------------------------------


    POTLOK:  cpu time    0.0543: real time    0.0897
    SETDIJ:  cpu time    0.1046: real time    0.1047
     EDDAV:  cpu time    2.2382: real time    2.2385
       DOS:  cpu time    0.0030: real time    0.0039
    CHARGE:  cpu time    0.3876: real time    0.3879
    MIXING:  cpu time    0.0066: real time    0.0068
    --------------------------------------------
      LOOP:  cpu time    2.7943: real time    2.8297

 eigenvalue-minimisations  :  6000
 total energy-change (2. order) : 0.1165856E-01  (-0.1981908E-01)
 number of electron      37.0000000 magnetization
 augmentation part        5.9521722 magnetization

 Broyden mixing:
  rms(total) = 0.26013E+00    rms(broyden)= 0.26013E+00
  rms(prec ) = 0.27265E+00
  weight for this iteration     100.00

 eigenvalues of (default mixing * dielectric matrix)
  average eigenvalue GAMMA=   1.4138
  2.5169  1.2551  1.2551  0.6283

 Free energy of the ion-electron system (eV)
  ---------------------------------------------------
  alpha Z        PSCENC =       198.00712946
  Ewald energy   TEWEN  =     -3048.55424172
  -Hartree energ DENC   =      -765.40915477
  -exchange      EXHF   =         0.00000000
  -V(xc)+E(xc)   XCENC  =        66.84783111
  PAW double counting   =      3777.94003709    -3709.61451471
  entropy T*S    EENTRO =        -0.00029329
  eigenvalues    EBANDS =      -215.59862878
  atomic energy  EATOM  =      3674.67342263
  Solvation  Ediel_sol  =         0.00000000
  ---------------------------------------------------
  free energy    TOTEN  =       -21.70841298 eV

  energy without entropy =      -21.70811969  energy(sigma->0) =      -21.70826634


--------------------------------------------------------------------------------------------------------




--------------------------------------- Iteration      1(  10)  ---------------------------------------


    POTLOK:  cpu time    0.0613: real time    0.0863
    SETDIJ:  cpu time    0.1226: real time    0.1227
     EDDAV:  cpu time    1.9450: real time    1.9453
       DOS:  cpu time    0.0031: real time    0.0037
    CHARGE:  cpu time    0.3918: real time    0.3919
    MIXING:  cpu time    0.0056: real time    0.0057
    --------------------------------------------
      LOOP:  cpu time    2.5295: real time    2.5560

 eigenvalue-minimisations  :  4944
 total energy-change (2. order) : 0.4184968E-02  (-0.2973807E-02)
 number of electron      37.0000000 magnetization
 augmentation part        5.9611748 magnetization

 Broyden mixing:
  rms(total) = 0.65796E-01    rms(broyden)= 0.65796E-01
  rms(prec ) = 0.74410E-01
  weight for this iteration     100.00

 eigenvalues of (default mixing * dielectric matrix)
  average eigenvalue GAMMA=   1.4536
  2.5218  1.8830  1.2734  0.9625  0.6273

 Free energy of the ion-electron system (eV)
  ---------------------------------------------------
  alpha Z        PSCENC =       198.00712946
  Ewald energy   TEWEN  =     -3048.55424172
  -Hartree energ DENC   =      -765.49221719
  -exchange      EXHF   =         0.00000000
  -V(xc)+E(xc)   XCENC  =        66.83299014
  PAW double counting   =      3735.93598977    -3667.36697826
  entropy T*S    EENTRO =        -0.00032634
  eigenvalues    EBANDS =      -215.73999649
  atomic energy  EATOM  =      3674.67342263
  Solvation  Ediel_sol  =         0.00000000
  ---------------------------------------------------
  free energy    TOTEN  =       -21.70422801 eV

  energy without entropy =      -21.70390168  energy(sigma->0) =      -21.70406484


--------------------------------------------------------------------------------------------------------




--------------------------------------- Iteration      1(  11)  ---------------------------------------


    POTLOK:  cpu time    0.1054: real time    0.1188
    SETDIJ:  cpu time    0.1176: real time    0.1177
     EDDAV:  cpu time    2.1396: real time    2.1398
       DOS:  cpu time    0.0032: real time    0.0037
    CHARGE:  cpu time    0.3903: real time    0.3913
    MIXING:  cpu time    0.0056: real time    0.0058
    --------------------------------------------
      LOOP:  cpu time    2.7617: real time    2.7799

 eigenvalue-minimisations  :  5648
 total energy-change (2. order) : 0.1864552E-03  (-0.3078318E-03)
 number of electron      37.0000000 magnetization
 augmentation part        5.9648818 magnetization

 Broyden mixing:
  rms(total) = 0.13453E-01    rms(broyden)= 0.13453E-01
  rms(prec ) = 0.21570E-01
  weight for this iteration     100.00

 eigenvalues of (default mixing * dielectric matrix)
  average eigenvalue GAMMA=   1.3682
  2.5314  2.0108  0.6333  1.0442  1.0442  0.9454

 Free energy of the ion-electron system (eV)
  ---------------------------------------------------
  alpha Z        PSCENC =       198.00712946
  Ewald energy   TEWEN  =     -3048.55424172
  -Hartree energ DENC   =      -765.77135050
  -exchange      EXHF   =         0.00000000
  -V(xc)+E(xc)   XCENC  =        66.82756524
  PAW double counting   =      3742.47921551    -3673.83460271
  entropy T*S    EENTRO =        -0.00029783
  eigenvalues    EBANDS =      -215.53088164
  atomic energy  EATOM  =      3674.67342263
  Solvation  Ediel_sol  =         0.00000000
  ---------------------------------------------------
  free energy    TOTEN  =       -21.70404156 eV

  energy without entropy =      -21.70374373  energy(sigma->0) =      -21.70389264


--------------------------------------------------------------------------------------------------------




--------------------------------------- Iteration      1(  12)  ---------------------------------------


    POTLOK:  cpu time    0.0459: real time    0.0887
    SETDIJ:  cpu time    0.1167: real time    0.1171
     EDDAV:  cpu time    2.3199: real time    2.3202
       DOS:  cpu time    0.0031: real time    0.0032
    CHARGE:  cpu time    0.3924: real time    0.3925
    MIXING:  cpu time    0.0057: real time    0.0072
    --------------------------------------------
      LOOP:  cpu time    2.8836: real time    2.9268

 eigenvalue-minimisations  :  6128
 total energy-change (2. order) : 0.1358578E-03  (-0.1163837E-03)
 number of electron      37.0000000 magnetization
 augmentation part        5.9659194 magnetization

 Broyden mixing:
  rms(total) = 0.38697E-02    rms(broyden)= 0.38697E-02
  rms(prec ) = 0.43094E-02
  weight for this iteration     100.00

 eigenvalues of (default mixing * dielectric matrix)
  average eigenvalue GAMMA=   1.3760
  2.3319  2.3319  1.1998  1.1998  0.6245  0.9722  0.9722

 Free energy of the ion-electron system (eV)
  ---------------------------------------------------
  alpha Z        PSCENC =       198.00712946
  Ewald energy   TEWEN  =     -3048.55424172
  -Hartree energ DENC   =      -765.82025029
  -exchange      EXHF   =         0.00000000
  -V(xc)+E(xc)   XCENC  =        66.82915302
  PAW double counting   =      3742.12845940    -3673.44298192
  entropy T*S    EENTRO =        -0.00029353
  eigenvalues    EBANDS =      -215.52430275
  atomic energy  EATOM  =      3674.67342263
  Solvation  Ediel_sol  =         0.00000000
  ---------------------------------------------------
  free energy    TOTEN  =       -21.70390570 eV

  energy without entropy =      -21.70361216  energy(sigma->0) =      -21.70375893


--------------------------------------------------------------------------------------------------------




--------------------------------------- Iteration      1(  13)  ---------------------------------------


    POTLOK:  cpu time    0.0550: real time    0.0905
    SETDIJ:  cpu time    0.1173: real time    0.1174
     EDDAV:  cpu time    2.2623: real time    2.2627
       DOS:  cpu time    0.0031: real time    0.0033
    CHARGE:  cpu time    0.3885: real time    0.3887
    MIXING:  cpu time    0.0059: real time    0.0060
    --------------------------------------------
      LOOP:  cpu time    2.8322: real time    2.8685

 eigenvalue-minimisations  :  5984
 total energy-change (2. order) :-0.6219279E-05  (-0.6363922E-05)
 number of electron      37.0000000 magnetization
 augmentation part        5.9662527 magnetization

 Broyden mixing:
  rms(total) = 0.26802E-02    rms(broyden)= 0.26802E-02
  rms(prec ) = 0.35461E-02
  weight for this iteration     100.00

 eigenvalues of (default mixing * dielectric matrix)
  average eigenvalue GAMMA=   1.4175
  2.5076  1.9263  1.9263  1.3840  0.6279  0.9722  0.9979  0.9979

 Free energy of the ion-electron system (eV)
  ---------------------------------------------------
  alpha Z        PSCENC =       198.00712946
  Ewald energy   TEWEN  =     -3048.55424172
  -Hartree energ DENC   =      -765.82548086
  -exchange      EXHF   =         0.00000000
  -V(xc)+E(xc)   XCENC  =        66.82854891
  PAW double counting   =      3741.72916095    -3673.02821281
  entropy T*S    EENTRO =        -0.00029396
  eigenvalues    EBANDS =      -215.53394452
  atomic energy  EATOM  =      3674.67342263
  Solvation  Ediel_sol  =         0.00000000
  ---------------------------------------------------
  free energy    TOTEN  =       -21.70391192 eV

  energy without entropy =      -21.70361796  energy(sigma->0) =      -21.70376494


--------------------------------------------------------------------------------------------------------




--------------------------------------- Iteration      1(  14)  ---------------------------------------


    POTLOK:  cpu time    0.0521: real time    0.0704
    SETDIJ:  cpu time    0.1194: real time    0.1195
     EDDAV:  cpu time    2.1562: real time    2.1565
       DOS:  cpu time    0.0033: real time    0.0044
    CHARGE:  cpu time    0.3910: real time    0.3914
    MIXING:  cpu time    0.0060: real time    0.0061
    --------------------------------------------
      LOOP:  cpu time    2.7280: real time    2.7483

 eigenvalue-minimisations  :  5568
 total energy-change (2. order) : 0.1756181E-05  (-0.7385745E-06)
 number of electron      37.0000000 magnetization
 augmentation part        5.9663231 magnetization

 Broyden mixing:
  rms(total) = 0.84138E-03    rms(broyden)= 0.84136E-03
  rms(prec ) = 0.10893E-02
  weight for this iteration     100.00

 eigenvalues of (default mixing * dielectric matrix)
  average eigenvalue GAMMA=   1.4434
  2.6858  2.1605  2.1605  0.6275  1.0245  1.0245  1.2856  0.9606  1.0611

 Free energy of the ion-electron system (eV)
  ---------------------------------------------------
  alpha Z        PSCENC =       198.00712946
  Ewald energy   TEWEN  =     -3048.55424172
  -Hartree energ DENC   =      -765.81498072
  -exchange      EXHF   =         0.00000000
  -V(xc)+E(xc)   XCENC  =        66.82890310
  PAW double counting   =      3741.50154614    -3672.80465324
  entropy T*S    EENTRO =        -0.00029543
  eigenvalues    EBANDS =      -215.54074037
  atomic energy  EATOM  =      3674.67342263
  Solvation  Ediel_sol  =         0.00000000
  ---------------------------------------------------
  free energy    TOTEN  =       -21.70391016 eV

  energy without entropy =      -21.70361473  energy(sigma->0) =      -21.70376245


--------------------------------------------------------------------------------------------------------




--------------------------------------- Iteration      1(  15)  ---------------------------------------


    POTLOK:  cpu time    0.0556: real time    0.0922
    SETDIJ:  cpu time    0.1162: real time    0.1164
     EDDAV:  cpu time    2.5181: real time    2.5183
       DOS:  cpu time    0.0031: real time    0.0038
    CHARGE:  cpu time    0.3886: real time    0.3888
    MIXING:  cpu time    0.0065: real time    0.0067
    --------------------------------------------
      LOOP:  cpu time    3.0881: real time    3.1253

 eigenvalue-minimisations  :  6864
 total energy-change (2. order) : 0.5409174E-07  (-0.2594993E-06)
 number of electron      37.0000000 magnetization
 augmentation part        5.9661307 magnetization

 Broyden mixing:
  rms(total) = 0.75961E-03    rms(broyden)= 0.75960E-03
  rms(prec ) = 0.81435E-03
  weight for this iteration     100.00

 eigenvalues of (default mixing * dielectric matrix)
  average eigenvalue GAMMA=   1.3732
  2.6155  2.2328  1.4803  1.4803  0.6272  1.0470  1.0470  1.1740  1.1740  0.8542

 Free energy of the ion-electron system (eV)
  ---------------------------------------------------
  alpha Z        PSCENC =       198.00712946
  Ewald energy   TEWEN  =     -3048.55424172
  -Hartree energ DENC   =      -765.81224029
  -exchange      EXHF   =         0.00000000
  -V(xc)+E(xc)   XCENC  =        66.82898638
  PAW double counting   =      3741.37945170    -3672.68281835
  entropy T*S    EENTRO =        -0.00029618
  eigenvalues    EBANDS =      -215.54330374
  atomic energy  EATOM  =      3674.67342263
  Solvation  Ediel_sol  =         0.00000000
  ---------------------------------------------------
  free energy    TOTEN  =       -21.70391011 eV

  energy without entropy =      -21.70361393  energy(sigma->0) =      -21.70376202


--------------------------------------------------------------------------------------------------------




--------------------------------------- Iteration      1(  16)  ---------------------------------------


    POTLOK:  cpu time    0.0454: real time    0.0880
    SETDIJ:  cpu time    0.1222: real time    0.1226
     EDDAV:  cpu time    1.6016: real time    1.6019
       DOS:  cpu time    0.0030: real time    0.0032
    --------------------------------------------
      LOOP:  cpu time    1.7722: real time    1.8146

 eigenvalue-minimisations  :  3624
 total energy-change (2. order) :-0.2134402E-07  (-0.1214461E-07)
 number of electron      37.0000000 magnetization
 augmentation part        5.9661307 magnetization

 Free energy of the ion-electron system (eV)
  ---------------------------------------------------
  alpha Z        PSCENC =       198.00712946
  Ewald energy   TEWEN  =     -3048.55424172
  -Hartree energ DENC   =      -765.81224946
  -exchange      EXHF   =         0.00000000
  -V(xc)+E(xc)   XCENC  =        66.82887384
  PAW double counting   =      3741.45123507    -3672.75359042
  entropy T*S    EENTRO =        -0.00029603
  eigenvalues    EBANDS =      -215.54419350
  atomic energy  EATOM  =      3674.67342263
  Solvation  Ediel_sol  =         0.00000000
  ---------------------------------------------------
  free energy    TOTEN  =       -21.70391013 eV

  energy without entropy =      -21.70361410  energy(sigma->0) =      -21.70376212


--------------------------------------------------------------------------------------------------------




 average (electrostatic) potential at core
  the test charge radii are     1.1985  1.0856  1.2059
  (the norm of the test charge is              1.0000)
       1 -58.4060       2-103.1519       3 -66.4872



 E-fermi :   7.5934     XC(G=0): -10.6572     alpha+bet :-12.9653


 k-point     1 :       0.0000    0.0000    0.0000
  band No.  band energies     occupation
      1     -32.7104      2.00000
      2     -15.2603      2.00000
      3     -15.2603      2.00000
      4     -15.2320      2.00000
      5     -15.2320      2.00000
      6     -15.2320      2.00000
      7     -10.5958      2.00000
      8     -10.5958      2.00000
      9     -10.5958      2.00000
     10      -4.2582      2.00000
     11       3.5918      2.00000
     12       3.5918      2.00000
     13       3.5918      2.00000
     14       3.8631      2.00000
     15       3.8631      2.00000
     16       5.4474      2.00000
     17       6.6268      2.00000
     18       6.6268      2.00000
     19       6.6268      2.00000
     20       7.8570      0.00000
     21       7.8570      0.00000
     22       7.8570      0.00000
     23       8.5855      0.00000
     24       9.3746      0.00000

 k-point     2 :       0.0769   -0.0000    0.0000
  band No.  band energies     occupation
      1     -32.7102      2.00000
      2     -15.2608      2.00000
      3     -15.2608      2.00000
      4     -15.2321      2.00000
      5     -15.2319      2.00000
      6     -15.2319      2.00000
      7     -10.6066      2.00000
      8     -10.5945      2.00000
      9     -10.5945      2.00000
     10      -4.2106      2.00000
     11       3.4519      2.00000
     12       3.5030      2.00000
     13       3.5030      2.00000
     14       3.9468      2.00000
     15       3.9468      2.00000
     16       5.2953      2.00000
     17       6.5478      2.00000
     18       6.5478      2.00000
     19       6.7024      2.00000
     20       7.9416      0.00000
     21       7.9451      0.00000
     22       7.9451      0.00000
     23       8.7714      0.00000
     24       9.3828      0.00000

 k-point     3 :       0.1538    0.0000   -0.0000
  band No.  band energies     occupation
      1     -32.7097      2.00000
      2     -15.2621      2.00000
      3     -15.2621      2.00000
      4     -15.2324      2.00000
      5     -15.2316      2.00000
      6     -15.2316      2.00000
      7     -10.6357      2.00000
      8     -10.5911      2.00000
      9     -10.5911      2.00000
     10      -4.0780      2.00000
     11       3.1125      2.00000
     12       3.3669      2.00000
     13       3.3669      2.00000
     14       4.0593      2.00000
     15       4.0593      2.00000
     16       4.9629      2.00000
     17       6.3816      2.00000
     18       6.3816      2.00000
     19       6.8043      2.00000
     20       8.1522      0.00000
     21       8.1522      0.00000
     22       8.3042      0.00000
     23       9.0949      0.00000
     24       9.4062      0.00000

 k-point     4 :       0.2308    0.0000   -0.0000
  band No.  band energies     occupation
      1     -32.7090      2.00000
      2     -15.2640      2.00000
      3     -15.2640      2.00000
      4     -15.2328      2.00000
      5     -15.2312      2.00000
      6     -15.2312      2.00000
      7     -10.6751      2.00000
      8     -10.5863      2.00000
      9     -10.5863      2.00000
     10      -3.8895      2.00000
     11       2.7115      2.00000
     12       3.2589      2.00000
     13       3.2589      2.00000
     14       4.1089      2.00000
     15       4.1089      2.00000
     16       4.6136      2.00000
     17       6.2304      2.00000
     18       6.2304      2.00000
     19       6.8944      2.00000
     20       8.4002      0.00000
     21       8.4002      0.00000
     22       8.8290      0.00000
     23       9.3370      0.00000
     24       9.4064      0.00000

 k-point     5 :       0.3077    0.0000   -0.0000
  band No.  band energies     occupation
      1     -32.7082      2.00000
      2     -15.2660      2.00000
      3     -15.2660      2.00000
      4     -15.2332      2.00000
      5     -15.2307      2.00000
      6     -15.2307      2.00000
      7     -10.7148      2.00000
      8     -10.5812      2.00000
      9     -10.5812      2.00000
     10      -3.6872      2.00000
     11       2.3464      2.00000
[...]
  212              fftbas_plan_mpi                       0.097539                     12   6
  213                dfftw_execute                         0.040062                   36   7
  214                map_backward                          0.005872                   12   7
  215                  map_gather                            0.001671                  6   8
  216                  m_alltoallv_z                         0.001817                  6   8
  217                  map_scatter                           0.002100                  6   8
  218                map_forward                           0.048457                   12   7
  219                  map_gather                            0.027146                  6   8
  220                  m_alltoallv_z                         0.009052                  6   8
  221                  map_scatter                           0.011943                  6   8
  222            M_sumb_d                              0.003071                        6   5
  223          M_sumb_d                              0.000023                          1   4
  224        setdij_                               2.038426                           20   3
  225          fft3d_mpi                             0.356194                         40   4
  226            fftbas_plan_mpi                       0.326920                       40   5
  227              dfftw_execute                         0.137304                    120   6
  228              map_backward                          0.024216                     40   6
  229                map_gather                            0.005655                   20   7
  230                m_alltoallv_z                         0.010267                   20   7
  231                map_scatter                           0.007303                   20   7
  232              map_forward                           0.154952                     40   6
  233                map_gather                            0.085808                   20   7
  234                m_alltoallv_z                         0.028372                   20   7
  235                map_scatter                           0.039777                   20   7
  236          M_sumb_d                              0.011194                         20   4
  237        set_dd_magatom                        0.000003                            1   3
  238        set_dd_paw                            0.017017                            1   3
  239          set_rsgf_all                          0.000004                          1   4
  240          M_sumb_d                              0.016873                          8   4
  241        strkin                                0.001248                            1   3
  242          M_sumb_d                              0.000492                          1   4
  243        strelo                                0.004003                            1   3
  244          M_sumb_d                              0.000282                          2   4
  245        strenl                                1.255665                            1   3
  246          spher                                 0.940571                         19   4
  247          phase                                 0.014939                        189   4
  248          proj1                                 0.275278                       1134   4
  249            crexp_mul_wave                        0.036063                     3402   5
  250            M_sumb_d                              0.076793                     1134   5
  251          M_sumb_d                              0.001576                          1   4
  252        M_sumb_d                              0.000209                            6   3
  253        fft3d_mpi                             0.022364                           11   3
  254          fftbas_plan_mpi                       0.020528                         11   4
  255            dfftw_execute                         0.007630                       33   5
  256            map_forward                           0.004416                       10   5
  257              map_gather                            0.001562                      5   6
  258              m_alltoallv_z                         0.001523                      5   6
  259              map_scatter                           0.001076                      5   6
  260            map_backward                          0.005890                       12   5
  261              map_gather                            0.001590                      6   6
  262              m_alltoallv_z                         0.001945                      6   6
  263              map_scatter                           0.002058                      6   6
  264        ggaall_grid                           0.002672                            1   3
  265        forhar                                0.010444                            2   3
  266          M_sumb_d                              0.000400                          2   4
  267        strehar                               0.004243                            1   3
  268          M_sumb_d                              0.000193                          1   4
  269        chggra                                0.009436                            1   3
  270          fft3d_mpi                             0.006071                          3   4
  271            fftbas_plan_mpi                       0.005607                        3   5
  272              dfftw_execute                         0.002124                      9   6
  273              map_backward                          0.000997                      2   6
  274                map_gather                            0.000260                    1   7
  275                m_alltoallv_z                         0.000313                    1   7
  276                map_scatter                           0.000369                    1   7
  277              map_forward                           0.001627                      4   6
  278                map_gather                            0.000536                    2   7
  279                m_alltoallv_z                         0.000583                    2   7
  280                map_scatter                           0.000408                    2   7
  281          M_sumb_d                              0.000121                          3   4
  282        brmix                                 0.014046                            1   3
  283          M_sumb_d                              0.000253                          6   4
  284          brpre                                 0.000053                          1   4
  285          setg0                                 0.002502                          1   4
  286          broyd                                 0.008229                          1   4
  287            M_sumb_d                              0.000672                       18   5
  288            brget                                 0.000311                       64   5
  289            brsav                                 0.000077                       16   5
  290          M_bcast_z                             0.001622                          1   4
  291          M_bcast_d                             0.000068                          1   4
  292        M_bcast_d                             0.000040                            2   3
  293      potlok                                0.040790                              1   2
  294        fft3d_mpi                             0.027678                           13   3
  295          fftbas_plan_mpi                       0.025701                         13   4
  296            dfftw_execute                         0.008899                       39   5
  297            map_forward                           0.007240                       14   5
  298              map_gather                            0.002080                      8   6
  299              m_alltoallv_z                         0.003050                      8   6
  300              map_scatter                           0.001734                      8   6
  301            map_backward                          0.006160                       12   5
  302              map_gather                            0.001635                      6   6
  303              m_alltoallv_z                         0.002101                      6   6
  304              map_scatter                           0.002129                      6   6
  305        ggaall_grid                           0.002597                            1   3
  306        M_sumb_d                              0.000343                            6   3
  307        M_bcast_d                             0.000129                            1   3
  308      potlok_metagga                        0.000004                              1   2
  309      set_dd_magatom                        0.000004                              1   2
  310      set_dd_paw                            0.000436                              1   2
  311        set_rsgf_all                          0.000005                            1   3
  312        M_sumb_d                              0.000275                            8   3
  313      densta                                0.002467                              1   2
  314        M_sumb_d                              0.000908                           41   3
  315      lprj_proall                           0.000008                              1   2

 Flat profile
 ============

             routine name                   CPU           calls
 ---------------------------------------------------------------
 total_time                             19.304536           1
 dfftw_execute                           7.531163       49884
 eddav                                   5.138467          16
 fftbas_plan_mpi                         3.657983       16630
 setdij_                                 3.525456          40
 set_charge                              2.873144          12
 M_sumb_d                                2.763924       46326
 elmin                                   2.111673           1
 m_alltoallv_z                           2.102436       16653
 pdssyex_zheevx                          1.497689         336
 vhamil                                  1.285022        7540
 M_alltoall_d                            1.228570       55426
 spher                                   1.090554          20
 proj1                                   1.075140        6784
 fftwav_mpi                              1.054451        8800
 map_forward                             1.034477       17878
 orth1                                   0.973726       11331
 gemm                                    0.969212       22620
 map_gather                              0.913971       16653
 map_scatter                             0.863053       16653
 vnlac0                                  0.514141        7540
 redis_pw                                0.486967       21318
 M_bcast_z                               0.484267        6321
 hamiltmu                                0.430130        3770
 redis_proj                              0.415654       26863
 w1_copy                                 0.359312       22620
 fft3d_mpi                               0.319704       16628
 eccp                                    0.305700        2016
 work_mul_crexp                          0.301133       22620
 map_backward                            0.279965       15378
 fftext_mpi                              0.268975        7540
 crexp_mul_wave                          0.236977       20352
 crpa_reader                             0.235049           1
 pw_charge                               0.180010        1260
 kinhamil                                0.161005        7540
 overl                                   0.148427       13085
 potlok                                  0.133124          13
 M_bcast_d                               0.124794        3802
 overl1                                  0.092629        7540
 apply_precond                           0.083315        5524
 force_and_stress                        0.074238           1
 setup_precond                           0.072231        2016
 lincom                                  0.063304         357
 w1_projall                              0.060898        2762
 fornl                                   0.055497           1
 phase                                   0.044003         568
 soft_charge                             0.039335          12
 ggaall_grid                             0.037962          14
 truncate_high_frequency_w1              0.032680        9556
 densta                                  0.025979          17
 brmix                                   0.025824          12
 setg0                                   0.024111          13
 strenl                                  0.023301           1
 broyd                                   0.014860          12
 forhar                                  0.010044           2
 depsum                                  0.005255          12
 forloc                                  0.005095           1
 strehar                                 0.004050           1
 strelo                                  0.003721           1
 set_dd_paw                              0.003262          14
 chggra                                  0.003244           1
 brgrid                                  0.002349           1
 brget                                   0.002166         432
 orthch                                  0.002146           1
 choleski                                0.001821          21
 proj                                    0.001642          21
 brsav                                   0.001055         128
 brpre                                   0.000772          12
 strkin                                  0.000756           1
 fordep                                  0.000116           1
 vectorpot                               0.000100          13
 set_rsgf_all                            0.000090          14
 set_dd_magatom                          0.000054          14
 potlok_metagga                          0.000051          13
 set_kineden                             0.000042          11
 rotate_active_occupied_orbital          0.000014           1
 lprj_proall                             0.000008           1
 redis_pw_over_bands                     0.000004           1
 ---------------------------------------------------------------
  summed up times    67.1980030536652

 Accumulative profile
 ====================

             routine name                   CPU           calls
 ---------------------------------------------------------------
 total_time                             67.198003           1
 elmin                                  42.156347           1
 eddav                                  33.651474          16
 fft3d_mpi                              16.643803       16628
 fftbas_plan_mpi                        16.383049       16630
 hamiltmu                               11.129327        3770
 fftwav_mpi                              9.702959        8800
 dfftw_execute                           7.531163       49884
 kinhamil                                7.049541        7540
 fftext_mpi                              6.888536        7540
 set_charge                              4.739841          12
 force_and_stress                        4.533769           1
 setdij_                                 4.301436          40
 map_forward                             3.218162       17878
 M_sumb_d                                2.763924       46326
 vnlac0                                  2.272005        7540
 m_alltoallv_z                           2.102436       16653
 map_backward                            1.975741       15378
 proj1                                   1.796553        6784
 soft_charge                             1.612389          12
 w1_projall                              1.552076        2762
 pdssyex_zheevx                          1.497689         336
 vhamil                                  1.285022        7540
 strenl                                  1.255665           1
 M_alltoall_d                            1.228570       55426
 redis_pw                                1.202600       21318
 spher                                   1.090554          20
 orth1                                   0.973726       11331
 gemm                                    0.969212       22620
 redis_proj                              0.928590       26863
 map_gather                              0.913971       16653
 map_scatter                             0.863053       16653
 fordep                                  0.622583           1
 potlok                                  0.522030          13
 M_bcast_z                               0.484267        6321
 eccp                                    0.429910        2016
 w1_copy                                 0.359312       22620
 work_mul_crexp                          0.301133       22620
 crexp_mul_wave                          0.236977       20352
 crpa_reader                             0.235049           1
 pw_charge                               0.180010        1260
 overl                                   0.148427       13085
 set_dd_paw                              0.146790          14
 M_bcast_d                               0.124794        3802
 setup_precond                           0.118788        2016
 overl1                                  0.092629        7540
 brmix                                   0.084789          12
 apply_precond                           0.083315        5524
 fornl                                   0.071961           1
 lincom                                  0.063304         357
 phase                                   0.044003         568
 densta                                  0.039261          17
 ggaall_grid                             0.037962          14
 truncate_high_frequency_w1              0.032680        9556
 proj                                    0.031738          21
 orthch                                  0.029785           1
 setg0                                   0.024111          13
 broyd                                   0.023370          12
 forhar                                  0.010444           2
 chggra                                  0.009436           1
 depsum                                  0.008955          12
 forloc                                  0.005154           1
 strehar                                 0.004243           1
 strelo                                  0.004003           1
 brgrid                                  0.002349           1
 brget                                   0.002166         432
 choleski                                0.001821          21
 strkin                                  0.001248           1
 brsav                                   0.001055         128
 brpre                                   0.000772          12
 vectorpot                               0.000100          13
 set_rsgf_all                            0.000090          14
 set_dd_magatom                          0.000054          14
 potlok_metagga                          0.000051          13
 set_kineden                             0.000042          11
 rotate_active_occupied_orbital          0.000014           1
 lprj_proall                             0.000008           1
 redis_pw_over_bands                     0.000004           1
 ---------------------------------------------------------------

Profiling took   1.372407  1.595826  0.005783  0.004377 seconds
Profiling took   1.367093 seconds
