 ----------------------------------------------------
    OOO  PPPP  EEEEE N   N M   M PPPP
   O   O P   P E     NN  N MM MM P   P
   O   O PPPP  EEEEE N N N M M M PPPP   -- VERSION
   O   O P     E     N  NN M   M P
    OOO  P     EEEEE N   N M   M P
 ----------------------------------------------------
 running   64 mpi-ranks, with    1 threads/rank
 distrk:  each k-point on   16 cores,    4 groups
 distr:  one band on    4 cores,    4 groups
 using from now: INCAR
 vasp.6.0.8 29Jun18 (build Jun 13 2019 12:54:44) complex

 POSCAR found type information on POSCAR  Th Bi Pt
 POSCAR found :  3 types and       3 ions
 scaLAPACK will be used
 WARNING: PSMAXN for non-local potential too small

 -----------------------------------------------------------------------------
|                                                                             |
|  ADVICE TO THIS USER RUNNING 'VASP/VAMP'   (HEAR YOUR MASTER'S VOICE ...):  |
|                                                                             |
|      You enforced a specific xc-type in the INCAR file,                     |
|      a different type was found on the POTCAR file                          |
|          I HOPE YOU KNOW, WHAT YOU ARE  DOING                               |
|                                                                             |
 -----------------------------------------------------------------------------

 LDA part: xc-table for Pade appr. of Perdew
 POSCAR, INCAR and KPOINTS ok, starting setup
 FFT: planning ...
 WAVECAR not read
 entering main loop
       N       E                     dE             d eps       ncg     rms          rms(c)
 ELPA: falling back to scaLAPACK
 ELPA: falling back to scaLAPACK
 ELPA: falling back to scaLAPACK
 ELPA: falling back to scaLAPACK
DAV:   1     0.439235975222E+03    0.43924E+03   -0.20309E+04  4032   0.199E+03
DAV:   2     0.452619705099E+02   -0.39397E+03   -0.38630E+03  4184   0.486E+02
DAV:   3    -0.184858935536E+02   -0.63748E+02   -0.62959E+02  5528   0.164E+02
DAV:   4    -0.227413678921E+02   -0.42555E+01   -0.42373E+01  7136   0.443E+01
DAV:   5    -0.228867797681E+02   -0.14541E+00   -0.14537E+00  5712   0.636E+00    0.290E+01
DAV:   6    -0.218843578689E+02    0.10024E+01   -0.19804E+00  5120   0.806E+00    0.183E+01
DAV:   7    -0.217778581488E+02    0.10650E+00   -0.26751E+00  6088   0.851E+00    0.636E+00
DAV:   8    -0.217200715352E+02    0.57787E-01   -0.36080E-01  5080   0.287E+00    0.484E+00
DAV:   9    -0.217084129798E+02    0.11659E-01   -0.19819E-01  6000   0.216E+00    0.260E+00
DAV:  10    -0.217042280123E+02    0.41850E-02   -0.29738E-02  4944   0.104E+00    0.658E-01
DAV:  11    -0.217040415572E+02    0.18646E-03   -0.30783E-03  5648   0.349E-01    0.135E-01
DAV:  12    -0.217039056994E+02    0.13586E-03   -0.11638E-03  6128   0.180E-01    0.387E-02
DAV:  13    -0.217039119187E+02   -0.62193E-05   -0.63639E-05  5984   0.424E-02    0.268E-02
DAV:  14    -0.217039101625E+02    0.17562E-05   -0.73857E-06  5568   0.167E-02    0.841E-03
DAV:  15    -0.217039101084E+02    0.54092E-07   -0.25950E-06  6864   0.683E-03    0.760E-03
DAV:  16    -0.217039101297E+02   -0.21344E-07   -0.12145E-07  3624   0.226E-03
   1 F= -.21703910E+02 E0= -.21703762E+02  d E =-.296029E-03
