<?xml version="1.0" encoding="ISO-8859-1"?>
<modeling>
 <generator>
  <i name="program" type="string">vasp </i>
  <i name="version" type="string">6.0.8  </i>
  <i name="subversion" type="string">29Jun18 (build Jun 13 2019 12:54:44) complex                          parallel </i>
  <i name="platform" type="string">IFC18_CrayMPICH </i>
  <i name="date" type="string">2021 12 05 </i>
  <i name="time" type="string">13:55:53 </i>
 </generator>
 <incar>
  <i type="int" name="KPAR">     4</i>
  <i type="int" name="NPAR">     4</i>
  <i type="int" name="ISTART">     0</i>
  <i type="string" name="PREC"> ACC</i>
  <i type="string" name="ALGO"> Normal</i>
  <i type="logical" name="ADDGRID"> T  </i>
  <i type="int" name="ISPIN">     1</i>
  <i type="int" name="NELMIN">     5</i>
  <i type="int" name="IBRION">    -1</i>
  <i name="EDIFF">      0.00000010</i>
  <i type="int" name="NSW">     0</i>
  <i type="int" name="ISIF">     3</i>
  <i name="ENCUT">    700.00000000</i>
  <i type="logical" name="LREAL"> F  </i>
  <i type="int" name="ISMEAR">     0</i>
  <i name="SIGMA">      0.01000000</i>
  <i type="logical" name="LWAVE"> F  </i>
  <i type="logical" name="LCHARG"> F  </i>
  <i type="logical" name="LVTOT"> F  </i>
  <i type="string" name="ALGO"> Normal</i>
  <i type="string" name="GGA"> PS</i>
  <i name="EDIFF">      0.00000010</i>
  <i type="int" name="ISPIN">     1</i>
 </incar>
 <structure name="primitive_cell" >
  <crystal>
   <varray name="basis" >
    <v>       0.00000000       3.51385591       3.51385591 </v>
    <v>       3.51385591       0.00000000       3.51385591 </v>
    <v>       3.51385591       3.51385591       0.00000000 </v>
   </varray>
   <i name="volume">     86.77244615 </i>
   <varray name="rec_basis" >
    <v>      -0.14229383       0.14229383       0.14229383 </v>
    <v>       0.14229383      -0.14229383       0.14229383 </v>
    <v>       0.14229383       0.14229383      -0.14229383 </v>
   </varray>
  </crystal>
  <varray name="positions" >
   <v>       0.25000000       0.25000000       0.25000000 </v>
   <v>       0.75000000       0.75000000       0.75000000 </v>
   <v>       0.00000000       0.00000000       0.00000000 </v>
  </varray>
 </structure>
 <varray name="primitive_index" >
  <v type="int" >        1 </v>
  <v type="int" >        2 </v>
  <v type="int" >        3 </v>
 </varray>
 <kpoints>
  <generation param="Gamma">
   <v type="int" name="divisions">      13       13       13 </v>
   <v name="usershift">      0.00000000       0.00000000       0.00000000 </v>
   <v name="genvec1">      0.07692308      -0.00000000       0.00000000 </v>
   <v name="genvec2">     -0.00000000       0.07692308      -0.00000000 </v>
   <v name="genvec3">      0.00000000       0.00000000       0.07692308 </v>
   <v name="shift">      0.00000000       0.00000000       0.00000000 </v>
  </generation>
  <varray name="kpointlist" >
   <v>       0.00000000       0.00000000       0.00000000 </v>
   <v>       0.07692308      -0.00000000       0.00000000 </v>
   <v>       0.15384615       0.00000000      -0.00000000 </v>
   <v>       0.23076923       0.00000000      -0.00000000 </v>
   <v>       0.30769231       0.00000000      -0.00000000 </v>
   <v>       0.38461538       0.00000000      -0.00000000 </v>
   <v>       0.46153846      -0.00000000       0.00000000 </v>
   <v>       0.07692308       0.07692308       0.00000000 </v>
   <v>       0.15384615       0.07692308       0.00000000 </v>
   <v>       0.23076923       0.07692308      -0.00000000 </v>
   <v>       0.30769231       0.07692308      -0.00000000 </v>
   <v>       0.38461538       0.07692308      -0.00000000 </v>
   <v>       0.46153846       0.07692308       0.00000000 </v>
   <v>      -0.46153846       0.07692308       0.00000000 </v>
   <v>      -0.38461538       0.07692308       0.00000000 </v>
   <v>      -0.30769231       0.07692308       0.00000000 </v>
   <v>      -0.23076923       0.07692308       0.00000000 </v>
   <v>      -0.15384615       0.07692308       0.00000000 </v>
   <v>      -0.07692308       0.07692308      -0.00000000 </v>
   <v>       0.15384615       0.15384615       0.00000000 </v>
   <v>       0.23076923       0.15384615       0.00000000 </v>
   <v>       0.30769231       0.15384615      -0.00000000 </v>
   <v>       0.38461538       0.15384615      -0.00000000 </v>
   <v>       0.46153846       0.15384615      -0.00000000 </v>
   <v>      -0.46153846       0.15384615       0.00000000 </v>
   <v>      -0.38461538       0.15384615       0.00000000 </v>
   <v>      -0.30769231       0.15384615      -0.00000000 </v>
   <v>      -0.23076923       0.15384615       0.00000000 </v>
   <v>      -0.15384615       0.15384615       0.00000000 </v>
   <v>       0.23076923       0.23076923       0.00000000 </v>
   <v>       0.30769231       0.23076923       0.00000000 </v>
   <v>       0.38461538       0.23076923      -0.00000000 </v>
   <v>       0.46153846       0.23076923       0.00000000 </v>
   <v>      -0.46153846       0.23076923       0.00000000 </v>
   <v>      -0.38461538       0.23076923       0.00000000 </v>
   <v>      -0.30769231       0.23076923       0.00000000 </v>
   <v>      -0.23076923       0.23076923       0.00000000 </v>
   <v>       0.30769231       0.30769231       0.00000000 </v>
   <v>       0.38461538       0.30769231       0.00000000 </v>
   <v>       0.46153846       0.30769231      -0.00000000 </v>
   <v>      -0.46153846       0.30769231       0.00000000 </v>
   <v>      -0.38461538       0.30769231       0.00000000 </v>
   <v>      -0.30769231       0.30769231       0.00000000 </v>
   <v>       0.38461538       0.38461538       0.00000000 </v>
   <v>       0.46153846       0.38461538      -0.00000000 </v>
   <v>      -0.46153846       0.38461538      -0.00000000 </v>
   <v>      -0.38461538       0.38461538       0.00000000 </v>
   <v>       0.46153846       0.46153846       0.00000000 </v>
   <v>      -0.46153846       0.46153846      -0.00000000 </v>
   <v>       0.23076923       0.15384615       0.07692308 </v>
   <v>       0.30769231       0.15384615       0.07692308 </v>
   <v>       0.38461538       0.15384615       0.07692308 </v>
   <v>       0.46153846       0.15384615       0.07692308 </v>
   <v>      -0.46153846       0.15384615       0.07692308 </v>
   <v>       0.30769231       0.23076923       0.07692308 </v>
   <v>       0.38461538       0.23076923       0.07692308 </v>
   <v>       0.46153846       0.23076923       0.07692308 </v>
   <v>      -0.46153846       0.23076923       0.07692308 </v>
   <v>      -0.38461538       0.23076923       0.07692308 </v>
   <v>      -0.30769231       0.23076923       0.07692308 </v>
   <v>      -0.23076923       0.23076923       0.07692308 </v>
   <v>      -0.15384615       0.23076923       0.07692308 </v>
   <v>       0.38461538       0.30769231       0.07692308 </v>
   <v>       0.46153846       0.30769231       0.07692308 </v>
   <v>      -0.46153846       0.30769231       0.07692308 </v>
   <v>      -0.38461538       0.30769231       0.07692308 </v>
   <v>      -0.30769231       0.30769231       0.07692308 </v>
   <v>      -0.23076923       0.30769231       0.07692308 </v>
   <v>       0.46153846       0.38461538       0.07692308 </v>
   <v>      -0.46153846       0.38461538       0.07692308 </v>
   <v>      -0.38461538       0.38461538       0.07692308 </v>
   <v>      -0.30769231       0.38461538       0.07692308 </v>
   <v>      -0.46153846       0.46153846       0.07692308 </v>
   <v>      -0.38461538       0.46153846       0.07692308 </v>
   <v>       0.46153846       0.30769231       0.15384615 </v>
   <v>      -0.46153846       0.30769231       0.15384615 </v>
   <v>      -0.38461538       0.30769231       0.15384615 </v>
   <v>      -0.46153846       0.38461538       0.15384615 </v>
   <v>      -0.38461538       0.38461538       0.15384615 </v>
   <v>      -0.30769231       0.38461538       0.15384615 </v>
   <v>      -0.23076923       0.38461538       0.15384615 </v>
   <v>      -0.38461538       0.46153846       0.15384615 </v>
   <v>      -0.30769231       0.46153846       0.15384615 </v>
   <v>      -0.30769231       0.46153846       0.23076923 </v>
  </varray>
  <varray name="weights" >
   <v>       0.00045517 </v>
   <v>       0.00364133 </v>
   <v>       0.00364133 </v>
   <v>       0.00364133 </v>
   <v>       0.00364133 </v>
   <v>       0.00364133 </v>
   <v>       0.00364133 </v>
   <v>       0.00273100 </v>
   <v>       0.01092399 </v>
   <v>       0.01092399 </v>
   <v>       0.01092399 </v>
   <v>       0.01092399 </v>
   <v>       0.01092399 </v>
   <v>       0.01092399 </v>
   <v>       0.01092399 </v>
   <v>       0.01092399 </v>
   <v>       0.01092399 </v>
   <v>       0.01092399 </v>
   <v>       0.00546199 </v>
   <v>       0.00273100 </v>
   <v>       0.01092399 </v>
   <v>       0.01092399 </v>
   <v>       0.01092399 </v>
   <v>       0.01092399 </v>
   <v>       0.01092399 </v>
   <v>       0.01092399 </v>
   <v>       0.01092399 </v>
   <v>       0.01092399 </v>
   <v>       0.00546199 </v>
   <v>       0.00273100 </v>
   <v>       0.01092399 </v>
   <v>       0.01092399 </v>
   <v>       0.01092399 </v>
   <v>       0.01092399 </v>
   <v>       0.01092399 </v>
   <v>       0.01092399 </v>
   <v>       0.00546199 </v>
   <v>       0.00273100 </v>
   <v>       0.01092399 </v>
   <v>       0.01092399 </v>
   <v>       0.01092399 </v>
   <v>       0.01092399 </v>
   <v>       0.00546199 </v>
   <v>       0.00273100 </v>
   <v>       0.01092399 </v>
   <v>       0.01092399 </v>
   <v>       0.00546199 </v>
   <v>       0.00273100 </v>
   <v>       0.00546199 </v>
   <v>       0.01092399 </v>
   <v>       0.02184797 </v>
   <v>       0.02184797 </v>
   <v>       0.02184797 </v>
   <v>       0.02184797 </v>
   <v>       0.01092399 </v>
   <v>       0.02184797 </v>
   <v>       0.02184797 </v>
   <v>       0.02184797 </v>
   <v>       0.02184797 </v>
   <v>       0.02184797 </v>
   <v>       0.02184797 </v>
   <v>       0.01092399 </v>
   <v>       0.01092399 </v>
   <v>       0.02184797 </v>
   <v>       0.02184797 </v>
   <v>       0.02184797 </v>
   <v>       0.02184797 </v>
   <v>       0.01092399 </v>
   <v>       0.01092399 </v>
   <v>       0.02184797 </v>
   <v>       0.02184797 </v>
   <v>       0.01092399 </v>
   <v>       0.01092399 </v>
   <v>       0.01092399 </v>
   <v>       0.01092399 </v>
   <v>       0.02184797 </v>
   <v>       0.02184797 </v>
   <v>       0.01092399 </v>
   <v>       0.02184797 </v>
   <v>       0.02184797 </v>
   <v>       0.01092399 </v>
   <v>       0.01092399 </v>
   <v>       0.01092399 </v>
   <v>       0.01092399 </v>
  </varray>
 </kpoints>
 <parameters>
  <separator name="general" >
   <i type="string" name="SYSTEM">unknown system</i>
   <i type="logical" name="LCOMPAT"> F  </i>
  </separator>
  <separator name="electronic" >
   <i type="string" name="PREC">acc</i>
   <i name="ENMAX">    700.00000000</i>
   <i name="ENAUG">    535.43100000</i>
   <i name="EDIFF">      0.00000010</i>
   <i type="int" name="IALGO">    38</i>
   <i type="int" name="IWAVPR">    10</i>
   <i type="int" name="NBANDS">    24</i>
   <i type="int" name="NBANDSLOW">    -1</i>
   <i type="int" name="NBANDSHIGH">    -1</i>
   <i name="NELECT">     37.00000000</i>
   <i type="int" name="TURBO">     0</i>
   <i type="int" name="IRESTART">     0</i>
   <i type="int" name="NREBOOT">     0</i>
   <i type="int" name="NMIN">     0</i>
   <i name="EREF">      0.00000000</i>
   <separator name="electronic smearing" >
    <i type="int" name="ISMEAR">     0</i>
    <i name="SIGMA">      0.01000000</i>
    <i name="KSPACING">      0.50000000</i>
    <i type="logical" name="KGAMMA"> T  </i>
    <i type="logical" name="KBLOWUP"> T  </i>
   </separator>
   <separator name="electronic projectors" >
    <i type="logical" name="LREAL"> F  </i>
    <v name="ROPT">      0.00000000      0.00000000      0.00000000</v>
    <i type="int" name="LMAXPAW">  -100</i>
    <i type="int" name="LMAXMIX">     2</i>
    <i type="logical" name="NLSPLINE"> F  </i>
   </separator>
   <separator name="electronic startup" >
    <i type="int" name="ISTART">     0</i>
    <i type="int" name="ICHARG">     2</i>
    <i type="int" name="INIWAV">     1</i>
   </separator>
   <separator name="electronic spin" >
    <i type="int" name="ISPIN">     1</i>
    <i type="logical" name="LNONCOLLINEAR"> F  </i>
    <v name="MAGMOM">      1.00000000      1.00000000      1.00000000</v>
    <i name="NUPDOWN">     -1.00000000</i>
    <i type="logical" name="LSORBIT"> F  </i>
    <v name="SAXIS">      0.00000000      0.00000000      1.00000000</v>
    <i type="logical" name="LSPIRAL"> F  </i>
    <v name="QSPIRAL">      0.00000000      0.00000000      0.00000000</v>
    <i type="logical" name="LZEROZ"> F  </i>
   </separator>
   <separator name="electronic exchange-correlation" >
    <i type="logical" name="LASPH"> F  </i>
    <i type="logical" name="LMETAGGA"> F  </i>
   </separator>
   <separator name="electronic convergence" >
    <i type="int" name="NELM">    60</i>
    <i type="int" name="NELMDL">    -5</i>
    <i type="int" name="NELMIN">     5</i>
    <i name="ENINI">    700.00000000</i>
    <separator name="electronic convergence detail" >
     <i type="logical" name="LDIAG"> T  </i>
     <i type="logical" name="LSUBROT"> F  </i>
     <i name="WEIMIN">      0.00000000</i>
     <i name="EBREAK">      0.00000000</i>
     <i name="DEPER">      0.30000000</i>
     <i type="int" name="NRMM">     4</i>
     <i name="TIME">      0.40000000</i>
    </separator>
   </separator>
   <separator name="electronic mixer" >
    <i name="AMIX">      0.40000000</i>
    <i name="BMIX">      1.00000000</i>
    <i name="AMIN">      0.10000000</i>
    <i name="AMIX_MAG">      1.60000000</i>
    <i name="BMIX_MAG">      1.00000000</i>
    <separator name="electronic mixer details" >
     <i type="int" name="IMIX">     4</i>
     <i type="logical" name="MIXFIRST"> F  </i>
     <i type="int" name="MAXMIX">   -45</i>
     <i name="WC">    100.00000000</i>
     <i type="int" name="INIMIX">     1</i>
     <i type="int" name="MIXPRE">     1</i>
     <i type="int" name="MREMOVE">     5</i>
    </separator>
   </separator>
   <separator name="electronic dipolcorrection" >
    <i type="logical" name="LDIPOL"> F  </i>
    <i type="logical" name="LMONO"> F  </i>
    <i type="int" name="IDIPOL">     0</i>
    <i name="EPSILON">      1.00000000</i>
    <v name="DIPOL">   -100.00000000   -100.00000000   -100.00000000</v>
    <i name="EFIELD">      0.00000000</i>
   </separator>
  </separator>
  <separator name="grids" >
   <i type="int" name="NGX">    48</i>
   <i type="int" name="NGY">    48</i>
   <i type="int" name="NGZ">    48</i>
   <i type="int" name="NGXF">    96</i>
   <i type="int" name="NGYF">    96</i>
   <i type="int" name="NGZF">    96</i>
   <i type="logical" name="ADDGRID"> T  </i>
  </separator>
  <separator name="ionic" >
   <i type="int" name="NSW">     0</i>
   <i type="int" name="IBRION">    -1</i>
   <i type="int" name="MDALGO">     0</i>
   <i type="int" name="ISIF">     3</i>
   <i name="PSTRESS">      0.00000000</i>
   <i name="EDIFFG">      0.00000100</i>
   <i type="int" name="NFREE">     0</i>
   <i name="POTIM">      0.50000000</i>
   <i name="SMASS">     -3.00000000</i>
   <i name="SCALEE">      1.00000000</i>
  </separator>
  <separator name="ionic md" >
   <i name="TEBEG">      0.00010000</i>
   <i name="TEEND">      0.00010000</i>
   <i type="int" name="NBLOCK">     1</i>
   <i type="int" name="KBLOCK">     1</i>
   <i type="int" name="NPACO">   256</i>
   <i name="APACO">     16.00000000</i>
  </separator>
  <separator name="symmetry" >
   <i type="int" name="ISYM">     2</i>
   <i name="SYMPREC">      0.00001000</i>
  </separator>
  <separator name="dos" >
   <i type="int" name="LORBIT">     0</i>
   <v name="RWIGS">     -1.00000000     -1.00000000     -1.00000000</v>
   <i type="int" name="NEDOS">   301</i>
   <i name="EMIN">     10.00000000</i>
   <i name="EMAX">    -10.00000000</i>
   <i name="EFERMI">      0.00000000</i>
  </separator>
  <separator name="writing" >
   <i type="int" name="NWRITE">     2</i>
   <i type="logical" name="LWAVE"> F  </i>
   <i type="logical" name="LDOWNSAMPLE"> F  </i>
   <i type="logical" name="LCHARG"> F  </i>
   <i type="logical" name="LPARD"> F  </i>
   <i type="logical" name="LVTOT"> F  </i>
   <i type="logical" name="LVHAR"> F  </i>
   <i type="logical" name="LELF"> F  </i>
   <i type="logical" name="LOPTICS"> F  </i>
   <v name="STM">      0.00000000      0.00000000      0.00000000      0.00000000      0.00000000      0.00000000      0.00000000</v>
  </separator>
  <separator name="performance" >
   <i type="int" name="NPAR">     4</i>
   <i type="int" name="NSIM">     4</i>
   <i type="int" name="NBLK">    -1</i>
   <i type="logical" name="LPLANE"> T  </i>
   <i type="logical" name="LSCALAPACK"> T  </i>
   <i type="logical" name="LSCAAWARE"> F  </i>
   <i type="logical" name="LSCALU"> F  </i>
   <i type="logical" name="LASYNC"> F  </i>
   <i type="logical" name="LORBITALREAL"> F  </i>
  </separator>
  <separator name="miscellaneous" >
   <i type="int" name="IDIOT">     3</i>
   <i type="int" name="PHON_NSTRUCT">    -1</i>
   <i type="logical" name="LMUSIC"> F  </i>
   <v name="POMASS">    232.03900000    208.98000000    195.08000000</v>
   <v name="DARWINR">      0.00000000      0.00000000      0.00000000</v>
   <v name="DARWINV">      1.00000000      1.00000000      1.00000000</v>
   <i type="logical" name="LCORR"> T  </i>
  </separator>
  <i type="logical" name="GGA_COMPAT"> T  </i>
  <i type="logical" name="LBERRY"> F  </i>
  <i type="int" name="ICORELEVEL">     0</i>
  <i type="logical" name="LDAU"> F  </i>
  <i type="int" name="I_CONSTRAINED_M">     0</i>
  <separator name="electronic exchange-correlation" >
   <i type="string" name="GGA">PS</i>
   <i type="int" name="VOSKOWN">     0</i>
   <i type="logical" name="LHFCALC"> F  </i>
   <i type="string" name="PRECFOCK"></i>
   <i type="logical" name="LSYMGRAD"> F  </i>
   <i type="logical" name="LHFONE"> F  </i>
   <i type="logical" name="LRHFCALC"> F  </i>
   <i type="logical" name="LTHOMAS"> F  </i>
   <i type="logical" name="LMODELHF"> F  </i>
   <i type="logical" name="LFOCKACE"> F  </i>
   <i name="ENCUT4O">     -1.00000000</i>
   <i type="int" name="EXXOEP">     0</i>
   <i type="int" name="FOURORBIT">     0</i>
   <i name="AEXX">      0.00000000</i>
   <i name="HFALPHA">      0.00000000</i>
   <i name="MCALPHA">      0.00000000</i>
   <i name="ALDAX">      1.00000000</i>
   <i name="AGGAX">      1.00000000</i>
   <i name="ALDAC">      1.00000000</i>
   <i name="AGGAC">      1.00000000</i>
   <i type="int" name="NKREDX">     1</i>
   <i type="int" name="NKREDY">     1</i>
   <i type="int" name="NKREDZ">     1</i>
   <i type="logical" name="SHIFTRED"> F  </i>
   <i type="logical" name="ODDONLY"> F  </i>
   <i type="logical" name="EVENONLY"> F  </i>
   <i type="int" name="LMAXFOCK">     0</i>
   <i type="int" name="NMAXFOCKAE">     0</i>
   <i type="logical" name="LFOCKAEDFT"> F  </i>
   <i name="HFSCREEN">      0.00000000</i>
   <i name="HFSCREENC">      0.00000000</i>
   <i type="int" name="NBANDSGWLOW">     0</i>
  </separator>
  <separator name="vdW DFT" >
   <i type="logical" name="LUSE_VDW"> F  </i>
   <i name="Zab_VDW">     -0.84910000</i>
   <i name="PARAM1">      0.12340000</i>
   <i name="PARAM2">      1.00000000</i>
   <i name="PARAM3">      0.00000000</i>
  </separator>
  <separator name="model GW" >
   <i type="int" name="MODEL_GW">     0</i>
   <i name="MODEL_EPS0">     17.35448923</i>
   <i name="MODEL_ALPHA">      1.00000000</i>
  </separator>
  <separator name="linear response parameters" >
   <i type="logical" name="LEPSILON"> F  </i>
   <i type="logical" name="LRPA"> F  </i>
   <i type="logical" name="LNABLA"> F  </i>
   <i type="logical" name="LVEL"> F  </i>
   <i type="int" name="KINTER">     0</i>
   <i name="CSHIFT">      0.10000000</i>
   <i name="OMEGAMAX">     -1.00000000</i>
   <i name="DEG_THRESHOLD">      0.00200000</i>
   <i name="RTIME">     -0.10000000</i>
   <i name="WPLASMAI">      0.00000000</i>
   <v name="DFIELD">      0.00000000      0.00000000      0.00000000</v>
   <v name="WPLASMA">      0.00000000      0.00000000      0.00000000      0.00000000      0.00000000      0.00000000      0.00000000      0.00000000      0.00000000</v>
  </separator>
  <separator name="orbital magnetization" >
   <i type="logical" name="NUCIND"> F  </i>
   <v name="MAGPOS">      0.00000000      0.00000000      0.00000000</v>
   <i type="logical" name="LNICSALL"> T  </i>
   <i type="logical" name="ORBITALMAG"> F  </i>
   <i type="logical" name="LMAGBLOCH"> F  </i>
   <i type="logical" name="LCHIMAG"> F  </i>
   <i type="logical" name="LGAUGE"> T  </i>
   <i type="int" name="MAGATOM">     0</i>
   <v name="MAGDIPOL">      0.00000000      0.00000000      0.00000000</v>
   <v name="AVECCONST">      0.00000000      0.00000000      0.00000000</v>
  </separator>
  <separator name="response functions" >
   <i type="logical" name="LFINITE_TEMPERATURE"> F  </i>
   <i type="logical" name="LADDER"> F  </i>
   <i type="logical" name="LRPAFORCE"> F  </i>
   <i type="logical" name="LFXC"> F  </i>
   <i type="logical" name="LHARTREE"> T  </i>
   <i type="int" name="IBSE">     0</i>
   <v type="int" name="KPOINT">    -1     0     0     0</v>
   <i type="logical" name="LTCTC"> F  </i>
   <i type="logical" name="LTCTE"> F  </i>
   <i type="logical" name="LTETE"> F  </i>
   <i type="logical" name="LTRIPLET"> F  </i>
   <i type="logical" name="LFXCEPS"> F  </i>
   <i type="logical" name="LFXHEG"> F  </i>
   <i type="int" name="NATURALO">     2</i>
   <i type="logical" name="L2ORDER"> F  </i>
   <i type="logical" name="LDMP1"> F  </i>
   <i type="logical" name="LMP2LT"> F  </i>
   <i type="logical" name="LSMP2LT"> F  </i>
   <i type="logical" name="LUSEW"> F  </i>
   <i name="ENCUTGW">     -2.00000000</i>
   <i name="ENCUTGWSOFT">     -2.00000000</i>
   <i name="ENCUTLF">     -1.00000000</i>
   <i type="int" name="LMAXMP2">    -1</i>
   <i name="SCISSOR">      0.00000000</i>
   <i type="int" name="NOMEGA">     0</i>
   <i type="int" name="NOMEGAR">     0</i>
   <i type="int" name="NBANDSGW">    -1</i>
   <i type="int" name="NBANDSO">    -1</i>
   <i type="int" name="NBANDSV">    -1</i>
   <i type="int" name="NELM">     1</i>
   <i type="int" name="NELMHF">     1</i>
   <i type="int" name="DIM">     3</i>
   <i type="int" name="IESPILON">     4</i>
   <i type="int" name="ANTIRES">     0</i>
   <i name="OMEGAMAX">    -30.00000000</i>
   <i name="OMEGAMIN">    -30.00000000</i>
   <i name="OMEGATL">   -200.00000000</i>
   <i type="int" name="OMEGAGRID">   145</i>
   <i name="CSHIFT">     -0.10000000</i>
   <i type="logical" name="LSELFENERGY"> F  </i>
   <i type="logical" name="LSPECTRAL"> F  </i>
   <i type="logical" name="LSPECTRALGW"> F  </i>
   <i type="logical" name="LSINGLES"> F  </i>
   <i type="logical" name="LFERMIGW"> F  </i>
   <i type="logical" name="ODDONLYGW"> F  </i>
   <i type="logical" name="EVENONLYGW"> F  </i>
   <i type="int" name="NKREDLFX">     1</i>
   <i type="int" name="NKREDLFY">     1</i>
   <i type="int" name="NKREDLFZ">     1</i>
   <i type="int" name="MAXMEM">  2800</i>
   <i type="int" name="TELESCOPE">     0</i>
   <i type="int" name="NTAUPAR">     1</i>
   <i type="int" name="NOMEGAPAR">    -1</i>
   <i name="LAMBDA">      1.00000000</i>
  </separator>
  <separator name="External order field" >
   <i name="OFIELD_KAPPA">      0.00000000</i>
   <v name="OFIELD_K">      0.00000000      0.00000000      0.00000000</v>
   <i name="OFIELD_Q6_NEAR">      0.00000000</i>
   <i name="OFIELD_Q6_FAR">      0.00000000</i>
   <i name="OFIELD_A">      0.00000000</i>
  </separator>
 </parameters>
 <atominfo>
  <atoms>       3 </atoms>
  <types>       3 </types>
  <array name="atoms" >
   <dimension dim="1">ion</dimension>
   <field type="string">element</field>
   <field type="int">atomtype</field>
   <set>
    <rc><c>Th</c><c>   1</c></rc>
    <rc><c>Bi</c><c>   2</c></rc>
    <rc><c>Pt</c><c>   3</c></rc>
   </set>
  </array>
  <array name="atomtypes" >
   <dimension dim="1">type</dimension>
   <field type="int">atomspertype</field>
   <field type="string">element</field>
   <field>mass</field>
   <field>valence</field>
   <field type="string">pseudopotential</field>
   <set>
    <rc><c>   1</c><c>Th</c><c>    232.03900000</c><c>     12.00000000</c><c>  PAW_PBE Th 07Sep2000                  </c></rc>
    <rc><c>   1</c><c>Bi</c><c>    208.98000000</c><c>     15.00000000</c><c>  PAW_PBE Bi_d 06Sep2000                </c></rc>
    <rc><c>   1</c><c>Pt</c><c>    195.08000000</c><c>     10.00000000</c><c>  PAW_PBE Pt 04Feb2005                  </c></rc>
   </set>
  </array>
 </atominfo>
 <structure name="initialpos" >
  <crystal>
   <varray name="basis" >
    <v>       0.00000000       3.51385591       3.51385591 </v>
    <v>       3.51385591       0.00000000       3.51385591 </v>
    <v>       3.51385591       3.51385591       0.00000000 </v>
   </varray>
   <i name="volume">     86.77244615 </i>
   <varray name="rec_basis" >
    <v>      -0.14229383       0.14229383       0.14229383 </v>
    <v>       0.14229383      -0.14229383       0.14229383 </v>
    <v>       0.14229383       0.14229383      -0.14229383 </v>
   </varray>
  </crystal>
  <varray name="positions" >
   <v>       0.25000000       0.25000000       0.25000000 </v>
   <v>       0.75000000       0.75000000       0.75000000 </v>
   <v>       0.00000000       0.00000000       0.00000000 </v>
  </varray>
 </structure>
 <calculation>
  <scstep>
   <time name="dav">    1.69    1.70</time>
   <time name="total">    1.89    1.96</time>
   <energy>
    <i name="alphaZ">    198.00712946 </i>
    <i name="ewald">  -3048.55424172 </i>
    <i name="hartreedc">   -791.33664617 </i>
    <i name="XCdc">     67.50727156 </i>
    <i name="pawpsdc">   3147.30828992 </i>
    <i name="pawaedc">  -3070.62761383 </i>
    <i name="eentropy">     -0.00027813 </i>
    <i name="bandstr">    262.25864150 </i>
    <i name="atom">   3674.67342263 </i>
    <i name="e_fr_energy">    439.23597522 </i>
    <i name="e_wo_entrp">    439.23625336 </i>
    <i name="e_0_energy">    439.23611429 </i>
   </energy>
  </scstep>
  <scstep>
   <time name="dav">    1.71    1.73</time>
   <time name="total">    1.71    1.74</time>
   <energy>
    <i name="e_fr_energy">     45.26197051 </i>
    <i name="e_wo_entrp">     45.26212327 </i>
    <i name="e_0_energy">     45.26204689 </i>
   </energy>
  </scstep>
  <scstep>
   <time name="dav">    2.11    2.14</time>
   <time name="total">    2.11    2.15</time>
   <energy>
    <i name="e_fr_energy">    -18.48589355 </i>
    <i name="e_wo_entrp">    -18.48576697 </i>
    <i name="e_0_energy">    -18.48583026 </i>
   </energy>
  </scstep>
  <scstep>
   <time name="dav">    2.62    2.65</time>
   <time name="total">    2.62    2.65</time>
   <energy>
    <i name="e_fr_energy">    -22.74136789 </i>
    <i name="e_wo_entrp">    -22.74110741 </i>
    <i name="e_0_energy">    -22.74123765 </i>
   </energy>
  </scstep>
  <scstep>
   <time name="dav">    2.19    2.23</time>
   <time name="total">    2.64    2.69</time>
   <energy>
    <i name="e_fr_energy">    -22.88677977 </i>
    <i name="e_wo_entrp">    -22.88650300 </i>
    <i name="e_0_energy">    -22.88664138 </i>
   </energy>
  </scstep>
  <scstep>
   <time name="dav">    1.98    1.98</time>
   <time name="total">    2.60    2.62</time>
   <energy>
    <i name="e_fr_energy">    -21.88435787 </i>
    <i name="e_wo_entrp">    -21.88411858 </i>
    <i name="e_0_energy">    -21.88423822 </i>
   </energy>
  </scstep>
  <scstep>
   <time name="dav">    2.25    2.25</time>
   <time name="total">    2.82    2.85</time>
   <energy>
    <i name="e_fr_energy">    -21.77785815 </i>
    <i name="e_wo_entrp">    -21.77759200 </i>
    <i name="e_0_energy">    -21.77772508 </i>
   </energy>
  </scstep>
  <scstep>
   <time name="dav">    1.98    1.98</time>
   <time name="total">    2.55    2.58</time>
   <energy>
    <i name="e_fr_energy">    -21.72007154 </i>
    <i name="e_wo_entrp">    -21.71958959 </i>
    <i name="e_0_energy">    -21.71983056 </i>
   </energy>
  </scstep>
  <scstep>
   <time name="dav">    2.24    2.24</time>
   <time name="total">    2.79    2.83</time>
   <energy>
    <i name="e_fr_energy">    -21.70841298 </i>
    <i name="e_wo_entrp">    -21.70811969 </i>
    <i name="e_0_energy">    -21.70826634 </i>
   </energy>
  </scstep>
  <scstep>
   <time name="dav">    1.95    1.95</time>
   <time name="total">    2.53    2.56</time>
   <energy>
    <i name="e_fr_energy">    -21.70422801 </i>
    <i name="e_wo_entrp">    -21.70390168 </i>
    <i name="e_0_energy">    -21.70406484 </i>
   </energy>
  </scstep>
  <scstep>
   <time name="dav">    2.14    2.14</time>
   <time name="total">    2.76    2.78</time>
   <energy>
    <i name="e_fr_energy">    -21.70404156 </i>
    <i name="e_wo_entrp">    -21.70374373 </i>
    <i name="e_0_energy">    -21.70389264 </i>
   </energy>
  </scstep>
  <scstep>
   <time name="dav">    2.32    2.32</time>
   <time name="total">    2.88    2.93</time>
   <energy>
    <i name="e_fr_energy">    -21.70390570 </i>
    <i name="e_wo_entrp">    -21.70361216 </i>
    <i name="e_0_energy">    -21.70375893 </i>
   </energy>
  </scstep>
  <scstep>
   <time name="dav">    2.26    2.26</time>
   <time name="total">    2.83    2.87</time>
   <energy>
    <i name="e_fr_energy">    -21.70391192 </i>
    <i name="e_wo_entrp">    -21.70361796 </i>
    <i name="e_0_energy">    -21.70376494 </i>
   </energy>
  </scstep>
  <scstep>
   <time name="dav">    2.16    2.16</time>
   <time name="total">    2.73    2.75</time>
   <energy>
    <i name="e_fr_energy">    -21.70391016 </i>
    <i name="e_wo_entrp">    -21.70361473 </i>
    <i name="e_0_energy">    -21.70376245 </i>
   </energy>
  </scstep>
  <scstep>
   <time name="dav">    2.52    2.52</time>
   <time name="total">    3.09    3.13</time>
   <energy>
    <i name="e_fr_energy">    -21.70391011 </i>
    <i name="e_wo_entrp">    -21.70361393 </i>
    <i name="e_0_energy">    -21.70376202 </i>
   </energy>
  </scstep>
  <scstep>
   <time name="dav">    1.60    1.60</time>
   <time name="total">    1.77    1.81</time>
   <energy>
    <i name="alphaZ">    198.00712946 </i>
    <i name="ewald">  -3048.55424172 </i>
    <i name="hartreedc">   -765.81224946 </i>
    <i name="XCdc">     66.82887384 </i>
    <i name="pawpsdc">   3741.45123507 </i>
    <i name="pawaedc">  -3672.75359042 </i>
    <i name="eentropy">     -0.00029603 </i>
    <i name="bandstr">   -215.54419350 </i>
    <i name="atom">   3674.67342263 </i>
    <i name="e_fr_energy">    -21.70391013 </i>
    <i name="e_wo_entrp">    -21.70361410 </i>
    <i name="e_0_energy">    -21.70376212 </i>
   </energy>
  </scstep>
  <structure>
   <crystal>
    <varray name="basis" >
     <v>       0.00000000       3.51385591       3.51385591 </v>
     <v>       3.51385591       0.00000000       3.51385591 </v>
     <v>       3.51385591       3.51385591       0.00000000 </v>
    </varray>
    <i name="volume">     86.77244615 </i>
    <varray name="rec_basis" >
     <v>      -0.14229383       0.14229383       0.14229383 </v>
     <v>       0.14229383      -0.14229383       0.14229383 </v>
     <v>       0.14229383       0.14229383      -0.14229383 </v>
    </varray>
   </crystal>
   <varray name="positions" >
    <v>       0.25000000       0.25000000       0.25000000 </v>
    <v>       0.75000000       0.75000000       0.75000000 </v>
    <v>       0.00000000       0.00000000       0.00000000 </v>
   </varray>
  </structure>
  <varray name="forces" >
   <v>       0.00000000       0.00000000       0.00000000 </v>
   <v>       0.00000000       0.00000000      -0.00000000 </v>
   <v>      -0.00000000      -0.00000000      -0.00000000 </v>
  </varray>
  <varray name="stress" >
   <v>     -68.30882258      -0.00000000       0.00000000 </v>
   <v>      -0.00000000     -68.30882258      -0.00000000 </v>
   <v>       0.00000000       0.00000000     -68.30882258 </v>
  </varray>
  <energy>
   <i name="e_fr_energy">    -21.70391013 </i>
   <i name="e_wo_entrp">    -21.70376212 </i>
   <i name="e_0_energy">     -0.00029603 </i>
  </energy>
  <time name="totalsc">   45.14   47.35</time>
  <eigenvalues>
   <array>
    <dimension dim="1">band</dimension>
    <dimension dim="2">kpoint</dimension>
    <dimension dim="3">spin</dimension>
    <field>eigene</field>
    <field>occ</field>
    <set>
     <set comment="spin 1">
      <set comment="kpoint 1">
       <r>  -32.7104    1.0000 </r>
       <r>  -15.2603    1.0000 </r>
       <r>  -15.2603    1.0000 </r>
       <r>  -15.2320    1.0000 </r>
       <r>  -15.2320    1.0000 </r>
       <r>  -15.2320    1.0000 </r>
       <r>  -10.5958    1.0000 </r>
       <r>  -10.5958    1.0000 </r>
       <r>  -10.5958    1.0000 </r>
       <r>   -4.2582    1.0000 </r>
       <r>    3.5918    1.0000 </r>
       <r>    3.5918    1.0000 </r>
       <r>    3.5918    1.0000 </r>
       <r>    3.8631    1.0000 </r>
       <r>    3.8631    1.0000 </r>
       <r>    5.4474    1.0000 </r>
       <r>    6.6268    1.0000 </r>
       <r>    6.6268    1.0000 </r>
       <r>    6.6268    1.0000 </r>
       <r>    7.8570    0.0000 </r>
       <r>    7.8570    0.0000 </r>
       <r>    7.8570    0.0000 </r>
       <r>    8.5855    0.0000 </r>
       <r>    9.3746    0.0000 </r>
      </set>
      <set comment="kpoint 2">
       <r>  -32.7102    1.0000 </r>
       <r>  -15.2608    1.0000 </r>
       <r>  -15.2608    1.0000 </r>
       <r>  -15.2321    1.0000 </r>
       <r>  -15.2319    1.0000 </r>
       <r>  -15.2319    1.0000 </r>
       <r>  -10.6066    1.0000 </r>
       <r>  -10.5945    1.0000 </r>
       <r>  -10.5945    1.0000 </r>
       <r>   -4.2106    1.0000 </r>
       <r>    3.4519    1.0000 </r>
       <r>    3.5030    1.0000 </r>
       <r>    3.5030    1.0000 </r>
       <r>    3.9468    1.0000 </r>
       <r>    3.9468    1.0000 </r>
       <r>    5.2953    1.0000 </r>
       <r>    6.5478    1.0000 </r>
       <r>    6.5478    1.0000 </r>
       <r>    6.7024    1.0000 </r>
       <r>    7.9416    0.0000 </r>
       <r>    7.9451    0.0000 </r>
       <r>    7.9451    0.0000 </r>
       <r>    8.7714    0.0000 </r>
       <r>    9.3828    0.0000 </r>
      </set>
      <set comment="kpoint 3">
       <r>  -32.7097    1.0000 </r>
       <r>  -15.2621    1.0000 </r>
       <r>  -15.2621    1.0000 </r>
       <r>  -15.2324    1.0000 </r>
       <r>  -15.2316    1.0000 </r>
       <r>  -15.2316    1.0000 </r>
       <r>  -10.6357    1.0000 </r>
       <r>  -10.5911    1.0000 </r>
       <r>  -10.5911    1.0000 </r>
       <r>   -4.0780    1.0000 </r>
       <r>    3.1125    1.0000 </r>
       <r>    3.3669    1.0000 </r>
       <r>    3.3669    1.0000 </r>
       <r>    4.0593    1.0000 </r>
       <r>    4.0593    1.0000 </r>
       <r>    4.9629    1.0000 </r>
       <r>    6.3816    1.0000 </r>
       <r>    6.3816    1.0000 </r>
       <r>    6.8043    1.0000 </r>
       <r>    8.1522    0.0000 </r>
       <r>    8.1522    0.0000 </r>
       <r>    8.3042    0.0000 </r>
       <r>    9.0949    0.0000 </r>
       <r>    9.4062    0.0000 </r>
      </set>
      <set comment="kpoint 4">
       <r>  -32.7090    1.0000 </r>
       <r>  -15.2640    1.0000 </r>
       <r>  -15.2640    1.0000 </r>
       <r>  -15.2328    1.0000 </r>
       <r>  -15.2312    1.0000 </r>
       <r>  -15.2312    1.0000 </r>
       <r>  -10.6751    1.0000 </r>
       <r>  -10.5863    1.0000 </r>
       <r>  -10.5863    1.0000 </r>
       <r>   -3.8895    1.0000 </r>
       <r>    2.7115    1.0000 </r>
       <r>    3.2589    1.0000 </r>
       <r>    3.2589    1.0000 </r>
       <r>    4.1089    1.0000 </r>
       <r>    4.1089    1.0000 </r>
       <r>    4.6136    1.0000 </r>
       <r>    6.2304    1.0000 </r>
       <r>    6.2304    1.0000 </r>
       <r>    6.8944    1.0000 </r>
       <r>    8.4002    0.0000 </r>
       <r>    8.4002    0.0000 </r>
       <r>    8.8290    0.0000 </r>
       <r>    9.3370    0.0000 </r>
       <r>    9.4064    0.0000 </r>
      </set>
      <set comment="kpoint 5">
       <r>  -32.7082    1.0000 </r>
       <r>  -15.2660    1.0000 </r>
       <r>  -15.2660    1.0000 </r>
       <r>  -15.2332    1.0000 </r>
       <r>  -15.2307    1.0000 </r>
       <r>  -15.2307    1.0000 </r>
       <r>  -10.7148    1.0000 </r>
       <r>  -10.5812    1.0000 </r>
       <r>  -10.5812    1.0000 </r>
       <r>   -3.6872    1.0000 </r>
       <r>    2.3464    1.0000 </r>
       <r>    3.1947    1.0000 </r>
       <r>    3.1947    1.0000 </r>
       <r>    4.0797    1.0000 </r>
       <r>    4.0797    1.0000 </r>
       <r>    4.3337    1.0000 </r>
       <r>    6.1408    1.0000 </r>
       <r>    6.1408    1.0000 </r>
       <r>    7.0151    1.0000 </r>
       <r>    8.6365    0.0000 </r>
       <r>    8.6365    0.0000 </r>
       <r>    9.2531    0.0000 </r>
       <r>    9.3715    0.0000 </r>
       <r>    9.3723    0.0000 </r>
      </set>
      <set comment="kpoint 6">
       <r>  -32.7075    1.0000 </r>
       <r>  -15.2677    1.0000 </r>
       <r>  -15.2677    1.0000 </r>
       <r>  -15.2337    1.0000 </r>
       <r>  -15.2303    1.0000 </r>
       <r>  -15.2303    1.0000 </r>
       <r>  -10.7462    1.0000 </r>
       <r>  -10.5770    1.0000 </r>
       <r>  -10.5770    1.0000 </r>
       <r>   -3.5176    1.0000 </r>
       <r>    2.0756    1.0000 </r>
       <r>    3.1708    1.0000 </r>
       <r>    3.1708    1.0000 </r>
       <r>    4.0049    1.0000 </r>
       <r>    4.0049    1.0000 </r>
       <r>    4.1519    1.0000 </r>
       <r>    6.1060    1.0000 </r>
       <r>    6.1060    1.0000 </r>
       <r>    7.1698    1.0000 </r>
       <r>    8.8159    0.0000 </r>
       <r>    8.8159    0.0000 </r>
       <r>    9.3362    0.0000 </r>
       <r>    9.3364    0.0000 </r>
       <r>    9.3889    0.0000 </r>
      </set>
      <set comment="kpoint 7">
       <r>  -32.7072    1.0000 </r>
       <r>  -15.2686    1.0000 </r>
       <r>  -15.2686    1.0000 </r>
       <r>  -15.2339    1.0000 </r>
       <r>  -15.2300    1.0000 </r>
       <r>  -15.2300    1.0000 </r>
       <r>  -10.7634    1.0000 </r>
       <r>  -10.5747    1.0000 </r>
       <r>  -10.5747    1.0000 </r>
       <r>   -3.4210    1.0000 </r>
       <r>    1.9324    1.0000 </r>
       <r>    3.1693    1.0000 </r>
       <r>    3.1693    1.0000 </r>
       <r>    3.9440    1.0000 </r>
       <r>    3.9440    1.0000 </r>
       <r>    4.0657    1.0000 </r>
       <r>    6.0983    1.0000 </r>
       <r>    6.0983    1.0000 </r>
       <r>    7.3023    1.0000 </r>
       <r>    8.9101    0.0000 </r>
       <r>    8.9101    0.0000 </r>
       <r>    9.3135    0.0000 </r>
       <r>    9.3135    0.0000 </r>
       <r>    9.3167    0.0000 </r>
      </set>
      <set comment="kpoint 8">
       <r>  -32.7102    1.0000 </r>
       <r>  -15.2617    1.0000 </r>
       <r>  -15.2602    1.0000 </r>
       <r>  -15.2322    1.0000 </r>
       <r>  -15.2318    1.0000 </r>
       <r>  -15.2318    1.0000 </r>
       <r>  -10.6039    1.0000 </r>
       <r>  -10.5973    1.0000 </r>
       <r>  -10.5973    1.0000 </r>
       <r>   -4.1960    1.0000 </r>
       <r>    3.2455    1.0000 </r>
       <r>    3.6059    1.0000 </r>
       <r>    3.6059    1.0000 </r>
       <r>    3.8790    1.0000 </r>
       <r>    3.9731    1.0000 </r>
       <r>    5.2869    1.0000 </r>
       <r>    6.4378    1.0000 </r>
       <r>    6.4378    1.0000 </r>
       <r>    6.9142    1.0000 </r>
       <r>    7.6897    0.0000 </r>
       <r>    8.0920    0.0000 </r>
       <r>    8.0920    0.0000 </r>
       <r>    8.8047    0.0000 </r>
       <r>    9.3685    0.0000 </r>
      </set>
      <set comment="kpoint 9">
       <r>  -32.7098    1.0000 </r>
       <r>  -15.2632    1.0000 </r>
       <r>  -15.2605    1.0000 </r>
       <r>  -15.2325    1.0000 </r>
       <r>  -15.2316    1.0000 </r>
       <r>  -15.2316    1.0000 </r>
       <r>  -10.6255    1.0000 </r>
       <r>  -10.5974    1.0000 </r>
       <r>  -10.5933    1.0000 </r>
       <r>   -4.0955    1.0000 </r>
       <r>    2.9710    1.0000 </r>
       <r>    3.5006    1.0000 </r>
       <r>    3.5426    1.0000 </r>
       <r>    3.9565    1.0000 </r>
       <r>    4.0546    1.0000 </r>
       <r>    5.0767    1.0000 </r>
       <r>    6.2562    1.0000 </r>
       <r>    6.2761    1.0000 </r>
       <r>    7.1188    1.0000 </r>
       <r>    7.7083    0.0000 </r>
       <r>    8.3061    0.0000 </r>
       <r>    8.3613    0.0000 </r>
       <r>    9.0457    0.0000 </r>
       <r>    9.3629    0.0000 </r>
      </set>
      <set comment="kpoint 10">
       <r>  -32.7091    1.0000 </r>
       <r>  -15.2650    1.0000 </r>
       <r>  -15.2617    1.0000 </r>
       <r>  -15.2328    1.0000 </r>
       <r>  -15.2313    1.0000 </r>
       <r>  -15.2311    1.0000 </r>
       <r>  -10.6612    1.0000 </r>
       <r>  -10.5949    1.0000 </r>
       <r>  -10.5876    1.0000 </r>
       <r>   -3.9319    1.0000 </r>
       <r>    2.6773    1.0000 </r>
       <r>    3.3109    1.0000 </r>
       <r>    3.4402    1.0000 </r>
       <r>    4.0269    1.0000 </r>
       <r>    4.1353    1.0000 </r>
       <r>    4.7621    1.0000 </r>
       <r>    6.0824    1.0000 </r>
       <r>    6.1451    1.0000 </r>
       <r>    7.1865    1.0000 </r>
       <r>    8.0166    0.0000 </r>
       <r>    8.5234    0.0000 </r>
       <r>    8.7433    0.0000 </r>
       <r>    9.2863    0.0000 </r>
       <r>    9.3584    0.0000 </r>
      </set>
      <set comment="kpoint 11">
       <r>  -32.7083    1.0000 </r>
       <r>  -15.2666    1.0000 </r>
       <r>  -15.2636    1.0000 </r>
       <r>  -15.2331    1.0000 </r>
       <r>  -15.2309    1.0000 </r>
       <r>  -15.2306    1.0000 </r>
       <r>  -10.7002    1.0000 </r>
       <r>  -10.5904    1.0000 </r>
       <r>  -10.5829    1.0000 </r>
       <r>   -3.7424    1.0000 </r>
       <r>    2.3906    1.0000 </r>
       <r>    3.1735    1.0000 </r>
       <r>    3.3570    1.0000 </r>
       <r>    4.0233    1.0000 </r>
       <r>    4.1485    1.0000 </r>
       <r>    4.4593    1.0000 </r>
       <r>    5.9828    1.0000 </r>
       <r>    6.0784    1.0000 </r>
       <r>    7.2000    1.0000 </r>
       <r>    8.4041    0.0000 </r>
       <r>    8.7160    0.0000 </r>
       <r>    9.1284    0.0000 </r>
       <r>    9.3486    0.0000 </r>
       <r>    9.3862    0.0000 </r>
      </set>
      <set comment="kpoint 12">
       <r>  -32.7076    1.0000 </r>
       <r>  -15.2678    1.0000 </r>
       <r>  -15.2657    1.0000 </r>
       <r>  -15.2335    1.0000 </r>
       <r>  -15.2305    1.0000 </r>
       <r>  -15.2302    1.0000 </r>
       <r>  -10.7336    1.0000 </r>
       <r>  -10.5848    1.0000 </r>
       <r>  -10.5802    1.0000 </r>
       <r>   -3.5705    1.0000 </r>
       <r>    2.1553    1.0000 </r>
       <r>    3.1162    1.0000 </r>
       <r>    3.2926    1.0000 </r>
       <r>    3.9745    1.0000 </r>
       <r>    4.0957    1.0000 </r>
       <r>    4.2340    1.0000 </r>
       <r>    5.9477    1.0000 </r>
       <r>    6.0614    1.0000 </r>
       <r>    7.2664    1.0000 </r>
       <r>    8.6947    0.0000 </r>
       <r>    8.8605    0.0000 </r>
       <r>    9.2866    0.0000 </r>
       <r>    9.3287    0.0000 </r>
       <r>    9.4148    0.0000 </r>
      </set>
      <set comment="kpoint 13">
       <r>  -32.7072    1.0000 </r>
       <r>  -15.2683    1.0000 </r>
       <r>  -15.2675    1.0000 </r>
       <r>  -15.2337    1.0000 </r>
       <r>  -15.2303    1.0000 </r>
       <r>  -15.2299    1.0000 </r>
       <r>  -10.7549    1.0000 </r>
       <r>  -10.5801    1.0000 </r>
       <r>  -10.5794    1.0000 </r>
       <r>   -3.4557    1.0000 </r>
       <r>    2.0083    1.0000 </r>
       <r>    3.1279    1.0000 </r>
       <r>    3.2291    1.0000 </r>
       <r>    3.9452    1.0000 </r>
       <r>    4.0181    1.0000 </r>
       <r>    4.1021    1.0000 </r>
       <r>    5.9439    1.0000 </r>
       <r>    6.0629    1.0000 </r>
       <r>    7.3731    1.0000 </r>
       <r>    8.8360    0.0000 </r>
       <r>    8.9390    0.0000 </r>
       <r>    9.2766    0.0000 </r>
       <r>    9.3056    0.0000 </r>
       <r>    9.3992    0.0000 </r>
      </set>
      <set comment="kpoint 14">
       <r>  -32.7071    1.0000 </r>
       <r>  -15.2685    1.0000 </r>
       <r>  -15.2678    1.0000 </r>
       <r>  -15.2338    1.0000 </r>
       <r>  -15.2302    1.0000 </r>
       <r>  -15.2299    1.0000 </r>
       <r>  -10.7604    1.0000 </r>
       <r>  -10.5826    1.0000 </r>
       <r>  -10.5756    1.0000 </r>
       <r>   -3.4242    1.0000 </r>
       <r>    1.9694    1.0000 </r>
       <r>    3.1583    1.0000 </r>
       <r>    3.1843    1.0000 </r>
       <r>    3.9542    1.0000 </r>
       <r>    3.9772    1.0000 </r>
       <r>    4.0709    1.0000 </r>
       <r>    5.9388    1.0000 </r>
       <r>    6.0667    1.0000 </r>
       <r>    7.4232    1.0000 </r>
       <r>    8.8671    0.0000 </r>
       <r>    8.9362    0.0000 </r>
       <r>    9.2813    0.0000 </r>
       <r>    9.2956    0.0000 </r>
       <r>    9.3687    0.0000 </r>
      </set>
      <set comment="kpoint 15">
       <r>  -32.7073    1.0000 </r>
       <r>  -15.2687    1.0000 </r>
       <r>  -15.2666    1.0000 </r>
       <r>  -15.2336    1.0000 </r>
       <r>  -15.2302    1.0000 </r>
       <r>  -15.2302    1.0000 </r>
       <r>  -10.7492    1.0000 </r>
       <r>  -10.5869    1.0000 </r>
       <r>  -10.5741    1.0000 </r>
       <r>   -3.4835    1.0000 </r>
       <r>    2.0454    1.0000 </r>
       <r>    3.0987    1.0000 </r>
       <r>    3.2591    1.0000 </r>
       <r>    3.9389    1.0000 </r>
       <r>    4.0597    1.0000 </r>
       <r>    4.1360    1.0000 </r>
       <r>    5.9138    1.0000 </r>
       <r>    6.0788    1.0000 </r>
       <r>    7.3568    1.0000 </r>
       <r>    8.8365    0.0000 </r>
       <r>    8.8772    0.0000 </r>
       <r>    9.2925    0.0000 </r>
       <r>    9.3069    0.0000 </r>
       <r>    9.4162    0.0000 </r>
      </set>
      <set comment="kpoint 16">
       <r>  -32.7079    1.0000 </r>
       <r>  -15.2678    1.0000 </r>
       <r>  -15.2649    1.0000 </r>
       <r>  -15.2333    1.0000 </r>
       <r>  -15.2306    1.0000 </r>
       <r>  -15.2305    1.0000 </r>
       <r>  -10.7233    1.0000 </r>
       <r>  -10.5922    1.0000 </r>
       <r>  -10.5752    1.0000 </r>
       <r>   -3.6200    1.0000 </r>
       <r>    2.2319    1.0000 </r>
       <r>    3.0766    1.0000 </r>
       <r>    3.3410    1.0000 </r>
       <r>    3.9724    1.0000 </r>
       <r>    4.1482    1.0000 </r>
       <r>    4.2953    1.0000 </r>
       <r>    5.8747    1.0000 </r>
       <r>    6.1223    1.0000 </r>
       <r>    7.2622    1.0000 </r>
       <r>    8.6421    0.0000 </r>
       <r>    8.7854    0.0000 </r>
       <r>    9.2744    0.0000 </r>
       <r>    9.3297    0.0000 </r>
       <r>    9.4166    0.0000 </r>
      </set>
      <set comment="kpoint 17">
       <r>  -32.7086    1.0000 </r>
       <r>  -15.2662    1.0000 </r>
       <r>  -15.2631    1.0000 </r>
       <r>  -15.2329    1.0000 </r>
       <r>  -15.2310    1.0000 </r>
       <r>  -15.2309    1.0000 </r>
       <r>  -10.6876    1.0000 </r>
       <r>  -10.5969    1.0000 </r>
       <r>  -10.5789    1.0000 </r>
       <r>   -3.8026    1.0000 </r>
       <r>    2.5115    1.0000 </r>
       <r>    3.1085    1.0000 </r>
       <r>    3.4380    1.0000 </r>
       <r>    4.0030    1.0000 </r>
       <r>    4.1931    1.0000 </r>
       <r>    4.5481    1.0000 </r>
       <r>    5.8619    1.0000 </r>
       <r>    6.2225    1.0000 </r>
       <r>    7.2055    1.0000 </r>
       <r>    8.3871    0.0000 </r>
       <r>    8.5430    0.0000 </r>
       <r>    9.0331    0.0000 </r>
       <r>    9.3532    0.0000 </r>
       <r>    9.4082    0.0000 </r>
      </set>
      <set comment="kpoint 18">
       <r>  -32.7093    1.0000 </r>
       <r>  -15.2642    1.0000 </r>
       <r>  -15.2616    1.0000 </r>
       <r>  -15.2326    1.0000 </r>
       <r>  -15.2315    1.0000 </r>
       <r>  -15.2313    1.0000 </r>
       <r>  -10.6497    1.0000 </r>
       <r>  -10.5998    1.0000 </r>
       <r>  -10.5841    1.0000 </r>
       <r>   -3.9888    1.0000 </r>
       <r>    2.8486    1.0000 </r>
       <r>    3.1987    1.0000 </r>
       <r>    3.5524    1.0000 </r>
       <r>    3.9745    1.0000 </r>
       <r>    4.1651    1.0000 </r>
       <r>    4.8581    1.0000 </r>
       <r>    5.9510    1.0000 </r>
       <r>    6.3759    1.0000 </r>
       <r>    7.1539    1.0000 </r>
       <r>    8.1330    0.0000 </r>
       <r>    8.1606    0.0000 </r>
       <r>    8.6935    0.0000 </r>
       <r>    9.2184    0.0000 </r>
       <r>    9.3846    0.0000 </r>
      </set>
      <set comment="kpoint 19">
       <r>  -32.7099    1.0000 </r>
       <r>  -15.2623    1.0000 </r>
       <r>  -15.2608    1.0000 </r>
       <r>  -15.2323    1.0000 </r>
       <r>  -15.2318    1.0000 </r>
       <r>  -15.2317    1.0000 </r>
       <r>  -10.6199    1.0000 </r>
       <r>  -10.5990    1.0000 </r>
       <r>  -10.5898    1.0000 </r>
       <r>   -4.1359    1.0000 </r>
       <r>    3.1878    1.0000 </r>
       <r>    3.3389    1.0000 </r>
       <r>    3.6179    1.0000 </r>
       <r>    3.9187    1.0000 </r>
       <r>    4.0710    1.0000 </r>
       <r>    5.1322    1.0000 </r>
       <r>    6.2125    1.0000 </r>
       <r>    6.5192    1.0000 </r>
       <r>    6.9629    1.0000 </r>
       <r>    7.9105    0.0000 </r>
       <r>    7.9579    0.0000 </r>
       <r>    8.3377    0.0000 </r>
       <r>    8.9671    0.0000 </r>
       <r>    9.3914    0.0000 </r>
      </set>
      <set comment="kpoint 20">
       <r>  -32.7095    1.0000 </r>
       <r>  -15.2645    1.0000 </r>
       <r>  -15.2597    1.0000 </r>
       <r>  -15.2328    1.0000 </r>
       <r>  -15.2313    1.0000 </r>
       <r>  -15.2313    1.0000 </r>
       <r>  -10.6258    1.0000 </r>
       <r>  -10.6016    1.0000 </r>
       <r>  -10.6016    1.0000 </r>
       <r>   -4.0377    1.0000 </r>
       <r>    2.7066    1.0000 </r>
       <r>    3.6364    1.0000 </r>
       <r>    3.6364    1.0000 </r>
       <r>    3.9236    1.0000 </r>
       <r>    3.9850    1.0000 </r>
       <r>    5.0736    1.0000 </r>
       <r>    6.1335    1.0000 </r>
       <r>    6.1335    1.0000 </r>
       <r>    7.2445    1.0000 </r>
       <r>    7.6100    0.0096 </r>
       <r>    8.5024    0.0000 </r>
       <r>    8.5024    0.0000 </r>
       <r>    9.1326    0.0000 </r>
       <r>    9.3395    0.0000 </r>
      </set>
      <set comment="kpoint 21">
       <r>  -32.7089    1.0000 </r>
       <r>  -15.2657    1.0000 </r>
       <r>  -15.2599    1.0000 </r>
       <r>  -15.2332    1.0000 </r>
       <r>  -15.2309    1.0000 </r>
       <r>  -15.2309    1.0000 </r>
       <r>  -10.6509    1.0000 </r>
       <r>  -10.6027    1.0000 </r>
       <r>  -10.5988    1.0000 </r>
       <r>   -3.9198    1.0000 </r>
       <r>    2.4791    1.0000 </r>
       <r>    3.5219    1.0000 </r>
       <r>    3.5972    1.0000 </r>
       <r>    3.9762    1.0000 </r>
       <r>    4.0327    1.0000 </r>
       <r>    4.9101    1.0000 </r>
       <r>    5.9370    1.0000 </r>
       <r>    6.0250    1.0000 </r>
       <r>    7.4238    1.0000 </r>
       <r>    7.7086    0.0000 </r>
       <r>    8.6801    0.0000 </r>
       <r>    8.7475    0.0000 </r>
       <r>    9.2925    0.0000 </r>
       <r>    9.3210    0.0000 </r>
      </set>
      <set comment="kpoint 22">
       <r>  -32.7082    1.0000 </r>
       <r>  -15.2666    1.0000 </r>
       <r>  -15.2612    1.0000 </r>
       <r>  -15.2334    1.0000 </r>
       <r>  -15.2307    1.0000 </r>
       <r>  -15.2304    1.0000 </r>
       <r>  -10.6850    1.0000 </r>
       <r>  -10.6005    1.0000 </r>
       <r>  -10.5947    1.0000 </r>
       <r>   -3.7708    1.0000 </r>
       <r>    2.3132    1.0000 </r>
       <r>    3.3246    1.0000 </r>
       <r>    3.5202    1.0000 </r>
       <r>    3.9972    1.0000 </r>
       <r>    4.1036    1.0000 </r>
       <r>    4.6569    1.0000 </r>
       <r>    5.7477    1.0000 </r>
       <r>    5.9804    1.0000 </r>
       <r>    7.4697    1.0000 </r>
       <r>    8.1135    0.0000 </r>
       <r>    8.8241    0.0000 </r>
       <r>    9.0282    0.0000 </r>
       <r>    9.3080    0.0000 </r>
       <r>    9.3937    0.0000 </r>
      </set>
      <set comment="kpoint 23">
       <r>  -32.7076    1.0000 </r>
       <r>  -15.2670    1.0000 </r>
       <r>  -15.2631    1.0000 </r>
       <r>  -15.2336    1.0000 </r>
       <r>  -15.2305    1.0000 </r>
       <r>  -15.2299    1.0000 </r>
       <r>  -10.7164    1.0000 </r>
       <r>  -10.5954    1.0000 </r>
       <r>  -10.5938    1.0000 </r>
       <r>   -3.6260    1.0000 </r>
       <r>    2.2099    1.0000 </r>
       <r>    3.1789    1.0000 </r>
       <r>    3.4318    1.0000 </r>
       <r>    3.9802    1.0000 </r>
       <r>    4.1166    1.0000 </r>
       <r>    4.4037    1.0000 </r>
       <r>    5.6545    1.0000 </r>
       <r>    5.9799    1.0000 </r>
       <r>    7.4564    1.0000 </r>
       <r>    8.5557    0.0000 </r>
       <r>    8.9320    0.0000 </r>
       <r>    9.2163    0.0000 </r>
       <r>    9.2983    0.0000 </r>
       <r>    9.4253    0.0000 </r>
      </set>
      <set comment="kpoint 24">
       <r>  -32.7071    1.0000 </r>
       <r>  -15.2668    1.0000 </r>
       <r>  -15.2653    1.0000 </r>
       <r>  -15.2336    1.0000 </r>
       <r>  -15.2305    1.0000 </r>
       <r>  -15.2297    1.0000 </r>
       <r>  -10.7382    1.0000 </r>
       <r>  -10.5964    1.0000 </r>
       <r>  -10.5888    1.0000 </r>
       <r>   -3.5169    1.0000 </r>
       <r>    2.1532    1.0000 </r>
       <r>    3.1245    1.0000 </r>
       <r>    3.3215    1.0000 </r>
       <r>    3.9828    1.0000 </r>
       <r>    4.0745    1.0000 </r>
       <r>    4.2220    1.0000 </r>
       <r>    5.6253    1.0000 </r>
       <r>    5.9871    1.0000 </r>
       <r>    7.5087    1.0000 </r>
       <r>    8.7537    0.0000 </r>
       <r>    8.9982    0.0000 </r>
       <r>    9.2475    0.0000 </r>
       <r>    9.2850    0.0000 </r>
       <r>    9.4406    0.0000 </r>
      </set>
      <set comment="kpoint 25">
       <r>  -32.7069    1.0000 </r>
       <r>  -15.2672    1.0000 </r>
       <r>  -15.2660    1.0000 </r>
       <r>  -15.2334    1.0000 </r>
       <r>  -15.2305    1.0000 </r>
       <r>  -15.2296    1.0000 </r>
       <r>  -10.7468    1.0000 </r>
       <r>  -10.6018    1.0000 </r>
       <r>  -10.5819    1.0000 </r>
       <r>   -3.4652    1.0000 </r>
       <r>    2.1265    1.0000 </r>
       <r>    3.1617    1.0000 </r>
       <r>    3.1973    1.0000 </r>
       <r>    4.0073    1.0000 </r>
       <r>    4.0361    1.0000 </r>
       <r>    4.1482    1.0000 </r>
       <r>    5.6079    1.0000 </r>
       <r>    5.9872    1.0000 </r>
       <r>    7.5947    0.4266 </r>
       <r>    8.7437    0.0000 </r>
       <r>    9.0060    0.0000 </r>
       <r>    9.2715    0.0000 </r>
       <r>    9.2847    0.0000 </r>
       <r>    9.4132    0.0000 </r>
      </set>
      <set comment="kpoint 26">
       <r>  -32.7070    1.0000 </r>
       <r>  -15.2684    1.0000 </r>
       <r>  -15.2648    1.0000 </r>
       <r>  -15.2333    1.0000 </r>
       <r>  -15.2306    1.0000 </r>
       <r>  -15.2299    1.0000 </r>
       <r>  -10.7412    1.0000 </r>
       <r>  -10.6083    1.0000 </r>
       <r>  -10.5765    1.0000 </r>
       <r>   -3.4809    1.0000 </r>
       <r>    2.1316    1.0000 </r>
       <r>    3.0883    1.0000 </r>
       <r>    3.2657    1.0000 </r>
       <r>    3.9504    1.0000 </r>
       <r>    4.1252    1.0000 </r>
       <r>    4.1902    1.0000 </r>
       <r>    5.5627    1.0000 </r>
       <r>    5.9927    1.0000 </r>
       <r>    7.6235    0.0000 </r>
       <r>    8.7751    0.0000 </r>
       <r>    8.9239    0.0000 </r>
       <r>    9.2743    0.0000 </r>
       <r>    9.2977    0.0000 </r>
       <r>    9.4242    0.0000 </r>
      </set>
      <set comment="kpoint 27">
       <r>  -32.7074    1.0000 </r>
       <r>  -15.2686    1.0000 </r>
       <r>  -15.2635    1.0000 </r>
       <r>  -15.2331    1.0000 </r>
       <r>  -15.2307    1.0000 </r>
       <r>  -15.2303    1.0000 </r>
       <r>  -10.7230    1.0000 </r>
       <r>  -10.6135    1.0000 </r>
       <r>  -10.5738    1.0000 </r>
       <r>   -3.5625    1.0000 </r>
       <r>    2.1908    1.0000 </r>
       <r>    3.0223    1.0000 </r>
       <r>    3.4059    1.0000 </r>
       <r>    3.9260    1.0000 </r>
       <r>    4.2124    1.0000 </r>
       <r>    4.3342    1.0000 </r>
       <r>    5.4846    1.0000 </r>
       <r>    6.0312    1.0000 </r>
       <r>    7.6074    0.0236 </r>
       <r>    8.7448    0.0000 </r>
       <r>    8.7936    0.0000 </r>
       <r>    9.2798    0.0000 </r>
       <r>    9.2924    0.0000 </r>
       <r>    9.4512    0.0000 </r>
      </set>
      <set comment="kpoint 28">
       <r>  -32.7080    1.0000 </r>
       <r>  -15.2679    1.0000 </r>
       <r>  -15.2624    1.0000 </r>
       <r>  -15.2329    1.0000 </r>
       <r>  -15.2308    1.0000 </r>
       <r>  -15.2307    1.0000 </r>
       <r>  -10.6968    1.0000 </r>
       <r>  -10.6151    1.0000 </r>
       <r>  -10.5743    1.0000 </r>
       <r>   -3.6952    1.0000 </r>
       <r>    2.3297    1.0000 </r>
       <r>    3.0161    1.0000 </r>
       <r>    3.5487    1.0000 </r>
       <r>    3.9203    1.0000 </r>
       <r>    4.2575    1.0000 </r>
       <r>    4.5508    1.0000 </r>
       <r>    5.4306    1.0000 </r>
       <r>    6.1254    1.0000 </r>
       <r>    7.5979    0.2641 </r>
       <r>    8.5050    0.0000 </r>
       <r>    8.6174    0.0000 </r>
       <r>    9.1885    0.0000 </r>
       <r>    9.3158    0.0000 </r>
       <r>    9.4536    0.0000 </r>
      </set>
      <set comment="kpoint 29">
       <r>  -32.7087    1.0000 </r>
       <r>  -15.2663    1.0000 </r>
       <r>  -15.2617    1.0000 </r>
       <r>  -15.2327    1.0000 </r>
       <r>  -15.2312    1.0000 </r>
       <r>  -15.2310    1.0000 </r>
       <r>  -10.6700    1.0000 </r>
       <r>  -10.6105    1.0000 </r>
       <r>  -10.5780    1.0000 </r>
       <r>   -3.8497    1.0000 </r>
       <r>    2.5568    1.0000 </r>
       <r>    3.0762    1.0000 </r>
       <r>    3.6382    1.0000 </r>
       <r>    3.9132    1.0000 </r>
       <r>    4.2393    1.0000 </r>
       <r>    4.7482    1.0000 </r>
       <r>    5.5545    1.0000 </r>
       <r>    6.2626    1.0000 </r>
       <r>    7.5118    1.0000 </r>
       <r>    8.2730    0.0000 </r>
       <r>    8.2904    0.0000 </r>
       <r>    8.9939    0.0000 </r>
       <r>    9.3410    0.0000 </r>
       <r>    9.3561    0.0000 </r>
      </set>
      <set comment="kpoint 30">
       <r>  -32.7085    1.0000 </r>
       <r>  -15.2661    1.0000 </r>
       <r>  -15.2590    1.0000 </r>
       <r>  -15.2337    1.0000 </r>
       <r>  -15.2305    1.0000 </r>
       <r>  -15.2305    1.0000 </r>
       <r>  -10.6558    1.0000 </r>
       <r>  -10.6079    1.0000 </r>
       <r>  -10.6079    1.0000 </r>
       <r>   -3.8591    1.0000 </r>
       <r>    2.3171    1.0000 </r>
       <r>    3.6548    1.0000 </r>
       <r>    3.6548    1.0000 </r>
       <r>    3.8819    1.0000 </r>
       <r>    3.9888    1.0000 </r>
       <r>    4.9043    1.0000 </r>
       <r>    5.9357    1.0000 </r>
       <r>    5.9357    1.0000 </r>
       <r>    7.2132    1.0000 </r>
       <r>    7.9152    0.0000 </r>
       <r>    8.8146    0.0000 </r>
       <r>    8.8146    0.0000 </r>
       <r>    9.2818    0.0000 </r>
       <r>    9.3566    0.0000 </r>
      </set>
      <set comment="kpoint 31">
       <r>  -32.7080    1.0000 </r>
       <r>  -15.2659    1.0000 </r>
       <r>  -15.2593    1.0000 </r>
       <r>  -15.2341    1.0000 </r>
       <r>  -15.2301    1.0000 </r>
       <r>  -15.2300    1.0000 </r>
       <r>  -10.6781    1.0000 </r>
       <r>  -10.6093    1.0000 </r>
       <r>  -10.6084    1.0000 </r>
       <r>   -3.7686    1.0000 </r>
       <r>    2.2415    1.0000 </r>
       <r>    3.5080    1.0000 </r>
       <r>    3.6219    1.0000 </r>
       <r>    3.9359    1.0000 </r>
       <r>    4.0185    1.0000 </r>
       <r>    4.7704    1.0000 </r>
       <r>    5.7660    1.0000 </r>
       <r>    5.9079    1.0000 </r>
       <r>    7.3612    1.0000 </r>
       <r>    8.0915    0.0000 </r>
       <r>    8.9170    0.0000 </r>
       <r>    8.9708    0.0000 </r>
       <r>    9.2543    0.0000 </r>
       <r>    9.3821    0.0000 </r>
      </set>
      <set comment="kpoint 32">
       <r>  -32.7074    1.0000 </r>
       <r>  -15.2653    1.0000 </r>
       <r>  -15.2605    1.0000 </r>
       <r>  -15.2342    1.0000 </r>
       <r>  -15.2299    1.0000 </r>
       <r>  -15.2295    1.0000 </r>
       <r>  -10.7028    1.0000 </r>
       <r>  -10.6099    1.0000 </r>
       <r>  -10.6066    1.0000 </r>
       <r>   -3.6715    1.0000 </r>
       <r>    2.2550    1.0000 </r>
       <r>    3.3120    1.0000 </r>
       <r>    3.5418    1.0000 </r>
       <r>    4.0257    1.0000 </r>
       <r>    4.0264    1.0000 </r>
       <r>    4.5726    1.0000 </r>
       <r>    5.5375    1.0000 </r>
       <r>    5.9191    1.0000 </r>
       <r>    7.4963    1.0000 </r>
       <r>    8.4484    0.0000 </r>
       <r>    8.9948    0.0000 </r>
       <r>    9.1420    0.0000 </r>
       <r>    9.2530    0.0000 </r>
       <r>    9.3994    0.0000 </r>
      </set>
      <set comment="kpoint 33">
       <r>  -32.7069    1.0000 </r>
       <r>  -15.2645    1.0000 </r>
       <r>  -15.2626    1.0000 </r>
       <r>  -15.2340    1.0000 </r>
       <r>  -15.2301    1.0000 </r>
       <r>  -15.2293    1.0000 </r>
       <r>  -10.7205    1.0000 </r>
       <r>  -10.6162    1.0000 </r>
       <r>  -10.6005    1.0000 </r>
       <r>   -3.5879    1.0000 </r>
       <r>    2.3214    1.0000 </r>
       <r>    3.1824    1.0000 </r>
       <r>    3.4204    1.0000 </r>
       <r>    4.0471    1.0000 </r>
       <r>    4.0587    1.0000 </r>
       <r>    4.3827    1.0000 </r>
       <r>    5.3793    1.0000 </r>
       <r>    5.9253    1.0000 </r>
       <r>    7.5603    1.0000 </r>
       <r>    8.7137    0.0000 </r>
       <r>    9.0522    0.0000 </r>
       <r>    9.2124    0.0000 </r>
       <r>    9.2612    0.0000 </r>
       <r>    9.4515    0.0000 </r>
      </set>
      <set comment="kpoint 34">
       <r>  -32.7066    1.0000 </r>
       <r>  -15.2649    1.0000 </r>
       <r>  -15.2635    1.0000 </r>
       <r>  -15.2335    1.0000 </r>
       <r>  -15.2305    1.0000 </r>
       <r>  -15.2292    1.0000 </r>
       <r>  -10.7275    1.0000 </r>
       <r>  -10.6260    1.0000 </r>
       <r>  -10.5923    1.0000 </r>
       <r>   -3.5315    1.0000 </r>
       <r>    2.3682    1.0000 </r>
       <r>    3.1476    1.0000 </r>
       <r>    3.2746    1.0000 </r>
       <r>    4.0202    1.0000 </r>
       <r>    4.1040    1.0000 </r>
       <r>    4.2912    1.0000 </r>
       <r>    5.2860    1.0000 </r>
       <r>    5.9119    1.0000 </r>
       <r>    7.6669    0.0000 </r>
       <r>    8.6897    0.0000 </r>
       <r>    9.0797    0.0000 </r>
       <r>    9.2562    0.0000 </r>
       <r>    9.2565    0.0000 </r>
       <r>    9.4306    0.0000 </r>
      </set>
      <set comment="kpoint 35">
       <r>  -32.7067    1.0000 </r>
       <r>  -15.2669    1.0000 </r>
       <r>  -15.2627    1.0000 </r>
       <r>  -15.2329    1.0000 </r>
       <r>  -15.2309    1.0000 </r>
       <r>  -15.2294    1.0000 </r>
       <r>  -10.7240    1.0000 </r>
       <r>  -10.6358    1.0000 </r>
       <r>  -10.5839    1.0000 </r>
       <r>   -3.5109    1.0000 </r>
       <r>    2.3402    1.0000 </r>
       <r>    3.1368    1.0000 </r>
       <r>    3.2081    1.0000 </r>
       <r>    3.9684    1.0000 </r>
       <r>    4.1833    1.0000 </r>
       <r>    4.3174    1.0000 </r>
       <r>    5.2159    1.0000 </r>
       <r>    5.8997    1.0000 </r>
       <r>    7.7908    0.0000 </r>
       <r>    8.6432    0.0000 </r>
       <r>    9.0397    0.0000 </r>
       <r>    9.2502    0.0000 </r>
       <r>    9.2886    0.0000 </r>
       <r>    9.4181    0.0000 </r>
      </set>
      <set comment="kpoint 36">
       <r>  -32.7069    1.0000 </r>
       <r>  -15.2682    1.0000 </r>
       <r>  -15.2622    1.0000 </r>
       <r>  -15.2326    1.0000 </r>
       <r>  -15.2311    1.0000 </r>
       <r>  -15.2298    1.0000 </r>
       <r>  -10.7141    1.0000 </r>
       <r>  -10.6399    1.0000 </r>
       <r>  -10.5772    1.0000 </r>
       <r>   -3.5324    1.0000 </r>
       <r>    2.2733    1.0000 </r>
       <r>    3.0361    1.0000 </r>
       <r>    3.3328    1.0000 </r>
       <r>    3.9390    1.0000 </r>
       <r>    4.2530    1.0000 </r>
       <r>    4.4329    1.0000 </r>
       <r>    5.1500    1.0000 </r>
       <r>    5.9235    1.0000 </r>
       <r>    7.8480    0.0000 </r>
       <r>    8.6815    0.0000 </r>
       <r>    8.9023    0.0000 </r>
       <r>    9.2633    0.0000 </r>
       <r>    9.3066    0.0000 </r>
       <r>    9.4281    0.0000 </r>
      </set>
      <set comment="kpoint 37">
       <r>  -32.7074    1.0000 </r>
       <r>  -15.2686    1.0000 </r>
       <r>  -15.2621    1.0000 </r>
       <r>  -15.2327    1.0000 </r>
       <r>  -15.2310    1.0000 </r>
       <r>  -15.2303    1.0000 </r>
       <r>  -10.7045    1.0000 </r>
       <r>  -10.6325    1.0000 </r>
       <r>  -10.5737    1.0000 </r>
       <r>   -3.5973    1.0000 </r>
       <r>    2.2509    1.0000 </r>
       <r>    2.9923    1.0000 </r>
       <r>    3.4756    1.0000 </r>
       <r>    3.9194    1.0000 </r>
       <r>    4.2814    1.0000 </r>
       <r>    4.5456    1.0000 </r>
       <r>    5.1723    1.0000 </r>
       <r>    6.0048    1.0000 </r>
       <r>    7.8075    0.0000 </r>
       <r>    8.6743    0.0000 </r>
       <r>    8.7019    0.0000 </r>
       <r>    9.2804    0.0000 </r>
       <r>    9.2867    0.0000 </r>
       <r>    9.4454    0.0000 </r>
      </set>
      <set comment="kpoint 38">
       <r>  -32.7075    1.0000 </r>
       <r>  -15.2647    1.0000 </r>
       <r>  -15.2583    1.0000 </r>
       <r>  -15.2346    1.0000 </r>
       <r>  -15.2295    1.0000 </r>
       <r>  -15.2295    1.0000 </r>
       <r>  -10.6867    1.0000 </r>
       <r>  -10.6147    1.0000 </r>
       <r>  -10.6147    1.0000 </r>
       <r>   -3.7418    1.0000 </r>
       <r>    2.2490    1.0000 </r>
       <r>    3.6395    1.0000 </r>
       <r>    3.6395    1.0000 </r>
       <r>    3.7297    1.0000 </r>
       <r>    4.0610    1.0000 </r>
       <r>    4.7104    1.0000 </r>
       <r>    5.8956    1.0000 </r>
       <r>    5.8956    1.0000 </r>
       <r>    7.2140    1.0000 </r>
       <r>    8.2187    0.0000 </r>
       <r>    8.9864    0.0000 </r>
       <r>    8.9864    0.0000 </r>
       <r>    9.1961    0.0000 </r>
       <r>    9.3526    0.0000 </r>
      </set>
      <set comment="kpoint 39">
       <r>  -32.7071    1.0000 </r>
       <r>  -15.2633    1.0000 </r>
       <r>  -15.2586    1.0000 </r>
       <r>  -15.2349    1.0000 </r>
       <r>  -15.2292    1.0000 </r>
       <r>  -15.2291    1.0000 </r>
       <r>  -10.7024    1.0000 </r>
       <r>  -10.6185    1.0000 </r>
       <r>  -10.6157    1.0000 </r>
       <r>   -3.7002    1.0000 </r>
       <r>    2.3471    1.0000 </r>
       <r>    3.4535    1.0000 </r>
       <r>    3.5968    1.0000 </r>
       <r>    3.8292    1.0000 </r>
       <r>    4.0859    1.0000 </r>
       <r>    4.5642    1.0000 </r>
       <r>    5.7527    1.0000 </r>
       <r>    5.9205    1.0000 </r>
       <r>    7.3565    1.0000 </r>
       <r>    8.4306    0.0000 </r>
       <r>    9.0400    0.0000 </r>
       <r>    9.0765    0.0000 </r>
       <r>    9.1794    0.0000 </r>
       <r>    9.3243    0.0000 </r>
      </set>
      <set comment="kpoint 40">
       <r>  -32.7067    1.0000 </r>
       <r>  -15.2619    1.0000 </r>
       <r>  -15.2600    1.0000 </r>
       <r>  -15.2348    1.0000 </r>
       <r>  -15.2293    1.0000 </r>
       <r>  -15.2288    1.0000 </r>
       <r>  -10.7131    1.0000 </r>
       <r>  -10.6274    1.0000 </r>
       <r>  -10.6118    1.0000 </r>
       <r>   -3.6526    1.0000 </r>
       <r>    2.5028    1.0000 </r>
       <r>    3.2776    1.0000 </r>
       <r>    3.5030    1.0000 </r>
       <r>    3.9456    1.0000 </r>
       <r>    4.1105    1.0000 </r>
       <r>    4.4020    1.0000 </r>
       <r>    5.4615    1.0000 </r>
       <r>    5.9264    1.0000 </r>
       <r>    7.4960    1.0000 </r>
       <r>    8.7291    0.0000 </r>
       <r>    9.0847    0.0000 </r>
       <r>    9.1669    0.0000 </r>
       <r>    9.2156    0.0000 </r>
       <r>    9.4178    0.0000 </r>
      </set>
      <set comment="kpoint 41">
       <r>  -32.7064    1.0000 </r>
       <r>  -15.2622    1.0000 </r>
       <r>  -15.2610    1.0000 </r>
       <r>  -15.2342    1.0000 </r>
       <r>  -15.2297    1.0000 </r>
       <r>  -15.2288    1.0000 </r>
       <r>  -10.7136    1.0000 </r>
       <r>  -10.6426    1.0000 </r>
       <r>  -10.6042    1.0000 </r>
       <r>   -3.6048    1.0000 </r>
       <r>    2.6317    1.0000 </r>
       <r>    3.1730    1.0000 </r>
       <r>    3.3714    1.0000 </r>
       <r>    3.9857    1.0000 </r>
       <r>    4.1563    1.0000 </r>
       <r>    4.3291    1.0000 </r>
       <r>    5.1908    1.0000 </r>
       <r>    5.8939    1.0000 </r>
       <r>    7.6091    0.0132 </r>
       <r>    8.7509    0.0000 </r>
       <r>    9.1189    0.0000 </r>
       <r>    9.2027    0.0000 </r>
       <r>    9.2492    0.0000 </r>
       <r>    9.4412    0.0000 </r>
      </set>
      <set comment="kpoint 42">
       <r>  -32.7064    1.0000 </r>
       <r>  -15.2646    1.0000 </r>
       <r>  -15.2607    1.0000 </r>
       <r>  -15.2334    1.0000 </r>
       <r>  -15.2305    1.0000 </r>
       <r>  -15.2290    1.0000 </r>
       <r>  -10.7052    1.0000 </r>
       <r>  -10.6596    1.0000 </r>
       <r>  -10.5943    1.0000 </r>
       <r>   -3.5626    1.0000 </r>
       <r>    2.6143    1.0000 </r>
       <r>    3.1580    1.0000 </r>
       <r>    3.2306    1.0000 </r>
       <r>    3.9595    1.0000 </r>
       <r>    4.2131    1.0000 </r>
       <r>    4.3966    1.0000 </r>
       <r>    5.0083    1.0000 </r>
       <r>    5.8553    1.0000 </r>
       <r>    7.7637    0.0000 </r>
       <r>    8.6538    0.0000 </r>
       <r>    9.1247    0.0000 </r>
       <r>    9.2256    0.0000 </r>
       <r>    9.2459    0.0000 </r>
       <r>    9.4195    0.0000 </r>
      </set>
      <set comment="kpoint 43">
       <r>  -32.7066    1.0000 </r>
       <r>  -15.2668    1.0000 </r>
       <r>  -15.2612    1.0000 </r>
       <r>  -15.2325    1.0000 </r>
       <r>  -15.2312    1.0000 </r>
       <r>  -15.2294    1.0000 </r>
       <r>  -10.7026    1.0000 </r>
       <r>  -10.6615    1.0000 </r>
       <r>  -10.5846    1.0000 </r>
       <r>   -3.5348    1.0000 </r>
       <r>    2.4490    1.0000 </r>
       <r>    3.1108    1.0000 </r>
       <r>    3.2266    1.0000 </r>
       <r>    3.9490    1.0000 </r>
       <r>    4.2530    1.0000 </r>
       <r>    4.4781    1.0000 </r>
       <r>    4.9676    1.0000 </r>
       <r>    5.8575    1.0000 </r>
       <r>    7.8934    0.0000 </r>
       <r>    8.6139    0.0000 </r>
       <r>    9.0506    0.0000 </r>
       <r>    9.2437    0.0000 </r>
       <r>    9.2659    0.0000 </r>
       <r>    9.4157    0.0000 </r>
      </set>
      <set comment="kpoint 44">
       <r>  -32.7067    1.0000 </r>
       <r>  -15.2612    1.0000 </r>
       <r>  -15.2577    1.0000 </r>
       <r>  -15.2354    1.0000 </r>
       <r>  -15.2286    1.0000 </r>
       <r>  -15.2286    1.0000 </r>
       <r>  -10.7120    1.0000 </r>
       <r>  -10.6206    1.0000 </r>
       <r>  -10.6206    1.0000 </r>
       <r>   -3.7095    1.0000 </r>
       <r>    2.5051    1.0000 </r>
       <r>    3.5945    1.0000 </r>
       <r>    3.6011    1.0000 </r>
       <r>    3.6011    1.0000 </r>
       <r>    4.1236    1.0000 </r>
       <r>    4.4241    1.0000 </r>
       <r>    5.9680    1.0000 </r>
       <r>    5.9680    1.0000 </r>
       <r>    7.2838    1.0000 </r>
       <r>    8.4727    0.0000 </r>
       <r>    9.0740    0.0000 </r>
       <r>    9.0740    0.0000 </r>
       <r>    9.1098    0.0000 </r>
       <r>    9.2379    0.0000 </r>
      </set>
      <set comment="kpoint 45">
       <r>  -32.7065    1.0000 </r>
       <r>  -15.2597    1.0000 </r>
       <r>  -15.2581    1.0000 </r>
       <r>  -15.2355    1.0000 </r>
       <r>  -15.2285    1.0000 </r>
       <r>  -15.2284    1.0000 </r>
       <r>  -10.7192    1.0000 </r>
       <r>  -10.6261    1.0000 </r>
       <r>  -10.6203    1.0000 </r>
       <r>   -3.6985    1.0000 </r>
       <r>    2.7002    1.0000 </r>
       <r>    3.3954    1.0000 </r>
       <r>    3.5565    1.0000 </r>
       <r>    3.7544    1.0000 </r>
       <r>    4.1466    1.0000 </r>
       <r>    4.2527    1.0000 </r>
       <r>    5.8223    1.0000 </r>
       <r>    5.9909    1.0000 </r>
       <r>    7.3916    1.0000 </r>
       <r>    8.7114    0.0000 </r>
       <r>    9.1000    0.0000 </r>
       <r>    9.1220    0.0000 </r>
       <r>    9.1278    0.0000 </r>
       <r>    9.1662    0.0000 </r>
      </set>
      <set comment="kpoint 46">
       <r>  -32.7063    1.0000 </r>
       <r>  -15.2597    1.0000 </r>
       <r>  -15.2590    1.0000 </r>
       <r>  -15.2351    1.0000 </r>
       <r>  -15.2289    1.0000 </r>
       <r>  -15.2284    1.0000 </r>
       <r>  -10.7169    1.0000 </r>
       <r>  -10.6396    1.0000 </r>
       <r>  -10.6149    1.0000 </r>
       <r>   -3.6674    1.0000 </r>
       <r>    2.8501    1.0000 </r>
       <r>    3.2477    1.0000 </r>
       <r>    3.4664    1.0000 </r>
       <r>    3.8933    1.0000 </r>
       <r>    4.1570    1.0000 </r>
       <r>    4.1758    1.0000 </r>
       <r>    5.4673    1.0000 </r>
       <r>    5.9492    1.0000 </r>
       <r>    7.4992    1.0000 </r>
       <r>    8.8644    0.0000 </r>
       <r>    9.1239    0.0000 </r>
       <r>    9.1583    0.0000 </r>
       <r>    9.2090    0.0000 </r>
       <r>    9.3590    0.0000 </r>
      </set>
      <set comment="kpoint 47">
       <r>  -32.7063    1.0000 </r>
       <r>  -15.2620    1.0000 </r>
       <r>  -15.2594    1.0000 </r>
       <r>  -15.2343    1.0000 </r>
       <r>  -15.2296    1.0000 </r>
       <r>  -15.2286    1.0000 </r>
       <r>  -10.7060    1.0000 </r>
       <r>  -10.6575    1.0000 </r>
       <r>  -10.6055    1.0000 </r>
       <r>   -3.6194    1.0000 </r>
       <r>    2.8319    1.0000 </r>
       <r>    3.1608    1.0000 </r>
       <r>    3.3489    1.0000 </r>
       <r>    3.9350    1.0000 </r>
       <r>    4.2058    1.0000 </r>
       <r>    4.2744    1.0000 </r>
       <r>    5.1312    1.0000 </r>
       <r>    5.8822    1.0000 </r>
       <r>    7.6248    0.0000 </r>
       <r>    8.7646    0.0000 </r>
       <r>    9.1401    0.0000 </r>
       <r>    9.1802    0.0000 </r>
       <r>    9.2530    0.0000 </r>
       <r>    9.4097    0.0000 </r>
      </set>
      <set comment="kpoint 48">
       <r>  -32.7063    1.0000 </r>
       <r>  -15.2583    1.0000 </r>
       <r>  -15.2574    1.0000 </r>
       <r>  -15.2358    1.0000 </r>
       <r>  -15.2281    1.0000 </r>
       <r>  -15.2281    1.0000 </r>
       <r>  -10.7262    1.0000 </r>
       <r>  -10.6240    1.0000 </r>
       <r>  -10.6240    1.0000 </r>
       <r>   -3.7178    1.0000 </r>
       <r>    2.8803    1.0000 </r>
       <r>    3.5243    1.0000 </r>
       <r>    3.5708    1.0000 </r>
       <r>    3.5708    1.0000 </r>
       <r>    4.0885    1.0000 </r>
       <r>    4.1601    1.0000 </r>
       <r>    6.0492    1.0000 </r>
       <r>    6.0492    1.0000 </r>
       <r>    7.3612    1.0000 </r>
       <r>    8.6457    0.0000 </r>
       <r>    9.0445    0.0000 </r>
       <r>    9.0564    0.0000 </r>
       <r>    9.1150    0.0000 </r>
       <r>    9.1150    0.0000 </r>
      </set>
      <set comment="kpoint 49">
       <r>  -32.7062    1.0000 </r>
       <r>  -15.2580    1.0000 </r>
       <r>  -15.2580    1.0000 </r>
       <r>  -15.2357    1.0000 </r>
       <r>  -15.2283    1.0000 </r>
       <r>  -15.2281    1.0000 </r>
       <r>  -10.7252    1.0000 </r>
       <r>  -10.6290    1.0000 </r>
       <r>  -10.6220    1.0000 </r>
       <r>   -3.7071    1.0000 </r>
       <r>    2.9509    1.0000 </r>
       <r>    3.3727    1.0000 </r>
       <r>    3.5387    1.0000 </r>
       <r>    3.7354    1.0000 </r>
       <r>    4.0282    1.0000 </r>
       <r>    4.1704    1.0000 </r>
       <r>    5.8636    1.0000 </r>
       <r>    6.0286    1.0000 </r>
       <r>    7.4129    1.0000 </r>
       <r>    8.9139    0.0000 </r>
       <r>    8.9694    0.0000 </r>
       <r>    9.0987    0.0000 </r>
       <r>    9.1318    0.0000 </r>
       <r>    9.1352    0.0000 </r>
      </set>
      <set comment="kpoint 50">
       <r>  -32.7093    1.0000 </r>
       <r>  -15.2648    1.0000 </r>
       <r>  -15.2606    1.0000 </r>
       <r>  -15.2328    1.0000 </r>
       <r>  -15.2313    1.0000 </r>
       <r>  -15.2312    1.0000 </r>
       <r>  -10.6442    1.0000 </r>
       <r>  -10.6039    1.0000 </r>
       <r>  -10.5887    1.0000 </r>
       <r>   -3.9840    1.0000 </r>
       <r>    2.6990    1.0000 </r>
       <r>    3.3488    1.0000 </r>
       <r>    3.6414    1.0000 </r>
       <r>    3.9299    1.0000 </r>
       <r>    4.1263    1.0000 </r>
       <r>    4.9365    1.0000 </r>
       <r>    5.8842    1.0000 </r>
       <r>    6.2604    1.0000 </r>
       <r>    7.4216    1.0000 </r>
       <r>    7.6956    0.0000 </r>
       <r>    8.4127    0.0000 </r>
       <r>    8.7074    0.0000 </r>
       <r>    9.2163    0.0000 </r>
       <r>    9.3479    0.0000 </r>
      </set>
      <set comment="kpoint 51">
       <r>  -32.7086    1.0000 </r>
       <r>  -15.2664    1.0000 </r>
       <r>  -15.2615    1.0000 </r>
       <r>  -15.2330    1.0000 </r>
       <r>  -15.2310    1.0000 </r>
       <r>  -15.2308    1.0000 </r>
       <r>  -10.6749    1.0000 </r>
       <r>  -10.6063    1.0000 </r>
       <r>  -10.5831    1.0000 </r>
       <r>   -3.8282    1.0000 </r>
       <r>    2.4560    1.0000 </r>
       <r>    3.1961    1.0000 </r>
       <r>    3.5797    1.0000 </r>
       <r>    3.9542    1.0000 </r>
       <r>    4.1852    1.0000 </r>
       <r>    4.7084    1.0000 </r>
       <r>    5.6665    1.0000 </r>
       <r>    6.1595    1.0000 </r>
       <r>    7.4869    1.0000 </r>
       <r>    8.0617    0.0000 </r>
       <r>    8.6166    0.0000 </r>
       <r>    8.9863    0.0000 </r>
       <r>    9.3327    0.0000 </r>
       <r>    9.3756    0.0000 </r>
      </set>
      <set comment="kpoint 52">
       <r>  -32.7079    1.0000 </r>
       <r>  -15.2676    1.0000 </r>
       <r>  -15.2630    1.0000 </r>
       <r>  -15.2332    1.0000 </r>
       <r>  -15.2307    1.0000 </r>
       <r>  -15.2304    1.0000 </r>
       <r>  -10.7080    1.0000 </r>
       <r>  -10.6043    1.0000 </r>
       <r>  -10.5797    1.0000 </r>
       <r>   -3.6655    1.0000 </r>
       <r>    2.2660    1.0000 </r>
       <r>    3.1017    1.0000 </r>
       <r>    3.4676    1.0000 </r>
       <r>    3.9548    1.0000 </r>
       <r>    4.1832    1.0000 </r>
       <r>    4.4474    1.0000 </r>
       <r>    5.6287    1.0000 </r>
       <r>    6.0707    1.0000 </r>
       <r>    7.4645    1.0000 </r>
       <r>    8.4792    0.0000 </r>
       <r>    8.8162    0.0000 </r>
       <r>    9.2033    0.0000 </r>
       <r>    9.3141    0.0000 </r>
       <r>    9.4224    0.0000 </r>
      </set>
      <set comment="kpoint 53">
       <r>  -32.7073    1.0000 </r>
       <r>  -15.2681    1.0000 </r>
[...]
       <r>    7.9915    0.0000 </r>
       <r>    8.4593    0.0000 </r>
       <r>    9.1052    0.0000 </r>
       <r>    9.1730    0.0000 </r>
       <r>    9.2698    0.0000 </r>
       <r>    9.4045    0.0000 </r>
      </set>
      <set comment="kpoint 81">
       <r>  -32.7065    1.0000 </r>
       <r>  -15.2655    1.0000 </r>
       <r>  -15.2600    1.0000 </r>
       <r>  -15.2328    1.0000 </r>
       <r>  -15.2314    1.0000 </r>
       <r>  -15.2287    1.0000 </r>
       <r>  -10.7010    1.0000 </r>
       <r>  -10.6561    1.0000 </r>
       <r>  -10.5993    1.0000 </r>
       <r>   -3.5672    1.0000 </r>
       <r>    2.5806    1.0000 </r>
       <r>    3.0447    1.0000 </r>
       <r>    3.4250    1.0000 </r>
       <r>    4.0081    1.0000 </r>
       <r>    4.1779    1.0000 </r>
       <r>    4.4298    1.0000 </r>
       <r>    4.8018    1.0000 </r>
       <r>    5.9993    1.0000 </r>
       <r>    7.9987    0.0000 </r>
       <r>    8.4559    0.0000 </r>
       <r>    9.0855    0.0000 </r>
       <r>    9.1783    0.0000 </r>
       <r>    9.2800    0.0000 </r>
       <r>    9.4035    0.0000 </r>
      </set>
      <set comment="kpoint 82">
       <r>  -32.7063    1.0000 </r>
       <r>  -15.2623    1.0000 </r>
       <r>  -15.2581    1.0000 </r>
       <r>  -15.2344    1.0000 </r>
       <r>  -15.2299    1.0000 </r>
       <r>  -15.2281    1.0000 </r>
       <r>  -10.7078    1.0000 </r>
       <r>  -10.6431    1.0000 </r>
       <r>  -10.6198    1.0000 </r>
       <r>   -3.6371    1.0000 </r>
       <r>    2.8614    1.0000 </r>
       <r>    3.1084    1.0000 </r>
       <r>    3.5464    1.0000 </r>
       <r>    3.9700    1.0000 </r>
       <r>    4.1539    1.0000 </r>
       <r>    4.2116    1.0000 </r>
       <r>    4.9659    1.0000 </r>
       <r>    6.1062    1.0000 </r>
       <r>    7.7352    0.0000 </r>
       <r>    8.7147    0.0000 </r>
       <r>    9.0305    0.0000 </r>
       <r>    9.1095    0.0000 </r>
       <r>    9.2148    0.0000 </r>
       <r>    9.4027    0.0000 </r>
      </set>
      <set comment="kpoint 83">
       <r>  -32.7062    1.0000 </r>
       <r>  -15.2636    1.0000 </r>
       <r>  -15.2581    1.0000 </r>
       <r>  -15.2337    1.0000 </r>
       <r>  -15.2308    1.0000 </r>
       <r>  -15.2281    1.0000 </r>
       <r>  -10.6980    1.0000 </r>
       <r>  -10.6559    1.0000 </r>
       <r>  -10.6167    1.0000 </r>
       <r>   -3.6111    1.0000 </r>
       <r>    2.8926    1.0000 </r>
       <r>    3.0410    1.0000 </r>
       <r>    3.5103    1.0000 </r>
       <r>    3.9967    1.0000 </r>
       <r>    4.1862    1.0000 </r>
       <r>    4.2818    1.0000 </r>
       <r>    4.6978    1.0000 </r>
       <r>    6.0994    1.0000 </r>
       <r>    7.8952    0.0000 </r>
       <r>    8.5914    0.0000 </r>
       <r>    9.0799    0.0000 </r>
       <r>    9.1081    0.0000 </r>
       <r>    9.2463    0.0000 </r>
       <r>    9.4198    0.0000 </r>
      </set>
      <set comment="kpoint 84">
       <r>  -32.7062    1.0000 </r>
       <r>  -15.2644    1.0000 </r>
       <r>  -15.2581    1.0000 </r>
       <r>  -15.2330    1.0000 </r>
       <r>  -15.2315    1.0000 </r>
       <r>  -15.2281    1.0000 </r>
       <r>  -10.6929    1.0000 </r>
       <r>  -10.6592    1.0000 </r>
       <r>  -10.6173    1.0000 </r>
       <r>   -3.5985    1.0000 </r>
       <r>    2.8692    1.0000 </r>
       <r>    3.0108    1.0000 </r>
       <r>    3.5230    1.0000 </r>
       <r>    4.0335    1.0000 </r>
       <r>    4.2111    1.0000 </r>
       <r>    4.3287    1.0000 </r>
       <r>    4.5223    1.0000 </r>
       <r>    6.1196    1.0000 </r>
       <r>    8.0864    0.0000 </r>
       <r>    8.4230    0.0000 </r>
       <r>    9.0617    0.0000 </r>
       <r>    9.1076    0.0000 </r>
       <r>    9.2719    0.0000 </r>
       <r>    9.3962    0.0000 </r>
      </set>
     </set>
    </set>
   </array>
  </eigenvalues>
  <separator name="orbital magnetization" >
   <v name="MAGDIPOLOUT">      0.00000000      0.00000000      0.00000000</v>
  </separator>
  <dos>
   <i name="efermi">      7.59340824 </i>
   <total>
    <array>
     <dimension dim="1">gridpoints</dimension>
     <dimension dim="2">spin</dimension>
     <field>energy</field>
     <field>total</field>
     <field>integrated</field>
     <set>
      <set comment="spin 1">
       <r>   -34.8193     0.0000     0.0000 </r>
       <r>   -34.6646     0.0000     0.0000 </r>
       <r>   -34.5100     0.0000     0.0000 </r>
       <r>   -34.3553     0.0000     0.0000 </r>
       <r>   -34.2007     0.0000     0.0000 </r>
       <r>   -34.0460     0.0000     0.0000 </r>
       <r>   -33.8914     0.0000     0.0000 </r>
       <r>   -33.7367     0.0000     0.0000 </r>
       <r>   -33.5821     0.0000     0.0000 </r>
       <r>   -33.4274     0.0000     0.0000 </r>
       <r>   -33.2728     0.0000     0.0000 </r>
       <r>   -33.1181     0.0000     0.0000 </r>
       <r>   -32.9635     0.0000     0.0000 </r>
       <r>   -32.8088     0.0000     0.0000 </r>
       <r>   -32.6542    12.9324     2.0000 </r>
       <r>   -32.4995     0.0000     2.0000 </r>
       <r>   -32.3449     0.0000     2.0000 </r>
       <r>   -32.1902     0.0000     2.0000 </r>
       <r>   -32.0356     0.0000     2.0000 </r>
       <r>   -31.8809     0.0000     2.0000 </r>
       <r>   -31.7263     0.0000     2.0000 </r>
       <r>   -31.5716     0.0000     2.0000 </r>
       <r>   -31.4170     0.0000     2.0000 </r>
       <r>   -31.2623     0.0000     2.0000 </r>
       <r>   -31.1077     0.0000     2.0000 </r>
       <r>   -30.9530     0.0000     2.0000 </r>
       <r>   -30.7984     0.0000     2.0000 </r>
       <r>   -30.6437     0.0000     2.0000 </r>
       <r>   -30.4891     0.0000     2.0000 </r>
       <r>   -30.3344     0.0000     2.0000 </r>
       <r>   -30.1798     0.0000     2.0000 </r>
       <r>   -30.0251     0.0000     2.0000 </r>
       <r>   -29.8705     0.0000     2.0000 </r>
       <r>   -29.7158     0.0000     2.0000 </r>
       <r>   -29.5612     0.0000     2.0000 </r>
       <r>   -29.4065     0.0000     2.0000 </r>
       <r>   -29.2519     0.0000     2.0000 </r>
       <r>   -29.0972     0.0000     2.0000 </r>
       <r>   -28.9426     0.0000     2.0000 </r>
       <r>   -28.7879     0.0000     2.0000 </r>
       <r>   -28.6333     0.0000     2.0000 </r>
       <r>   -28.4786     0.0000     2.0000 </r>
       <r>   -28.3240     0.0000     2.0000 </r>
       <r>   -28.1693     0.0000     2.0000 </r>
       <r>   -28.0147     0.0000     2.0000 </r>
       <r>   -27.8600     0.0000     2.0000 </r>
       <r>   -27.7054     0.0000     2.0000 </r>
       <r>   -27.5507     0.0000     2.0000 </r>
       <r>   -27.3961     0.0000     2.0000 </r>
       <r>   -27.2414     0.0000     2.0000 </r>
       <r>   -27.0868     0.0000     2.0000 </r>
       <r>   -26.9321     0.0000     2.0000 </r>
       <r>   -26.7775     0.0000     2.0000 </r>
       <r>   -26.6228     0.0000     2.0000 </r>
       <r>   -26.4682     0.0000     2.0000 </r>
       <r>   -26.3135     0.0000     2.0000 </r>
       <r>   -26.1589     0.0000     2.0000 </r>
       <r>   -26.0042     0.0000     2.0000 </r>
       <r>   -25.8496     0.0000     2.0000 </r>
       <r>   -25.6949     0.0000     2.0000 </r>
       <r>   -25.5403     0.0000     2.0000 </r>
       <r>   -25.3856     0.0000     2.0000 </r>
       <r>   -25.2310     0.0000     2.0000 </r>
       <r>   -25.0763     0.0000     2.0000 </r>
       <r>   -24.9216     0.0000     2.0000 </r>
       <r>   -24.7670     0.0000     2.0000 </r>
       <r>   -24.6123     0.0000     2.0000 </r>
       <r>   -24.4577     0.0000     2.0000 </r>
       <r>   -24.3030     0.0000     2.0000 </r>
       <r>   -24.1484     0.0000     2.0000 </r>
       <r>   -23.9937     0.0000     2.0000 </r>
       <r>   -23.8391     0.0000     2.0000 </r>
       <r>   -23.6844     0.0000     2.0000 </r>
       <r>   -23.5298     0.0000     2.0000 </r>
       <r>   -23.3751     0.0000     2.0000 </r>
       <r>   -23.2205     0.0000     2.0000 </r>
       <r>   -23.0658     0.0000     2.0000 </r>
       <r>   -22.9112     0.0000     2.0000 </r>
       <r>   -22.7565     0.0000     2.0000 </r>
       <r>   -22.6019     0.0000     2.0000 </r>
       <r>   -22.4472     0.0000     2.0000 </r>
       <r>   -22.2926     0.0000     2.0000 </r>
       <r>   -22.1379     0.0000     2.0000 </r>
       <r>   -21.9833     0.0000     2.0000 </r>
       <r>   -21.8286     0.0000     2.0000 </r>
       <r>   -21.6740     0.0000     2.0000 </r>
       <r>   -21.5193     0.0000     2.0000 </r>
       <r>   -21.3647     0.0000     2.0000 </r>
       <r>   -21.2100     0.0000     2.0000 </r>
       <r>   -21.0554     0.0000     2.0000 </r>
       <r>   -20.9007     0.0000     2.0000 </r>
       <r>   -20.7461     0.0000     2.0000 </r>
       <r>   -20.5914     0.0000     2.0000 </r>
       <r>   -20.4368     0.0000     2.0000 </r>
       <r>   -20.2821     0.0000     2.0000 </r>
       <r>   -20.1275     0.0000     2.0000 </r>
       <r>   -19.9728     0.0000     2.0000 </r>
       <r>   -19.8182     0.0000     2.0000 </r>
       <r>   -19.6635     0.0000     2.0000 </r>
       <r>   -19.5089     0.0000     2.0000 </r>
       <r>   -19.3542     0.0000     2.0000 </r>
       <r>   -19.1996     0.0000     2.0000 </r>
       <r>   -19.0449     0.0000     2.0000 </r>
       <r>   -18.8903     0.0000     2.0000 </r>
       <r>   -18.7356     0.0000     2.0000 </r>
       <r>   -18.5810     0.0000     2.0000 </r>
       <r>   -18.4263     0.0000     2.0000 </r>
       <r>   -18.2717     0.0000     2.0000 </r>
       <r>   -18.1170     0.0000     2.0000 </r>
       <r>   -17.9624     0.0000     2.0000 </r>
       <r>   -17.8077     0.0000     2.0000 </r>
       <r>   -17.6531     0.0000     2.0000 </r>
       <r>   -17.4984     0.0000     2.0000 </r>
       <r>   -17.3438     0.0000     2.0000 </r>
       <r>   -17.1891     0.0000     2.0000 </r>
       <r>   -17.0345     0.0000     2.0000 </r>
       <r>   -16.8798     0.0000     2.0000 </r>
       <r>   -16.7252     0.0000     2.0000 </r>
       <r>   -16.5705     0.0000     2.0000 </r>
       <r>   -16.4159     0.0000     2.0000 </r>
       <r>   -16.2612     0.0000     2.0000 </r>
       <r>   -16.1066     0.0000     2.0000 </r>
       <r>   -15.9519     0.0000     2.0000 </r>
       <r>   -15.7973     0.0000     2.0000 </r>
       <r>   -15.6426     0.0000     2.0000 </r>
       <r>   -15.4880     0.0000     2.0000 </r>
       <r>   -15.3333     0.0000     2.0000 </r>
       <r>   -15.1787    40.0686    12.0000 </r>
       <r>   -15.0240     0.0000    12.0000 </r>
       <r>   -14.8694     0.0000    12.0000 </r>
       <r>   -14.7147     0.0000    12.0000 </r>
       <r>   -14.5601     0.0000    12.0000 </r>
       <r>   -14.4054     0.0000    12.0000 </r>
       <r>   -14.2508     0.0000    12.0000 </r>
       <r>   -14.0961     0.0000    12.0000 </r>
       <r>   -13.9415     0.0000    12.0000 </r>
       <r>   -13.7868     0.0000    12.0000 </r>
       <r>   -13.6322     0.0000    12.0000 </r>
       <r>   -13.4775     0.0000    12.0000 </r>
       <r>   -13.3229     0.0000    12.0000 </r>
       <r>   -13.1682     0.0000    12.0000 </r>
       <r>   -13.0136     0.0000    12.0000 </r>
       <r>   -12.8589     0.0000    12.0000 </r>
       <r>   -12.7043     0.0000    12.0000 </r>
       <r>   -12.5496     0.0000    12.0000 </r>
       <r>   -12.3950     0.0000    12.0000 </r>
       <r>   -12.2403     0.0000    12.0000 </r>
       <r>   -12.0857     0.0000    12.0000 </r>
       <r>   -11.9310     0.0000    12.0000 </r>
       <r>   -11.7764     0.0000    12.0000 </r>
       <r>   -11.6217     0.0000    12.0000 </r>
       <r>   -11.4671     0.0000    12.0000 </r>
       <r>   -11.3124     0.0000    12.0000 </r>
       <r>   -11.1578     0.0000    12.0000 </r>
       <r>   -11.0031     0.0000    12.0000 </r>
       <r>   -10.8485     0.0000    12.0000 </r>
       <r>   -10.6938    10.2458    13.5845 </r>
       <r>   -10.5392    18.5362    18.0000 </r>
       <r>   -10.3845     0.0000    18.0000 </r>
       <r>   -10.2299     0.0000    18.0000 </r>
       <r>   -10.0752     0.0000    18.0000 </r>
       <r>    -9.9206     0.0000    18.0000 </r>
       <r>    -9.7659     0.0000    18.0000 </r>
       <r>    -9.6112     0.0000    18.0000 </r>
       <r>    -9.4566     0.0000    18.0000 </r>
       <r>    -9.3019     0.0000    18.0000 </r>
       <r>    -9.1473     0.0000    18.0000 </r>
       <r>    -8.9926     0.0000    18.0000 </r>
       <r>    -8.8380     0.0000    18.0000 </r>
       <r>    -8.6833     0.0000    18.0000 </r>
       <r>    -8.5287     0.0000    18.0000 </r>
       <r>    -8.3740     0.0000    18.0000 </r>
       <r>    -8.2194     0.0000    18.0000 </r>
       <r>    -8.0647     0.0000    18.0000 </r>
       <r>    -7.9101     0.0000    18.0000 </r>
       <r>    -7.7554     0.0000    18.0000 </r>
       <r>    -7.6008     0.0000    18.0000 </r>
       <r>    -7.4461     0.0000    18.0000 </r>
       <r>    -7.2915     0.0000    18.0000 </r>
       <r>    -7.1368     0.0000    18.0000 </r>
       <r>    -6.9822     0.0000    18.0000 </r>
       <r>    -6.8275     0.0000    18.0000 </r>
       <r>    -6.6729     0.0000    18.0000 </r>
       <r>    -6.5182     0.0000    18.0000 </r>
       <r>    -6.3636     0.0000    18.0000 </r>
       <r>    -6.2089     0.0000    18.0000 </r>
       <r>    -6.0543     0.0000    18.0000 </r>
       <r>    -5.8996     0.0000    18.0000 </r>
       <r>    -5.7450     0.0000    18.0000 </r>
       <r>    -5.5903     0.0000    18.0000 </r>
       <r>    -5.4357     0.0000    18.0000 </r>
       <r>    -5.2810     0.0000    18.0000 </r>
       <r>    -5.1264     0.0000    18.0000 </r>
       <r>    -4.9717     0.0000    18.0000 </r>
       <r>    -4.8171     0.0000    18.0000 </r>
       <r>    -4.6624     0.0000    18.0000 </r>
       <r>    -4.5078     0.0000    18.0000 </r>
       <r>    -4.3531     0.0000    18.0000 </r>
       <r>    -4.1985     0.0637    18.0099 </r>
       <r>    -4.0438     0.1952    18.0548 </r>
       <r>    -3.8892     0.3070    18.1503 </r>
       <r>    -3.7345     0.7180    18.3250 </r>
       <r>    -3.5799     3.6200    19.2235 </r>
       <r>    -3.4252     1.2060    19.9826 </r>
       <r>    -3.2706     0.0000    20.0000 </r>
       <r>    -3.1159     0.0000    20.0000 </r>
       <r>    -2.9613     0.0000    20.0000 </r>
       <r>    -2.8066     0.0000    20.0000 </r>
       <r>    -2.6520     0.0000    20.0000 </r>
       <r>    -2.4973     0.0000    20.0000 </r>
       <r>    -2.3427     0.0000    20.0000 </r>
       <r>    -2.1880     0.0000    20.0000 </r>
       <r>    -2.0334     0.0000    20.0000 </r>
       <r>    -1.8787     0.0000    20.0000 </r>
       <r>    -1.7241     0.0000    20.0000 </r>
       <r>    -1.5694     0.0000    20.0000 </r>
       <r>    -1.4148     0.0000    20.0000 </r>
       <r>    -1.2601     0.0000    20.0000 </r>
       <r>    -1.1055     0.0000    20.0000 </r>
       <r>    -0.9508     0.0000    20.0000 </r>
       <r>    -0.7962     0.0000    20.0000 </r>
       <r>    -0.6415     0.0000    20.0000 </r>
       <r>    -0.4869     0.0000    20.0000 </r>
       <r>    -0.3322     0.0000    20.0000 </r>
       <r>    -0.1776     0.0000    20.0000 </r>
       <r>    -0.0229     0.0000    20.0000 </r>
       <r>     0.1317     0.0000    20.0000 </r>
       <r>     0.2864     0.0000    20.0000 </r>
       <r>     0.4410     0.0000    20.0000 </r>
       <r>     0.5957     0.0000    20.0000 </r>
       <r>     0.7503     0.0000    20.0000 </r>
       <r>     0.9050     0.0000    20.0000 </r>
       <r>     1.0596     0.0000    20.0000 </r>
       <r>     1.2143     0.0000    20.0000 </r>
       <r>     1.3689     0.0000    20.0000 </r>
       <r>     1.5236     0.0000    20.0000 </r>
       <r>     1.6782     0.0000    20.0000 </r>
       <r>     1.8329     0.0000    20.0000 </r>
       <r>     1.9875     0.1879    20.0291 </r>
       <r>     2.1422     0.7734    20.1924 </r>
       <r>     2.2968     2.9639    20.7570 </r>
       <r>     2.4515     0.6331    21.1029 </r>
       <r>     2.6061     0.6533    21.4501 </r>
       <r>     2.7608     1.3539    21.7223 </r>
       <r>     2.9154     0.8998    21.9161 </r>
       <r>     3.0701     2.4833    22.3522 </r>
       <r>     3.2247     2.9427    23.5994 </r>
       <r>     3.3794     3.4493    24.5389 </r>
       <r>     3.5340     3.0545    25.4282 </r>
       <r>     3.6887     0.9183    26.0109 </r>
       <r>     3.8433     0.3189    26.0985 </r>
       <r>     3.9980     8.1709    27.4457 </r>
       <r>     4.1526     6.5117    29.4012 </r>
       <r>     4.3073     2.9678    30.6319 </r>
       <r>     4.4619     2.5227    31.3788 </r>
       <r>     4.6166     0.8372    31.6588 </r>
       <r>     4.7712     1.0172    31.9233 </r>
       <r>     4.9259     0.4667    32.0949 </r>
       <r>     5.0805     1.3716    32.4552 </r>
       <r>     5.2352     0.7765    32.6308 </r>
       <r>     5.3898     1.2140    33.0061 </r>
       <r>     5.5445     0.6900    33.1882 </r>
       <r>     5.6992     1.6656    33.5466 </r>
       <r>     5.8538     0.2449    33.6546 </r>
       <r>     6.0085     6.1522    35.0051 </r>
       <r>     6.1631     1.3969    35.7882 </r>
       <r>     6.3178     0.4945    35.9254 </r>
       <r>     6.4724     0.0706    35.9727 </r>
       <r>     6.6271     0.1033    35.9996 </r>
       <r>     6.7817     0.0471    36.0082 </r>
       <r>     6.9364     0.0824    36.0282 </r>
       <r>     7.0910     0.0471    36.0464 </r>
       <r>     7.2457     0.5631    36.1772 </r>
       <r>     7.4003     0.7291    36.3485 </r>
       <r>     7.5550     1.5976    36.8269 </r>
       <r>     7.7096     1.4390    37.3978 </r>
       <r>     7.8643     1.0975    37.8092 </r>
       <r>     8.0189     0.7241    38.1420 </r>
       <r>     8.1736     0.5131    38.3279 </r>
       <r>     8.3282     0.9009    38.4734 </r>
       <r>     8.4829     1.5016    38.7739 </r>
       <r>     8.6375     2.8864    39.4632 </r>
       <r>     8.7922     2.9446    40.3562 </r>
       <r>     8.9468     2.1364    40.9431 </r>
       <r>     9.1015     5.3195    42.1818 </r>
       <r>     9.2561     8.5509    44.3383 </r>
       <r>     9.4108     5.1042    46.8003 </r>
       <r>     9.5654     0.0000    48.0000 </r>
       <r>     9.7201     0.0000    48.0000 </r>
       <r>     9.8747     0.0000    48.0000 </r>
       <r>    10.0294     0.0000    48.0000 </r>
       <r>    10.1840     0.0000    48.0000 </r>
       <r>    10.3387     0.0000    48.0000 </r>
       <r>    10.4933     0.0000    48.0000 </r>
       <r>    10.6480     0.0000    48.0000 </r>
       <r>    10.8026     0.0000    48.0000 </r>
       <r>    10.9573     0.0000    48.0000 </r>
       <r>    11.1119     0.0000    48.0000 </r>
       <r>    11.2666     0.0000    48.0000 </r>
       <r>    11.4212     0.0000    48.0000 </r>
       <r>    11.5759     0.0000    48.0000 </r>
      </set>
     </set>
    </array>
   </total>
  </dos>
 </calculation>
 <structure name="finalpos" >
  <crystal>
   <varray name="basis" >
    <v>       0.00000000       3.51385591       3.51385591 </v>
    <v>       3.51385591       0.00000000       3.51385591 </v>
    <v>       3.51385591       3.51385591       0.00000000 </v>
   </varray>
   <i name="volume">     86.77244615 </i>
   <varray name="rec_basis" >
    <v>      -0.14229383       0.14229383       0.14229383 </v>
    <v>       0.14229383      -0.14229383       0.14229383 </v>
    <v>       0.14229383       0.14229383      -0.14229383 </v>
   </varray>
  </crystal>
  <varray name="positions" >
   <v>       0.25000000       0.25000000       0.25000000 </v>
   <v>       0.75000000       0.75000000       0.75000000 </v>
   <v>       0.00000000       0.00000000       0.00000000 </v>
  </varray>
 </structure>
</modeling>
