   2   2   1   0
  0.8698975E+01  0.2908513E-09  0.2908513E-09  0.2908513E-09  0.0000000E+00
   1.0000000000000000E-004
  CAR 
 unknown system                          
     42.33192097    -15.74737428  301      6.84551826      1.00000000
    -15.747  0.0000E+00  0.0000E+00  0.0000E+00  0.0000E+00
    -15.554  0.0000E+00  0.0000E+00  0.0000E+00  0.0000E+00
    -15.360  0.0000E+00  0.0000E+00  0.0000E+00  0.0000E+00
    -15.167  0.0000E+00  0.0000E+00  0.0000E+00  0.0000E+00
    -14.973  0.0000E+00  0.0000E+00  0.0000E+00  0.0000E+00
    -14.779  0.0000E+00  0.0000E+00  0.0000E+00  0.0000E+00
    -14.586  0.0000E+00  0.0000E+00  0.0000E+00  0.0000E+00
    -14.392  0.0000E+00  0.0000E+00  0.0000E+00  0.0000E+00
    -14.199  0.0000E+00  0.0000E+00  0.0000E+00  0.0000E+00
    -14.005  0.0000E+00  0.0000E+00  0.0000E+00  0.0000E+00
    -13.811  0.0000E+00  0.0000E+00  0.0000E+00  0.0000E+00
    -13.618  0.0000E+00  0.0000E+00  0.0000E+00  0.0000E+00
    -13.424  0.0000E+00  0.0000E+00  0.0000E+00  0.0000E+00
    -13.231  0.0000E+00  0.0000E+00  0.0000E+00  0.0000E+00
    -13.037  0.4804E-01  0.4829E-01  0.1762E-02  0.1786E-02
    -12.843  0.1318E+00  0.1319E+00  0.1703E-01  0.1709E-01
    -12.650  0.1592E+00  0.1594E+00  0.4274E-01  0.4282E-01
    -12.456  0.2299E+00  0.2301E+00  0.7913E-01  0.7925E-01
    -12.263  0.3008E+00  0.3011E+00  0.1286E+00  0.1287E+00
    -12.069  0.4139E+00  0.4144E+00  0.1963E+00  0.1966E+00
    -11.875  0.6324E+00  0.6336E+00  0.2942E+00  0.2946E+00
    -11.682  0.1384E+01  0.1388E+01  0.4589E+00  0.4597E+00
    -11.488  0.4740E+01  0.4746E+01  0.9075E+00  0.9097E+00
    -11.295  0.2267E+00  0.2267E+00  0.1000E+01  0.1000E+01
    -11.101  0.0000E+00  0.0000E+00  0.1000E+01  0.1000E+01
    -10.907  0.0000E+00  0.0000E+00  0.1000E+01  0.1000E+01
    -10.714  0.0000E+00  0.0000E+00  0.1000E+01  0.1000E+01
    -10.520  0.0000E+00  0.0000E+00  0.1000E+01  0.1000E+01
    -10.327  0.0000E+00  0.0000E+00  0.1000E+01  0.1000E+01
    -10.133  0.0000E+00  0.0000E+00  0.1000E+01  0.1000E+01
     -9.939  0.0000E+00  0.0000E+00  0.1000E+01  0.1000E+01
     -9.746  0.0000E+00  0.0000E+00  0.1000E+01  0.1000E+01
     -9.552  0.0000E+00  0.0000E+00  0.1000E+01  0.1000E+01
     -9.359  0.0000E+00  0.0000E+00  0.1000E+01  0.1000E+01
     -9.165  0.0000E+00  0.0000E+00  0.1000E+01  0.1000E+01
     -8.971  0.0000E+00  0.0000E+00  0.1000E+01  0.1000E+01
     -8.778  0.0000E+00  0.0000E+00  0.1000E+01  0.1000E+01
     -8.584  0.0000E+00  0.0000E+00  0.1000E+01  0.1000E+01
     -8.391  0.0000E+00  0.0000E+00  0.1000E+01  0.1000E+01
     -8.197  0.0000E+00  0.0000E+00  0.1000E+01  0.1000E+01
     -8.003  0.0000E+00  0.0000E+00  0.1000E+01  0.1000E+01
     -7.810  0.0000E+00  0.0000E+00  0.1000E+01  0.1000E+01
     -7.616  0.0000E+00  0.0000E+00  0.1000E+01  0.1000E+01
     -7.423  0.0000E+00  0.0000E+00  0.1000E+01  0.1000E+01
     -7.229  0.0000E+00  0.0000E+00  0.1000E+01  0.1000E+01
     -7.035  0.0000E+00  0.0000E+00  0.1000E+01  0.1000E+01
     -6.842  0.0000E+00  0.0000E+00  0.1000E+01  0.1000E+01
     -6.648  0.0000E+00  0.0000E+00  0.1000E+01  0.1000E+01
     -6.455  0.0000E+00  0.0000E+00  0.1000E+01  0.1000E+01
     -6.261  0.0000E+00  0.0000E+00  0.1000E+01  0.1000E+01
     -6.067  0.0000E+00  0.0000E+00  0.1000E+01  0.1000E+01
     -5.874  0.0000E+00  0.0000E+00  0.1000E+01  0.1000E+01
     -5.680  0.0000E+00  0.0000E+00  0.1000E+01  0.1000E+01
     -5.487  0.0000E+00  0.0000E+00  0.1000E+01  0.1000E+01
     -5.293  0.0000E+00  0.0000E+00  0.1000E+01  0.1000E+01
     -5.100  0.0000E+00  0.0000E+00  0.1000E+01  0.1000E+01
     -4.906  0.0000E+00  0.0000E+00  0.1000E+01  0.1000E+01
     -4.712  0.0000E+00  0.0000E+00  0.1000E+01  0.1000E+01
     -4.519  0.0000E+00  0.0000E+00  0.1000E+01  0.1000E+01
     -4.325  0.0000E+00  0.0000E+00  0.1000E+01  0.1000E+01
     -4.132  0.0000E+00  0.0000E+00  0.1000E+01  0.1000E+01
     -3.938  0.0000E+00  0.0000E+00  0.1000E+01  0.1000E+01
     -3.744  0.0000E+00  0.0000E+00  0.1000E+01  0.1000E+01
     -3.551  0.0000E+00  0.0000E+00  0.1000E+01  0.1000E+01
     -3.357  0.0000E+00  0.0000E+00  0.1000E+01  0.1000E+01
     -3.164  0.0000E+00  0.0000E+00  0.1000E+01  0.1000E+01
     -2.970  0.0000E+00  0.0000E+00  0.1000E+01  0.1000E+01
     -2.776  0.0000E+00  0.0000E+00  0.1000E+01  0.1000E+01
     -2.583  0.0000E+00  0.0000E+00  0.1000E+01  0.1000E+01
     -2.389  0.0000E+00  0.0000E+00  0.1000E+01  0.1000E+01
     -2.196  0.0000E+00  0.0000E+00  0.1000E+01  0.1000E+01
     -2.002  0.0000E+00  0.0000E+00  0.1000E+01  0.1000E+01
     -1.808  0.0000E+00  0.0000E+00  0.1000E+01  0.1000E+01
     -1.615  0.0000E+00  0.0000E+00  0.1000E+01  0.1000E+01
     -1.421  0.0000E+00  0.0000E+00  0.1000E+01  0.1000E+01
     -1.228  0.0000E+00  0.0000E+00  0.1000E+01  0.1000E+01
     -1.034  0.9995E-01  0.1001E+00  0.1006E+01  0.1006E+01
     -0.840  0.1642E+00  0.1644E+00  0.1031E+01  0.1031E+01
     -0.647  0.2353E+00  0.2355E+00  0.1069E+01  0.1069E+01
     -0.453  0.3250E+00  0.3252E+00  0.1123E+01  0.1123E+01
     -0.260  0.4715E+00  0.4721E+00  0.1198E+01  0.1198E+01
     -0.066  0.7505E+00  0.7502E+00  0.1319E+01  0.1319E+01
      0.128  0.9765E+00  0.9769E+00  0.1473E+01  0.1474E+01
      0.321  0.9860E+00  0.9855E+00  0.1663E+01  0.1663E+01
      0.515  0.6821E+00  0.6800E+00  0.1806E+01  0.1806E+01
      0.708  0.2439E+00  0.2435E+00  0.1877E+01  0.1877E+01
      0.902  0.3557E+00  0.3567E+00  0.1921E+01  0.1922E+01
      1.096  0.1116E+01  0.1119E+01  0.2049E+01  0.2049E+01
      1.289  0.1862E+01  0.1873E+01  0.2304E+01  0.2305E+01
      1.483  0.2859E+01  0.2867E+01  0.2636E+01  0.2639E+01
      1.676  0.1970E+01  0.1861E+01  0.3036E+01  0.3038E+01
      1.870  0.1092E+01  0.1091E+01  0.3279E+01  0.3280E+01
      2.064  0.9029E+00  0.9020E+00  0.3470E+01  0.3471E+01
      2.257  0.7222E+00  0.7214E+00  0.3626E+01  0.3626E+01
      2.451  0.6137E+00  0.6131E+00  0.3753E+01  0.3753E+01
      2.644  0.4535E+00  0.4529E+00  0.3856E+01  0.3857E+01
      2.838  0.3051E+00  0.3043E+00  0.3931E+01  0.3931E+01
      3.032  0.1708E+00  0.1706E+00  0.3973E+01  0.3973E+01
      3.225  0.2664E+00  0.2668E+00  0.4010E+01  0.4011E+01
      3.419  0.5632E+00  0.5716E+00  0.4086E+01  0.4086E+01
      3.612  0.1077E+01  0.1077E+01  0.4239E+01  0.4239E+01
      3.806  0.1489E+01  0.1492E+01  0.4455E+01  0.4456E+01
      4.000  0.2779E+01  0.2783E+01  0.4790E+01  0.4791E+01
      4.193  0.5856E+01  0.5927E+01  0.5426E+01  0.5428E+01
      4.387  0.2759E+01  0.2676E+01  0.6013E+01  0.6013E+01
      4.580  0.2478E+01  0.2483E+01  0.6241E+01  0.6242E+01
      4.774  0.3670E+01  0.3661E+01  0.6852E+01  0.6853E+01
      4.968  0.8993E+00  0.9052E+00  0.7064E+01  0.7065E+01
      5.161  0.8708E+00  0.8754E+00  0.7201E+01  0.7202E+01
      5.355  0.1164E+01  0.1167E+01  0.7393E+01  0.7395E+01
      5.548  0.7826E+00  0.7811E+00  0.7572E+01  0.7574E+01
      5.742  0.7020E+00  0.7021E+00  0.7712E+01  0.7713E+01
      5.936  0.7249E+00  0.7247E+00  0.7851E+01  0.7852E+01
      6.129  0.7745E+00  0.7742E+00  0.7994E+01  0.7995E+01
      6.323  0.7330E+00  0.7323E+00  0.8139E+01  0.8140E+01
      6.516  0.7000E+00  0.6998E+00  0.8276E+01  0.8277E+01
      6.710  0.6704E+00  0.6703E+00  0.8409E+01  0.8410E+01
      6.904  0.6677E+00  0.6674E+00  0.8539E+01  0.8539E+01
      7.097  0.6405E+00  0.6404E+00  0.8665E+01  0.8666E+01
      7.291  0.6599E+00  0.6592E+00  0.8792E+01  0.8793E+01
      7.484  0.6950E+00  0.7058E+00  0.8917E+01  0.8918E+01
      7.678  0.1659E+00  0.1291E+00  0.9000E+01  0.9000E+01
      7.872  0.0000E+00  0.0000E+00  0.9000E+01  0.9000E+01
      8.065  0.0000E+00  0.0000E+00  0.9000E+01  0.9000E+01
      8.259  0.0000E+00  0.0000E+00  0.9000E+01  0.9000E+01
      8.452  0.0000E+00  0.0000E+00  0.9000E+01  0.9000E+01
      8.646  0.0000E+00  0.0000E+00  0.9000E+01  0.9000E+01
      8.840  0.0000E+00  0.0000E+00  0.9000E+01  0.9000E+01
      9.033  0.0000E+00  0.0000E+00  0.9000E+01  0.9000E+01
      9.227  0.0000E+00  0.0000E+00  0.9000E+01  0.9000E+01
      9.420  0.1310E-02  0.1316E-02  0.9000E+01  0.9000E+01
      9.614  0.6126E-02  0.6128E-02  0.9001E+01  0.9001E+01
      9.808  0.8968E-02  0.8974E-02  0.9002E+01  0.9002E+01
     10.001  0.1217E-01  0.1218E-01  0.9004E+01  0.9004E+01
     10.195  0.1477E-01  0.1477E-01  0.9007E+01  0.9007E+01
     10.388  0.1778E-01  0.1779E-01  0.9010E+01  0.9010E+01
     10.582  0.2098E-01  0.2099E-01  0.9014E+01  0.9014E+01
     10.776  0.2444E-01  0.2444E-01  0.9018E+01  0.9018E+01
     10.969  0.2812E-01  0.2813E-01  0.9023E+01  0.9023E+01
     11.163  0.3202E-01  0.3203E-01  0.9029E+01  0.9029E+01
     11.356  0.3645E-01  0.3646E-01  0.9036E+01  0.9036E+01
     11.550  0.4139E-01  0.4140E-01  0.9043E+01  0.9043E+01
     11.743  0.4673E-01  0.4674E-01  0.9052E+01  0.9052E+01
     11.937  0.5245E-01  0.5246E-01  0.9061E+01  0.9061E+01
     12.131  0.5933E-01  0.5934E-01  0.9072E+01  0.9072E+01
     12.324  0.6718E-01  0.6720E-01  0.9084E+01  0.9085E+01
     12.518  0.7606E-01  0.7607E-01  0.9098E+01  0.9098E+01
     12.711  0.8605E-01  0.8607E-01  0.9114E+01  0.9114E+01
     12.905  0.9958E-01  0.9961E-01  0.9132E+01  0.9132E+01
     13.099  0.1167E+00  0.1168E+00  0.9153E+01  0.9153E+01
     13.292  0.1452E+00  0.1452E+00  0.9178E+01  0.9178E+01
     13.486  0.2018E+00  0.2018E+00  0.9212E+01  0.9212E+01
     13.679  0.2038E+00  0.2039E+00  0.9250E+01  0.9250E+01
     13.873  0.2622E+00  0.2623E+00  0.9296E+01  0.9296E+01
     14.067  0.3329E+00  0.3329E+00  0.9353E+01  0.9353E+01
     14.260  0.3383E+00  0.3383E+00  0.9417E+01  0.9417E+01
     14.454  0.3222E+00  0.3222E+00  0.9480E+01  0.9480E+01
     14.647  0.3137E+00  0.3137E+00  0.9542E+01  0.9542E+01
     14.841  0.3020E+00  0.3019E+00  0.9602E+01  0.9602E+01
     15.035  0.2905E+00  0.2905E+00  0.9659E+01  0.9659E+01
     15.228  0.2764E+00  0.2764E+00  0.9714E+01  0.9714E+01
     15.422  0.2625E+00  0.2624E+00  0.9766E+01  0.9766E+01
     15.615  0.2463E+00  0.2462E+00  0.9815E+01  0.9815E+01
     15.809  0.2366E+00  0.2366E+00  0.9862E+01  0.9862E+01
     16.003  0.2402E+00  0.2402E+00  0.9908E+01  0.9908E+01
     16.196  0.2495E+00  0.2494E+00  0.9957E+01  0.9957E+01
     16.390  0.1134E+00  0.1130E+00  0.9995E+01  0.9995E+01
     16.583  0.0000E+00  0.0000E+00  0.1000E+02  0.1000E+02
     16.777  0.3554E-02  0.3631E-02  0.1000E+02  0.1000E+02
     16.971  0.3312E+00  0.3313E+00  0.1003E+02  0.1003E+02
     17.164  0.3308E+00  0.3309E+00  0.1010E+02  0.1010E+02
     17.358  0.3920E+00  0.3921E+00  0.1017E+02  0.1017E+02
     17.551  0.4508E+00  0.4508E+00  0.1025E+02  0.1025E+02
     17.745  0.5817E+00  0.5810E+00  0.1034E+02  0.1034E+02
     17.939  0.4187E+00  0.4186E+00  0.1043E+02  0.1043E+02
     18.132  0.4725E+00  0.4728E+00  0.1051E+02  0.1051E+02
     18.326  0.4612E+00  0.4614E+00  0.1060E+02  0.1060E+02
     18.519  0.1146E+01  0.1144E+01  0.1078E+02  0.1079E+02
     18.713  0.6910E+00  0.6909E+00  0.1092E+02  0.1092E+02
     18.907  0.6137E+00  0.6136E+00  0.1105E+02  0.1105E+02
     19.100  0.5682E+00  0.5681E+00  0.1116E+02  0.1116E+02
     19.294  0.4815E+00  0.4814E+00  0.1126E+02  0.1126E+02
     19.487  0.3863E+00  0.3862E+00  0.1135E+02  0.1135E+02
     19.681  0.3308E+00  0.3308E+00  0.1141E+02  0.1141E+02
     19.875  0.2957E+00  0.2957E+00  0.1148E+02  0.1148E+02
     20.068  0.2558E+00  0.2558E+00  0.1153E+02  0.1153E+02
     20.262  0.2318E+00  0.2318E+00  0.1158E+02  0.1158E+02
     20.455  0.2126E+00  0.2126E+00  0.1162E+02  0.1162E+02
     20.649  0.1916E+00  0.1916E+00  0.1166E+02  0.1166E+02
     20.843  0.1774E+00  0.1774E+00  0.1169E+02  0.1169E+02
     21.036  0.1656E+00  0.1656E+00  0.1173E+02  0.1173E+02
     21.230  0.1529E+00  0.1529E+00  0.1176E+02  0.1176E+02
     21.423  0.1437E+00  0.1438E+00  0.1179E+02  0.1179E+02
     21.617  0.1559E+00  0.1559E+00  0.1182E+02  0.1182E+02
     21.811  0.1614E+00  0.1615E+00  0.1185E+02  0.1185E+02
     22.004  0.2383E+00  0.2384E+00  0.1189E+02  0.1189E+02
     22.198  0.3117E+00  0.3117E+00  0.1194E+02  0.1194E+02
     22.391  0.4192E+00  0.4193E+00  0.1201E+02  0.1201E+02
     22.585  0.6409E+00  0.6409E+00  0.1211E+02  0.1211E+02
     22.779  0.6164E+00  0.6164E+00  0.1223E+02  0.1223E+02
     22.972  0.6309E+00  0.6309E+00  0.1235E+02  0.1235E+02
     23.166  0.4757E+00  0.4756E+00  0.1246E+02  0.1246E+02
     23.359  0.4098E+00  0.4097E+00  0.1254E+02  0.1254E+02
     23.553  0.3727E+00  0.3727E+00  0.1262E+02  0.1262E+02
     23.747  0.3513E+00  0.3513E+00  0.1269E+02  0.1269E+02
     23.940  0.3290E+00  0.3290E+00  0.1275E+02  0.1275E+02
     24.134  0.3174E+00  0.3175E+00  0.1282E+02  0.1282E+02
     24.327  0.2336E+00  0.2335E+00  0.1287E+02  0.1287E+02
     24.521  0.1800E+00  0.1800E+00  0.1291E+02  0.1291E+02
     24.715  0.1958E+00  0.1958E+00  0.1295E+02  0.1295E+02
     24.908  0.1949E+00  0.1949E+00  0.1298E+02  0.1298E+02
     25.102  0.1848E+00  0.1848E+00  0.1302E+02  0.1302E+02
     25.295  0.1804E+00  0.1804E+00  0.1306E+02  0.1306E+02
     25.489  0.1862E+00  0.1862E+00  0.1309E+02  0.1309E+02
     25.683  0.1841E+00  0.1841E+00  0.1313E+02  0.1313E+02
     25.876  0.1928E+00  0.1928E+00  0.1316E+02  0.1316E+02
     26.070  0.1663E+00  0.1662E+00  0.1320E+02  0.1320E+02
     26.263  0.1566E+00  0.1566E+00  0.1323E+02  0.1323E+02
     26.457  0.1623E+00  0.1623E+00  0.1326E+02  0.1326E+02
     26.651  0.1845E+00  0.1845E+00  0.1330E+02  0.1330E+02
     26.844  0.1860E+00  0.1860E+00  0.1333E+02  0.1333E+02
     27.038  0.1940E+00  0.1940E+00  0.1337E+02  0.1337E+02
     27.231  0.1995E+00  0.1995E+00  0.1341E+02  0.1341E+02
     27.425  0.2061E+00  0.2061E+00  0.1344E+02  0.1344E+02
     27.618  0.2213E+00  0.2213E+00  0.1349E+02  0.1349E+02
     27.812  0.2250E+00  0.2250E+00  0.1353E+02  0.1353E+02
     28.006  0.2024E+00  0.2024E+00  0.1357E+02  0.1357E+02
     28.199  0.2127E+00  0.2127E+00  0.1361E+02  0.1361E+02
     28.393  0.2085E+00  0.2085E+00  0.1365E+02  0.1365E+02
     28.586  0.2502E+00  0.2502E+00  0.1369E+02  0.1369E+02
     28.780  0.2867E+00  0.2867E+00  0.1375E+02  0.1375E+02
     28.974  0.3177E+00  0.3177E+00  0.1380E+02  0.1380E+02
     29.167  0.3101E+00  0.3101E+00  0.1387E+02  0.1387E+02
     29.361  0.2742E+00  0.2741E+00  0.1392E+02  0.1392E+02
     29.554  0.2185E+00  0.2185E+00  0.1397E+02  0.1397E+02
     29.748  0.1933E+00  0.1933E+00  0.1401E+02  0.1401E+02
     29.942  0.1823E+00  0.1824E+00  0.1405E+02  0.1405E+02
     30.135  0.2043E+00  0.2043E+00  0.1408E+02  0.1408E+02
     30.329  0.2405E+00  0.2405E+00  0.1413E+02  0.1413E+02
     30.522  0.2669E+00  0.2670E+00  0.1418E+02  0.1418E+02
     30.716  0.2878E+00  0.2878E+00  0.1423E+02  0.1423E+02
     30.910  0.3122E+00  0.3122E+00  0.1429E+02  0.1429E+02
     31.103  0.3497E+00  0.3498E+00  0.1435E+02  0.1435E+02
     31.297  0.3707E+00  0.3706E+00  0.1442E+02  0.1442E+02
     31.490  0.3805E+00  0.3805E+00  0.1450E+02  0.1450E+02
     31.684  0.3320E+00  0.3320E+00  0.1456E+02  0.1457E+02
     31.878  0.3253E+00  0.3253E+00  0.1463E+02  0.1463E+02
     32.071  0.3374E+00  0.3374E+00  0.1469E+02  0.1469E+02
     32.265  0.3219E+00  0.3219E+00  0.1476E+02  0.1476E+02
     32.458  0.3112E+00  0.3112E+00  0.1482E+02  0.1482E+02
     32.652  0.3130E+00  0.3130E+00  0.1488E+02  0.1488E+02
     32.846  0.3148E+00  0.3148E+00  0.1494E+02  0.1494E+02
     33.039  0.3111E+00  0.3111E+00  0.1500E+02  0.1500E+02
     33.233  0.2627E+00  0.2626E+00  0.1506E+02  0.1506E+02
     33.426  0.2475E+00  0.2474E+00  0.1511E+02  0.1511E+02
     33.620  0.2245E+00  0.2245E+00  0.1515E+02  0.1515E+02
     33.814  0.2131E+00  0.2130E+00  0.1519E+02  0.1519E+02
     34.007  0.2048E+00  0.2048E+00  0.1523E+02  0.1523E+02
     34.201  0.1974E+00  0.1974E+00  0.1527E+02  0.1527E+02
     34.394  0.1888E+00  0.1889E+00  0.1531E+02  0.1531E+02
     34.588  0.1800E+00  0.1801E+00  0.1535E+02  0.1535E+02
     34.782  0.1714E+00  0.1714E+00  0.1538E+02  0.1538E+02
     34.975  0.1615E+00  0.1615E+00  0.1541E+02  0.1541E+02
     35.169  0.1524E+00  0.1524E+00  0.1544E+02  0.1544E+02
     35.362  0.1453E+00  0.1454E+00  0.1547E+02  0.1547E+02
     35.556  0.1400E+00  0.1401E+00  0.1550E+02  0.1550E+02
     35.750  0.1355E+00  0.1357E+00  0.1552E+02  0.1552E+02
     35.943  0.1306E+00  0.1307E+00  0.1555E+02  0.1555E+02
     36.137  0.1269E+00  0.1271E+00  0.1558E+02  0.1558E+02
     36.330  0.1293E+00  0.1296E+00  0.1560E+02  0.1560E+02
     36.524  0.2053E+00  0.2050E+00  0.1563E+02  0.1563E+02
     36.718  0.1186E+00  0.1186E+00  0.1566E+02  0.1566E+02
     36.911  0.1106E+00  0.1114E+00  0.1568E+02  0.1568E+02
     37.105  0.2773E+00  0.2787E+00  0.1572E+02  0.1572E+02
     37.298  0.3493E+00  0.3494E+00  0.1579E+02  0.1579E+02
     37.492  0.2722E+00  0.2743E+00  0.1585E+02  0.1585E+02
     37.686  0.2174E+00  0.2098E+00  0.1589E+02  0.1589E+02
     37.879  0.2254E+00  0.2256E+00  0.1593E+02  0.1593E+02
     38.073  0.1805E+00  0.1802E+00  0.1598E+02  0.1598E+02
     38.266  0.3201E-01  0.3071E-01  0.1600E+02  0.1600E+02
     38.460  0.4775E-02  0.4771E-02  0.1600E+02  0.1600E+02
     38.654  0.3096E-02  0.3095E-02  0.1600E+02  0.1600E+02
     38.847  0.2049E-02  0.2048E-02  0.1600E+02  0.1600E+02
     39.041  0.1218E-02  0.1216E-02  0.1600E+02  0.1600E+02
     39.234  0.6013E-03  0.5994E-03  0.1600E+02  0.1600E+02
     39.428  0.2001E-03  0.1988E-03  0.1600E+02  0.1600E+02
     39.622  0.1423E-04  0.1380E-04  0.1600E+02  0.1600E+02
     39.815  0.0000E+00  0.0000E+00  0.1600E+02  0.1600E+02
     40.009  0.0000E+00  0.0000E+00  0.1600E+02  0.1600E+02
     40.202  0.0000E+00  0.0000E+00  0.1600E+02  0.1600E+02
     40.396  0.0000E+00  0.0000E+00  0.1600E+02  0.1600E+02
     40.590  0.0000E+00  0.0000E+00  0.1600E+02  0.1600E+02
     40.783  0.0000E+00  0.0000E+00  0.1600E+02  0.1600E+02
     40.977  0.0000E+00  0.0000E+00  0.1600E+02  0.1600E+02
     41.170  0.0000E+00  0.0000E+00  0.1600E+02  0.1600E+02
     41.364  0.0000E+00  0.0000E+00  0.1600E+02  0.1600E+02
     41.558  0.0000E+00  0.0000E+00  0.1600E+02  0.1600E+02
     41.751  0.0000E+00  0.0000E+00  0.1600E+02  0.1600E+02
     41.945  0.0000E+00  0.0000E+00  0.1600E+02  0.1600E+02
     42.138  0.0000E+00  0.0000E+00  0.1600E+02  0.1600E+02
     42.332  0.0000E+00  0.0000E+00  0.1600E+02  0.1600E+02
     42.33192097    -15.74737428  301      6.84551826      1.00000000
    -15.747  0.0000E+00  0.0000E+00  0.0000E+00  0.0000E+00  0.0000E+00  0.0000E+00  0.0000E+00  0.0000E+00  0.0000E+00  0.0000E+00  0.0000E+00  0.0000E+00  0.0000E+00  0.0000E+00  0.0000E+00  0.0000E+00  0.0000E+00  0.0000E+00
    -15.554  0.0000E+00  0.0000E+00  0.0000E+00  0.0000E+00  0.0000E+00  0.0000E+00  0.0000E+00  0.0000E+00  0.0000E+00  0.0000E+00  0.0000E+00  0.0000E+00  0.0000E+00  0.0000E+00  0.0000E+00  0.0000E+00  0.0000E+00  0.0000E+00
    -15.360  0.0000E+00  0.0000E+00  0.0000E+00  0.0000E+00  0.0000E+00  0.0000E+00  0.0000E+00  0.0000E+00  0.0000E+00  0.0000E+00  0.0000E+00  0.0000E+00  0.0000E+00  0.0000E+00  0.0000E+00  0.0000E+00  0.0000E+00  0.0000E+00
    -15.167  0.0000E+00  0.0000E+00  0.0000E+00  0.0000E+00  0.0000E+00  0.0000E+00  0.0000E+00  0.0000E+00  0.0000E+00  0.0000E+00  0.0000E+00  0.0000E+00  0.0000E+00  0.0000E+00  0.0000E+00  0.0000E+00  0.0000E+00  0.0000E+00
    -14.973  0.0000E+00  0.0000E+00  0.0000E+00  0.0000E+00  0.0000E+00  0.0000E+00  0.0000E+00  0.0000E+00  0.0000E+00  0.0000E+00  0.0000E+00  0.0000E+00  0.0000E+00  0.0000E+00  0.0000E+00  0.0000E+00  0.0000E+00  0.0000E+00
    -14.779  0.0000E+00  0.0000E+00  0.0000E+00  0.0000E+00  0.0000E+00  0.0000E+00  0.0000E+00  0.0000E+00  0.0000E+00  0.0000E+00  0.0000E+00  0.0000E+00  0.0000E+00  0.0000E+00  0.0000E+00  0.0000E+00  0.0000E+00  0.0000E+00
    -14.586  0.0000E+00  0.0000E+00  0.0000E+00  0.0000E+00  0.0000E+00  0.0000E+00  0.0000E+00  0.0000E+00  0.0000E+00  0.0000E+00  0.0000E+00  0.0000E+00  0.0000E+00  0.0000E+00  0.0000E+00  0.0000E+00  0.0000E+00  0.0000E+00
    -14.392  0.0000E+00  0.0000E+00  0.0000E+00  0.0000E+00  0.0000E+00  0.0000E+00  0.0000E+00  0.0000E+00  0.0000E+00  0.0000E+00  0.0000E+00  0.0000E+00  0.0000E+00  0.0000E+00  0.0000E+00  0.0000E+00  0.0000E+00  0.0000E+00
    -14.199  0.0000E+00  0.0000E+00  0.0000E+00  0.0000E+00  0.0000E+00  0.0000E+00  0.0000E+00  0.0000E+00  0.0000E+00  0.0000E+00  0.0000E+00  0.0000E+00  0.0000E+00  0.0000E+00  0.0000E+00  0.0000E+00  0.0000E+00  0.0000E+00
    -14.005  0.0000E+00  0.0000E+00  0.0000E+00  0.0000E+00  0.0000E+00  0.0000E+00  0.0000E+00  0.0000E+00  0.0000E+00  0.0000E+00  0.0000E+00  0.0000E+00  0.0000E+00  0.0000E+00  0.0000E+00  0.0000E+00  0.0000E+00  0.0000E+00
    -13.811  0.0000E+00  0.0000E+00  0.0000E+00  0.0000E+00  0.0000E+00  0.0000E+00  0.0000E+00  0.0000E+00  0.0000E+00  0.0000E+00  0.0000E+00  0.0000E+00  0.0000E+00  0.0000E+00  0.0000E+00  0.0000E+00  0.0000E+00  0.0000E+00
    -13.618  0.0000E+00  0.0000E+00  0.0000E+00  0.0000E+00  0.0000E+00  0.0000E+00  0.0000E+00  0.0000E+00  0.0000E+00  0.0000E+00  0.0000E+00  0.0000E+00  0.0000E+00  0.0000E+00  0.0000E+00  0.0000E+00  0.0000E+00  0.0000E+00
    -13.424  0.0000E+00  0.0000E+00  0.0000E+00  0.0000E+00  0.0000E+00  0.0000E+00  0.0000E+00  0.0000E+00  0.0000E+00  0.0000E+00  0.0000E+00  0.0000E+00  0.0000E+00  0.0000E+00  0.0000E+00  0.0000E+00  0.0000E+00  0.0000E+00
    -13.231  0.0000E+00  0.0000E+00  0.0000E+00  0.0000E+00  0.0000E+00  0.0000E+00  0.0000E+00  0.0000E+00  0.0000E+00  0.0000E+00  0.0000E+00  0.0000E+00  0.0000E+00  0.0000E+00  0.0000E+00  0.0000E+00  0.0000E+00  0.0000E+00
    -13.037  0.4989E-02  0.5013E-02  0.4268E-04  0.4312E-04  0.4268E-04  0.4312E-04  0.4268E-04  0.4312E-04  0.1637E-07  0.1659E-07  0.1637E-07  0.1659E-07  0.9670E-06  0.9821E-06  0.1637E-07  0.1659E-07  0.9670E-06  0.9821E-06
    -12.843  0.1220E-01  0.1221E-01  0.3666E-03  0.3677E-03  0.3666E-03  0.3677E-03  0.3666E-03  0.3677E-03  0.3776E-06  0.3794E-06  0.3776E-06  0.3794E-06  0.2451E-04  0.2465E-04  0.3776E-06  0.3794E-06  0.2451E-04  0.2465E-04
    -12.650  0.1247E-01  0.1248E-01  0.7898E-03  0.7914E-03  0.7898E-03  0.7914E-03  0.7898E-03  0.7914E-03  0.1305E-05  0.1308E-05  0.1305E-05  0.1308E-05  0.1047E-03  0.1051E-03  0.1305E-05  0.1308E-05  0.1047E-03  0.1051E-03
    -12.456  0.1509E-01  0.1509E-01  0.1532E-02  0.1534E-02  0.1532E-02  0.1534E-02  0.1532E-02  0.1534E-02  0.3135E-05  0.3141E-05  0.3135E-05  0.3141E-05  0.3248E-03  0.3258E-03  0.3135E-05  0.3141E-05  0.3248E-03  0.3258E-03
    -12.263  0.1576E-01  0.1577E-01  0.2457E-02  0.2460E-02  0.2457E-02  0.2460E-02  0.2457E-02  0.2460E-02  0.5664E-05  0.5673E-05  0.5664E-05  0.5673E-05  0.7761E-03  0.7783E-03  0.5664E-05  0.5673E-05  0.7761E-03  0.7783E-03
    -12.069  0.1617E-01  0.1617E-01  0.3873E-02  0.3879E-02  0.3873E-02  0.3879E-02  0.3873E-02  0.3879E-02  0.9190E-05  0.9203E-05  0.9190E-05  0.9203E-05  0.1755E-02  0.1760E-02  0.9190E-05  0.9203E-05  0.1755E-02  0.1760E-02
    -11.875  0.1634E-01  0.1634E-01  0.6353E-02  0.6365E-02  0.6353E-02  0.6365E-02  0.6353E-02  0.6365E-02  0.1367E-04  0.1368E-04  0.1367E-04  0.1368E-04  0.4235E-02  0.4249E-02  0.1367E-04  0.1368E-04  0.4235E-02  0.4249E-02
    -11.682  0.1806E-01  0.1805E-01  0.1412E-01  0.1416E-01  0.1412E-01  0.1416E-01  0.1412E-01  0.1416E-01  0.2227E-04  0.2228E-04  0.2227E-04  0.2228E-04  0.1367E-01  0.1373E-01  0.2227E-04  0.2228E-04  0.1367E-01  0.1373E-01
    -11.488  0.1320E-01  0.1306E-01  0.3577E-01  0.3579E-01  0.3577E-01  0.3579E-01  0.3577E-01  0.3579E-01  0.3033E-04  0.3028E-04  0.3033E-04  0.3028E-04  0.8295E-01  0.8311E-01  0.3033E-04  0.3028E-04  0.8295E-01  0.8311E-01
    -11.295  0.1314E-03  0.1314E-03  0.1479E-02  0.1479E-02  0.1479E-02  0.1479E-02  0.1479E-02  0.1479E-02  0.8572E-06  0.8569E-06  0.8572E-06  0.8569E-06  0.4521E-02  0.4522E-02  0.8572E-06  0.8569E-06  0.4521E-02  0.4522E-02
    -11.101  0.0000E+00  0.0000E+00  0.0000E+00  0.0000E+00  0.0000E+00  0.0000E+00  0.0000E+00  0.0000E+00  0.0000E+00  0.0000E+00  0.0000E+00  0.0000E+00  0.0000E+00  0.0000E+00  0.0000E+00  0.0000E+00  0.0000E+00  0.0000E+00
    -10.907  0.0000E+00  0.0000E+00  0.0000E+00  0.0000E+00  0.0000E+00  0.0000E+00  0.0000E+00  0.0000E+00  0.0000E+00  0.0000E+00  0.0000E+00  0.0000E+00  0.0000E+00  0.0000E+00  0.0000E+00  0.0000E+00  0.0000E+00  0.0000E+00
    -10.714  0.0000E+00  0.0000E+00  0.0000E+00  0.0000E+00  0.0000E+00  0.0000E+00  0.0000E+00  0.0000E+00  0.0000E+00  0.0000E+00  0.0000E+00  0.0000E+00  0.0000E+00  0.0000E+00  0.0000E+00  0.0000E+00  0.0000E+00  0.0000E+00
    -10.520  0.0000E+00  0.0000E+00  0.0000E+00  0.0000E+00  0.0000E+00  0.0000E+00  0.0000E+00  0.0000E+00  0.0000E+00  0.0000E+00  0.0000E+00  0.0000E+00  0.0000E+00  0.0000E+00  0.0000E+00  0.0000E+00  0.0000E+00  0.0000E+00
    -10.327  0.0000E+00  0.0000E+00  0.0000E+00  0.0000E+00  0.0000E+00  0.0000E+00  0.0000E+00  0.0000E+00  0.0000E+00  0.0000E+00  0.0000E+00  0.0000E+00  0.0000E+00  0.0000E+00  0.0000E+00  0.0000E+00  0.0000E+00  0.0000E+00
    -10.133  0.0000E+00  0.0000E+00  0.0000E+00  0.0000E+00  0.0000E+00  0.0000E+00  0.0000E+00  0.0000E+00  0.0000E+00  0.0000E+00  0.0000E+00  0.0000E+00  0.0000E+00  0.0000E+00  0.0000E+00  0.0000E+00  0.0000E+00  0.0000E+00
     -9.939  0.0000E+00  0.0000E+00  0.0000E+00  0.0000E+00  0.0000E+00  0.0000E+00  0.0000E+00  0.0000E+00  0.0000E+00  0.0000E+00  0.0000E+00  0.0000E+00  0.0000E+00  0.0000E+00  0.0000E+00  0.0000E+00  0.0000E+00  0.0000E+00
     -9.746  0.0000E+00  0.0000E+00  0.0000E+00  0.0000E+00  0.0000E+00  0.0000E+00  0.0000E+00  0.0000E+00  0.0000E+00  0.0000E+00  0.0000E+00  0.0000E+00  0.0000E+00  0.0000E+00  0.0000E+00  0.0000E+00  0.0000E+00  0.0000E+00
     -9.552  0.0000E+00  0.0000E+00  0.0000E+00  0.0000E+00  0.0000E+00  0.0000E+00  0.0000E+00  0.0000E+00  0.0000E+00  0.0000E+00  0.0000E+00  0.0000E+00  0.0000E+00  0.0000E+00  0.0000E+00  0.0000E+00  0.0000E+00  0.0000E+00
     -9.359  0.0000E+00  0.0000E+00  0.0000E+00  0.0000E+00  0.0000E+00  0.0000E+00  0.0000E+00  0.0000E+00  0.0000E+00  0.0000E+00  0.0000E+00  0.0000E+00  0.0000E+00  0.0000E+00  0.0000E+00  0.0000E+00  0.0000E+00  0.0000E+00
     -9.165  0.0000E+00  0.0000E+00  0.0000E+00  0.0000E+00  0.0000E+00  0.0000E+00  0.0000E+00  0.0000E+00  0.0000E+00  0.0000E+00  0.0000E+00  0.0000E+00  0.0000E+00  0.0000E+00  0.0000E+00  0.0000E+00  0.0000E+00  0.0000E+00
     -8.971  0.0000E+00  0.0000E+00  0.0000E+00  0.0000E+00  0.0000E+00  0.0000E+00  0.0000E+00  0.0000E+00  0.0000E+00  0.0000E+00  0.0000E+00  0.0000E+00  0.0000E+00  0.0000E+00  0.0000E+00  0.0000E+00  0.0000E+00  0.0000E+00
     -8.778  0.0000E+00  0.0000E+00  0.0000E+00  0.0000E+00  0.0000E+00  0.0000E+00  0.0000E+00  0.0000E+00  0.0000E+00  0.0000E+00  0.0000E+00  0.0000E+00  0.0000E+00  0.0000E+00  0.0000E+00  0.0000E+00  0.0000E+00  0.0000E+00
     -8.584  0.0000E+00  0.0000E+00  0.0000E+00  0.0000E+00  0.0000E+00  0.0000E+00  0.0000E+00  0.0000E+00  0.0000E+00  0.0000E+00  0.0000E+00  0.0000E+00  0.0000E+00  0.0000E+00  0.0000E+00  0.0000E+00  0.0000E+00  0.0000E+00
     -8.391  0.0000E+00  0.0000E+00  0.0000E+00  0.0000E+00  0.0000E+00  0.0000E+00  0.0000E+00  0.0000E+00  0.0000E+00  0.0000E+00  0.0000E+00  0.0000E+00  0.0000E+00  0.0000E+00  0.0000E+00  0.0000E+00  0.0000E+00  0.0000E+00
     -8.197  0.0000E+00  0.0000E+00  0.0000E+00  0.0000E+00  0.0000E+00  0.0000E+00  0.0000E+00  0.0000E+00  0.0000E+00  0.0000E+00  0.0000E+00  0.0000E+00  0.0000E+00  0.0000E+00  0.0000E+00  0.0000E+00  0.0000E+00  0.0000E+00
     -8.003  0.0000E+00  0.0000E+00  0.0000E+00  0.0000E+00  0.0000E+00  0.0000E+00  0.0000E+00  0.0000E+00  0.0000E+00  0.0000E+00  0.0000E+00  0.0000E+00  0.0000E+00  0.0000E+00  0.0000E+00  0.0000E+00  0.0000E+00  0.0000E+00
     -7.810  0.0000E+00  0.0000E+00  0.0000E+00  0.0000E+00  0.0000E+00  0.0000E+00  0.0000E+00  0.0000E+00  0.0000E+00  0.0000E+00  0.0000E+00  0.0000E+00  0.0000E+00  0.0000E+00  0.0000E+00  0.0000E+00  0.0000E+00  0.0000E+00
     -7.616  0.0000E+00  0.0000E+00  0.0000E+00  0.0000E+00  0.0000E+00  0.0000E+00  0.0000E+00  0.0000E+00  0.0000E+00  0.0000E+00  0.0000E+00  0.0000E+00  0.0000E+00  0.0000E+00  0.0000E+00  0.0000E+00  0.0000E+00  0.0000E+00
     -7.423  0.0000E+00  0.0000E+00  0.0000E+00  0.0000E+00  0.0000E+00  0.0000E+00  0.0000E+00  0.0000E+00  0.0000E+00  0.0000E+00  0.0000E+00  0.0000E+00  0.0000E+00  0.0000E+00  0.0000E+00  0.0000E+00  0.0000E+00  0.0000E+00
     -7.229  0.0000E+00  0.0000E+00  0.0000E+00  0.0000E+00  0.0000E+00  0.0000E+00  0.0000E+00  0.0000E+00  0.0000E+00  0.0000E+00  0.0000E+00  0.0000E+00  0.0000E+00  0.0000E+00  0.0000E+00  0.0000E+00  0.0000E+00  0.0000E+00
     -7.035  0.0000E+00  0.0000E+00  0.0000E+00  0.0000E+00  0.0000E+00  0.0000E+00  0.0000E+00  0.0000E+00  0.0000E+00  0.0000E+00  0.0000E+00  0.0000E+00  0.0000E+00  0.0000E+00  0.0000E+00  0.0000E+00  0.0000E+00  0.0000E+00
     -6.842  0.0000E+00  0.0000E+00  0.0000E+00  0.0000E+00  0.0000E+00  0.0000E+00  0.0000E+00  0.0000E+00  0.0000E+00  0.0000E+00  0.0000E+00  0.0000E+00  0.0000E+00  0.0000E+00  0.0000E+00  0.0000E+00  0.0000E+00  0.0000E+00
     -6.648  0.0000E+00  0.0000E+00  0.0000E+00  0.0000E+00  0.0000E+00  0.0000E+00  0.0000E+00  0.0000E+00  0.0000E+00  0.0000E+00  0.0000E+00  0.0000E+00  0.0000E+00  0.0000E+00  0.0000E+00  0.0000E+00  0.0000E+00  0.0000E+00
     -6.455  0.0000E+00  0.0000E+00  0.0000E+00  0.0000E+00  0.0000E+00  0.0000E+00  0.0000E+00  0.0000E+00  0.0000E+00  0.0000E+00  0.0000E+00  0.0000E+00  0.0000E+00  0.0000E+00  0.0000E+00  0.0000E+00  0.0000E+00  0.0000E+00
     -6.261  0.0000E+00  0.0000E+00  0.0000E+00  0.0000E+00  0.0000E+00  0.0000E+00  0.0000E+00  0.0000E+00  0.0000E+00  0.0000E+00  0.0000E+00  0.0000E+00  0.0000E+00  0.0000E+00  0.0000E+00  0.0000E+00  0.0000E+00  0.0000E+00
     -6.067  0.0000E+00  0.0000E+00  0.0000E+00  0.0000E+00  0.0000E+00  0.0000E+00  0.0000E+00  0.0000E+00  0.0000E+00  0.0000E+00  0.0000E+00  0.0000E+00  0.0000E+00  0.0000E+00  0.0000E+00  0.0000E+00  0.0000E+00  0.0000E+00