unknown system                          
            1
     0.000000    2.056629    2.056629
     2.056629    0.000000    2.056629
     2.056629    2.056629    0.000000
   Cu   O 
     1     1
Direct configuration=     1
   0.00000000  0.00000000  0.00000000
   0.50000000  0.50000000  0.50000000
