   2   2   0   0
  0.2261633E+02  0.3999346E-09  0.3999346E-09  0.3999346E-09  0.0000000E+00
  1.000000000000000E-004
  CAR 
 unknown system                          
     15.38468963     -9.05873682  301      3.91664872      1.00000000
     -9.059  0.0000E+00  0.0000E+00
     -8.977  0.0000E+00  0.0000E+00
     -8.896  0.0000E+00  0.0000E+00
     -8.814  0.0000E+00  0.0000E+00
     -8.733  0.0000E+00  0.0000E+00
     -8.651  0.0000E+00  0.0000E+00
     -8.570  0.0000E+00  0.0000E+00
     -8.488  0.0000E+00  0.0000E+00
     -8.407  0.0000E+00  0.0000E+00
     -8.325  0.0000E+00  0.0000E+00
     -8.244  0.0000E+00  0.0000E+00
     -8.162  0.0000E+00  0.0000E+00
     -8.081  0.0000E+00  0.0000E+00
     -8.000  0.0000E+00  0.0000E+00
     -7.918  0.7771E-01  0.1138E-02
     -7.837  0.1667E+00  0.1152E-01
     -7.755  0.2306E+00  0.2802E-01
     -7.674  0.2872E+00  0.4907E-01
     -7.592  0.3314E+00  0.7418E-01
     -7.511  0.3793E+00  0.1032E+00
     -7.429  0.4243E+00  0.1359E+00
     -7.348  0.4716E+00  0.1724E+00
     -7.266  0.5192E+00  0.2128E+00
     -7.185  0.5708E+00  0.2572E+00
     -7.103  0.6259E+00  0.3059E+00
     -7.022  0.6862E+00  0.3593E+00
     -6.940  0.7558E+00  0.4179E+00
     -6.859  0.8361E+00  0.4827E+00
     -6.777  0.9303E+00  0.5545E+00
     -6.696  0.1059E+01  0.6353E+00
     -6.614  0.1228E+01  0.7281E+00
     -6.533  0.1559E+01  0.8393E+00
     -6.451  0.1771E+01  0.9836E+00
     -6.370  0.1817E+01  0.1130E+01
     -6.288  0.1813E+01  0.1278E+01
     -6.207  0.1864E+01  0.1427E+01
     -6.126  0.1950E+01  0.1582E+01
     -6.044  0.2143E+01  0.1747E+01
     -5.963  0.3161E+01  0.1949E+01
     -5.881  0.0000E+00  0.2000E+01
     -5.800  0.0000E+00  0.2000E+01
     -5.718  0.0000E+00  0.2000E+01
     -5.637  0.0000E+00  0.2000E+01
     -5.555  0.0000E+00  0.2000E+01
     -5.474  0.0000E+00  0.2000E+01
     -5.392  0.0000E+00  0.2000E+01
     -5.311  0.0000E+00  0.2000E+01
     -5.229  0.0000E+00  0.2000E+01
     -5.148  0.0000E+00  0.2000E+01
     -5.066  0.0000E+00  0.2000E+01
     -4.985  0.0000E+00  0.2000E+01
     -4.903  0.0000E+00  0.2000E+01
     -4.822  0.0000E+00  0.2000E+01
     -4.740  0.0000E+00  0.2000E+01
     -4.659  0.0000E+00  0.2000E+01
     -4.577  0.0000E+00  0.2000E+01
     -4.496  0.0000E+00  0.2000E+01
     -4.414  0.0000E+00  0.2000E+01
     -4.333  0.0000E+00  0.2000E+01
     -4.252  0.0000E+00  0.2000E+01
     -4.170  0.0000E+00  0.2000E+01
     -4.089  0.0000E+00  0.2000E+01
     -4.007  0.0000E+00  0.2000E+01
     -3.926  0.0000E+00  0.2000E+01
     -3.844  0.0000E+00  0.2000E+01
     -3.763  0.0000E+00  0.2000E+01
     -3.681  0.0000E+00  0.2000E+01
     -3.600  0.0000E+00  0.2000E+01
     -3.518  0.0000E+00  0.2000E+01
     -3.437  0.0000E+00  0.2000E+01
     -3.355  0.0000E+00  0.2000E+01
     -3.274  0.0000E+00  0.2000E+01
     -3.192  0.0000E+00  0.2000E+01
     -3.111  0.0000E+00  0.2000E+01
     -3.029  0.0000E+00  0.2000E+01
     -2.948  0.0000E+00  0.2000E+01
     -2.866  0.0000E+00  0.2000E+01
     -2.785  0.0000E+00  0.2000E+01
     -2.703  0.0000E+00  0.2000E+01
     -2.622  0.0000E+00  0.2000E+01
     -2.540  0.0000E+00  0.2000E+01
     -2.459  0.0000E+00  0.2000E+01
     -2.378  0.0000E+00  0.2000E+01
     -2.296  0.0000E+00  0.2000E+01
     -2.215  0.0000E+00  0.2000E+01
     -2.133  0.0000E+00  0.2000E+01
     -2.052  0.0000E+00  0.2000E+01
     -1.970  0.0000E+00  0.2000E+01
     -1.889  0.0000E+00  0.2000E+01
     -1.807  0.0000E+00  0.2000E+01
     -1.726  0.0000E+00  0.2000E+01
     -1.644  0.6504E-01  0.2001E+01
     -1.563  0.3504E+00  0.2020E+01
     -1.481  0.7719E+00  0.2062E+01
     -1.400  0.1180E+01  0.2139E+01
     -1.318  0.1797E+01  0.2258E+01
     -1.237  0.3985E+01  0.2464E+01
     -1.155  0.2878E+01  0.2787E+01
     -1.074  0.1624E+01  0.2954E+01
     -0.992  0.1188E+01  0.3065E+01
     -0.911  0.9778E+00  0.3153E+01
     -0.829  0.8180E+00  0.3224E+01
     -0.748  0.7230E+00  0.3287E+01
     -0.666  0.6216E+00  0.3342E+01
     -0.585  0.5685E+00  0.3390E+01
     -0.504  0.5205E+00  0.3434E+01
     -0.422  0.4716E+00  0.3475E+01
     -0.341  0.4245E+00  0.3511E+01
     -0.259  0.3981E+00  0.3545E+01
     -0.178  0.3722E+00  0.3576E+01
     -0.096  0.3428E+00  0.3605E+01
     -0.015  0.3112E+00  0.3632E+01
      0.067  0.2937E+00  0.3657E+01
      0.148  0.2782E+00  0.3680E+01
      0.230  0.2611E+00  0.3702E+01
      0.311  0.2442E+00  0.3722E+01
      0.393  0.2397E+00  0.3742E+01
      0.474  0.6194E+00  0.3779E+01
      0.556  0.9282E+00  0.3843E+01
      0.637  0.1404E+01  0.3936E+01
      0.719  0.1263E+01  0.4048E+01
      0.800  0.1202E+01  0.4148E+01
      0.882  0.1119E+01  0.4242E+01
      0.963  0.1084E+01  0.4332E+01
      1.045  0.1056E+01  0.4419E+01
      1.126  0.1063E+01  0.4505E+01
      1.208  0.1106E+01  0.4594E+01
      1.289  0.1144E+01  0.4686E+01
      1.370  0.1202E+01  0.4781E+01
      1.452  0.1256E+01  0.4881E+01
      1.533  0.1342E+01  0.4987E+01
      1.615  0.1397E+01  0.5097E+01
      1.696  0.1665E+01  0.5220E+01
      1.778  0.1774E+01  0.5361E+01
      1.859  0.1768E+01  0.5506E+01
      1.941  0.1735E+01  0.5648E+01
      2.022  0.1714E+01  0.5789E+01
      2.104  0.1671E+01  0.5926E+01
      2.185  0.1679E+01  0.6063E+01
      2.267  0.1650E+01  0.6199E+01
      2.348  0.1623E+01  0.6332E+01
      2.430  0.1612E+01  0.6464E+01
      2.511  0.1589E+01  0.6594E+01
      2.593  0.1580E+01  0.6723E+01
      2.674  0.1564E+01  0.6852E+01
      2.756  0.1544E+01  0.6978E+01
      2.837  0.1538E+01  0.7103E+01
      2.919  0.1556E+01  0.7229E+01
      3.000  0.1539E+01  0.7355E+01
      3.081  0.1450E+01  0.7479E+01
      3.163  0.1075E+01  0.7578E+01
      3.244  0.9217E+00  0.7659E+01
      3.326  0.8008E+00  0.7729E+01
      3.407  0.6963E+00  0.7790E+01
      3.489  0.6058E+00  0.7843E+01
      3.570  0.5243E+00  0.7889E+01
      3.652  0.4371E+00  0.7929E+01
      3.733  0.3736E+00  0.7961E+01
      3.815  0.2483E+00  0.7987E+01
      3.896  0.3033E-01  0.8000E+01
      3.978  0.0000E+00  0.8000E+01
      4.059  0.0000E+00  0.8000E+01
      4.141  0.0000E+00  0.8000E+01
      4.222  0.0000E+00  0.8000E+01
      4.304  0.0000E+00  0.8000E+01
      4.385  0.0000E+00  0.8000E+01
      4.467  0.0000E+00  0.8000E+01
      4.548  0.0000E+00  0.8000E+01
      4.630  0.0000E+00  0.8000E+01
      4.711  0.0000E+00  0.8000E+01
      4.793  0.0000E+00  0.8000E+01
      4.874  0.0000E+00  0.8000E+01
      4.955  0.0000E+00  0.8000E+01
      5.037  0.0000E+00  0.8000E+01
      5.118  0.0000E+00  0.8000E+01
      5.200  0.0000E+00  0.8000E+01
      5.281  0.0000E+00  0.8000E+01
      5.363  0.1806E-02  0.8000E+01
      5.444  0.5601E-01  0.8002E+01
      5.526  0.9744E-01  0.8008E+01
      5.607  0.1266E+00  0.8018E+01
      5.689  0.1643E+00  0.8029E+01
      5.770  0.2040E+00  0.8045E+01
      5.852  0.2406E+00  0.8063E+01
      5.933  0.2824E+00  0.8084E+01
      6.015  0.3263E+00  0.8109E+01
      6.096  0.3678E+00  0.8137E+01
      6.178  0.4505E+00  0.8170E+01
      6.259  0.5763E+00  0.8211E+01
      6.341  0.6973E+00  0.8263E+01
      6.422  0.7858E+00  0.8324E+01
      6.504  0.8796E+00  0.8392E+01
      6.585  0.9893E+00  0.8468E+01
      6.667  0.1117E+01  0.8553E+01
      6.748  0.1262E+01  0.8650E+01
      6.829  0.1479E+01  0.8762E+01
      6.911  0.1720E+01  0.8892E+01
      6.992  0.1910E+01  0.9041E+01
      7.074  0.1766E+01  0.9189E+01
      7.155  0.1722E+01  0.9331E+01
      7.237  0.1678E+01  0.9470E+01
      7.318  0.1620E+01  0.9605E+01
      7.400  0.1539E+01  0.9735E+01
      7.481  0.1338E+01  0.9850E+01
      7.563  0.1200E+01  0.9955E+01
      7.644  0.1091E+01  0.1005E+02
      7.726  0.1105E+01  0.1014E+02
      7.807  0.8461E+00  0.1022E+02
      7.889  0.7364E+00  0.1028E+02
      7.970  0.8445E+00  0.1035E+02
      8.052  0.8063E+00  0.1042E+02
      8.133  0.7292E+00  0.1048E+02
      8.215  0.9573E+00  0.1054E+02
      8.296  0.1402E+01  0.1064E+02
      8.378  0.2310E+01  0.1079E+02
      8.459  0.2597E+01  0.1099E+02
      8.541  0.2204E+01  0.1118E+02
      8.622  0.1880E+01  0.1135E+02
      8.703  0.1643E+01  0.1149E+02
      8.785  0.1375E+01  0.1162E+02
      8.866  0.1441E+01  0.1173E+02
      8.948  0.1403E+01  0.1185E+02
      9.029  0.1387E+01  0.1196E+02
      9.111  0.1309E+01  0.1207E+02
      9.192  0.1274E+01  0.1217E+02
      9.274  0.1342E+01  0.1228E+02
      9.355  0.1433E+01  0.1239E+02
      9.437  0.1614E+01  0.1251E+02
      9.518  0.1839E+01  0.1266E+02
      9.600  0.1495E+01  0.1279E+02
      9.681  0.1570E+01  0.1292E+02
      9.763  0.1721E+01  0.1305E+02
      9.844  0.1430E+01  0.1317E+02
      9.926  0.1307E+01  0.1329E+02
     10.007  0.1229E+01  0.1339E+02
     10.089  0.1201E+01  0.1349E+02
     10.170  0.1241E+01  0.1359E+02
     10.252  0.1243E+01  0.1369E+02
     10.333  0.1187E+01  0.1379E+02
     10.415  0.1161E+01  0.1388E+02
     10.496  0.1181E+01  0.1398E+02
     10.577  0.1110E+01  0.1407E+02
     10.659  0.1079E+01  0.1416E+02
     10.740  0.1047E+01  0.1425E+02
     10.822  0.1008E+01  0.1433E+02
     10.903  0.9238E+00  0.1441E+02
     10.985  0.8801E+00  0.1448E+02
     11.066  0.8828E+00  0.1455E+02
     11.148  0.9079E+00  0.1463E+02
     11.229  0.9724E+00  0.1470E+02
     11.311  0.1095E+01  0.1479E+02
     11.392  0.1204E+01  0.1488E+02
     11.474  0.1295E+01  0.1498E+02
     11.555  0.1170E+01  0.1509E+02
     11.637  0.9892E+00  0.1517E+02
     11.718  0.9600E+00  0.1525E+02
     11.800  0.9015E+00  0.1532E+02
     11.881  0.8036E+00  0.1539E+02
     11.963  0.7905E+00  0.1546E+02
     12.044  0.7659E+00  0.1552E+02
     12.126  0.4293E+00  0.1557E+02
     12.207  0.4055E+00  0.1560E+02
     12.289  0.3876E+00  0.1564E+02
     12.370  0.3873E+00  0.1567E+02
     12.451  0.3739E+00  0.1570E+02
     12.533  0.3288E+00  0.1573E+02
     12.614  0.3005E+00  0.1575E+02
     12.696  0.2786E+00  0.1578E+02
     12.777  0.2619E+00  0.1580E+02
     12.859  0.2492E+00  0.1582E+02
     12.940  0.2356E+00  0.1584E+02
     13.022  0.2205E+00  0.1586E+02
     13.103  0.2065E+00  0.1588E+02
     13.185  0.1944E+00  0.1589E+02
     13.266  0.1821E+00  0.1591E+02
     13.348  0.1719E+00  0.1592E+02
     13.429  0.1517E+00  0.1593E+02
     13.511  0.1307E+00  0.1595E+02
     13.592  0.1130E+00  0.1596E+02
     13.674  0.9871E-01  0.1596E+02
     13.755  0.8823E-01  0.1597E+02
     13.837  0.8511E-01  0.1598E+02
     13.918  0.7969E-01  0.1599E+02
     14.000  0.7722E-01  0.1599E+02
     14.081  0.4160E-01  0.1600E+02
     14.163  0.1557E-01  0.1600E+02
     14.244  0.1115E-02  0.1600E+02
     14.325  0.0000E+00  0.1600E+02
     14.407  0.0000E+00  0.1600E+02
     14.488  0.0000E+00  0.1600E+02
     14.570  0.0000E+00  0.1600E+02
     14.651  0.0000E+00  0.1600E+02
     14.733  0.0000E+00  0.1600E+02
     14.814  0.0000E+00  0.1600E+02
     14.896  0.0000E+00  0.1600E+02
     14.977  0.0000E+00  0.1600E+02
     15.059  0.0000E+00  0.1600E+02
     15.140  0.0000E+00  0.1600E+02
     15.222  0.0000E+00  0.1600E+02
     15.303  0.0000E+00  0.1600E+02
     15.385  0.0000E+00  0.1600E+02
