    2    2    1    1
  0.2261633E+02  0.3999346E-09  0.3999346E-09  0.3999346E-09  0.0000000E+00
  1.000000000000000E-004
  CAR 
 unknown system                          
      8    256      8
 
  0.0000000E+00  0.0000000E+00  0.0000000E+00  0.1250000E-03
    1       -7.947672   1.000000
    2        3.916116   1.000000
    3        3.916116   1.000000
    4        3.916116   1.000000
    5        6.022143   0.000000
    6        8.204236   0.000000
    7        8.204236   0.000000
    8        8.204237   0.000000
 
  0.5000000E-01  0.0000000E+00  0.0000000E+00  0.1000000E-02
    1       -7.922733   1.000000
    2        3.586450   1.000000
    3        3.887464   1.000000
    4        3.887465   1.000000
    5        6.270198   0.000000
    6        8.232421   0.000000
    7        8.256236   0.000000
    8        8.256236   0.000000
 
  0.1000000E+00  0.0000000E+00  0.0000000E+00  0.1000000E-02
    1       -7.848603   1.000000
    2        2.888047   1.000000
    3        3.808131   1.000000
    4        3.808131   1.000000
    5        6.647063   0.000000
    6        8.396763   0.000000
    7        8.396763   0.000000
    8        8.416500   0.000000
 
  0.1500000E+00  0.0000000E+00  0.0000000E+00  0.1000000E-02
    1       -7.727718   1.000000
    2        2.092089   1.000000
    3        3.694360   1.000000
    4        3.694360   1.000000
    5        6.779843   0.000000
    6        8.581517   0.000000
    7        8.581517   0.000000
    8        8.907140   0.000000
 
  0.2000000E+00  0.0000000E+00  0.0000000E+00  0.1000000E-02
    1       -7.564497   1.000000
    2        1.292178   1.000000
    3        3.564788   1.000000
    4        3.564788   1.000000
    5        6.703690   0.000000
    6        8.745436   0.000000
    7        8.745437   0.000000
    8        9.619071   0.000000
 
  0.2500000E+00  0.0000000E+00  0.0000000E+00  0.1000000E-02
    1       -7.366361   1.000000
    2        0.529572   1.000000
    3        3.435405   1.000000
    4        3.435406   1.000000
    5        6.553988   0.000000
    6        8.828933   0.000000
    7        8.828934   0.000000
    8       10.393508   0.000000
 
  0.3000000E+00  0.0000000E+00  0.0000000E+00  0.1000000E-02
    1       -7.145068   1.000000
    2       -0.167382   1.000000
    3        3.317975   1.000000
    4        3.317976   1.000000
    5        6.397666   0.000000
    6        8.819158   0.000000
    7        8.819158   0.000000
    8       11.097200   0.000000
 
  0.3500000E+00  0.0000000E+00  0.0000000E+00  0.1000000E-02
    1       -6.918929   1.000000
    2       -0.770802   1.000000
    3        3.220467   1.000000
    4        3.220468   1.000000
    5        6.262479   0.000000
    6        8.752161   0.000000
    7        8.752161   0.000000
    8       11.545882   0.000000
 
  0.4000000E+00  0.0000000E+00  0.0000000E+00  0.1000000E-02
    1       -6.715035   1.000000
    2       -1.247702   1.000000
    3        3.147941   1.000000
    4        3.147941   1.000000
    5        6.160719   0.000000
    6        8.673649   0.000000
    7        8.673649   0.000000
    8       11.679750   0.000000
 
  0.4500000E+00  0.0000000E+00  0.0000000E+00  0.1000000E-02
    1       -6.568818   1.000000
    2       -1.559028   1.000000
    3        3.103388   1.000000
    4        3.103388   1.000000
    5        6.098020   0.000000
    6        8.615496   0.000000
    7        8.615496   0.000000
    8       11.681010   0.000000
 
  0.5000000E+00  0.0000000E+00  0.0000000E+00  0.5000000E-03
    1       -6.514990   1.000000
    2       -1.668108   1.000000
    3        3.088381   1.000000
    4        3.088381   1.000000
    5        6.076895   0.000000
    6        8.594425   0.000000
    7        8.594425   0.000000
    8       11.671592   0.000000
 
  0.5000000E-01  0.5000000E-01  0.0000000E+00  0.7500000E-03
    1       -7.914405   1.000000
    2        3.587044   1.000000
    3        3.821179   1.000000
    4        3.821179   1.000000
    5        6.368992   0.000000
    6        8.079652   0.000000
    7        8.349449   0.000000
    8        8.349450   0.000000
 
  0.1000000E+00  0.5000000E-01  0.0000000E+00  0.3000000E-02
    1       -7.856628   1.000000
    2        3.053830   1.000000
    3        3.710689   1.000000
    4        3.773594   1.000000
    5        6.733310   0.000000
    6        8.019365   0.000000
    7        8.528379   0.000000
    8        8.551475   0.000000
 
  0.1500000E+00  0.5000000E-01  0.0000000E+00  0.3000000E-02
    1       -7.751256   1.000000
    2        2.314085   1.000000
    3        3.575568   1.000000
    4        3.699615   1.000000
    5        6.957603   0.000000
    6        8.128565   0.000000
    7        8.748783   0.000000
    8        8.921283   0.000000
 
  0.2000000E+00  0.5000000E-01  0.0000000E+00  0.3000000E-02
    1       -7.601945   1.000000
    2        1.533001   1.000000
    3        3.434822   1.000000
    4        3.583760   1.000000
    5        6.930597   0.000000
    6        8.359934   0.000000
    7        8.947565   0.000000
    8        9.453252   0.000000
 
  0.2500000E+00  0.5000000E-01  0.0000000E+00  0.3000000E-02
    1       -7.415047   1.000000
    2        0.769521   1.000000
    3        3.303441   1.000000
    4        3.445299   1.000000
    5        6.793969   0.000000
    6        8.546084   0.000000
    7        9.061026   0.000000
    8       10.049422   0.000000
 
  0.3000000E+00  0.5000000E-01  0.0000000E+00  0.3000000E-02
    1       -7.200635   1.000000
    2        0.057877   1.000000
    3        3.191902   1.000000
    4        3.302393   1.000000
    5        6.637890   0.000000
    6        8.614410   0.000000
    7        9.064212   0.000000
    8       10.641212   0.000000
 
  0.3500000E+00  0.5000000E-01  0.0000000E+00  0.3000000E-02
    1       -6.974587   1.000000
    2       -0.572898   1.000000
    3        3.106898   1.000000
    4        3.168579   1.000000
    5        6.497107   0.000000
    6        8.592689   0.000000
    7        8.986517   0.000000
    8       11.196709   0.000000
 
  0.4000000E+00  0.5000000E-01  0.0000000E+00  0.3000000E-02
    1       -6.760790   1.000000
    2       -1.090963   1.000000
    3        3.052290   1.000000
    4        3.053205   1.000000
    5        6.386231   0.000000
    6        8.541395   0.000000
    7        8.877300   0.000000
    8       11.601505   0.000000
 
  0.4500000E+00  0.5000000E-01  0.0000000E+00  0.3000000E-02
    1       -6.592172   1.000000
    2       -1.458561   1.000000
    3        2.962623   1.000000
    4        3.029845   1.000000
    5        6.312022   0.000000
    6        8.504250   0.000000
    7        8.775253   0.000000
    8       11.764777   0.000000
 
  0.5000000E+00  0.5000000E-01  0.0000000E+00  0.3000000E-02
    1       -6.505103   1.000000
    2       -1.636533   1.000000
    3        2.901130   1.000000
    4        3.039779   1.000000
    5        6.277638   0.000000
    6        8.503584   0.000000
    7        8.703040   0.000000
    8       11.802002   0.000000
 
 -0.4500000E+00  0.5000000E-01  0.0000000E+00  0.3000000E-02
    1       -6.523194   1.000000
    2       -1.600091   1.000000
    3        2.871597   1.000000
    4        3.081048   1.000000
    5        6.284266   0.000000
    6        8.547208   0.000000
    7        8.670734   0.000000
    8       11.806324   0.000000
 
 -0.4000000E+00  0.5000000E-01  0.0000000E+00  0.3000000E-02
    1       -6.641240   1.000000
    2       -1.354725   1.000000
    3        2.875787   1.000000
    4        3.151457   1.000000
    5        6.331711   0.000000
    6        8.632249   0.000000
    7        8.678131   0.000000
    8       11.770128   0.000000
 
 -0.3500000E+00  0.5000000E-01  0.0000000E+00  0.3000000E-02
    1       -6.829066   1.000000
    2       -0.932314   1.000000
    3        2.914402   1.000000
    4        3.247603   1.000000
    5        6.418244   0.000000
    6        8.714088   0.000000
    7        8.744624   0.000000
    8       11.587061   0.000000
 
 -0.3000000E+00  0.5000000E-01  0.0000000E+00  0.3000000E-02
    1       -7.050200   1.000000
    2       -0.372897   1.000000
    3        2.986934   1.000000
    4        3.364500   1.000000
    5        6.539662   0.000000
    6        8.753117   0.000000
    7        8.853947   0.000000
    8       11.142805   0.000000
 
 -0.2500000E+00  0.5000000E-01  0.0000000E+00  0.3000000E-02
    1       -7.274559   1.000000
    2        0.287472   1.000000
    3        3.091346   1.000000
    4        3.494968   1.000000
    5        6.686712   0.000000
    6        8.754351   0.000000
    7        8.905103   0.000000
    8       10.527692   0.000000
 
 -0.2000000E+00  0.5000000E-01  0.0000000E+00  0.3000000E-02
    1       -7.481203   1.000000
    2        1.017787   1.000000
    3        3.223610   1.000000
    4        3.628815   1.000000
    5        6.838369   0.000000
    6        8.679520   0.000000
    7        8.821434   0.000000
    8        9.890496   0.000000
 
 -0.1500000E+00  0.5000000E-01  0.0000000E+00  0.3000000E-02
    1       -7.656433   1.000000
    2        1.786673   1.000000
    3        3.377303   1.000000
    4        3.752039   1.000000
    5        6.942257   0.000000
    6        8.534070   0.000000
    7        8.567893   0.000000
    8        9.326338   0.000000
 
 -0.1000000E+00  0.5000000E-01  0.0000000E+00  0.3000000E-02
    1       -7.791603   1.000000
    2        2.549581   1.000000
    3        3.544524   1.000000
    4        3.847187   1.000000
    5        6.877459   0.000000
    6        8.286491   0.000000
    7        8.374996   0.000000
    8        8.871225   0.000000
 
 -0.5000000E-01  0.5000000E-01  0.0000000E+00  0.1500000E-02
    1       -7.881369   1.000000
    2        3.212473   1.000000
    3        3.723342   1.000000
    4        3.896308   1.000000
    5        6.564808   0.000000
    6        8.191794   0.000000
    7        8.268238   0.000000
    8        8.512363   0.000000
 
  0.1000000E+00  0.1000000E+00  0.0000000E+00  0.7500000E-03
    1       -7.815429   1.000000
    2        2.915800   1.000000
    3        3.573275   1.000000
    4        3.573275   1.000000
    5        7.067432   0.000000
    6        7.760999   0.000000
    7        8.746962   0.000000
    8        8.746963   0.000000
 
  0.1500000E+00  0.1000000E+00  0.0000000E+00  0.3000000E-02
    1       -7.726284   1.000000
    2        2.383922   1.000000
    3        3.417867   1.000000
    4        3.469258   1.000000
    5        7.363026   0.000000
    6        7.666007   0.000000
    7        9.009320   0.000000
    8        9.062253   0.000000
 
  0.2000000E+00  0.1000000E+00  0.0000000E+00  0.3000000E-02
    1       -7.592227   1.000000
    2        1.693150   1.000000
    3        3.263800   1.000000
    4        3.361279   1.000000
    5        7.340174   0.000000
    6        7.879464   0.000000
    7        9.255262   0.000000
    8        9.424215   0.000000
 
  0.2500000E+00  0.1000000E+00  0.0000000E+00  0.3000000E-02
    1       -7.418681   1.000000
    2        0.972454   1.000000
    3        3.125572   1.000000
    4        3.213361   1.000000
    5        7.202345   0.000000
    6        8.174350   0.000000
    7        9.417474   0.000000
    8        9.667834   0.000000
 
  0.3000000E+00  0.1000000E+00  0.0000000E+00  0.3000000E-02
    1       -7.214313   1.000000
    2        0.276342   1.000000
    3        3.013069   1.000000
    4        3.042291   1.000000
    5        7.053040   0.000000
    6        8.382863   0.000000
    7        9.455947   0.000000
    8        9.909892   0.000000
 
  0.3500000E+00  0.1000000E+00  0.0000000E+00  0.3000000E-02
    1       -6.992870   1.000000
    2       -0.359011   1.000000
    3        2.868653   1.000000
    4        2.932479   1.000000
    5        6.916725   0.000000
    6        8.438439   0.000000
    7        9.387983   0.000000
    8       10.338951   0.000000
 
  0.4000000E+00  0.1000000E+00  0.0000000E+00  0.3000000E-02
    1       -6.775166   1.000000
    2       -0.899851   1.000000
    3        2.708032   1.000000
    4        2.887240   1.000000
    5        6.806884   0.000000
    6        8.408234   0.000000
    7        9.264289   0.000000
    8       10.920878   0.000000
 
  0.4500000E+00  0.1000000E+00  0.0000000E+00  0.3000000E-02
    1       -6.590887   1.000000
    2       -1.308816   1.000000
    3        2.571105   1.000000
    4        2.878683   1.000000
    5        6.731277   0.000000
    6        8.371453   0.000000
    7        9.130612   0.000000
    8       11.518137   0.000000
 
  0.5000000E+00  0.1000000E+00  0.0000000E+00  0.3000000E-02
    1       -6.475629   1.000000
    2       -1.545778   1.000000
    3        2.465178   1.000000
    4        2.906449   1.000000
    5        6.693833   0.000000
    6        8.366409   0.000000
    7        9.015920   0.000000
    8       11.936080   0.000000
 
 -0.4500000E+00  0.1000000E+00  0.0000000E+00  0.3000000E-02
    1       -6.458501   1.000000
    2       -1.579508   1.000000
    3        2.395424   1.000000
    4        2.968705   1.000000
    5        6.695935   0.000000
    6        8.407388   0.000000
    7        8.935049   0.000000
    8       12.075506   0.000000
 
 -0.4000000E+00  0.1000000E+00  0.0000000E+00  0.3000000E-02
    1       -6.544337   1.000000
    2       -1.405055   1.000000
    3        2.365627   1.000000
    4        3.062114   1.000000
    5        6.737112   0.000000
    6        8.495926   0.000000
    7        8.891956   0.000000
    8       11.979990   0.000000
 
 -0.3500000E+00  0.1000000E+00  0.0000000E+00  0.3000000E-02
    1       -6.710191   1.000000
    2       -1.047350   1.000000
    3        2.378677   1.000000
    4        3.181699   1.000000
    5        6.815363   0.000000
    6        8.622597   0.000000
    7        8.879910   0.000000
    8       11.620825   0.000000
 
 -0.3000000E+00  0.1000000E+00  0.0000000E+00  0.3000000E-02
    1       -6.920674   1.000000
    2       -0.546424   1.000000
    3        2.436925   1.000000
    4        3.320450   1.000000
    5        6.926564   0.000000
    6        8.760772   0.000000
    7        8.878388   0.000000
    8       11.054829   0.000000
 
 -0.2500000E+00  0.1000000E+00  0.0000000E+00  0.3000000E-02
    1       -7.143537   1.000000
    2        0.056832   1.000000
    3        2.542675   1.000000
    4        3.468668   1.000000
    5        7.062221   0.000000
    6        8.846934   0.000000
    7        8.850656   0.000000
    8       10.458496   0.000000
 
 -0.2000000E+00  0.1000000E+00  0.0000000E+00  0.3000000E-02
    1       -7.355189   1.000000
    2        0.723079   1.000000
    3        2.699347   1.000000
    4        3.613241   1.000000
    5        7.202149   0.000000
    6        8.759126   0.000000
    7        8.759678   0.000000
    8        9.995079   0.000000
 
 -0.1500000E+00  0.1000000E+00  0.0000000E+00  0.3000000E-02
    1       -7.539854   1.000000
    2        1.406977   1.000000
    3        2.914024   1.000000
    4        3.737197   1.000000
    5        7.288947   0.000000
    6        8.474309   0.000000
    7        8.608680   0.000000
    8        9.681370   0.000000
 
 -0.1000000E+00  0.1000000E+00  0.0000000E+00  0.1500000E-02
    1       -7.687441   1.000000
    2        2.043185   1.000000
    3        3.199366   1.000000
    4        3.820976   1.000000
    5        7.184869   0.000000
    6        8.263753   0.000000
    7        8.458453   0.000000
    8        9.326033   0.000000
 
  0.1500000E+00  0.1500000E+00  0.0000000E+00  0.7500000E-03
    1       -7.653580   1.000000
    2        2.170218   1.000000
    3        3.245225   1.000000
    4        3.245225   1.000000
    5        7.345352   0.000000
    6        7.735568   0.000000
    7        9.320692   0.000000
    8        9.320692   0.000000
 
  0.2000000E+00  0.1500000E+00  0.0000000E+00  0.3000000E-02
    1       -7.535623   1.000000
    2        1.681477   1.000000
    3        3.077650   1.000000
    4        3.095107   1.000000
    5        7.209441   0.000000
    6        7.919915   0.000000
    7        9.594715   0.000000
    8        9.625943   0.000000
 
  0.2500000E+00  0.1500000E+00  0.0000000E+00  0.3000000E-02
    1       -7.377025   1.000000
    2        1.071659   1.000000
    3        2.929709   1.000000
    4        2.930317   1.000000
    5        7.170523   0.000000
    6        8.066393   0.000000
    7        9.593472   0.000000
    8        9.855664   0.000000
 
  0.3000000E+00  0.1500000E+00  0.0000000E+00  0.3000000E-02
    1       -7.185319   1.000000
    2        0.437734   1.000000
    3        2.729186   1.000000
    4        2.811210   1.000000
    5        7.122450   0.000000
    6        8.310986   0.000000
    7        9.485370   0.000000
    8        9.953581   0.000000
 
  0.3500000E+00  0.1500000E+00  0.0000000E+00  0.3000000E-02
    1       -6.972431   1.000000
    2       -0.167320   1.000000
    3        2.512010   1.000000
    4        2.728321   1.000000
    5        7.043966   0.000000
    6        8.562100   0.000000
    7        9.545040   0.000000
    8        9.918540   0.000000
 
  0.4000000E+00  0.1500000E+00  0.0000000E+00  0.3000000E-02
    1       -6.756483   1.000000
    2       -0.703312   1.000000
    3        2.301588   1.000000
    4        2.684493   1.000000
    5        6.967552   0.000000
    6        8.625247   0.000000
    7        9.798865   0.000000
    8        9.963986   0.000000
 
  0.4500000E+00  0.1500000E+00  0.0000000E+00  0.3000000E-02
    1       -6.563710   1.000000
    2       -1.130979   1.000000
    3        2.114407   1.000000
    4        2.681098   1.000000
    5        6.918794   0.000000
    6        8.582296   0.000000
    7        9.647930   0.000000
    8       10.623822   0.000000
 
  0.5000000E+00  0.1500000E+00  0.0000000E+00  0.3000000E-02
    1       -6.427290   1.000000
    2       -1.409410   1.000000
    3        1.961481   1.000000
    4        2.717766   1.000000
    5        6.909919   0.000000
    6        8.540014   0.000000
    7        9.502079   0.000000
    8       11.363016   0.000000
 
 -0.4500000E+00  0.1500000E+00  0.0000000E+00  0.3000000E-02
    1       -6.378638   1.000000
    2       -1.503313   1.000000
    3        1.850518   1.000000
    4        2.792499   1.000000
    5        6.944548   0.000000
    6        8.532968   0.000000
    7        9.381081   0.000000
    8       12.000076   0.000000
 
 -0.4000000E+00  0.1500000E+00  0.0000000E+00  0.3000000E-02
    1       -6.430858   1.000000
    2       -1.398902   1.000000
    3        1.787594   1.000000
    4        2.901568   1.000000
    5        7.020796   0.000000
    6        8.571769   0.000000
    7        9.292217   0.000000
    8       12.110780   0.000000
 
 -0.3500000E+00  0.1500000E+00  0.0000000E+00  0.3000000E-02
    1       -6.569792   1.000000
    2       -1.113194   1.000000
    3        1.778448   1.000000
    4        3.039228   1.000000
    5        7.132889   0.000000
    6        8.656106   0.000000
    7        9.231302   0.000000
    8       11.624888   0.000000
 
 -0.3000000E+00  0.1500000E+00  0.0000000E+00  0.3000000E-02
    1       -6.763706   1.000000
    2       -0.685443   1.000000
    3        1.829932   1.000000
    4        3.197157   1.000000
    5        7.271466   0.000000
    6        8.770453   0.000000
    7        9.179651   0.000000
    8       10.949680   0.000000
 
 -0.2500000E+00  0.1500000E+00  0.0000000E+00  0.3000000E-02
    1       -6.979692   1.000000
    2       -0.163727   1.000000
    3        1.952307   1.000000
    4        3.363663   1.000000
    5        7.421164   0.000000
    6        8.859129   0.000000
    7        9.101182   0.000000
    8       10.313969   0.000000
 
 -0.2000000E+00  0.1500000E+00  0.0000000E+00  0.3000000E-02
    1       -7.191904   1.000000
    2        0.398424   1.000000
    3        2.162484   1.000000
    4        3.522940   1.000000
    5        7.547417   0.000000
    6        8.779564   0.000000
    7        8.960565   0.000000
    8        9.919046   0.000000
 
 -0.1500000E+00  0.1500000E+00  0.0000000E+00  0.1500000E-02
    1       -7.382536   1.000000
    2        0.939828   1.000000
    3        2.482828   1.000000
    4        3.654855   1.000000
    5        7.547740   0.000000
    6        8.539615   0.000000
    7        8.773125   0.000000
    8        9.811351   0.000000
 
  0.2000000E+00  0.2000000E+00  0.0000000E+00  0.7500000E-03
    1       -7.434080   1.000000
    2        1.425941   1.000000
    3        2.897502   1.000000
    4        2.897502   1.000000
    5        6.911875   0.000000
    6        7.990587   0.000000
    7       10.005651   0.000000
    8       10.005656   0.000000
 
  0.2500000E+00  0.2000000E+00  0.0000000E+00  0.3000000E-02
    1       -7.291527   1.000000
    2        0.986292   1.000000
    3        2.719387   1.000000
    4        2.738540   1.000000
    5        6.789047   0.000000
    6        7.936058   0.000000
    7       10.103310   0.000000
    8       10.324967   0.000000
 
  0.3000000E+00  0.2000000E+00  0.0000000E+00  0.3000000E-02
    1       -7.114613   1.000000
    2        0.467479   1.000000
    3        2.496081   1.000000
    4        2.610931   1.000000
    5        6.789825   0.000000
    6        7.965573   0.000000
    7        9.946989   0.000000
    8       10.511799   0.000000
 
  0.3500000E+00  0.2000000E+00  0.0000000E+00  0.3000000E-02
    1       -6.913774   1.000000
    2       -0.061260   1.000000
    3        2.233287   1.000000
    4        2.521121   1.000000
    5        6.792423   0.000000
    6        8.215618   0.000000
    7        9.778511   0.000000
    8       10.538712   0.000000
 
  0.4000000E+00  0.2000000E+00  0.0000000E+00  0.3000000E-02
    1       -6.704877   1.000000
    2       -0.552626   1.000000
    3        1.963475   1.000000
    4        2.472817   1.000000
    5        6.763747   0.000000
    6        8.659596   0.000000
    7        9.672826   0.000000
    8       10.444976   0.000000
 
  0.4500000E+00  0.2000000E+00  0.0000000E+00  0.3000000E-02
    1       -6.510910   1.000000
    2       -0.964828   1.000000
    3        1.714192   1.000000
    4        2.467645   1.000000
    5        6.742825   0.000000
    6        9.051078   0.000000
    7        9.817878   0.000000
    8       10.292236   0.000000
 
  0.5000000E+00  0.2000000E+00  0.0000000E+00  0.3000000E-02
    1       -6.361771   1.000000
    2       -1.256334   1.000000
    3        1.503426   1.000000
    4        2.505485   1.000000
    5        6.759171   0.000000
    6        9.124895   0.000000
    7       10.126608   0.000000
    8       10.424319   0.000000
 
 -0.4500000E+00  0.2000000E+00  0.0000000E+00  0.3000000E-02
    1       -6.288357   1.000000
    2       -1.389965   1.000000
    3        1.343017   1.000000
    4        2.584539   1.000000
    5        6.824607   0.000000
    6        9.102121   0.000000
    7        9.973825   0.000000
    8       11.215188   0.000000
 
 -0.4000000E+00  0.2000000E+00  0.0000000E+00  0.3000000E-02
    1       -6.309014   1.000000
    2       -1.346182   1.000000
    3        1.242359   1.000000
    4        2.701194   1.000000
    5        6.940667   0.000000
    6        9.091307   0.000000
    7        9.843856   0.000000
    8       11.870986   0.000000
 
 -0.3500000E+00  0.2000000E+00  0.0000000E+00  0.3000000E-02
    1       -6.418095   1.000000
    2       -1.135450   1.000000
    3        1.211660   1.000000
    4        2.849627   1.000000
    5        7.101811   0.000000
    6        9.112762   0.000000
    7        9.732376   0.000000
    8       11.588057   0.000000
 
 -0.3000000E+00  0.2000000E+00  0.0000000E+00  0.3000000E-02
    1       -6.589864   1.000000
    2       -0.796992   1.000000
    3        1.265450   1.000000
    4        3.021106   1.000000
    5        7.294585   0.000000
    6        9.163145   0.000000
    7        9.616893   0.000000
    8       10.863874   0.000000
 
 -0.2500000E+00  0.2000000E+00  0.0000000E+00  0.3000000E-02
    1       -6.792814   1.000000
    2       -0.388394   1.000000
    3        1.426391   1.000000
    4        3.203017   1.000000
    5        7.491254   0.000000
    6        9.195001   0.000000
    7        9.455421   0.000000
    8       10.195175   0.000000
 
 -0.2000000E+00  0.2000000E+00  0.0000000E+00  0.1500000E-02
    1       -7.000033   1.000000
    2        0.025904   1.000000
    3        1.722596   1.000000
    4        3.377832   1.000000
    5        7.626013   0.000000
    6        9.029747   0.000000
    7        9.221319   0.000000
    8        9.873712   0.000000
 
  0.2500000E+00  0.2500000E+00  0.0000000E+00  0.7500000E-03
    1       -7.165595   1.000000
    2        0.709113   1.000000
    3        2.568318   1.000000
    4        2.568318   1.000000
    5        6.497442   0.000000
    6        7.698234   0.000000
    7       10.758986   0.000000
    8       10.759028   0.000000
 
  0.3000000E+00  0.2500000E+00  0.0000000E+00  0.3000000E-02
    1       -7.005125   1.000000
    2        0.319513   1.000000
    3        2.377575   1.000000
    4        2.429949   1.000000
    5        6.395433   0.000000
    6        7.532973   0.000000
    7       10.810812   0.000000
    8       11.073265   0.000000
 
  0.3500000E+00  0.2500000E+00  0.0000000E+00  0.3000000E-02
    1       -6.819429   1.000000
    2       -0.106079   1.000000
    3        2.105502   1.000000
    4        2.330370   1.000000
    5        6.417219   0.000000
    6        7.565163   0.000000
    7       10.663004   0.000000
    8       11.204207   0.000000
 
  0.4000000E+00  0.2500000E+00  0.0000000E+00  0.3000000E-02
    1       -6.622578   1.000000
    2       -0.517076   1.000000
    3        1.784709   1.000000
    4        2.273714   1.000000
    5        6.439368   0.000000
    6        7.878884   0.000000
    7       10.504236   0.000000
    8       11.167427   0.000000
 
  0.4500000E+00  0.2500000E+00  0.0000000E+00  0.3000000E-02
    1       -6.434758   1.000000
    2       -0.873983   1.000000
    3        1.463754   1.000000
    4        2.261958   1.000000
    5        6.445825   0.000000
    6        8.427023   0.000000
    7       10.372074   0.000000
    8       11.031865   0.000000
 
  0.5000000E+00  0.2500000E+00  0.0000000E+00  0.3000000E-02
    1       -6.282324   1.000000
    2       -1.139260   1.000000
    3        1.178504   1.000000
    4        2.295335   1.000000
    5        6.476452   0.000000
    6        9.091260   0.000000
    7       10.312508   0.000000
    8       10.857981   0.000000
 
 -0.4500000E+00  0.2500000E+00  0.0000000E+00  0.3000000E-02
    1       -6.193671   1.000000
    2       -1.278925   1.000000
    3        0.952008   1.000000
    4        2.372416   1.000000
    5        6.554069   0.000000
    6        9.637759   0.000000
    7       10.505208   0.000000
    8       10.679934   0.000000
 
 -0.4000000E+00  0.2500000E+00  0.0000000E+00  0.3000000E-02
    1       -6.188796   1.000000
    2       -1.273710   1.000000
    3        0.801659   1.000000
    4        2.489948   1.000000
    5        6.685385   0.000000
    6        9.801197   0.000000
    7       10.509585   0.000000
    8       11.145174   0.000000
 
 -0.3500000E+00  0.2500000E+00  0.0000000E+00  0.3000000E-02
    1       -6.268462   1.000000
    2       -1.133056   1.000000
    3        0.746514   1.000000
    4        2.642446   1.000000
    5        6.867804   0.000000
    6        9.827122   0.000000
    7       10.337399   0.000000
    8       11.474417   0.000000
 
 -0.3000000E+00  0.2500000E+00  0.0000000E+00  0.3000000E-02
    1       -6.413890   1.000000
    2       -0.899536   1.000000
    3        0.813624   1.000000
    4        2.821420   1.000000
    5        7.089705   0.000000
    6        9.832374   0.000000
    7       10.126579   0.000000
    8       10.824261   0.000000
 
 -0.2500000E+00  0.2500000E+00  0.0000000E+00  0.1500000E-02
    1       -6.597422   1.000000
    2       -0.635464   1.000000
    3        1.035814   1.000000
    4        3.014274   1.000000
    5        7.322613   0.000000
    6        9.693928   0.000000
    7        9.827738   0.000000
    8       10.250122   0.000000
 
  0.3000000E+00  0.3000000E+00  0.0000000E+00  0.7500000E-03
    1       -6.862196   1.000000
    2        0.037597   1.000000
    3        2.280179   1.000000
    4        2.280179   1.000000
    5        6.124344   0.000000
    6        7.217296   0.000000
    7       11.553773   0.000000
    8       11.553822   0.000000
 
  0.3500000E+00  0.3000000E+00  0.0000000E+00  0.3000000E-02
    1       -6.694346   1.000000
    2       -0.298259   1.000000
    3        2.089142   1.000000
    4        2.169271   1.000000
    5        6.048391   0.000000
    6        7.072546   0.000000
    7       11.631516   0.000000
    8       11.850667   0.000000
 
  0.4000000E+00  0.3000000E+00  0.0000000E+00  0.3000000E-02
    1       -6.514323   1.000000
    2       -0.628812   1.000000
    3        1.784533   1.000000
    4        2.101876   1.000000
    5        6.090742   0.000000
    6        7.177766   0.000000
    7       11.500262   0.000000
    8       11.923425   0.000000
 
  0.4500000E+00  0.3000000E+00  0.0000000E+00  0.3000000E-02
    1       -6.340057   1.000000
    2       -0.914283   1.000000
    3        1.421717   1.000000
    4        2.080424   1.000000
    5        6.136791   0.000000
    6        7.581072   0.000000
    7       11.348616   0.000000
    8       11.834782   0.000000
 
  0.5000000E+00  0.3000000E+00  0.0000000E+00  0.3000000E-02
    1       -6.194533   1.000000
    2       -1.123508   1.000000
    3        1.064002   1.000000
    4        2.105544   1.000000
    5        6.186251   0.000000
    6        8.211129   0.000000
    7       11.213358   0.000000
    8       11.666832   0.000000
 