 running on   48 total cores
 distrk:  each k-point on   12 cores,    4 groups
 distr:  one band on   12 cores,    1 groups
 using from now: INCAR     
 vasp.5.4.4.18Apr17-6-g9f103f2a35 (build Nov 04 2020 14:40:39) complex          
  
 POSCAR found type information on POSCAR  Al As
 POSCAR found :  2 types and       2 ions
 scaLAPACK will be used

 ----------------------------------------------------------------------------- 
|                                                                             |
|           W    W    AA    RRRRR   N    N  II  N    N   GGGG   !!!           |
|           W    W   A  A   R    R  NN   N  II  NN   N  G    G  !!!           |
|           W    W  A    A  R    R  N N  N  II  N N  N  G       !!!           |
|           W WW W  AAAAAA  RRRRR   N  N N  II  N  N N  G  GGG   !            |
|           WW  WW  A    A  R   R   N   NN  II  N   NN  G    G                |
|           W    W  A    A  R    R  N    N  II  N    N   GGGG   !!!           |
|                                                                             |
|      You have enabled k-point parallelism (KPAR>1).                         |
|      This developmental code was originally  written by Paul Kent at ORNL,  |
|      and carefully double checked in Vienna.                                |
|      GW as well as linear response parallelism added by Martijn Marsman     |
|      and Georg Kresse.                                                      |
|      Carefully verify results versus KPAR=1.                                |
|      Report problems to Paul Kent and Vienna.                               |
|                                                                             |
 ----------------------------------------------------------------------------- 

 LDA part: xc-table for Pade appr. of Perdew
 POSCAR found type information on POSCAR  Al As
 POSCAR found :  2 types and       2 ions
 generate k-points for:   20   20   20
 POSCAR, INCAR and KPOINTS ok, starting setup
 FFT: planning ...
 WAVECAR not read
 entering main loop
       N       E                     dE             d eps       ncg     rms          rms(c)
DAV:   1     0.145365661039E+02    0.14537E+02   -0.30776E+03  4128   0.749E+02
DAV:   2    -0.899090441922E+01   -0.23527E+02   -0.23002E+02  5472   0.890E+01
DAV:   3    -0.957913738120E+01   -0.58823E+00   -0.58823E+00  5192   0.190E+01
DAV:   4    -0.958158988083E+01   -0.24525E-02   -0.24525E-02  6512   0.136E+00
DAV:   5    -0.958159654670E+01   -0.66659E-05   -0.66659E-05  5232   0.568E-02    0.273E+00
RMM:   6    -0.938980174484E+01    0.19179E+00   -0.21157E-01  4120   0.245E+00    0.150E+00
RMM:   7    -0.935542883831E+01    0.34373E-01   -0.12620E-01  4297   0.200E+00    0.447E-01
RMM:   8    -0.935565865207E+01   -0.22981E-03   -0.58136E-03  4444   0.609E-01    0.492E-02
RMM:   9    -0.935590625646E+01   -0.24760E-03   -0.25951E-04  4824   0.131E-01    0.195E-02
RMM:  10    -0.935593386965E+01   -0.27613E-04   -0.44472E-05  4731   0.513E-02    0.410E-03
RMM:  11    -0.935593617321E+01   -0.23036E-05   -0.58037E-06  4741   0.192E-02    0.208E-03
RMM:  12    -0.935593576407E+01    0.40914E-06   -0.57939E-07  3752   0.482E-03
   1 F= -.93559358E+01 E0= -.93559358E+01  d E =0.000000E+00
