   2   2   0   0
  0.1884694E+02  0.3763529E-09  0.3763529E-09  0.3763529E-09  0.0000000E+00
  1.000000000000000E-004
  CAR 
 unknown system                          
     18.48630770     -8.62336984  301      5.66568936      1.00000000
     -8.623  0.0000E+00  0.0000E+00
     -8.533  0.0000E+00  0.0000E+00
     -8.443  0.0000E+00  0.0000E+00
     -8.352  0.0000E+00  0.0000E+00
     -8.262  0.0000E+00  0.0000E+00
     -8.172  0.0000E+00  0.0000E+00
     -8.081  0.0000E+00  0.0000E+00
     -7.991  0.0000E+00  0.0000E+00
     -7.900  0.0000E+00  0.0000E+00
     -7.810  0.0000E+00  0.0000E+00
     -7.720  0.0000E+00  0.0000E+00
     -7.629  0.0000E+00  0.0000E+00
     -7.539  0.0000E+00  0.0000E+00
     -7.449  0.0000E+00  0.0000E+00
     -7.358  0.5990E-01  0.9485E-03
     -7.268  0.1253E+00  0.9640E-02
     -7.178  0.1727E+00  0.2337E-01
     -7.087  0.2137E+00  0.4075E-01
     -6.997  0.2438E+00  0.6136E-01
     -6.906  0.2775E+00  0.8498E-01
     -6.816  0.3063E+00  0.1113E+00
     -6.726  0.3380E+00  0.1404E+00
     -6.635  0.3659E+00  0.1722E+00
     -6.545  0.3970E+00  0.2067E+00
     -6.455  0.4277E+00  0.2439E+00
     -6.364  0.4599E+00  0.2840E+00
     -6.274  0.4945E+00  0.3271E+00
     -6.183  0.5314E+00  0.3735E+00
     -6.093  0.5716E+00  0.4233E+00
     -6.003  0.6161E+00  0.4769E+00
     -5.912  0.6688E+00  0.5349E+00
     -5.822  0.7288E+00  0.5980E+00
     -5.732  0.8025E+00  0.6670E+00
     -5.641  0.9044E+00  0.7439E+00
     -5.551  0.1057E+01  0.8318E+00
     -5.461  0.1367E+01  0.9409E+00
     -5.370  0.1307E+01  0.1061E+01
     -5.280  0.1304E+01  0.1179E+01
     -5.189  0.1312E+01  0.1297E+01
     -5.099  0.1315E+01  0.1416E+01
     -5.009  0.1346E+01  0.1536E+01
     -4.918  0.1411E+01  0.1660E+01
     -4.828  0.1538E+01  0.1792E+01
     -4.738  0.2369E+01  0.1956E+01
     -4.647  0.0000E+00  0.2000E+01
     -4.557  0.0000E+00  0.2000E+01
     -4.467  0.0000E+00  0.2000E+01
     -4.376  0.0000E+00  0.2000E+01
     -4.286  0.0000E+00  0.2000E+01
     -4.195  0.0000E+00  0.2000E+01
     -4.105  0.0000E+00  0.2000E+01
     -4.015  0.0000E+00  0.2000E+01
     -3.924  0.0000E+00  0.2000E+01
     -3.834  0.0000E+00  0.2000E+01
     -3.744  0.0000E+00  0.2000E+01
     -3.653  0.0000E+00  0.2000E+01
     -3.563  0.0000E+00  0.2000E+01
     -3.473  0.0000E+00  0.2000E+01
     -3.382  0.0000E+00  0.2000E+01
     -3.292  0.0000E+00  0.2000E+01
     -3.201  0.0000E+00  0.2000E+01
     -3.111  0.0000E+00  0.2000E+01
     -3.021  0.0000E+00  0.2000E+01
     -2.930  0.0000E+00  0.2000E+01
     -2.840  0.0000E+00  0.2000E+01
     -2.750  0.0000E+00  0.2000E+01
     -2.659  0.0000E+00  0.2000E+01
     -2.569  0.0000E+00  0.2000E+01
     -2.479  0.0000E+00  0.2000E+01
     -2.388  0.0000E+00  0.2000E+01
     -2.298  0.0000E+00  0.2000E+01
     -2.207  0.0000E+00  0.2000E+01
     -2.117  0.0000E+00  0.2000E+01
     -2.027  0.0000E+00  0.2000E+01
     -1.936  0.0000E+00  0.2000E+01
     -1.846  0.0000E+00  0.2000E+01
     -1.756  0.0000E+00  0.2000E+01
     -1.665  0.0000E+00  0.2000E+01
     -1.575  0.0000E+00  0.2000E+01
     -1.484  0.0000E+00  0.2000E+01
     -1.394  0.0000E+00  0.2000E+01
     -1.304  0.0000E+00  0.2000E+01
     -1.213  0.0000E+00  0.2000E+01
     -1.123  0.0000E+00  0.2000E+01
     -1.033  0.0000E+00  0.2000E+01
     -0.942  0.0000E+00  0.2000E+01
     -0.852  0.0000E+00  0.2000E+01
     -0.762  0.2331E+00  0.2014E+01
     -0.671  0.3312E+00  0.2039E+01
     -0.581  0.4283E+00  0.2075E+01
     -0.490  0.6085E+00  0.2119E+01
     -0.400  0.8806E+00  0.2188E+01
     -0.310  0.1164E+01  0.2281E+01
     -0.219  0.1681E+01  0.2406E+01
     -0.129  0.2473E+01  0.2606E+01
     -0.039  0.2576E+01  0.2836E+01
      0.052  0.1182E+01  0.3000E+01
      0.142  0.9506E+00  0.3095E+01
      0.232  0.7583E+00  0.3170E+01
      0.323  0.6664E+00  0.3234E+01
      0.413  0.5684E+00  0.3289E+01
      0.504  0.5249E+00  0.3339E+01
      0.594  0.4804E+00  0.3384E+01
      0.684  0.4240E+00  0.3425E+01
      0.775  0.3976E+00  0.3462E+01
      0.865  0.3735E+00  0.3497E+01
      0.955  0.3457E+00  0.3530E+01
      1.046  0.3134E+00  0.3559E+01
      1.136  0.2963E+00  0.3587E+01
      1.226  0.2811E+00  0.3613E+01
      1.317  0.4468E+00  0.3642E+01
      1.407  0.6162E+00  0.3691E+01
      1.498  0.8143E+00  0.3756E+01
      1.588  0.1085E+01  0.3844E+01
      1.678  0.9863E+00  0.3939E+01
      1.769  0.9497E+00  0.4027E+01
      1.859  0.9289E+00  0.4111E+01
      1.949  0.8969E+00  0.4194E+01
      2.040  0.8764E+00  0.4274E+01
      2.130  0.8650E+00  0.4352E+01
      2.221  0.9258E+00  0.4432E+01
      2.311  0.9287E+00  0.4516E+01
      2.401  0.9627E+00  0.4602E+01
      2.492  0.9922E+00  0.4691E+01
      2.582  0.1052E+01  0.4783E+01
      2.672  0.1067E+01  0.4878E+01
      2.763  0.1138E+01  0.4978E+01
      2.853  0.1180E+01  0.5082E+01
      2.943  0.1339E+01  0.5197E+01
      3.034  0.1499E+01  0.5328E+01
      3.124  0.1465E+01  0.5461E+01
      3.215  0.1447E+01  0.5592E+01
      3.305  0.1432E+01  0.5722E+01
      3.395  0.1416E+01  0.5851E+01
      3.486  0.1383E+01  0.5977E+01
      3.576  0.1375E+01  0.6102E+01
      3.666  0.1363E+01  0.6226E+01
      3.757  0.1338E+01  0.6348E+01
      3.847  0.1328E+01  0.6468E+01
      3.937  0.1303E+01  0.6587E+01
      4.028  0.1296E+01  0.6704E+01
      4.118  0.1295E+01  0.6821E+01
      4.209  0.1278E+01  0.6938E+01
      4.299  0.1265E+01  0.7052E+01
      4.389  0.1250E+01  0.7166E+01
      4.480  0.1261E+01  0.7279E+01
      4.570  0.1243E+01  0.7392E+01
      4.660  0.1101E+01  0.7502E+01
      4.751  0.8703E+00  0.7590E+01
      4.841  0.7620E+00  0.7663E+01
      4.931  0.6729E+00  0.7728E+01
      5.022  0.5922E+00  0.7785E+01
      5.112  0.5235E+00  0.7835E+01
      5.203  0.4631E+00  0.7880E+01
      5.293  0.3968E+00  0.7919E+01
      5.383  0.3274E+00  0.7951E+01
      5.474  0.2626E+00  0.7979E+01
      5.564  0.1178E+00  0.7997E+01
      5.654  0.0000E+00  0.8000E+01
      5.745  0.0000E+00  0.8000E+01
      5.835  0.0000E+00  0.8000E+01
      5.925  0.0000E+00  0.8000E+01
      6.016  0.0000E+00  0.8000E+01
      6.106  0.0000E+00  0.8000E+01
      6.197  0.0000E+00  0.8000E+01
      6.287  0.0000E+00  0.8000E+01
      6.377  0.0000E+00  0.8000E+01
      6.468  0.0000E+00  0.8000E+01
      6.558  0.0000E+00  0.8000E+01
      6.648  0.0000E+00  0.8000E+01
      6.739  0.2098E-01  0.8001E+01
      6.829  0.6132E-01  0.8004E+01
      6.920  0.7907E-01  0.8011E+01
      7.010  0.1050E+00  0.8019E+01
      7.100  0.1279E+00  0.8029E+01
      7.191  0.1539E+00  0.8042E+01
      7.281  0.1832E+00  0.8057E+01
      7.371  0.2115E+00  0.8075E+01
      7.462  0.2390E+00  0.8095E+01
      7.552  0.2694E+00  0.8118E+01
      7.642  0.3023E+00  0.8144E+01
      7.733  0.3302E+00  0.8173E+01
      7.823  0.3560E+00  0.8204E+01
      7.914  0.3949E+00  0.8237E+01
      8.004  0.4689E+00  0.8276E+01
      8.094  0.5111E+00  0.8321E+01
      8.185  0.5477E+00  0.8369E+01
      8.275  0.5913E+00  0.8420E+01
      8.365  0.6398E+00  0.8476E+01
      8.456  0.6799E+00  0.8535E+01
      8.546  0.7363E+00  0.8599E+01
      8.636  0.8347E+00  0.8670E+01
      8.727  0.9275E+00  0.8750E+01
      8.817  0.1020E+01  0.8838E+01
      8.908  0.1126E+01  0.8935E+01
      8.998  0.1332E+01  0.9044E+01
      9.088  0.1530E+01  0.9176E+01
      9.179  0.1525E+01  0.9315E+01
      9.269  0.1517E+01  0.9452E+01
      9.359  0.1592E+01  0.9593E+01
      9.450  0.1620E+01  0.9738E+01
      9.540  0.1503E+01  0.9880E+01
      9.630  0.1341E+01  0.1001E+02
      9.721  0.1056E+01  0.1012E+02
      9.811  0.7966E+00  0.1020E+02
      9.902  0.5669E+00  0.1026E+02
      9.992  0.4577E+00  0.1031E+02
     10.082  0.6250E+00  0.1035E+02
     10.173  0.9775E+00  0.1043E+02
     10.263  0.1204E+01  0.1053E+02
     10.353  0.1412E+01  0.1065E+02
     10.444  0.1664E+01  0.1078E+02
     10.534  0.2235E+01  0.1095E+02
     10.625  0.2308E+01  0.1118E+02
     10.715  0.1860E+01  0.1137E+02
     10.805  0.1481E+01  0.1152E+02
     10.896  0.1366E+01  0.1164E+02
     10.986  0.1364E+01  0.1176E+02
     11.076  0.1201E+01  0.1188E+02
     11.167  0.1149E+01  0.1198E+02
     11.257  0.1157E+01  0.1209E+02
     11.347  0.1257E+01  0.1220E+02
     11.438  0.1343E+01  0.1231E+02
     11.528  0.1493E+01  0.1244E+02
     11.619  0.1224E+01  0.1256E+02
     11.709  0.1141E+01  0.1267E+02
     11.799  0.1116E+01  0.1277E+02
     11.890  0.1361E+01  0.1288E+02
     11.980  0.1220E+01  0.1299E+02
     12.070  0.1151E+01  0.1310E+02
     12.161  0.1105E+01  0.1320E+02
     12.251  0.1135E+01  0.1330E+02
     12.341  0.1137E+01  0.1340E+02
     12.432  0.1057E+01  0.1350E+02
     12.522  0.1039E+01  0.1360E+02
     12.613  0.1053E+01  0.1369E+02
     12.703  0.1006E+01  0.1378E+02
     12.793  0.9521E+00  0.1387E+02
     12.884  0.9891E+00  0.1396E+02
     12.974  0.9772E+00  0.1405E+02
     13.064  0.9348E+00  0.1413E+02
     13.155  0.9949E+00  0.1422E+02
     13.245  0.9673E+00  0.1431E+02
     13.335  0.8560E+00  0.1439E+02
     13.426  0.8051E+00  0.1447E+02
     13.516  0.8160E+00  0.1454E+02
     13.607  0.9156E+00  0.1462E+02
     13.697  0.1020E+01  0.1471E+02
     13.787  0.1158E+01  0.1480E+02
     13.878  0.1185E+01  0.1492E+02
     13.968  0.1032E+01  0.1501E+02
     14.058  0.9274E+00  0.1510E+02
     14.149  0.8167E+00  0.1518E+02
     14.239  0.7754E+00  0.1525E+02
     14.329  0.7507E+00  0.1532E+02
     14.420  0.6924E+00  0.1539E+02
     14.510  0.5896E+00  0.1545E+02
     14.601  0.4781E+00  0.1549E+02
     14.691  0.3956E+00  0.1553E+02
     14.781  0.3760E+00  0.1557E+02
     14.872  0.3439E+00  0.1560E+02
     14.962  0.3196E+00  0.1563E+02
     15.052  0.3042E+00  0.1566E+02
     15.143  0.2865E+00  0.1569E+02
     15.233  0.2702E+00  0.1571E+02
     15.324  0.2581E+00  0.1573E+02
     15.414  0.2460E+00  0.1576E+02
     15.504  0.2339E+00  0.1578E+02
     15.595  0.2213E+00  0.1580E+02
     15.685  0.2079E+00  0.1582E+02
     15.775  0.1994E+00  0.1584E+02
     15.866  0.1983E+00  0.1585E+02
     15.956  0.1838E+00  0.1587E+02
     16.046  0.1602E+00  0.1589E+02
     16.137  0.1439E+00  0.1590E+02
     16.227  0.1305E+00  0.1591E+02
     16.318  0.1195E+00  0.1593E+02
     16.408  0.1097E+00  0.1594E+02
     16.498  0.1031E+00  0.1595E+02
     16.589  0.1035E+00  0.1595E+02
     16.679  0.1023E+00  0.1596E+02
     16.769  0.8666E-01  0.1597E+02
     16.860  0.7209E-01  0.1598E+02
     16.950  0.5883E-01  0.1599E+02
     17.040  0.4687E-01  0.1599E+02
     17.131  0.3785E-01  0.1599E+02
     17.221  0.3564E-01  0.1600E+02
     17.312  0.0000E+00  0.1600E+02
     17.402  0.0000E+00  0.1600E+02
     17.492  0.0000E+00  0.1600E+02
     17.583  0.0000E+00  0.1600E+02
     17.673  0.0000E+00  0.1600E+02
     17.763  0.0000E+00  0.1600E+02
     17.854  0.0000E+00  0.1600E+02
     17.944  0.0000E+00  0.1600E+02
     18.034  0.0000E+00  0.1600E+02
     18.125  0.0000E+00  0.1600E+02
     18.215  0.0000E+00  0.1600E+02
     18.306  0.0000E+00  0.1600E+02
     18.396  0.0000E+00  0.1600E+02
     18.486  0.0000E+00  0.1600E+02
