    2    2    1    1
  0.1884694E+02  0.3763529E-09  0.3763529E-09  0.3763529E-09  0.0000000E+00
  1.000000000000000E-004
  CAR 
 unknown system                          
      8    286      8
 
  0.0000000E+00  0.0000000E+00  0.0000000E+00  0.1079797E-03
    1       -7.391112   1.000000
    2        5.616907   1.000000
    3        5.616907   1.000000
    4        5.616907   1.000000
    5        9.250818   0.000000
    6       10.221732   0.000000
    7       10.221732   0.000000
    8       10.221732   0.000000
 
  0.4761905E-01  0.0000000E+00  0.0000000E+00  0.8638376E-03
    1       -7.362974   1.000000
    2        5.330224   1.000000
    3        5.585716   1.000000
    4        5.585717   1.000000
    5        9.426148   0.000000
    6       10.278548   0.000000
    7       10.278548   0.000000
    8       10.280724   0.000000
 
  0.9523810E-01  0.0000000E+00  0.0000000E+00  0.8638376E-03
    1       -7.279066   1.000000
    2        4.647680   1.000000
    3        5.499212   1.000000
    4        5.499212   1.000000
    5        9.571007   0.000000
    6       10.431975   0.000000
    7       10.431975   0.000000
    8       10.677771   0.000000
 
  0.1428571E+00  0.0000000E+00  0.0000000E+00  0.8638376E-03
    1       -7.141290   1.000000
    2        3.805578   1.000000
    3        5.374657   1.000000
    4        5.374657   1.000000
    5        9.464776   0.000000
    6       10.631794   0.000000
    7       10.631794   0.000000
    8       11.432297   0.000000
 
  0.1904762E+00  0.0000000E+00  0.0000000E+00  0.8638376E-03
    1       -6.953073   1.000000
    2        2.922947   1.000000
    3        5.231814   1.000000
    4        5.231814   1.000000
    5        9.275353   0.000000
    6       10.799920   0.000000
    7       10.799920   0.000000
    8       12.283711   0.000000
 
  0.2380952E+00  0.0000000E+00  0.0000000E+00  0.8638376E-03
    1       -6.720301   1.000000
    2        2.056266   1.000000
    3        5.087648   1.000000
    4        5.087648   1.000000
    5        9.075546   0.000000
    6       10.861912   0.000000
    7       10.861912   0.000000
    8       13.087899   0.000000
 
  0.2857143E+00  0.0000000E+00  0.0000000E+00  0.8638376E-03
    1       -6.452509   1.000000
    2        1.239883   1.000000
    3        4.954650   1.000000
    4        4.954650   1.000000
    5        8.892708   0.000000
    6       10.806386   0.000000
    7       10.806387   0.000000
    8       13.668048   0.000000
 
  0.3333333E+00  0.0000000E+00  0.0000000E+00  0.8638376E-03
    1       -6.165407   1.000000
    2        0.503086   1.000000
    3        4.841219   1.000000
    4        4.841219   1.000000
    5        8.739383   0.000000
    6       10.684876   0.000000
    7       10.684876   0.000000
    8       13.857576   0.000000
 
  0.3809524E+00  0.0000000E+00  0.0000000E+00  0.8638376E-03
    1       -5.884533   1.000000
    2       -0.120482   1.000000
    3        4.752680   1.000000
    4        4.752681   1.000000
    5        8.621595   0.000000
    6       10.554475   0.000000
    7       10.554475   0.000000
    8       13.809016   0.000000
 
  0.4285714E+00  0.0000000E+00  0.0000000E+00  0.8638376E-03
    1       -5.649367   1.000000
    2       -0.586454   1.000000
    3        4.692232   1.000000
    4        4.692232   1.000000
    5        8.542159   0.000000
    6       10.451942   0.000000
    7       10.451942   0.000000
    8       13.718483   0.000000
 
  0.4761905E+00  0.0000000E+00  0.0000000E+00  0.8638376E-03
    1       -5.511021   1.000000
    2       -0.840845   1.000000
    3        4.661624   1.000000
    4        4.661624   1.000000
    5        8.502245   0.000000
    6       10.396620   0.000000
    7       10.396620   0.000000
    8       13.661818   0.000000
 
  0.4761905E-01  0.4761905E-01  0.0000000E+00  0.6478782E-03
    1       -7.353579   1.000000
    2        5.365775   1.000000
    3        5.508038   1.000000
    4        5.508039   1.000000
    5        9.520493   0.000000
    6       10.097563   0.000000
    7       10.383744   0.000000
    8       10.383744   0.000000
 
  0.9523810E-01  0.4761905E-01  0.0000000E+00  0.2591513E-02
    1       -7.288223   1.000000
    2        4.841242   1.000000
    3        5.382797   1.000000
    4        5.470848   1.000000
    5        9.744384   0.000000
    6       10.065732   0.000000
    7       10.582026   0.000000
    8       10.678896   0.000000
 
  0.1428571E+00  0.4761905E-01  0.0000000E+00  0.2591513E-02
    1       -7.168347   1.000000
    2        4.060915   1.000000
    3        5.231065   1.000000
    4        5.398971   1.000000
    5        9.677521   0.000000
    6       10.249442   0.000000
    7       10.824233   0.000000
    8       11.282445   0.000000
 
  0.1904762E+00  0.4761905E-01  0.0000000E+00  0.2591513E-02
    1       -6.996777   1.000000
    2        3.202240   1.000000
    3        5.072995   1.000000
    4        5.278710   1.000000
    5        9.498635   0.000000
    6       10.462614   0.000000
    7       11.036600   0.000000
    8       11.969464   0.000000
 
  0.2380952E+00  0.4761905E-01  0.0000000E+00  0.2591513E-02
    1       -6.778523   1.000000
    2        2.338539   1.000000
    3        4.924362   1.000000
    4        5.131172   1.000000
    5        9.303084   0.000000
    6       10.598784   0.000000
    7       11.140203   0.000000
    8       12.530822   0.000000
 
  0.2857143E+00  0.4761905E-01  0.0000000E+00  0.2591513E-02
    1       -6.521684   1.000000
    2        1.510945   1.000000
    3        4.796163   1.000000
    4        4.975503   1.000000
    5        9.119141   0.000000
    6       10.603128   0.000000
    7       11.105777   0.000000
    8       13.008854   0.000000
 
  0.3333333E+00  0.4761905E-01  0.0000000E+00  0.2591513E-02
    1       -6.239613   1.000000
    2        0.750613   1.000000
    3        4.695442   1.000000
    4        4.825975   1.000000
    5        8.960744   0.000000
    6       10.514745   0.000000
    7       10.975584   0.000000
    8       13.491610   0.000000
 
  0.3809524E+00  0.4761905E-01  0.0000000E+00  0.2591513E-02
    1       -5.954044   1.000000
    2        0.089679   1.000000
    3        4.626325   1.000000
    4        4.692490   1.000000
    5        8.835239   0.000000
    6       10.404484   0.000000
    7       10.812234   0.000000
    8       13.811385   0.000000
 
  0.4285714E+00  0.4761905E-01  0.0000000E+00  0.2591513E-02
    1       -5.699441   1.000000
    2       -0.431090   1.000000
    3        4.581840   1.000000
    4        4.590773   1.000000
    5        8.746365   0.000000
    6       10.319031   0.000000
    7       10.660883   0.000000
    8       13.873926   0.000000
 
  0.4761905E+00  0.4761905E-01  0.0000000E+00  0.2591513E-02
    1       -5.523952   1.000000
    2       -0.759807   1.000000
    3        4.498754   1.000000
    4        4.589166   1.000000
    5        8.695818   0.000000
    6       10.281493   0.000000
    7       10.547330   0.000000
    8       13.853264   0.000000
 
 -0.4761905E+00  0.4761905E-01  0.0000000E+00  0.2591513E-02
    1       -5.475627   1.000000
    2       -0.846490   1.000000
    3        4.446602   1.000000
    4        4.620696   1.000000
    5        8.684203   0.000000
    6       10.301318   0.000000
    7       10.484586   0.000000
    8       13.847255   0.000000
 
 -0.4285714E+00  0.4761905E-01  0.0000000E+00  0.2591513E-02
    1       -5.570510   1.000000
    2       -0.674661   1.000000
    3        4.427769   1.000000
    4        4.683541   1.000000
    5        8.711551   0.000000
    6       10.379449   0.000000
    7       10.477060   0.000000
    8       13.875812   0.000000
 
 -0.3809524E+00  0.4761905E-01  0.0000000E+00  0.2591513E-02
    1       -5.778329   1.000000
    2       -0.275536   1.000000
    3        4.443772   1.000000
    4        4.774918   1.000000
    5        8.777524   0.000000
    6       10.509427   0.000000
    7       10.521459   0.000000
    8       13.914970   0.000000
 
 -0.3333333E+00  0.4761905E-01  0.0000000E+00  0.2591513E-02
    1       -6.048024   1.000000
    2        0.297276   1.000000
    3        4.495174   1.000000
    4        4.890921   1.000000
    5        8.881224   0.000000
    6       10.604600   0.000000
    7       10.675104   0.000000
    8       13.874232   0.000000
 
 -0.2857143E+00  0.4761905E-01  0.0000000E+00  0.2591513E-02
    1       -6.335542   1.000000
    2        0.995107   1.000000
    3        4.581353   1.000000
    4        5.026085   1.000000
    5        9.020617   0.000000
    6       10.697649   0.000000
    7       10.843962   0.000000
    8       13.596734   0.000000
 
 -0.2380952E+00  0.4761905E-01  0.0000000E+00  0.2591513E-02
    1       -6.611091   1.000000
    2        1.780418   1.000000
    3        4.700116   1.000000
    4        5.172725   1.000000
    5        9.191294   0.000000
    6       10.750327   0.000000
    7       10.956236   0.000000
    8       13.087253   0.000000
 
 -0.1904762E+00  0.4761905E-01  0.0000000E+00  0.2591513E-02
    1       -6.856211   1.000000
    2        2.621654   1.000000
    3        4.847208   1.000000
    4        5.319951   1.000000
    5        9.384092   0.000000
    6       10.707334   0.000000
    7       10.928495   0.000000
    8       12.477079   0.000000
 
 -0.1428571E+00  0.4761905E-01  0.0000000E+00  0.2591513E-02
    1       -7.059582   1.000000
    2        3.483781   1.000000
    3        5.015920   1.000000
    4        5.452839   1.000000
    5        9.579106   0.000000
    6       10.567101   0.000000
    7       10.719373   0.000000
    8       11.811408   0.000000
 
 -0.9523810E-01  0.4761905E-01  0.0000000E+00  0.2591513E-02
    1       -7.214318   1.000000
    2        4.311911   1.000000
    3        5.198351   1.000000
    4        5.552825   1.000000
    5        9.720218   0.000000
    6       10.400336   0.000000
    7       10.407428   0.000000
    8       11.152451   0.000000
 
 -0.4761905E-01  0.4761905E-01  0.0000000E+00  0.1295756E-02
    1       -7.316219   1.000000
    2        4.989583   1.000000
    3        5.396523   1.000000
    4        5.601123   1.000000
    5        9.631460   0.000000
    6       10.236660   0.000000
    7       10.287865   0.000000
    8       10.620971   0.000000
 
  0.9523810E-01  0.9523810E-01  0.0000000E+00  0.6478782E-03
    1       -7.241592   1.000000
    2        4.768191   1.000000
    3        5.224277   1.000000
    4        5.224277   1.000000
    5        9.750116   0.000000
    6       10.155136   0.000000
    7       10.825399   0.000000
    8       10.825399   0.000000
 
  0.1428571E+00  0.9523810E-01  0.0000000E+00  0.2591513E-02
    1       -7.140149   1.000000
    2        4.194810   1.000000
    3        5.047271   1.000000
    4        5.134612   1.000000
    5        9.623061   0.000000
    6       10.338335   0.000000
    7       11.115140   0.000000
    8       11.260516   0.000000
 
  0.1904762E+00  0.9523810E-01  0.0000000E+00  0.2591513E-02
    1       -6.986258   1.000000
    2        3.420101   1.000000
    3        4.872100   1.000000
    4        5.041838   1.000000
    5        9.568667   0.000000
    6       10.411314   0.000000
    7       11.382943   0.000000
    8       11.662437   0.000000
 
  0.2380952E+00  0.9523810E-01  0.0000000E+00  0.2591513E-02
    1       -6.784179   1.000000
    2        2.597210   1.000000
    3        4.713845   1.000000
    4        4.897218   1.000000
    5        9.490057   0.000000
    6       10.521990   0.000000
    7       11.547041   0.000000
    8       11.787995   0.000000
 
  0.2857143E+00  0.9523810E-01  0.0000000E+00  0.2591513E-02
    1       -6.540844   1.000000
    2        1.785083   1.000000
    3        4.582763   1.000000
    4        4.720340   1.000000
    5        9.370309   0.000000
    6       10.569763   0.000000
    7       11.557836   0.000000
    8       11.992207   0.000000
 
  0.3333333E+00  0.9523810E-01  0.0000000E+00  0.2591513E-02
    1       -6.267665   1.000000
    2        1.021559   1.000000
    3        4.485342   1.000000
    4        4.533701   1.000000
    5        9.242103   0.000000
    6       10.489909   0.000000
    7       11.441437   0.000000
    8       12.453932   0.000000
 
  0.3809524E+00  0.9523810E-01  0.0000000E+00  0.2591513E-02
    1       -5.983133   1.000000
    2        0.340336   1.000000
    3        4.354297   1.000000
    4        4.425281   1.000000
    5        9.132079   0.000000
    6       10.365264   0.000000
    7       11.263367   0.000000
    8       13.076144   0.000000
 
  0.4285714E+00  0.9523810E-01  0.0000000E+00  0.2591513E-02
    1       -5.716905   1.000000
    2       -0.219743   1.000000
    3        4.193954   1.000000
    4        4.404186   1.000000
    5        9.054869   0.000000
    6       10.259407   0.000000
    7       11.077838   0.000000
    8       13.705823   0.000000
 
  0.4761905E+00  0.9523810E-01  0.0000000E+00  0.2591513E-02
    1       -5.512465   1.000000
    2       -0.609698   1.000000
    3        4.060919   1.000000
    4        4.421999   1.000000
    5        9.017114   0.000000
    6       10.198670   0.000000
    7       10.917585   0.000000
    8       14.124469   0.000000
 
 -0.4761905E+00  0.9523810E-01  0.0000000E+00  0.2591513E-02
    1       -5.419677   1.000000
    2       -0.776631   1.000000
    3        3.961175   1.000000
    4        4.477253   1.000000
    5        9.020229   0.000000
    6       10.194186   0.000000
    7       10.800290   0.000000
    8       14.277541   0.000000
 
 -0.4285714E+00  0.9523810E-01  0.0000000E+00  0.2591513E-02
    1       -5.467769   1.000000
    2       -0.690284   1.000000
    3        3.899218   1.000000
    4        4.567124   1.000000
    5        9.062374   0.000000
    6       10.250537   0.000000
    7       10.734080   0.000000
    8       14.310692   0.000000
 
 -0.3809524E+00  0.9523810E-01  0.0000000E+00  0.2591513E-02
    1       -5.640959   1.000000
    2       -0.367184   1.000000
    3        3.878487   1.000000
    4        4.687388   1.000000
    5        9.140264   0.000000
    6       10.366809   0.000000
    7       10.719550   0.000000
    8       14.244984   0.000000
 
 -0.3333333E+00  0.9523810E-01  0.0000000E+00  0.2591513E-02
    1       -5.892385   1.000000
    2        0.142978   1.000000
    3        3.901651   1.000000
    4        4.832186   1.000000
    5        9.250616   0.000000
    6       10.533600   0.000000
    7       10.748460   0.000000
    8       13.977498   0.000000
 
 -0.2857143E+00  0.9523810E-01  0.0000000E+00  0.2591513E-02
    1       -6.174786   1.000000
    2        0.787339   1.000000
    3        3.970855   1.000000
    4        4.993534   1.000000
    5        9.390543   0.000000
    6       10.725258   0.000000
    7       10.798416   0.000000
    8       13.475930   0.000000
 
 -0.2380952E+00  0.9523810E-01  0.0000000E+00  0.2591513E-02
    1       -6.454100   1.000000
    2        1.521678   1.000000
    3        4.088262   1.000000
    4        5.160650   1.000000
    5        9.556529   0.000000
    6       10.825166   0.000000
    7       10.881035   0.000000
    8       12.901223   0.000000
 
 -0.1904762E+00  0.9523810E-01  0.0000000E+00  0.2591513E-02
    1       -6.708670   1.000000
    2        2.305729   1.000000
    3        4.257583   1.000000
    4        5.319162   1.000000
    5        9.741577   0.000000
    6       10.772741   0.000000
    7       10.877608   0.000000
    8       12.431602   0.000000
 
 -0.1428571E+00  0.9523810E-01  0.0000000E+00  0.2591513E-02
    1       -6.925151   1.000000
    2        3.089411   1.000000
    3        4.488385   1.000000
    4        5.450683   1.000000
    5        9.925861   0.000000
    6       10.623839   0.000000
    7       10.634369   0.000000
    8       12.102371   0.000000
 
 -0.9523810E-01  0.9523810E-01  0.0000000E+00  0.1295756E-02
    1       -7.095370   1.000000
    2        3.791318   1.000000
    3        4.803231   1.000000
    4        5.534475   1.000000
    5        9.986205   0.000000
    6       10.344969   0.000000
    7       10.482620   0.000000
    8       11.700756   0.000000
 
  0.1428571E+00  0.1428571E+00  0.0000000E+00  0.6478782E-03
    1       -7.057297   1.000000
    2        4.029905   1.000000
    3        4.848972   1.000000
    4        4.848973   1.000000
    5        9.312476   0.000000
    6       10.665682   0.000000
    7       11.459238   0.000000
    8       11.459238   0.000000
 
  0.1904762E+00  0.1428571E+00  0.0000000E+00  0.2591513E-02
    1       -6.921722   1.000000
    2        3.481595   1.000000
    3        4.657024   1.000000
    4        4.705326   1.000000
    5        9.163588   0.000000
    6       10.659086   0.000000
    7       11.704919   0.000000
    8       11.793883   0.000000
 
  0.2380952E+00  0.1428571E+00  0.0000000E+00  0.2591513E-02
    1       -6.737037   1.000000
    2        2.768296   1.000000
    3        4.486414   1.000000
    4        4.558165   1.000000
    5        9.140040   0.000000
    6       10.644055   0.000000
    7       11.608106   0.000000
    8       12.037131   0.000000
 
  0.2857143E+00  0.1428571E+00  0.0000000E+00  0.2591513E-02
    1       -6.509255   1.000000
    2        2.015797   1.000000
    3        4.347210   1.000000
    4        4.362713   1.000000
    5        9.127198   0.000000
    6       10.790559   0.000000
    7       11.436022   0.000000
    8       12.118865   0.000000
 
  0.3333333E+00  0.1428571E+00  0.0000000E+00  0.2591513E-02
    1       -6.248219   1.000000
    2        1.281177   1.000000
    3        4.139057   1.000000
    4        4.245818   1.000000
    5        9.067158   0.000000
    6       10.963634   0.000000
    7       11.484481   0.000000
    8       12.041054   0.000000
 
  0.3809524E+00  0.1428571E+00  0.0000000E+00  0.2591513E-02
    1       -5.969761   1.000000
    2        0.605024   1.000000
    3        3.912259   1.000000
    4        4.185949   1.000000
    5        8.990169   0.000000
    6       10.879883   0.000000
    7       11.867919   0.000000
    8       12.009502   0.000000
 
  0.4285714E+00  0.1428571E+00  0.0000000E+00  0.2591513E-02
    1       -5.699301   1.000000
    2        0.027332   1.000000
    3        3.700891   1.000000
    4        4.169271   1.000000
    5        8.936459   0.000000
    6       10.752778   0.000000
    7       11.663976   0.000000
    8       12.738055   0.000000
 
  0.4761905E+00  0.1428571E+00  0.0000000E+00  0.2591513E-02
    1       -5.475063   1.000000
    2       -0.404776   1.000000
    3        3.517626   1.000000
    4        4.195808   1.000000
    5        8.928062   0.000000
    6       10.650671   0.000000
    7       11.470468   0.000000
    8       13.540787   0.000000
 
 -0.4761905E+00  0.1428571E+00  0.0000000E+00  0.2591513E-02
    1       -5.345056   1.000000
    2       -0.638285   1.000000
    3        3.371285   1.000000
    4        4.264087   1.000000
    5        8.973665   0.000000
    6       10.586595   0.000000
    7       11.310157   0.000000
    8       14.291836   0.000000
 
 -0.4285714E+00  0.1428571E+00  0.0000000E+00  0.2591513E-02
    1       -5.346917   1.000000
    2       -0.633484   1.000000
    3        3.268449   1.000000
    4        4.371097   1.000000
    5        9.073975   0.000000
    6       10.566318   0.000000
    7       11.194362   0.000000
    8       14.704225   0.000000
 
 -0.3809524E+00  0.1428571E+00  0.0000000E+00  0.2591513E-02
    1       -5.479956   1.000000
    2       -0.391746   1.000000
    3        3.214593   1.000000
    4        4.512094   1.000000
    5        9.224085   0.000000
    6       10.593673   0.000000
    7       11.126265   0.000000
    8       14.576284   0.000000
 
 -0.3333333E+00  0.1428571E+00  0.0000000E+00  0.2591513E-02
    1       -5.705796   1.000000
    2        0.044593   1.000000
    3        3.215094   1.000000
    4        4.680196   1.000000
    5        9.414319   0.000000
    6       10.669568   0.000000
    7       11.100383   0.000000
    8       14.060612   0.000000
 
 -0.2857143E+00  0.1428571E+00  0.0000000E+00  0.2591513E-02
    1       -5.976608   1.000000
    2        0.618877   1.000000
    3        3.276713   1.000000
    4        4.865716   1.000000
    5        9.630890   0.000000
    6       10.784688   0.000000
    7       11.097267   0.000000
    8       13.381560   0.000000
 
 -0.2380952E+00  0.1428571E+00  0.0000000E+00  0.2591513E-02
    1       -6.254638   1.000000
    2        1.275649   1.000000
    3        3.410575   1.000000
    4        5.055324   1.000000
    5        9.857222   0.000000
    6       10.894860   0.000000
    7       11.073916   0.000000
    8       12.724813   0.000000
 
 -0.1904762E+00  0.1428571E+00  0.0000000E+00  0.2591513E-02
    1       -6.514834   1.000000
    2        1.955199   1.000000
    3        3.638111   1.000000
    4        5.231137   1.000000
    5       10.071385   0.000000
    6       10.866185   0.000000
    7       10.973329   0.000000
    8       12.279981   0.000000
 
 -0.1428571E+00  0.1428571E+00  0.0000000E+00  0.1295756E-02
    1       -6.741582   1.000000
    2        2.581845   1.000000
    3        3.994398   1.000000
    4        5.370854   1.000000
    5       10.190342   0.000000
    6       10.629960   0.000000
    7       10.797642   0.000000
    8       12.162179   0.000000
 
  0.1904762E+00  0.1904762E+00  0.0000000E+00  0.6478782E-03
    1       -6.804675   1.000000
    2        3.248402   1.000000
    3        4.449724   1.000000
    4        4.449724   1.000000
    5        8.827626   0.000000
    6       10.452374   0.000000
    7       12.211847   0.000000
    8       12.211852   0.000000
 
  0.2380952E+00  0.1904762E+00  0.0000000E+00  0.2591513E-02
    1       -6.638204   1.000000
    2        2.744474   1.000000
    3        4.265715   1.000000
    4        4.266520   1.000000
    5        8.677385   0.000000
    6       10.202922   0.000000
    7       12.351824   0.000000
    8       12.557558   0.000000
 
  0.2857143E+00  0.1904762E+00  0.0000000E+00  0.2591513E-02
    1       -6.427609   1.000000
    2        2.119140   1.000000
    3        4.049587   1.000000
    4        4.115351   1.000000
    5        8.660110   0.000000
    6       10.118942   0.000000
    7       12.241782   0.000000
    8       12.742414   0.000000
 
  0.3333333E+00  0.1904762E+00  0.0000000E+00  0.2591513E-02
    1       -6.181484   1.000000
    2        1.464300   1.000000
    3        3.784795   1.000000
    4        4.005238   1.000000
    5        8.650613   0.000000
    6       10.307760   0.000000
    7       12.092782   0.000000
    8       12.734398   0.000000
 
  0.3809524E+00  0.1904762E+00  0.0000000E+00  0.2591513E-02
    1       -5.913577   1.000000
    2        0.833735   1.000000
    3        3.501928   1.000000
    4        3.939328   1.000000
    5        8.605694   0.000000
    6       10.743390   0.000000
    7       11.977429   0.000000
    8       12.588743   0.000000
 
  0.4285714E+00  0.1904762E+00  0.0000000E+00  0.2591513E-02
    1       -5.645784   1.000000
    2        0.272148   1.000000
    3        3.229738   1.000000
    4        3.919542   1.000000
    5        8.566529   0.000000
    6       11.217635   0.000000
    7       12.038409   0.000000
    8       12.382329   0.000000
 
  0.4761905E+00  0.1904762E+00  0.0000000E+00  0.2591513E-02
    1       -5.411265   1.000000
    2       -0.173053   1.000000
    3        2.987648   1.000000
    4        3.946186   1.000000
    5        8.568697   0.000000
    6       11.371583   0.000000
    7       12.168181   0.000000
    8       12.574096   0.000000
 
 -0.4761905E+00  0.1904762E+00  0.0000000E+00  0.2591513E-02
    1       -5.253914   1.000000
    2       -0.449576   1.000000
    3        2.788268   1.000000
    4        4.018067   1.000000
    5        8.627965   0.000000
    6       11.343569   0.000000
    7       11.975663   0.000000
    8       13.400264   0.000000
 
 -0.4285714E+00  0.1904762E+00  0.0000000E+00  0.2591513E-02
    1       -5.214580   1.000000
    2       -0.512695   1.000000
    3        2.640668   1.000000
    4        4.132396   1.000000
    5        8.749107   0.000000
    6       11.302062   0.000000
    7       11.819334   0.000000
    8       14.269505   0.000000
 
 -0.3809524E+00  0.1904762E+00  0.0000000E+00  0.2591513E-02
    1       -5.305167   1.000000
    2       -0.351303   1.000000
    3        2.552997   1.000000
    4        4.284557   1.000000
    5        8.930890   0.000000
    6       11.282585   0.000000
    7       11.703744   0.000000
    8       14.665207   0.000000
 
 -0.3333333E+00  0.1904762E+00  0.0000000E+00  0.2591513E-02
    1       -5.498786   1.000000
    2        0.000983   1.000000
    3        2.535158   1.000000
    4        4.467533   1.000000
    5        9.167369   0.000000
    6       11.292433   0.000000
    7       11.623062   0.000000
    8       14.087865   0.000000
 
 -0.2857143E+00  0.1904762E+00  0.0000000E+00  0.2591513E-02
    1       -5.750748   1.000000
    2        0.482791   1.000000
    3        2.603029   1.000000
    4        4.671067   1.000000
    5        9.446676   0.000000
    6       11.323429   0.000000
    7       11.553924   0.000000
    8       13.320449   0.000000
 
 -0.2380952E+00  0.1904762E+00  0.0000000E+00  0.2591513E-02
    1       -6.021123   1.000000
    2        1.020094   1.000000
    3        2.785379   1.000000
    4        4.880537   1.000000
    5        9.746096   0.000000
    6       11.325929   0.000000
    7       11.442913   0.000000
    8       12.630743   0.000000
 
 -0.1904762E+00  0.1904762E+00  0.0000000E+00  0.1295756E-02
    1       -6.281865   1.000000
    2        1.530247   1.000000
    3        3.124854   1.000000
    4        5.075785   1.000000
    5       10.013097   0.000000
    6       11.144277   0.000000
    7       11.234386   0.000000
    8       12.258275   0.000000
 
  0.2380952E+00  0.2380952E+00  0.0000000E+00  0.6478782E-03
    1       -6.490344   1.000000
    2        2.463482   1.000000
    3        4.068327   1.000000
    4        4.068327   1.000000
    5        8.339857   0.000000
    6        9.785115   0.000000
    7       13.035329   0.000000
    8       13.035335   0.000000
 
  0.2857143E+00  0.2380952E+00  0.0000000E+00  0.2591513E-02
    1       -6.298176   1.000000
    2        2.006824   1.000000
    3        3.861547   1.000000
    4        3.905284   1.000000
    5        8.197480   0.000000
    6        9.527639   0.000000
    7       13.195749   0.000000
    8       13.368645   0.000000
 
  0.3333333E+00  0.2380952E+00  0.0000000E+00  0.2591513E-02
    1       -6.069347   1.000000
    2        1.478663   1.000000
    3        3.576421   1.000000
    4        3.783663   1.000000
    5        8.184270   0.000000
    6        9.515795   0.000000
    7       13.110356   0.000000
    8       13.478144   0.000000
 
  0.3809524E+00  0.2380952E+00  0.0000000E+00  0.2591513E-02
    1       -5.816081   1.000000
    2        0.942644   1.000000
    3        3.235532   1.000000
    4        3.707766   1.000000
    5        8.178845   0.000000
    6        9.814198   0.000000
    7       12.973270   0.000000
    8       13.392184   0.000000
 
  0.4285714E+00  0.2380952E+00  0.0000000E+00  0.2591513E-02
    1       -5.557489   1.000000
    2        0.444800   1.000000
    3        2.886787   1.000000
    4        3.679865   1.000000
    5        8.162841   0.000000
    6       10.367454   0.000000
    7       12.842997   0.000000
    8       13.202119   0.000000
 
  0.4761905E+00  0.2380952E+00  0.0000000E+00  0.2591513E-02
    1       -5.322363   1.000000
    2        0.030687   1.000000
    3        2.566269   1.000000
    4        3.700611   1.000000
    5        8.175179   0.000000
    6       11.058978   0.000000
    7       12.766705   0.000000
    8       12.979530   0.000000
 
 -0.4761905E+00  0.2380952E+00  0.0000000E+00  0.2591513E-02
    1       -5.149478   1.000000
    2       -0.250058   1.000000
    3        2.295917   1.000000
    4        3.769174   1.000000
    5        8.240212   0.000000
    6       11.713019   0.000000
    7       12.763774   0.000000
    8       12.868997   0.000000
 
 -0.4285714E+00  0.2380952E+00  0.0000000E+00  0.2591513E-02
    1       -5.078548   1.000000
    2       -0.352538   1.000000
    3        2.090021   1.000000
    4        3.883184   1.000000
    5        8.367012   0.000000
    6       12.028120   0.000000
    7       12.573346   0.000000
    8       13.409201   0.000000
 
 -0.3809524E+00  0.2380952E+00  0.0000000E+00  0.2591513E-02
    1       -5.129118   1.000000
    2       -0.259254   1.000000
    3        1.961759   1.000000
    4        4.038441   1.000000
    5        8.556896   0.000000
    6       12.084878   0.000000
    7       12.412443   0.000000
    8       14.181058   0.000000
 
 -0.3333333E+00  0.2380952E+00  0.0000000E+00  0.2591513E-02
    1       -5.286156   1.000000
    2        0.001101   1.000000
    3        1.930130   1.000000
    4        4.228292   1.000000
    5        8.806285   0.000000
    6       12.082481   0.000000
    7       12.268825   0.000000
    8       14.080790   0.000000
 
 -0.2857143E+00  0.2380952E+00  0.0000000E+00  0.2591513E-02
    1       -5.511765   1.000000
    2        0.357494   1.000000
    3        2.028953   1.000000
    4        4.442753   1.000000
    5        9.106100   0.000000
    6       12.046424   0.000000
    7       12.099361   0.000000
    8       13.331965   0.000000
 
 -0.2380952E+00  0.2380952E+00  0.0000000E+00  0.1295756E-02
    1       -5.766750   1.000000
    2        0.717652   1.000000
    3        2.307136   1.000000
    4        4.667141   1.000000
    5        9.436593   0.000000
    6       11.825510   0.000000
    7       11.842343   0.000000
    8       12.760603   0.000000
 