   2   2   0   0
  0.2354465E+02  0.4053334E-09  0.4053334E-09  0.4053334E-09  0.1000000E-15
  1.000000000000000E-004
  CAR 
 unknown system                          
     14.59083745     -9.14359194  301      3.99007707      1.00000000
     -9.144  0.0000E+00  0.0000E+00
     -9.064  0.0000E+00  0.0000E+00
     -8.985  0.0000E+00  0.0000E+00
     -8.906  0.0000E+00  0.0000E+00
     -8.827  0.0000E+00  0.0000E+00
     -8.748  0.0000E+00  0.0000E+00
     -8.669  0.0000E+00  0.0000E+00
     -8.590  0.5473E-17  0.4330E-18
     -8.511  0.1683E-13  0.1332E-14
     -8.432  0.1600E-10  0.1267E-11
     -8.352  0.4799E-08  0.3809E-09
     -8.273  0.4656E-06  0.3721E-07
     -8.194  0.1528E-04  0.1246E-05
     -8.115  0.1832E-03  0.1574E-04
     -8.036  0.9071E-03  0.8750E-04
     -7.957  0.2243E-02  0.2650E-03
     -7.878  0.3579E-02  0.5482E-03
     -7.799  0.4647E-02  0.9158E-03
     -7.720  0.5575E-02  0.1357E-02
     -7.640  0.6417E-02  0.1865E-02
     -7.561  0.7315E-02  0.2443E-02
     -7.482  0.8058E-02  0.3081E-02
     -7.403  0.9125E-02  0.3803E-02
     -7.324  0.9838E-02  0.4581E-02
     -7.245  0.1103E-01  0.5454E-02
     -7.166  0.1215E-01  0.6415E-02
     -7.087  0.1321E-01  0.7460E-02
     -7.007  0.1515E-01  0.8659E-02
     -6.928  0.1661E-01  0.9973E-02
     -6.849  0.1949E-01  0.1152E-01
     -6.770  0.2330E-01  0.1336E-01
     -6.691  0.2787E-01  0.1556E-01
     -6.612  0.3122E-01  0.1803E-01
     -6.533  0.3215E-01  0.2058E-01
     -6.454  0.3291E-01  0.2318E-01
     -6.375  0.3407E-01  0.2588E-01
     -6.295  0.3587E-01  0.2871E-01
     -6.216  0.3328E-01  0.3135E-01
     -6.137  0.1938E-01  0.3288E-01
     -6.058  0.5175E-02  0.3329E-01
     -5.979  0.5293E-03  0.3333E-01
     -5.900  0.1883E-04  0.3333E-01
     -5.821  0.2201E-06  0.3333E-01
     -5.742  0.8139E-09  0.3333E-01
     -5.663  0.9286E-12  0.3333E-01
     -5.583  0.3206E-15  0.3333E-01
     -5.504  0.0000E+00  0.3333E-01
     -5.425  0.0000E+00  0.3333E-01
     -5.346  0.0000E+00  0.3333E-01
     -5.267  0.0000E+00  0.3333E-01
     -5.188  0.0000E+00  0.3333E-01
     -5.109  0.0000E+00  0.3333E-01
     -5.030  0.0000E+00  0.3333E-01
     -4.951  0.0000E+00  0.3333E-01
     -4.871  0.0000E+00  0.3333E-01
     -4.792  0.0000E+00  0.3333E-01
     -4.713  0.0000E+00  0.3333E-01
     -4.634  0.0000E+00  0.3333E-01
     -4.555  0.0000E+00  0.3333E-01
     -4.476  0.0000E+00  0.3333E-01
     -4.397  0.0000E+00  0.3333E-01
     -4.318  0.0000E+00  0.3333E-01
     -4.238  0.0000E+00  0.3333E-01
     -4.159  0.0000E+00  0.3333E-01
     -4.080  0.0000E+00  0.3333E-01
     -4.001  0.0000E+00  0.3333E-01
     -3.922  0.0000E+00  0.3333E-01
     -3.843  0.0000E+00  0.3333E-01
     -3.764  0.0000E+00  0.3333E-01
     -3.685  0.0000E+00  0.3333E-01
     -3.606  0.0000E+00  0.3333E-01
     -3.526  0.0000E+00  0.3333E-01
     -3.447  0.0000E+00  0.3333E-01
     -3.368  0.0000E+00  0.3333E-01
     -3.289  0.0000E+00  0.3333E-01
     -3.210  0.0000E+00  0.3333E-01
     -3.131  0.0000E+00  0.3333E-01
     -3.052  0.0000E+00  0.3333E-01
     -2.973  0.0000E+00  0.3333E-01
     -2.894  0.0000E+00  0.3333E-01
     -2.814  0.0000E+00  0.3333E-01
     -2.735  0.0000E+00  0.3333E-01
     -2.656  0.0000E+00  0.3333E-01
     -2.577  0.0000E+00  0.3333E-01
     -2.498  0.0000E+00  0.3333E-01
     -2.419  0.0000E+00  0.3333E-01
     -2.340  0.5227E-16  0.3333E-01
     -2.261  0.1479E-12  0.3333E-01
     -2.181  0.1238E-09  0.3333E-01
     -2.102  0.3126E-07  0.3333E-01
     -2.023  0.2470E-05  0.3333E-01
     -1.944  0.6565E-04  0.3334E-01
     -1.865  0.6644E-03  0.3339E-01
     -1.786  0.3070E-02  0.3363E-01
     -1.707  0.8124E-02  0.3428E-01
     -1.628  0.1568E-01  0.3552E-01
     -1.549  0.2648E-01  0.3761E-01
     -1.469  0.4185E-01  0.4092E-01
     -1.390  0.5149E-01  0.4500E-01
     -1.311  0.4231E-01  0.4834E-01
     -1.232  0.2857E-01  0.5061E-01
     -1.153  0.2006E-01  0.5219E-01
     -1.074  0.1633E-01  0.5348E-01
     -0.995  0.1403E-01  0.5459E-01
     -0.916  0.1177E-01  0.5553E-01
     -0.837  0.1033E-01  0.5634E-01
     -0.757  0.1041E-01  0.5717E-01
     -0.678  0.8334E-02  0.5783E-01
     -0.599  0.7160E-02  0.5839E-01
     -0.520  0.7815E-02  0.5901E-01
     -0.441  0.7009E-02  0.5957E-01
     -0.362  0.6220E-02  0.6006E-01
     -0.283  0.5239E-02  0.6047E-01
     -0.204  0.4903E-02  0.6086E-01
     -0.125  0.5394E-02  0.6129E-01
     -0.045  0.5122E-02  0.6169E-01
      0.034  0.4562E-02  0.6205E-01
      0.113  0.3769E-02  0.6235E-01
      0.192  0.4455E-02  0.6270E-01
      0.271  0.8788E-02  0.6340E-01
      0.350  0.1371E-01  0.6448E-01
      0.429  0.1815E-01  0.6592E-01
      0.508  0.2183E-01  0.6765E-01
      0.588  0.2199E-01  0.6939E-01
      0.667  0.1914E-01  0.7090E-01
      0.746  0.1768E-01  0.7230E-01
      0.825  0.1943E-01  0.7384E-01
      0.904  0.2112E-01  0.7551E-01
      0.983  0.1927E-01  0.7703E-01
      1.062  0.1742E-01  0.7841E-01
      1.141  0.1970E-01  0.7997E-01
      1.220  0.2292E-01  0.8178E-01
      1.300  0.2272E-01  0.8358E-01
      1.379  0.2264E-01  0.8537E-01
      1.458  0.2719E-01  0.8752E-01
      1.537  0.3107E-01  0.8998E-01
      1.616  0.2832E-01  0.9222E-01
      1.695  0.2744E-01  0.9439E-01
      1.774  0.3203E-01  0.9693E-01
      1.853  0.3209E-01  0.9947E-01
      1.932  0.2685E-01  0.1016E+00
      2.012  0.2606E-01  0.1037E+00
      2.091  0.2937E-01  0.1060E+00
      2.170  0.2967E-01  0.1083E+00
      2.249  0.2772E-01  0.1105E+00
      2.328  0.2769E-01  0.1127E+00
      2.407  0.2569E-01  0.1147E+00
      2.486  0.2575E-01  0.1168E+00
      2.565  0.2759E-01  0.1190E+00
      2.645  0.2678E-01  0.1211E+00
      2.724  0.2548E-01  0.1231E+00
      2.803  0.2349E-01  0.1250E+00
      2.882  0.2054E-01  0.1266E+00
      2.961  0.1685E-01  0.1279E+00
      3.040  0.1418E-01  0.1290E+00
      3.119  0.1251E-01  0.1300E+00
      3.198  0.1089E-01  0.1309E+00
      3.277  0.9373E-02  0.1316E+00
      3.357  0.7984E-02  0.1323E+00
      3.436  0.6481E-02  0.1328E+00
      3.515  0.4235E-02  0.1331E+00
      3.594  0.2144E-02  0.1333E+00
      3.673  0.6614E-03  0.1333E+00
      3.752  0.9129E-04  0.1333E+00
      3.831  0.4683E-05  0.1333E+00
      3.910  0.8108E-07  0.1333E+00
      3.989  0.4509E-09  0.1333E+00
      4.069  0.7844E-12  0.1333E+00
      4.148  0.4201E-15  0.1333E+00
      4.227  0.4092E-19  0.1333E+00
      4.306  0.0000E+00  0.1333E+00
      4.385  0.0000E+00  0.1333E+00
      4.464  0.0000E+00  0.1333E+00
      4.543  0.2046E-17  0.1333E+00
      4.622  0.7234E-14  0.1333E+00
      4.701  0.7497E-11  0.1333E+00
      4.781  0.2307E-08  0.1333E+00
      4.860  0.2154E-06  0.1333E+00
      4.939  0.6399E-05  0.1333E+00
      5.018  0.6795E-04  0.1333E+00
      5.097  0.3284E-03  0.1334E+00
      5.176  0.9222E-03  0.1334E+00
      5.255  0.1615E-02  0.1336E+00
      5.334  0.2237E-02  0.1337E+00
      5.414  0.2985E-02  0.1340E+00
      5.493  0.3597E-02  0.1343E+00
      5.572  0.4569E-02  0.1346E+00
      5.651  0.5820E-02  0.1351E+00
      5.730  0.7410E-02  0.1357E+00
      5.809  0.8825E-02  0.1364E+00
      5.888  0.1045E-01  0.1372E+00
      5.967  0.1214E-01  0.1382E+00
      6.046  0.1394E-01  0.1393E+00
      6.126  0.1555E-01  0.1405E+00
      6.205  0.1684E-01  0.1418E+00
      6.284  0.2047E-01  0.1434E+00
      6.363  0.2549E-01  0.1455E+00
      6.442  0.2492E-01  0.1474E+00
      6.521  0.2546E-01  0.1494E+00
      6.600  0.3097E-01  0.1519E+00
      6.679  0.3311E-01  0.1545E+00
      6.758  0.2867E-01  0.1568E+00
      6.838  0.2240E-01  0.1586E+00
      6.917  0.2253E-01  0.1603E+00
      6.996  0.2665E-01  0.1624E+00
      7.075  0.2449E-01  0.1644E+00
      7.154  0.2065E-01  0.1660E+00
      7.233  0.1856E-01  0.1675E+00
      7.312  0.1628E-01  0.1688E+00
      7.391  0.1796E-01  0.1702E+00
      7.471  0.1783E-01  0.1716E+00
      7.550  0.1500E-01  0.1728E+00
      7.629  0.1302E-01  0.1738E+00
      7.708  0.1220E-01  0.1748E+00
      7.787  0.1627E-01  0.1761E+00
      7.866  0.2283E-01  0.1779E+00
      7.945  0.3045E-01  0.1803E+00
      8.024  0.3526E-01  0.1831E+00
      8.103  0.3621E-01  0.1859E+00
      8.183  0.3793E-01  0.1889E+00
      8.262  0.3287E-01  0.1915E+00
      8.341  0.2356E-01  0.1934E+00
      8.420  0.2053E-01  0.1950E+00
      8.499  0.2081E-01  0.1967E+00
      8.578  0.2085E-01  0.1983E+00
      8.657  0.2329E-01  0.2002E+00
      8.736  0.2798E-01  0.2024E+00
      8.815  0.2851E-01  0.2046E+00
      8.895  0.2593E-01  0.2067E+00
      8.974  0.2582E-01  0.2087E+00
      9.053  0.2502E-01  0.2107E+00
      9.132  0.2306E-01  0.2125E+00
      9.211  0.2571E-01  0.2146E+00
      9.290  0.2803E-01  0.2168E+00
      9.369  0.2760E-01  0.2190E+00
      9.448  0.2833E-01  0.2212E+00
      9.527  0.2924E-01  0.2235E+00
      9.607  0.2554E-01  0.2255E+00
      9.686  0.1897E-01  0.2270E+00
      9.765  0.1446E-01  0.2282E+00
      9.844  0.1594E-01  0.2295E+00
      9.923  0.2059E-01  0.2311E+00
     10.002  0.2371E-01  0.2330E+00
     10.081  0.2184E-01  0.2347E+00
     10.160  0.1872E-01  0.2362E+00
     10.240  0.1738E-01  0.2375E+00
     10.319  0.1557E-01  0.2388E+00
     10.398  0.1348E-01  0.2398E+00
     10.477  0.1673E-01  0.2412E+00
     10.556  0.2079E-01  0.2428E+00
     10.635  0.2123E-01  0.2445E+00
     10.714  0.1874E-01  0.2460E+00
     10.793  0.1483E-01  0.2471E+00
     10.872  0.1259E-01  0.2481E+00
     10.952  0.1062E-01  0.2490E+00
     11.031  0.1182E-01  0.2499E+00
     11.110  0.1506E-01  0.2511E+00
     11.189  0.1995E-01  0.2527E+00
     11.268  0.2284E-01  0.2545E+00
     11.347  0.2138E-01  0.2562E+00
     11.426  0.1786E-01  0.2576E+00
     11.505  0.1344E-01  0.2587E+00
     11.584  0.1070E-01  0.2595E+00
     11.664  0.8118E-02  0.2601E+00
     11.743  0.4783E-02  0.2605E+00
     11.822  0.3723E-02  0.2608E+00
     11.901  0.3611E-02  0.2611E+00
     11.980  0.4701E-02  0.2615E+00
     12.059  0.7453E-02  0.2621E+00
     12.138  0.8335E-02  0.2627E+00
     12.217  0.7148E-02  0.2633E+00
     12.297  0.6111E-02  0.2638E+00
     12.376  0.4489E-02  0.2641E+00
     12.455  0.2503E-02  0.2643E+00
     12.534  0.2323E-02  0.2645E+00
     12.613  0.2914E-02  0.2647E+00
     12.692  0.2333E-02  0.2649E+00
     12.771  0.1862E-02  0.2651E+00
     12.850  0.2749E-02  0.2653E+00
     12.929  0.4057E-02  0.2656E+00
     13.009  0.4040E-02  0.2659E+00
     13.088  0.3121E-02  0.2662E+00
     13.167  0.1765E-02  0.2663E+00
     13.246  0.5859E-03  0.2664E+00
     13.325  0.2001E-03  0.2664E+00
     13.404  0.7128E-03  0.2664E+00
     13.483  0.1449E-02  0.2666E+00
     13.562  0.1068E-02  0.2666E+00
     13.641  0.3008E-03  0.2667E+00
     13.721  0.3297E-04  0.2667E+00
     13.800  0.1338E-05  0.2667E+00
     13.879  0.1844E-07  0.2667E+00
     13.958  0.8042E-10  0.2667E+00
     14.037  0.1063E-12  0.2667E+00
     14.116  0.4174E-16  0.2667E+00
     14.195  0.0000E+00  0.2667E+00
     14.274  0.0000E+00  0.2667E+00
     14.353  0.0000E+00  0.2667E+00
     14.433  0.0000E+00  0.2667E+00
     14.512  0.0000E+00  0.2667E+00
     14.591  0.0000E+00  0.2667E+00
