    2    2   60    1
  0.2354465E+02  0.4053334E-09  0.4053334E-09  0.4053334E-09  0.1000000E-15
  1.000000000000000E-004
  CAR 
 unknown system                          
      8    220      8
 
  0.0000000E+00  0.0000000E+00  0.0000000E+00  0.1457938E-03
    1       -8.064754   1.000000
    2        3.574455   1.000000
    3        3.574455   1.000000
    4        3.574456   1.000000
    5        5.358209   0.000000
    6        7.793394   0.000000
    7        7.793394   0.000000
    8        7.793395   0.000000
 
  0.5263158E-01  0.0000000E+00  0.0000000E+00  0.1166351E-02
    1       -8.038553   1.000000
    2        3.201598   1.000000
    3        3.544093   1.000000
    4        3.544093   1.000000
    5        5.646394   0.000000
    6        7.820519   0.000000
    7        7.848479   0.000000
    8        7.848479   0.000000
 
  0.1052632E+00  0.0000000E+00  0.0000000E+00  0.1166351E-02
    1       -7.960826   1.000000
    2        2.458906   1.000000
    3        3.460619   1.000000
    4        3.460620   1.000000
    5        6.061239   0.000000
    6        7.996030   0.000000
    7        7.996030   0.000000
    8        8.003535   0.000000
 
  0.1578947E+00  0.0000000E+00  0.0000000E+00  0.1166351E-02
    1       -7.834582   1.000000
    2        1.640529   1.000000
    3        3.342376   1.000000
    4        3.342376   1.000000
    5        6.213187   0.000000
    6        8.185872   0.000000
    7        8.185872   0.000000
    8        8.496000   0.000000
 
  0.2105263E+00  0.0000000E+00  0.0000000E+00  0.1166351E-02
    1       -7.665368   1.000000
    2        0.833023   1.000000
    3        3.209904   1.000000
    4        3.209905   1.000000
    5        6.145164   0.000000
    6        8.346751   0.000000
    7        8.346751   0.000000
    8        9.218049   0.000000
 
  0.2631579E+00  0.0000000E+00  0.0000000E+00  0.1166351E-02
    1       -7.462543   1.000000
    2        0.075730   1.000000
    3        3.080326   1.000000
    4        3.080326   1.000000
    5        5.999859   0.000000
    6        8.419803   0.000000
    7        8.419804   0.000000
    8       10.006372   0.000000
 
  0.3157895E+00  0.0000000E+00  0.0000000E+00  0.1166351E-02
    1       -7.241017   1.000000
    2       -0.601323   1.000000
    3        2.965907   1.000000
    4        2.965907   1.000000
    5        5.849309   0.000000
    6        8.401710   0.000000
    7        8.401711   0.000000
    8       10.711696   0.000000
 
  0.3684211E+00  0.0000000E+00  0.0000000E+00  0.1166351E-02
    1       -7.023815   1.000000
    2       -1.166250   1.000000
    3        2.874702   1.000000
    4        2.874702   1.000000
    5        5.723291   0.000000
    6        8.335740   0.000000
    7        8.335740   0.000000
    8       11.132151   0.000000
 
  0.4210526E+00  0.0000000E+00  0.0000000E+00  0.1166351E-02
    1       -6.843713   1.000000
    2       -1.580813   1.000000
    3        2.811646   1.000000
    4        2.811646   1.000000
    5        5.634725   0.000000
    6        8.267961   0.000000
    7        8.267961   0.000000
    8       11.246179   0.000000
 
  0.4736842E+00  0.0000000E+00  0.0000000E+00  0.1166351E-02
    1       -6.739239   1.000000
    2       -1.803265   1.000000
    3        2.779502   1.000000
    4        2.779502   1.000000
    5        5.589330   0.000000
    6        8.227557   0.000000
    7        8.227557   0.000000
    8       11.252412   0.000000
 
  0.5263158E-01  0.5263158E-01  0.0000000E+00  0.8747631E-03
    1       -8.029801   1.000000
    2        3.192756   1.000000
    3        3.475094   1.000000
    4        3.475095   1.000000
    5        5.758252   0.000000
    6        7.660027   0.000000
    7        7.946504   0.000000
    8        7.946504   0.000000
 
  0.1052632E+00  0.5263158E-01  0.0000000E+00  0.3499052E-02
    1       -7.969203   1.000000
    2        2.626418   1.000000
    3        3.360121   1.000000
    4        3.421491   1.000000
    5        6.154587   0.000000
    6        7.595918   0.000000
    7        8.134002   0.000000
    8        8.154940   0.000000
 
  0.1578947E+00  0.5263158E-01  0.0000000E+00  0.3499052E-02
    1       -7.859039   1.000000
    2        1.864459   1.000000
    3        3.221066   1.000000
    4        3.340480   1.000000
    5        6.400753   0.000000
    6        7.710086   0.000000
    7        8.360920   0.000000
    8        8.523764   0.000000
 
  0.2105263E+00  0.5263158E-01  0.0000000E+00  0.3499052E-02
    1       -7.703896   1.000000
    2        1.073899   1.000000
    3        3.078697   1.000000
    4        3.217044   1.000000
    5        6.386637   0.000000
    6        7.951726   0.000000
    7        8.557552   0.000000
    8        9.047893   0.000000
 
  0.2631579E+00  0.5263158E-01  0.0000000E+00  0.3499052E-02
    1       -7.511740   1.000000
    2        0.312736   1.000000
    3        2.948946   1.000000
    4        3.072623   1.000000
    5        6.256201   0.000000
    6        8.139415   0.000000
    7        8.658801   0.000000
    8        9.645550   0.000000
 
  0.3157895E+00  0.5263158E-01  0.0000000E+00  0.3499052E-02
    1       -7.295362   1.000000
    2       -0.383456   1.000000
    3        2.842582   1.000000
    4        2.926875   1.000000
    5        6.105787   0.000000
    6        8.201809   0.000000
    7        8.648205   0.000000
    8       10.257068   0.000000
 
  0.3684211E+00  0.5263158E-01  0.0000000E+00  0.3499052E-02
    1       -7.074775   1.000000
    2       -0.982059   1.000000
    3        2.766232   1.000000
    4        2.794052   1.000000
    5        5.973167   0.000000
    6        8.180561   0.000000
    7        8.564506   0.000000
    8       10.827705   0.000000
 
  0.4210526E+00  0.5263158E-01  0.0000000E+00  0.3499052E-02
    1       -6.879372   1.000000
    2       -1.446161   1.000000
    3        2.683778   1.000000
    4        2.723468   1.000000
    5        5.873989   0.000000
    6        8.140377   0.000000
    7        8.459398   0.000000
    8       11.211380   0.000000
 
  0.4736842E+00  0.5263158E-01  0.0000000E+00  0.3499052E-02
    1       -6.746556   1.000000
    2       -1.733859   1.000000
    3        2.602466   1.000000
    4        2.715598   1.000000
    5        5.815267   0.000000
    6        8.122571   0.000000
    7        8.369658   0.000000
    8       11.351258   0.000000
 
 -0.4736842E+00  0.5263158E-01  0.0000000E+00  0.3499052E-02
    1       -6.710392   1.000000
    2       -1.808792   1.000000
    3        2.554348   1.000000
    4        2.742235   1.000000
    5        5.800020   0.000000
    6        8.145735   0.000000
    7        8.314768   0.000000
    8       11.379500   0.000000
 
 -0.4210526E+00  0.5263158E-01  0.0000000E+00  0.3499052E-02
    1       -6.781653   1.000000
    2       -1.659639   1.000000
    3        2.542095   1.000000
    4        2.801524   1.000000
    5        5.828944   0.000000
    6        8.213026   0.000000
    7        8.300497   0.000000
    8       11.352209   0.000000
 
 -0.3684211E+00  0.5263158E-01  0.0000000E+00  0.3499052E-02
    1       -6.939745   1.000000
    2       -1.308187   1.000000
    3        2.567086   1.000000
    4        2.890192   1.000000
    5        5.900705   0.000000
    6        8.314398   0.000000
    7        8.319937   0.000000
    8       11.191914   0.000000
 
 -0.3157895E+00  0.5263158E-01  0.0000000E+00  0.3499052E-02
    1       -7.147450   1.000000
    2       -0.794749   1.000000
    3        2.629341   1.000000
    4        3.003256   1.000000
    5        6.011133   0.000000
    6        8.350914   0.000000
    7        8.422871   0.000000
    8       10.764037   0.000000
 
 -0.2631579E+00  0.5263158E-01  0.0000000E+00  0.3499052E-02
    1       -7.369392   1.000000
    2       -0.160363   1.000000
    3        2.727230   1.000000
    4        3.133378   1.000000
    5        6.150525   0.000000
    6        8.353635   0.000000
    7        8.485089   0.000000
    8       10.136040   0.000000
 
 -0.2105263E+00  0.5263158E-01  0.0000000E+00  0.3499052E-02
    1       -7.579484   1.000000
    2        0.559289   1.000000
    3        2.857020   1.000000
    4        3.269965   1.000000
    5        6.296302   0.000000
    6        8.284694   0.000000
    7        8.417097   0.000000
    8        9.482964   0.000000
 
 -0.1578947E+00  0.5263158E-01  0.0000000E+00  0.3499052E-02
    1       -7.760390   1.000000
    2        1.329927   1.000000
    3        3.012378   1.000000
    4        3.398168   1.000000
    5        6.391963   0.000000
    6        8.140246   0.000000
    7        8.163994   0.000000
    8        8.922134   0.000000
 
 -0.1052632E+00  0.5263158E-01  0.0000000E+00  0.3499052E-02
    1       -7.901184   1.000000
    2        2.106404   1.000000
    3        3.185133   1.000000
    4        3.498938   1.000000
    5        6.310717   0.000000
    6        7.873486   0.000000
    7        7.975434   0.000000
    8        8.476676   0.000000
 
 -0.5263158E-01  0.5263158E-01  0.0000000E+00  0.1749526E-02
    1       -7.995148   1.000000
    2        2.796273   1.000000
    3        3.372303   1.000000
    4        3.552169   1.000000
    5        5.971718   0.000000
    6        7.776523   0.000000
    7        7.862144   0.000000
    8        8.114391   0.000000
 
  0.1052632E+00  0.1052632E+00  0.0000000E+00  0.8747631E-03
    1       -7.926006   1.000000
    2        2.468914   1.000000
    3        3.218099   1.000000
    4        3.218099   1.000000
    5        6.508219   0.000000
    6        7.324859   0.000000
    7        8.363355   0.000000
    8        8.363355   0.000000
 
  0.1578947E+00  0.1052632E+00  0.0000000E+00  0.3499052E-02
    1       -7.832814   1.000000
    2        1.924426   1.000000
    3        3.059017   1.000000
    4        3.104059   1.000000
    5        6.821916   0.000000
    6        7.225708   0.000000
    7        8.635273   0.000000
    8        8.682715   0.000000
 
  0.2105263E+00  0.1052632E+00  0.0000000E+00  0.3499052E-02
    1       -7.693427   1.000000
    2        1.229105   1.000000
    3        2.903937   1.000000
    4        2.981990   1.000000
    5        6.831464   0.000000
    6        7.431551   0.000000
    7        8.882629   0.000000
    8        9.024287   0.000000
 
  0.2631579E+00  0.1052632E+00  0.0000000E+00  0.3499052E-02
    1       -7.514621   1.000000
    2        0.511866   1.000000
    3        2.768249   1.000000
    4        2.820433   1.000000
    5        6.700091   0.000000
    6        7.746664   0.000000
    7        9.034140   0.000000
    8        9.243650   0.000000
 
  0.3157895E+00  0.1052632E+00  0.0000000E+00  0.3499052E-02
    1       -7.307374   1.000000
    2       -0.170323   1.000000
    3        2.639176   1.000000
    4        2.662118   1.000000
    5        6.553923   0.000000
    6        7.966243   0.000000
    7        9.055774   0.000000
    8        9.503612   0.000000
 
  0.3684211E+00  0.1052632E+00  0.0000000E+00  0.3499052E-02
    1       -7.088994   1.000000
    2       -0.777593   1.000000
    3        2.460516   1.000000
    4        2.591664   1.000000
    5        6.423564   0.000000
    6        8.024371   0.000000
    7        8.975835   0.000000
    8        9.978314   0.000000
 
  0.4210526E+00  0.1052632E+00  0.0000000E+00  0.3499052E-02
    1       -6.885321   1.000000
    2       -1.271297   1.000000
    3        2.300682   1.000000
    4        2.559983   1.000000
    5        6.323592   0.000000
    6        8.004451   0.000000
    7        8.849874   0.000000
    8       10.599199   0.000000
 
  0.4736842E+00  0.1052632E+00  0.0000000E+00  0.3499052E-02
    1       -6.731000   1.000000
    2       -1.609295   1.000000
    3        2.170516   1.000000
    4        2.567869   1.000000
    5        6.261747   0.000000
    6        7.987041   0.000000
    7        8.722733   0.000000
    8       11.198961   0.000000
 
 -0.4736842E+00  0.1052632E+00  0.0000000E+00  0.3499052E-02
    1       -6.662035   1.000000
    2       -1.751560   1.000000
    3        2.077353   1.000000
    4        2.614205   1.000000
    5        6.241565   0.000000
    6        8.007238   0.000000
    7        8.620536   0.000000
    8       11.553541   0.000000
 
 -0.4210526E+00  0.1052632E+00  0.0000000E+00  0.3499052E-02
    1       -6.698022   1.000000
    2       -1.677118   1.000000
    3        2.026377   1.000000
    4        2.696086   1.000000
    5        6.263703   0.000000
    6        8.075585   0.000000
    7        8.554256   0.000000
    8       11.571663   0.000000
 
 -0.3684211E+00  0.1052632E+00  0.0000000E+00  0.3499052E-02
    1       -6.828409   1.000000
    2       -1.397718   1.000000
    3        2.021444   1.000000
    4        2.808712   1.000000
    5        6.326549   0.000000
    6        8.187784   0.000000
    7        8.521886   0.000000
    8       11.263871   0.000000
 
 -0.3157895E+00  0.1052632E+00  0.0000000E+00  0.3499052E-02
    1       -7.020222   1.000000
    2       -0.950421   1.000000
    3        2.065698   1.000000
    4        2.945028   1.000000
    5        6.425842   0.000000
    6        8.322032   0.000000
    7        8.506577   0.000000
    8       10.695107   0.000000
 
 -0.2631579E+00  0.1052632E+00  0.0000000E+00  0.3499052E-02
    1       -7.237079   1.000000
    2       -0.380016   1.000000
    3        2.162172   1.000000
    4        3.095024   1.000000
    5        6.552333   0.000000
    6        8.420718   0.000000
    7        8.473449   0.000000
    8       10.062684   0.000000
 
 -0.2105263E+00  0.1052632E+00  0.0000000E+00  0.3499052E-02
    1       -7.450105   1.000000
    2        0.269037   1.000000
    3        2.315042   1.000000
    4        3.244902   1.000000
    5        6.683853   0.000000
    6        8.357808   0.000000
    7        8.381158   0.000000
    8        9.561928   0.000000
 
 -0.1578947E+00  0.1052632E+00  0.0000000E+00  0.3499052E-02
    1       -7.639510   1.000000
    2        0.947384   1.000000
    3        2.532144   1.000000
    4        3.376365   1.000000
    5        6.758788   0.000000
    6        8.076655   0.000000
    7        8.226295   0.000000
    8        9.253521   0.000000
 
 -0.1052632E+00  0.1052632E+00  0.0000000E+00  0.1749526E-02
    1       -7.792517   1.000000
    2        1.587603   1.000000
    3        2.826303   1.000000
    4        3.467715   1.000000
    5        6.638271   0.000000
    6        7.856393   0.000000
    7        8.066776   0.000000
    8        8.924205   0.000000
 
  0.1578947E+00  0.1578947E+00  0.0000000E+00  0.8747631E-03
    1       -7.756879   1.000000
    2        1.694684   1.000000
    3        2.882861   1.000000
    4        2.882861   1.000000
    5        6.889609   0.000000
    6        7.201905   0.000000
    7        8.960953   0.000000
    8        8.960953   0.000000
 
  0.2105263E+00  0.1578947E+00  0.0000000E+00  0.3499052E-02
    1       -7.634326   1.000000
    2        1.203197   1.000000
    3        2.714429   1.000000
    4        2.722427   1.000000
    5        6.757670   0.000000
    6        7.389248   0.000000
    7        9.223487   0.000000
    8        9.273919   0.000000
 
  0.2631579E+00  0.1578947E+00  0.0000000E+00  0.3499052E-02
    1       -7.470913   1.000000
    2        0.600814   1.000000
    3        2.538548   1.000000
    4        2.569236   1.000000
    5        6.718797   0.000000
    6        7.561817   0.000000
    7        9.191326   0.000000
    8        9.498291   0.000000
 
  0.3157895E+00  0.1578947E+00  0.0000000E+00  0.3499052E-02
    1       -7.276144   1.000000
    2       -0.017014   1.000000
    3        2.318763   1.000000
    4        2.457456   1.000000
    5        6.662367   0.000000
    6        7.851395   0.000000
    7        9.081486   0.000000
    8        9.579671   0.000000
 
  0.3684211E+00  0.1578947E+00  0.0000000E+00  0.3499052E-02
    1       -7.065012   1.000000
    2       -0.594649   1.000000
    3        2.088591   1.000000
    4        2.385243   1.000000
    5        6.581384   0.000000
    6        8.136645   0.000000
    7        9.167913   0.000000
    8        9.528288   0.000000
 
  0.4210526E+00  0.1578947E+00  0.0000000E+00  0.3499052E-02
    1       -6.860028   1.000000
    2       -1.087411   1.000000
    3        1.872885   1.000000
    4        2.355759   1.000000
    5        6.512252   0.000000
    6        8.216597   0.000000
    7        9.400611   0.000000
    8        9.634426   0.000000
 
  0.4736842E+00  0.1578947E+00  0.0000000E+00  0.3499052E-02
    1       -6.692284   1.000000
    2       -1.451300   1.000000
    3        1.688635   1.000000
    4        2.369857   1.000000
    5        6.478197   0.000000
    6        8.191371   0.000000
    7        9.250630   0.000000
    8       10.338303   0.000000
 
 -0.4736842E+00  0.1578947E+00  0.0000000E+00  0.3499052E-02
    1       -6.596914   1.000000
    2       -1.643931   1.000000
    3        1.547035   1.000000
    4        2.426368   1.000000
    5        6.488753   0.000000
    6        8.171226   0.000000
    7        9.112063   0.000000
    8       11.092167   0.000000
 
 -0.4210526E+00  0.1578947E+00  0.0000000E+00  0.3499052E-02
    1       -6.599097   1.000000
    2       -1.637354   1.000000
    3        1.456146   1.000000
    4        2.522125   1.000000
    5        6.544990   0.000000
    6        8.190171   0.000000
    7        9.000745   0.000000
    8       11.577935   0.000000
 
 -0.3684211E+00  0.1578947E+00  0.0000000E+00  0.3499052E-02
    1       -6.698115   1.000000
    2       -1.433736   1.000000
    3        1.422992   1.000000
    4        2.651732   1.000000
    5        6.642276   0.000000
    6        8.256165   0.000000
    7        8.917858   0.000000
    8       11.284743   0.000000
 
 -0.3157895E+00  0.1578947E+00  0.0000000E+00  0.3499052E-02
    1       -6.867921   1.000000
    2       -1.065868   1.000000
    3        1.455427   1.000000
    4        2.806987   1.000000
    5        6.770935   0.000000
    6        8.360219   0.000000
    7        8.848506   0.000000
    8       10.606907   0.000000
 
 -0.2631579E+00  0.1578947E+00  0.0000000E+00  0.3499052E-02
    1       -7.073430   1.000000
    2       -0.583644   1.000000
    3        1.564707   1.000000
    4        2.976022   1.000000
    5        6.913848   0.000000
    6        8.457283   0.000000
    7        8.758364   0.000000
    8        9.922642   0.000000
 
 -0.2105263E+00  0.1578947E+00  0.0000000E+00  0.3499052E-02
    1       -7.284013   1.000000
    2       -0.045368   1.000000
    3        1.768826   1.000000
    4        3.142267   1.000000
    5        7.033197   0.000000
    6        8.406453   0.000000
    7        8.608312   0.000000
    8        9.467603   0.000000
 
 -0.1578947E+00  0.1578947E+00  0.0000000E+00  0.1749526E-02
    1       -7.477606   1.000000
    2        0.483643   1.000000
    3        2.091002   1.000000
    4        3.284016   1.000000
    5        7.025339   0.000000
    6        8.164142   0.000000
    7        8.407058   0.000000
    8        9.352023   0.000000
 
  0.2105263E+00  0.2105263E+00  0.0000000E+00  0.8747631E-03
    1       -7.529023   1.000000
    2        0.936384   1.000000
    3        2.533306   1.000000
    4        2.533307   1.000000
    5        6.456045   0.000000
    6        7.446230   0.000000
    7        9.670481   0.000000
    8        9.670481   0.000000
 
  0.2631579E+00  0.2105263E+00  0.0000000E+00  0.3499052E-02
    1       -7.382443   1.000000
    2        0.500449   1.000000
    3        2.346525   1.000000
    4        2.376874   1.000000
    5        6.341298   0.000000
    6        7.396754   0.000000
    7        9.745006   0.000000
    8        9.994475   0.000000
 
  0.3157895E+00  0.2105263E+00  0.0000000E+00  0.3499052E-02
    1       -7.202936   1.000000
    2       -0.001571   1.000000
    3        2.102678   1.000000
    4        2.255770   1.000000
    5        6.351211   0.000000
    6        7.456760   0.000000
    7        9.575858   0.000000
    8       10.170046   0.000000
 
  0.3684211E+00  0.2105263E+00  0.0000000E+00  0.3499052E-02
    1       -7.003584   1.000000
    2       -0.501586   1.000000
    3        1.819192   1.000000
    4        2.176507   1.000000
    5        6.352431   0.000000
    6        7.763346   0.000000
    7        9.407781   0.000000
    8       10.178824   0.000000
 
  0.4210526E+00  0.2105263E+00  0.0000000E+00  0.3499052E-02
    1       -6.804043   1.000000
    2       -0.950290   1.000000
    3        1.535909   1.000000
    4        2.142593   1.000000
    5        6.327639   0.000000
    6        8.261384   0.000000
    7        9.315803   0.000000
    8       10.072041   0.000000
 
  0.4736842E+00  0.2105263E+00  0.0000000E+00  0.3499052E-02
    1       -6.631660   1.000000
    2       -1.302624   1.000000
    3        1.283346   1.000000
    4        2.155188   1.000000
    5        6.321773   0.000000
    6        8.674357   0.000000
    7        9.506437   0.000000
    8        9.914691   0.000000
 
 -0.4736842E+00  0.2105263E+00  0.0000000E+00  0.3499052E-02
    1       -6.518829   1.000000
    2       -1.515751   1.000000
    3        1.080689   1.000000
    4        2.213427   1.000000
    5        6.360969   0.000000
    6        8.759481   0.000000
    7        9.750558   0.000000
    8       10.163605   0.000000
 
 -0.4210526E+00  0.2105263E+00  0.0000000E+00  0.3499052E-02
    1       -6.492610   1.000000
    2       -1.558394   1.000000
    3        0.941084   1.000000
    4        2.314363   1.000000
    5        6.453177   0.000000
    6        8.755299   0.000000
    7        9.600683   0.000000
    8       10.956594   0.000000
 
 -0.3684211E+00  0.2105263E+00  0.0000000E+00  0.3499052E-02
    1       -6.559884   1.000000
    2       -1.426370   1.000000
    3        0.876658   1.000000
    4        2.452687   1.000000
    5        6.595713   0.000000
    6        8.766335   0.000000
    7        9.467174   0.000000
    8       11.199590   0.000000
 
 -0.3157895E+00  0.2105263E+00  0.0000000E+00  0.3499052E-02
    1       -6.702854   1.000000
    2       -1.149639   1.000000
    3        0.903205   1.000000
    4        2.619991   1.000000
    5        6.776404   0.000000
    6        8.807935   0.000000
    7        9.331309   0.000000
    8       10.531878   0.000000
 
 -0.2631579E+00  0.2105263E+00  0.0000000E+00  0.3499052E-02
    1       -6.890390   1.000000
    2       -0.784796   1.000000
    3        1.044549   1.000000
    4        2.803716   1.000000
    5        6.967684   0.000000
    6        8.848619   0.000000
    7        9.151470   0.000000
    8        9.809479   0.000000
 
 -0.2105263E+00  0.2105263E+00  0.0000000E+00  0.1749526E-02
    1       -7.091987   1.000000
    2       -0.399638   1.000000
    3        1.329974   1.000000
    4        2.985863   1.000000
    5        7.103556   0.000000
    6        8.698463   0.000000
    7        8.895929   0.000000
    8        9.423071   0.000000
 
  0.2631579E+00  0.2631579E+00  0.0000000E+00  0.8747631E-03
    1       -7.253491   1.000000
    2        0.217491   1.000000
    3        2.208730   1.000000
    4        2.208730   1.000000
    5        6.048916   0.000000
    6        7.157892   0.000000
    7       10.447519   0.000000
    8       10.447519   0.000000
 
  0.3157895E+00  0.2631579E+00  0.0000000E+00  0.3499052E-02
    1       -7.091462   1.000000
    2       -0.161949   1.000000
    3        2.011996   1.000000
    4        2.076321   1.000000
    5        5.960102   0.000000
    6        7.008867   0.000000
    7       10.476194   0.000000
    8       10.763182   0.000000
 
  0.3684211E+00  0.2631579E+00  0.0000000E+00  0.3499052E-02
    1       -6.907986   1.000000
    2       -0.561841   1.000000
    3        1.721288   1.000000
    4        1.986764   1.000000
    5        5.994636   0.000000
    6        7.083598   0.000000
    7       10.316724   0.000000
    8       10.879256   0.000000
 
  0.4210526E+00  0.2631579E+00  0.0000000E+00  0.3499052E-02
    1       -6.720423   1.000000
    2       -0.931561   1.000000
    3        1.382116   1.000000
    4        1.944064   1.000000
    5        6.021183   0.000000
    6        7.462999   0.000000
    7       10.155139   0.000000
    8       10.825659   0.000000
 
  0.4736842E+00  0.2631579E+00  0.0000000E+00  0.3499052E-02
    1       -6.552640   1.000000
    2       -1.230738   1.000000
    3        1.051452   1.000000
    4        1.949822   1.000000
    5        6.040079   0.000000
    6        8.075126   0.000000
    7       10.027584   0.000000
    8       10.679552   0.000000
 
 -0.4736842E+00  0.2631579E+00  0.0000000E+00  0.3499052E-02
    1       -6.433282   1.000000
    2       -1.422835   1.000000
    3        0.769683   1.000000
    4        2.003603   1.000000
    5        6.093430   0.000000
    6        8.788083   0.000000
    7        9.986128   0.000000
    8       10.499834   0.000000
 
 -0.4210526E+00  0.2631579E+00  0.0000000E+00  0.3499052E-02
    1       -6.388020   1.000000
    2       -1.481234   1.000000
    3        0.564041   1.000000
    4        2.102909   1.000000
    5        6.199795   0.000000
    6        9.335062   0.000000
    7       10.235955   0.000000
    8       10.313965   0.000000
 
 -0.3684211E+00  0.2631579E+00  0.0000000E+00  0.3499052E-02
    1       -6.427656   1.000000
    2       -1.403810   1.000000
    3        0.458597   1.000000
    4        2.242876   1.000000
    5        6.361321   0.000000
    6        9.487882   0.000000
    7       10.120679   0.000000
    8       10.825250   0.000000
 
 -0.3157895E+00  0.2631579E+00  0.0000000E+00  0.3499052E-02
    1       -6.541763   1.000000
    2       -1.223726   1.000000
    3        0.483228   1.000000
    4        2.415508   1.000000
    5        6.568598   0.000000
    6        9.515086   0.000000
    7        9.886485   0.000000
    8       10.493418   0.000000
 
 -0.2631579E+00  0.2631579E+00  0.0000000E+00  0.1749526E-02
    1       -6.705332   1.000000
    2       -1.000762   1.000000
    3        0.673299   1.000000
    4        2.608499   1.000000
    5        6.794789   0.000000
    6        9.397212   0.000000
    7        9.559632   0.000000
    8        9.871577   0.000000
 
  0.3157895E+00  0.3157895E+00  0.0000000E+00  0.8747631E-03
    1       -6.948439   1.000000
    2       -0.442283   1.000000
    3        1.931801   1.000000
    4        1.931801   1.000000
    5        5.693755   0.000000
    6        6.699076   0.000000
    7       11.263789   0.000000
    8       11.263789   0.000000
 
  0.3684211E+00  0.3157895E+00  0.0000000E+00  0.3499052E-02
    1       -6.784528   1.000000
    2       -0.759352   1.000000
    3        1.738244   1.000000
    4        1.830168   1.000000
    5        5.635867   0.000000
    6        6.577873   0.000000
    7       11.321192   0.000000
    8       11.558470   0.000000
 
  0.4210526E+00  0.3157895E+00  0.0000000E+00  0.3499052E-02
    1       -6.615299   1.000000
    2       -1.053897   1.000000
    3        1.420049   1.000000
    4        1.776030   1.000000
    5        5.694077   0.000000
    6        6.733704   0.000000
    7       11.177668   0.000000
    8       11.614268   0.000000
 
  0.4736842E+00  0.3157895E+00  0.0000000E+00  0.3499052E-02
    1       -6.461683   1.000000
    2       -1.286328   1.000000
    3        1.046536   1.000000
    4        1.771513   1.000000
    5        5.751054   0.000000
    6        7.205514   0.000000
    7       11.022638   0.000000
    8       11.508446   0.000000
 
 -0.4736842E+00  0.3157895E+00  0.0000000E+00  0.3499052E-02
    1       -6.348169   1.000000
    2       -1.428358   1.000000
    3        0.690357   1.000000
    4        1.816672   1.000000
    5        5.820465   0.000000
    6        7.900496   0.000000
    7       10.890569   0.000000
    8       11.323714   0.000000
 
 -0.4210526E+00  0.3157895E+00  0.0000000E+00  0.3499052E-02
    1       -6.296705   1.000000
    2       -1.466101   1.000000
    3        0.406618   1.000000
    4        1.909547   1.000000
    5        5.934747   0.000000
    6        8.717364   0.000000
    7       10.806016   0.000000
    8       11.096173   0.000000
 
 -0.3684211E+00  0.3157895E+00  0.0000000E+00  0.3499052E-02
    1       -6.317869   1.000000
    2       -1.412359   1.000000
    3        0.244390   1.000000
    4        2.045867   1.000000
    5        6.103853   0.000000
    6        9.531964   0.000000
    7       10.811170   0.000000
    8       10.815584   0.000000
 
 -0.3157895E+00  0.3157895E+00  0.0000000E+00  0.1749526E-02
    1       -6.405768   1.000000
    2       -1.314014   1.000000
    3        0.257309   1.000000
    4        2.218349   1.000000
    5        6.322628   0.000000
    6        9.970069   0.000000
    7       10.411728   0.000000
    8       10.688270   0.000000
 
  0.3684211E+00  0.3684211E+00  0.0000000E+00  0.8747631E-03
    1       -6.643219   1.000000
    2       -1.013985   1.000000
    3        1.715685   1.000000
    4        1.715685   1.000000
    5        5.405283   0.000000
    6        6.295245   0.000000
    7       12.095126   0.000000
    8       12.095126   0.000000
 
  0.4210526E+00  0.3684211E+00  0.0000000E+00  0.3499052E-02
    1       -6.498414   1.000000
    2       -1.254367   1.000000
    3        1.536446   1.000000
    4        1.648649   1.000000
    5        5.384571   0.000000
    6        6.243399   0.000000
    7       12.189881   0.000000
    8       12.356071   0.000000
 
  0.4736842E+00  0.3684211E+00  0.0000000E+00  0.3499052E-02
    1       -6.368610   1.000000
    2       -1.434788   1.000000
    3        1.213284   1.000000
    4        1.631762   1.000000
    5        5.476392   0.000000
    6        6.490941   0.000000
    7       12.064717   0.000000
    8       12.347187   0.000000
 