       N       E                     dE             d eps       ncg     rms          rms(c)
DAV:   1     0.139389024479E+02    0.13939E+02   -0.30496E+03  3568   0.744E+02
DAV:   2    -0.895649353892E+01   -0.22895E+02   -0.22036E+02  4592   0.882E+01
DAV:   3    -0.958691953748E+01   -0.63043E+00   -0.63043E+00  4456   0.195E+01
DAV:   4    -0.958967443682E+01   -0.27549E-02   -0.27549E-02  5520   0.141E+00
DAV:   5    -0.958968204129E+01   -0.76045E-05   -0.76047E-05  4568   0.620E-02    0.266E+00
RMM:   6    -0.940346571539E+01    0.18622E+00   -0.21251E-01  3520   0.242E+00    0.147E+00
RMM:   7    -0.937273574936E+01    0.30730E-01   -0.11747E-01  3520   0.191E+00    0.458E-01
RMM:   8    -0.937301283502E+01   -0.27709E-03   -0.58625E-03  3520   0.612E-01    0.479E-02
RMM:   9    -0.937327261775E+01   -0.25978E-03   -0.27688E-04  3520   0.132E-01    0.204E-02
RMM:  10    -0.937330694506E+01   -0.34327E-04   -0.53409E-05  3520   0.558E-02    0.405E-03
RMM:  11    -0.937330967477E+01   -0.27297E-05   -0.70270E-06  3480   0.199E-02    0.280E-03
RMM:  12    -0.937330896185E+01    0.71292E-06   -0.99145E-07  2566   0.584E-03
   1 F= -.93733090E+01 E0= -.93733090E+01  d E =-.937331E+01
       N       E                     dE             d eps       ncg     rms          rms(c)
DAV:   1    -0.937332152684E+01   -0.11852E-04   -0.10752E-04  4928   0.599E-02    0.784E-03
RMM:   2    -0.937331807528E+01    0.34516E-05   -0.37502E-06  3385   0.123E-02    0.370E-03
RMM:   3    -0.937331693826E+01    0.11370E-05   -0.17298E-06  2044   0.762E-03    0.989E-04
RMM:   4    -0.937331670030E+01    0.23796E-06   -0.17851E-07  1808   0.360E-03    0.192E-04
RMM:   5    -0.937331669018E+01    0.10122E-07   -0.34849E-09   557   0.120E-03
   2 F= -.93733167E+01 E0= -.93733167E+01  d E =-.772834E-05
