   2   2   0   0
  0.1396839E+02  0.3405889E-09  0.3405889E-09  0.3405889E-09  0.0000000E+00
  1.000000000000000E-004
  CAR 
 unknown system                          
     18.29223439    -10.57189486  301      5.98288594      1.00000000
    -10.572  0.0000E+00  0.0000E+00
    -10.476  0.0000E+00  0.0000E+00
    -10.379  0.0000E+00  0.0000E+00
    -10.283  0.0000E+00  0.0000E+00
    -10.187  0.0000E+00  0.0000E+00
    -10.091  0.0000E+00  0.0000E+00
     -9.995  0.0000E+00  0.0000E+00
     -9.898  0.0000E+00  0.0000E+00
     -9.802  0.0000E+00  0.0000E+00
     -9.706  0.0000E+00  0.0000E+00
     -9.610  0.0000E+00  0.0000E+00
     -9.514  0.0000E+00  0.0000E+00
     -9.417  0.0000E+00  0.0000E+00
     -9.321  0.0000E+00  0.0000E+00
     -9.225  0.4248E-01  0.6980E-03
     -9.129  0.8646E-01  0.7118E-02
     -9.032  0.1187E+00  0.1718E-01
     -8.936  0.1453E+00  0.2981E-01
     -8.840  0.1643E+00  0.4470E-01
     -8.744  0.1860E+00  0.6155E-01
     -8.648  0.2020E+00  0.8018E-01
     -8.551  0.2204E+00  0.1005E+00
     -8.455  0.2358E+00  0.1225E+00
     -8.359  0.2516E+00  0.1459E+00
     -8.263  0.2679E+00  0.1709E+00
     -8.167  0.2821E+00  0.1974E+00
     -8.070  0.2973E+00  0.2252E+00
     -7.974  0.3128E+00  0.2546E+00
     -7.878  0.3272E+00  0.2854E+00
     -7.782  0.3425E+00  0.3176E+00
     -7.685  0.3587E+00  0.3513E+00
     -7.589  0.3741E+00  0.3865E+00
     -7.493  0.3905E+00  0.4233E+00
     -7.397  0.4080E+00  0.4617E+00
     -7.301  0.4263E+00  0.5019E+00
     -7.204  0.4457E+00  0.5438E+00
     -7.108  0.4668E+00  0.5877E+00
     -7.012  0.4899E+00  0.6337E+00
     -6.916  0.5163E+00  0.6821E+00
     -6.820  0.5470E+00  0.7332E+00
     -6.723  0.5839E+00  0.7875E+00
     -6.627  0.6304E+00  0.8458E+00
     -6.531  0.7058E+00  0.9098E+00
     -6.435  0.8596E+00  0.9850E+00
     -6.338  0.8016E+00  0.1064E+01
     -6.242  0.7957E+00  0.1140E+01
     -6.146  0.7743E+00  0.1215E+01
     -6.050  0.7575E+00  0.1289E+01
     -5.954  0.7440E+00  0.1361E+01
     -5.857  0.7342E+00  0.1432E+01
     -5.761  0.7235E+00  0.1503E+01
     -5.665  0.7133E+00  0.1572E+01
     -5.569  0.7152E+00  0.1640E+01
     -5.473  0.7163E+00  0.1709E+01
     -5.376  0.7355E+00  0.1779E+01
     -5.280  0.7964E+00  0.1852E+01
     -5.184  0.1016E+01  0.1938E+01
     -5.088  0.2196E+00  0.1994E+01
     -4.991  0.0000E+00  0.2000E+01
     -4.895  0.0000E+00  0.2000E+01
     -4.799  0.0000E+00  0.2000E+01
     -4.703  0.0000E+00  0.2000E+01
     -4.607  0.0000E+00  0.2000E+01
     -4.510  0.0000E+00  0.2000E+01
     -4.414  0.0000E+00  0.2000E+01
     -4.318  0.0000E+00  0.2000E+01
     -4.222  0.0000E+00  0.2000E+01
     -4.126  0.0000E+00  0.2000E+01
     -4.029  0.0000E+00  0.2000E+01
     -3.933  0.0000E+00  0.2000E+01
     -3.837  0.0000E+00  0.2000E+01
     -3.741  0.0000E+00  0.2000E+01
     -3.645  0.0000E+00  0.2000E+01
     -3.548  0.0000E+00  0.2000E+01
     -3.452  0.0000E+00  0.2000E+01
     -3.356  0.0000E+00  0.2000E+01
     -3.260  0.0000E+00  0.2000E+01
     -3.163  0.0000E+00  0.2000E+01
     -3.067  0.0000E+00  0.2000E+01
     -2.971  0.0000E+00  0.2000E+01
     -2.875  0.0000E+00  0.2000E+01
     -2.779  0.0000E+00  0.2000E+01
     -2.682  0.0000E+00  0.2000E+01
     -2.586  0.1807E+00  0.2010E+01
     -2.490  0.2453E+00  0.2030E+01
     -2.394  0.4452E+00  0.2063E+01
     -2.298  0.6356E+00  0.2115E+01
     -2.201  0.8703E+00  0.2187E+01
     -2.105  0.1253E+01  0.2285E+01
     -2.009  0.2207E+01  0.2451E+01
     -1.913  0.1377E+01  0.2633E+01
     -1.816  0.1007E+01  0.2745E+01
     -1.720  0.8298E+00  0.2832E+01
     -1.624  0.7204E+00  0.2906E+01
     -1.528  0.6281E+00  0.2971E+01
     -1.432  0.5778E+00  0.3029E+01
     -1.335  0.5274E+00  0.3082E+01
     -1.239  0.4779E+00  0.3130E+01
     -1.143  0.4510E+00  0.3174E+01
     -1.047  0.4240E+00  0.3217E+01
     -0.951  0.3941E+00  0.3256E+01
     -0.854  0.3670E+00  0.3292E+01
     -0.758  0.3511E+00  0.3327E+01
     -0.662  0.3347E+00  0.3360E+01
     -0.566  0.3159E+00  0.3391E+01
     -0.469  0.2942E+00  0.3421E+01
     -0.373  0.2824E+00  0.3448E+01
     -0.277  0.2717E+00  0.3475E+01
     -0.181  0.2600E+00  0.3501E+01
     -0.085  0.2477E+00  0.3525E+01
      0.012  0.2704E+00  0.3549E+01
      0.108  0.4615E+00  0.3587E+01
      0.204  0.6054E+00  0.3639E+01
      0.300  0.7378E+00  0.3702E+01
      0.396  0.9440E+00  0.3787E+01
      0.493  0.9241E+00  0.3877E+01
      0.589  0.8398E+00  0.3962E+01
      0.685  0.8123E+00  0.4041E+01
      0.781  0.8011E+00  0.4118E+01
      0.878  0.7736E+00  0.4195E+01
      0.974  0.7561E+00  0.4268E+01
      1.070  0.7950E+00  0.4345E+01
      1.166  0.8344E+00  0.4423E+01
      1.262  0.8312E+00  0.4502E+01
      1.359  0.8624E+00  0.4584E+01
      1.455  0.8711E+00  0.4666E+01
      1.551  0.9330E+00  0.4752E+01
      1.647  0.9387E+00  0.4841E+01
      1.743  0.9775E+00  0.4934E+01
      1.840  0.1068E+01  0.5031E+01
      1.936  0.1217E+01  0.5141E+01
      2.032  0.1185E+01  0.5258E+01
      2.128  0.1191E+01  0.5372E+01
      2.225  0.1173E+01  0.5486E+01
      2.321  0.1157E+01  0.5598E+01
      2.417  0.1136E+01  0.5709E+01
      2.513  0.1120E+01  0.5817E+01
      2.609  0.1106E+01  0.5924E+01
      2.706  0.1095E+01  0.6030E+01
      2.802  0.1078E+01  0.6135E+01
      2.898  0.1067E+01  0.6238E+01
      2.994  0.1046E+01  0.6340E+01
      3.090  0.1030E+01  0.6440E+01
      3.187  0.1021E+01  0.6538E+01
      3.283  0.1008E+01  0.6636E+01
      3.379  0.9929E+00  0.6732E+01
      3.475  0.9813E+00  0.6827E+01
      3.572  0.9703E+00  0.6921E+01
      3.668  0.9608E+00  0.7014E+01
      3.764  0.9475E+00  0.7106E+01
      3.860  0.9280E+00  0.7196E+01
      3.956  0.9275E+00  0.7285E+01
      4.053  0.9041E+00  0.7373E+01
      4.149  0.7709E+00  0.7456E+01
      4.245  0.6499E+00  0.7524E+01
      4.341  0.5820E+00  0.7583E+01
      4.437  0.5185E+00  0.7636E+01
      4.534  0.4689E+00  0.7683E+01
      4.630  0.4225E+00  0.7726E+01
      4.726  0.3885E+00  0.7765E+01
      4.822  0.3494E+00  0.7800E+01
      4.919  0.3173E+00  0.7833E+01
      5.015  0.2865E+00  0.7862E+01
      5.111  0.2558E+00  0.7888E+01
      5.207  0.2295E+00  0.7911E+01
      5.303  0.2024E+00  0.7932E+01
      5.400  0.1725E+00  0.7950E+01
      5.496  0.1468E+00  0.7965E+01
      5.592  0.1247E+00  0.7978E+01
      5.688  0.1008E+00  0.7989E+01
      5.784  0.5614E-01  0.7997E+01
      5.881  0.3479E-02  0.8000E+01
      5.977  0.0000E+00  0.8000E+01
      6.073  0.0000E+00  0.8000E+01
      6.169  0.0000E+00  0.8000E+01
      6.266  0.0000E+00  0.8000E+01
      6.362  0.0000E+00  0.8000E+01
      6.458  0.0000E+00  0.8000E+01
      6.554  0.0000E+00  0.8000E+01
      6.650  0.0000E+00  0.8000E+01
      6.747  0.0000E+00  0.8000E+01
      6.843  0.0000E+00  0.8000E+01
      6.939  0.0000E+00  0.8000E+01
      7.035  0.0000E+00  0.8000E+01
      7.131  0.7553E-02  0.8000E+01
      7.228  0.8723E-01  0.8004E+01
      7.324  0.1470E+00  0.8016E+01
      7.420  0.1980E+00  0.8032E+01
      7.516  0.2596E+00  0.8054E+01
      7.613  0.3076E+00  0.8082E+01
      7.709  0.3439E+00  0.8113E+01
      7.805  0.3822E+00  0.8148E+01
      7.901  0.4206E+00  0.8187E+01
      7.997  0.4614E+00  0.8229E+01
      8.094  0.5038E+00  0.8275E+01
      8.190  0.5389E+00  0.8326E+01
      8.286  0.5737E+00  0.8379E+01
      8.382  0.6099E+00  0.8436E+01
      8.478  0.6505E+00  0.8497E+01
      8.575  0.7553E+00  0.8564E+01
      8.671  0.8611E+00  0.8642E+01
      8.767  0.9621E+00  0.8730E+01
      8.863  0.1084E+01  0.8828E+01
      8.959  0.1245E+01  0.8940E+01
      9.056  0.1632E+01  0.9075E+01
      9.152  0.1820E+01  0.9245E+01
      9.248  0.1450E+01  0.9401E+01
      9.344  0.1331E+01  0.9533E+01
      9.441  0.1276E+01  0.9659E+01
      9.537  0.1219E+01  0.9780E+01
      9.633  0.1110E+01  0.9890E+01
      9.729  0.1199E+01  0.1000E+02
      9.825  0.8397E+00  0.1010E+02
      9.922  0.7154E+00  0.1018E+02
     10.018  0.6838E+00  0.1024E+02
     10.114  0.6926E+00  0.1031E+02
     10.210  0.6942E+00  0.1038E+02
     10.306  0.7829E+00  0.1045E+02
     10.403  0.8547E+00  0.1053E+02
     10.499  0.1525E+01  0.1063E+02
     10.595  0.1652E+01  0.1081E+02
     10.691  0.1512E+01  0.1097E+02
     10.788  0.1484E+01  0.1111E+02
     10.884  0.1628E+01  0.1126E+02
     10.980  0.1537E+01  0.1142E+02
     11.076  0.1334E+01  0.1157E+02
     11.172  0.1202E+01  0.1168E+02
     11.269  0.1139E+01  0.1180E+02
     11.365  0.1050E+01  0.1190E+02
     11.461  0.9688E+00  0.1200E+02
     11.557  0.9280E+00  0.1209E+02
     11.653  0.9749E+00  0.1218E+02
     11.750  0.9854E+00  0.1228E+02
     11.846  0.1034E+01  0.1237E+02
     11.942  0.1150E+01  0.1248E+02
     12.038  0.1176E+01  0.1259E+02
     12.135  0.1103E+01  0.1270E+02
     12.231  0.1143E+01  0.1281E+02
     12.327  0.1187E+01  0.1292E+02
     12.423  0.1121E+01  0.1303E+02
     12.519  0.1133E+01  0.1314E+02
     12.616  0.1090E+01  0.1325E+02
     12.712  0.1134E+01  0.1335E+02
     12.808  0.1097E+01  0.1346E+02
     12.904  0.1078E+01  0.1357E+02
     13.000  0.1012E+01  0.1367E+02
     13.097  0.1006E+01  0.1377E+02
     13.193  0.9820E+00  0.1386E+02
     13.289  0.9587E+00  0.1396E+02
     13.385  0.8005E+00  0.1404E+02
     13.482  0.6942E+00  0.1411E+02
     13.578  0.6849E+00  0.1418E+02
     13.674  0.6954E+00  0.1424E+02
     13.770  0.7146E+00  0.1431E+02
     13.866  0.7219E+00  0.1438E+02
     13.963  0.7265E+00  0.1445E+02
     14.059  0.7488E+00  0.1452E+02
     14.155  0.7761E+00  0.1460E+02
     14.251  0.8058E+00  0.1467E+02
     14.347  0.8410E+00  0.1475E+02
     14.444  0.9047E+00  0.1483E+02
     14.540  0.9995E+00  0.1493E+02
     14.636  0.1222E+01  0.1503E+02
     14.732  0.1564E+01  0.1516E+02
     14.829  0.1295E+01  0.1530E+02
     14.925  0.1072E+01  0.1542E+02
     15.021  0.5551E+00  0.1550E+02
     15.117  0.4743E+00  0.1555E+02
     15.213  0.4467E+00  0.1559E+02
     15.310  0.4215E+00  0.1564E+02
     15.406  0.3893E+00  0.1567E+02
     15.502  0.3643E+00  0.1571E+02
     15.598  0.3401E+00  0.1574E+02
     15.694  0.3109E+00  0.1578E+02
     15.791  0.2872E+00  0.1580E+02
     15.887  0.2639E+00  0.1583E+02
     15.983  0.2452E+00  0.1586E+02
     16.079  0.2293E+00  0.1588E+02
     16.176  0.2134E+00  0.1590E+02
     16.272  0.1937E+00  0.1592E+02
     16.368  0.1640E+00  0.1594E+02
     16.464  0.1439E+00  0.1595E+02
     16.560  0.1274E+00  0.1596E+02
     16.657  0.1139E+00  0.1598E+02
     16.753  0.9786E-01  0.1599E+02
     16.849  0.6004E-01  0.1599E+02
     16.945  0.3733E-01  0.1600E+02
     17.041  0.0000E+00  0.1600E+02
     17.138  0.0000E+00  0.1600E+02
     17.234  0.0000E+00  0.1600E+02
     17.330  0.0000E+00  0.1600E+02
     17.426  0.0000E+00  0.1600E+02
     17.523  0.0000E+00  0.1600E+02
     17.619  0.0000E+00  0.1600E+02
     17.715  0.0000E+00  0.1600E+02
     17.811  0.0000E+00  0.1600E+02
     17.907  0.0000E+00  0.1600E+02
     18.004  0.0000E+00  0.1600E+02
     18.100  0.0000E+00  0.1600E+02
     18.196  0.0000E+00  0.1600E+02
     18.292  0.0000E+00  0.1600E+02
