    2    2    1    1
  0.1396839E+02  0.3405889E-09  0.3405889E-09  0.3405889E-09  0.0000000E+00
  1.000000000000000E-004
  CAR 
 unknown system                          
      8    364      8
 
  0.0000000E+00  0.0000000E+00  0.0000000E+00  0.8218953E-04
    1       -9.259889   1.000000
    2        5.906249   1.000000
    3        5.906249   1.000000
    4        5.906249   1.000000
    5        9.144826   0.000000
    6        9.144826   0.000000
    7        9.144826   0.000000
    8       10.305128   0.000000
 
  0.4347826E-01  0.0000000E+00  0.0000000E+00  0.6575162E-03
    1       -9.229447   1.000000
    2        5.579655   1.000000
    3        5.843587   1.000000
    4        5.843587   1.000000
    5        9.216200   0.000000
    6        9.227040   0.000000
    7        9.227040   0.000000
    8       10.490033   0.000000
 
  0.8695652E-01  0.0000000E+00  0.0000000E+00  0.6575162E-03
    1       -9.138332   1.000000
    2        4.803411   1.000000
    3        5.676630   1.000000
    4        5.676630   1.000000
    5        9.256669   0.000000
    6        9.447462   0.000000
    7        9.447462   0.000000
    8       11.021756   0.000000
 
  0.1304348E+00  0.0000000E+00  0.0000000E+00  0.6575162E-03
    1       -8.987439   1.000000
    2        3.840175   1.000000
    3        5.449118   1.000000
    4        5.449118   1.000000
    5        9.192990   0.000000
    6        9.747108   0.000000
    7        9.747108   0.000000
    8       11.731073   0.000000
 
  0.1739130E+00  0.0000000E+00  0.0000000E+00  0.6575162E-03
    1       -8.778331   1.000000
    2        2.817868   1.000000
    3        5.199995   1.000000
    4        5.199995   1.000000
    5        9.077610   0.000000
    6       10.062501   0.000000
    7       10.062501   0.000000
    8       12.466629   0.000000
 
  0.2173913E+00  0.0000000E+00  0.0000000E+00  0.6575162E-03
    1       -8.513746   1.000000
    2        1.794799   1.000000
    3        4.955364   1.000000
    4        4.955364   1.000000
    5        8.946854   0.000000
    6       10.338735   0.000000
    7       10.338735   0.000000
    8       13.160993   0.000000
 
  0.2608696E+00  0.0000000E+00  0.0000000E+00  0.6575162E-03
    1       -8.198236   1.000000
    2        0.803147   1.000000
    3        4.730949   1.000000
    4        4.730949   1.000000
    5        8.819747   0.000000
    6       10.538173   0.000000
    7       10.538173   0.000000
    8       13.772751   0.000000
 
  0.3043478E+00  0.0000000E+00  0.0000000E+00  0.6575162E-03
    1       -7.839588   1.000000
    2       -0.133676   1.000000
    3        4.536002   1.000000
    4        4.536002   1.000000
    5        8.706457   0.000000
    6       10.649880   0.000000
    7       10.649880   0.000000
    8       14.250983   0.000000
 
  0.3478261E+00  0.0000000E+00  0.0000000E+00  0.6575162E-03
    1       -7.451776   1.000000
    2       -0.992260   1.000000
    3        4.375922   1.000000
    4        4.375922   1.000000
    5        8.612531   0.000000
    6       10.689271   0.000000
    7       10.689271   0.000000
    8       14.548192   0.000000
 
  0.3913043E+00  0.0000000E+00  0.0000000E+00  0.6575162E-03
    1       -7.060873   1.000000
    2       -1.740496   1.000000
    3        4.253976   1.000000
    4        4.253977   1.000000
    5        8.540751   0.000000
    6       10.685297   0.000000
    7       10.685297   0.000000
    8       14.678020   0.000000
 
  0.4347826E+00  0.0000000E+00  0.0000000E+00  0.6575162E-03
    1       -6.716368   1.000000
    2       -2.325100   1.000000
    3        4.171906   1.000000
    4        4.171906   1.000000
    5        8.492491   0.000000
    6       10.666032   0.000000
    7       10.666032   0.000000
    8       14.711919   0.000000
 
  0.4782609E+00  0.0000000E+00  0.0000000E+00  0.6575162E-03
    1       -6.501280   1.000000
    2       -2.660764   1.000000
    3        4.130676   1.000000
    4        4.130676   1.000000
    5        8.468259   0.000000
    6       10.651447   0.000000
    7       10.651447   0.000000
    8       14.713639   0.000000
 
  0.4347826E-01  0.4347826E-01  0.0000000E+00  0.4931372E-03
    1       -9.219289   1.000000
    2        5.686097   1.000000
    3        5.714088   1.000000
    4        5.714088   1.000000
    5        9.021544   0.000000
    6        9.381242   0.000000
    7        9.381242   0.000000
    8       10.518428   0.000000
 
  0.8695652E-01  0.4347826E-01  0.0000000E+00  0.1972549E-02
    1       -9.148365   1.000000
    2        5.052390   1.000000
    3        5.500918   1.000000
    4        5.676063   1.000000
    5        9.006465   0.000000
    6        9.558202   0.000000
    7        9.655072   0.000000
    8       10.891446   0.000000
 
  0.1304348E+00  0.4347826E-01  0.0000000E+00  0.1972549E-02
    1       -9.017361   1.000000
    2        4.150872   1.000000
    3        5.247975   1.000000
    4        5.532512   1.000000
    5        9.112193   0.000000
    6        9.627185   0.000000
    7        9.990736   0.000000
    8       11.524461   0.000000
 
  0.1739130E+00  0.4347826E-01  0.0000000E+00  0.1972549E-02
    1       -8.827544   1.000000
    2        3.153178   1.000000
    3        4.988783   1.000000
    4        5.317196   1.000000
    5        9.170492   0.000000
    6        9.751888   0.000000
    7       10.331098   0.000000
    8       12.216199   0.000000
 
  0.2173913E+00  0.4347826E-01  0.0000000E+00  0.1972549E-02
    1       -8.581257   1.000000
    2        2.135124   1.000000
    3        4.744866   1.000000
    4        5.072058   1.000000
    5        9.112409   0.000000
    6        9.981964   0.000000
    7       10.625056   0.000000
    8       12.865473   0.000000
 
  0.2608696E+00  0.4347826E-01  0.0000000E+00  0.1972549E-02
    1       -8.282303   1.000000
    2        1.136481   1.000000
    3        4.529189   1.000000
    4        4.825170   1.000000
    5        9.008354   0.000000
    6       10.212146   0.000000
    7       10.834113   0.000000
    8       13.439733   0.000000
 
  0.3043478E+00  0.4347826E-01  0.0000000E+00  0.1972549E-02
    1       -7.937205   1.000000
    2        0.183484   1.000000
    3        4.349355   1.000000
    4        4.593534   1.000000
    5        8.900119   0.000000
    6       10.379698   0.000000
    7       10.943429   0.000000
    8       13.931312   0.000000
 
  0.3478261E+00  0.4347826E-01  0.0000000E+00  0.1972549E-02
    1       -7.557393   1.000000
    2       -0.700767   1.000000
    3        4.209786   1.000000
    4        4.387249   1.000000
    5        8.803756   0.000000
    6       10.475478   0.000000
    7       10.965443   0.000000
    8       14.323380   0.000000
 
  0.3913043E+00  0.4347826E-01  0.0000000E+00  0.1972549E-02
    1       -7.163969   1.000000
    2       -1.487812   1.000000
    3        4.112769   1.000000
    4        4.212560   1.000000
    5        8.726209   0.000000
    6       10.520809   0.000000
    7       10.929347   0.000000
    8       14.585609   0.000000
 
  0.4347826E+00  0.4347826E-01  0.0000000E+00  0.1972549E-02
    1       -6.797038   1.000000
    2       -2.132914   1.000000
    3        4.059309   1.000000
    4        4.073538   1.000000
    5        8.670679   0.000000
    6       10.544945   0.000000
    7       10.866190   0.000000
    8       14.720941   0.000000
 
  0.4782609E+00  0.4347826E-01  0.0000000E+00  0.1972549E-02
    1       -6.528392   1.000000
    2       -2.561392   1.000000
    3        3.972998   1.000000
    4        4.049405   1.000000
    5        8.638611   0.000000
    6       10.571298   0.000000
    7       10.799693   0.000000
    8       14.774934   0.000000
 
 -0.4782609E+00  0.4347826E-01  0.0000000E+00  0.1972549E-02
    1       -6.451022   1.000000
    2       -2.678773   1.000000
    3        3.913039   1.000000
    4        4.082438   1.000000
    5        8.630560   0.000000
    6       10.613244   0.000000
    7       10.743733   0.000000
    8       14.789647   0.000000
 
 -0.4347826E+00  0.4347826E-01  0.0000000E+00  0.1972549E-02
    1       -6.601288   1.000000
    2       -2.448317   1.000000
    3        3.895198   1.000000
    4        4.157209   1.000000
    5        8.646642   0.000000
    6       10.673904   0.000000
    7       10.702095   0.000000
    8       14.777470   0.000000
 
 -0.3913043E+00  0.4347826E-01  0.0000000E+00  0.1972549E-02
    1       -6.912904   1.000000
    2       -1.937069   1.000000
    3        3.920489   1.000000
    4        4.271997   1.000000
    5        8.686641   0.000000
    6       10.668723   0.000000
    7       10.746210   0.000000
    8       14.717503   0.000000
 
 -0.3478261E+00  0.4347826E-01  0.0000000E+00  0.1972549E-02
    1       -7.294868   1.000000
    2       -1.237955   1.000000
    3        3.989454   1.000000
    4        4.424400   1.000000
    5        8.749964   0.000000
    6       10.627581   0.000000
    7       10.812447   0.000000
    8       14.560871   0.000000
 
 -0.3043478E+00  0.4347826E-01  0.0000000E+00  0.1972549E-02
    1       -7.686990   1.000000
    2       -0.414607   1.000000
    3        4.101958   1.000000
    4        4.611141   1.000000
    5        8.835223   0.000000
    6       10.554191   0.000000
    7       10.843913   0.000000
    8       14.262426   0.000000
 
 -0.2608696E+00  0.4347826E-01  0.0000000E+00  0.1972549E-02
    1       -8.056952   1.000000
    2        0.495141   1.000000
    3        4.256908   1.000000
    4        4.827258   1.000000
    5        8.939589   0.000000
    6       10.421877   0.000000
    7       10.804568   0.000000
    8       13.826342   0.000000
 
 -0.2173913E+00  0.4347826E-01  0.0000000E+00  0.1972549E-02
    1       -8.387593   1.000000
    2        1.465419   1.000000
    3        4.451856   1.000000
    4        5.065170   1.000000
    5        9.057474   0.000000
    6       10.215382   0.000000
    7       10.664490   0.000000
    8       13.290924   0.000000
 
 -0.1739130E+00  0.4347826E-01  0.0000000E+00  0.1972549E-02
    1       -8.669536   1.000000
    2        2.472408   1.000000
    3        4.682296   1.000000
    4        5.312580   1.000000
    5        9.178139   0.000000
    6        9.945073   0.000000
    7       10.420266   0.000000
    8       12.682903   0.000000
 
 -0.1304348E+00  0.4347826E-01  0.0000000E+00  0.1972549E-02
    1       -8.897306   1.000000
    2        3.485138   1.000000
    3        4.940961   1.000000
    4        5.549310   1.000000
    5        9.280284   0.000000
    6        9.650176   0.000000
    7       10.105483   0.000000
    8       12.018847   0.000000
 
 -0.8695652E-01  0.4347826E-01  0.0000000E+00  0.1972549E-02
    1       -9.067696   1.000000
    2        4.448349   1.000000
    3        5.218428   1.000000
    4        5.743652   1.000000
    5        9.320975   0.000000
    6        9.390229   0.000000
    7        9.783551   0.000000
    8       11.342413   0.000000
 
 -0.4347826E-01  0.4347826E-01  0.0000000E+00  0.9862743E-03
    1       -9.178758   1.000000
    2        5.223632   1.000000
    3        5.525876   1.000000
    4        5.853446   1.000000
    5        9.232106   0.000000
    6        9.256501   0.000000
    7        9.506329   0.000000
    8       10.775666   0.000000
 
  0.8695652E-01  0.8695652E-01  0.0000000E+00  0.4931372E-03
    1       -9.097705   1.000000
    2        5.114287   1.000000
    3        5.257607   1.000000
    4        5.257607   1.000000
    5        8.750185   0.000000
    6        9.969314   0.000000
    7        9.969314   0.000000
    8       10.963505   0.000000
 
  0.1304348E+00  0.8695652E-01  0.0000000E+00  0.1972549E-02
    1       -8.986791   1.000000
    2        4.379578   1.000000
    3        4.987444   1.000000
    4        5.191650   1.000000
    5        8.702675   0.000000
    6       10.160613   0.000000
    7       10.337171   0.000000
    8       11.375507   0.000000
 
  0.1739130E+00  0.8695652E-01  0.0000000E+00  0.1972549E-02
    1       -8.816693   1.000000
    2        3.448068   1.000000
    3        4.719929   1.000000
    4        5.052902   1.000000
    5        8.821651   0.000000
    6       10.158072   0.000000
    7       10.706976   0.000000
    8       11.950758   0.000000
 
  0.2173913E+00  0.8695652E-01  0.0000000E+00  0.1972549E-02
    1       -8.589384   1.000000
    2        2.463043   1.000000
    3        4.473969   1.000000
    4        4.836175   1.000000
    5        8.995646   0.000000
    6       10.144073   0.000000
    7       11.030021   0.000000
    8       12.463532   0.000000
 
  0.2608696E+00  0.8695652E-01  0.0000000E+00  0.1972549E-02
    1       -8.308089   1.000000
    2        1.477081   1.000000
    3        4.261236   1.000000
    4        4.584632   1.000000
    5        9.110769   0.000000
    6       10.195736   0.000000
    7       11.265516   0.000000
    8       12.876795   0.000000
 
  0.3043478E+00  0.8695652E-01  0.0000000E+00  0.1972549E-02
    1       -7.978304   1.000000
    2        0.522545   1.000000
    3        4.088763   1.000000
    4        4.327981   1.000000
    5        9.129709   0.000000
    6       10.298428   0.000000
    7       11.392379   0.000000
    8       13.258875   0.000000
 
  0.3478261E+00  0.8695652E-01  0.0000000E+00  0.1972549E-02
    1       -7.609470   1.000000
    2       -0.375272   1.000000
    3        3.960693   1.000000
    4        4.084284   1.000000
    5        9.092252   0.000000
    6       10.389040   0.000000
    7       11.417037   0.000000
    8       13.676048   0.000000
 
  0.3913043E+00  0.8695652E-01  0.0000000E+00  0.1972549E-02
    1       -7.218762   1.000000
    2       -1.189435   1.000000
    3        3.864649   1.000000
    4        3.879150   1.000000
    5        9.040379   0.000000
    6       10.442996   0.000000
    7       11.366856   0.000000
    8       14.118853   0.000000
 
  0.4347826E+00  0.8695652E-01  0.0000000E+00  0.1972549E-02
    1       -6.838535   1.000000
    2       -1.881405   1.000000
    3        3.676266   1.000000
    4        3.844926   1.000000
    5        8.996316   0.000000
    6       10.475538   0.000000
    7       11.274798   0.000000
    8       14.514442   0.000000
 
  0.4782609E+00  0.8695652E-01  0.0000000E+00  0.1972549E-02
    1       -6.528793   1.000000
    2       -2.387303   1.000000
    3        3.524210   1.000000
    4        3.857726   1.000000
    5        8.970073   0.000000
    6       10.510117   0.000000
    7       11.168123   0.000000
    8       14.789921   0.000000
 
 -0.4782609E+00  0.8695652E-01  0.0000000E+00  0.1972549E-02
    1       -6.379930   1.000000
    2       -2.614619   1.000000
    3        3.412255   1.000000
    4        3.916387   1.000000
    5        8.965625   0.000000
    6       10.563449   0.000000
    7       11.064222   0.000000
    8       14.926771   0.000000
 
 -0.4347826E+00  0.8695652E-01  0.0000000E+00  0.1972549E-02
    1       -6.457357   1.000000
    2       -2.497073   1.000000
    3        3.343368   1.000000
    4        4.018992   1.000000
    5        8.983972   0.000000
    6       10.642846   0.000000
    7       10.970381   0.000000
    8       14.938762   0.000000
 
 -0.3913043E+00  0.8695652E-01  0.0000000E+00  0.1972549E-02
    1       -6.724834   1.000000
    2       -2.071427   1.000000
    3        3.319931   1.000000
    4        4.162755   1.000000
    5        9.024600   0.000000
    6       10.745990   0.000000
    7       10.883854   0.000000
    8       14.822405   0.000000
 
 -0.3478261E+00  0.8695652E-01  0.0000000E+00  0.1972549E-02
    1       -7.090122   1.000000
    2       -1.431683   1.000000
    3        3.343755   1.000000
    4        4.343949   1.000000
    5        9.086124   0.000000
    6       10.792156   0.000000
    7       10.859545   0.000000
    8       14.559866   0.000000
 
 -0.3043478E+00  0.8695652E-01  0.0000000E+00  0.1972549E-02
    1       -7.481950   1.000000
    2       -0.652707   1.000000
    3        3.416155   1.000000
    4        4.557462   1.000000
    5        9.166288   0.000000
    6       10.674311   0.000000
    7       10.955965   0.000000
    8       14.165915   0.000000
 
 -0.2608696E+00  0.8695652E-01  0.0000000E+00  0.1972549E-02
    1       -7.860357   1.000000
    2        0.219590   1.000000
    3        3.538094   1.000000
    4        4.796064   1.000000
    5        9.261144   0.000000
    6       10.506978   0.000000
    7       10.990693   0.000000
    8       13.704660   0.000000
 
 -0.2173913E+00  0.8695652E-01  0.0000000E+00  0.1972549E-02
    1       -8.204295   1.000000
    2        1.153895   1.000000
    3        3.710597   1.000000
    4        5.049165   1.000000
    5        9.363216   0.000000
    6       10.277829   0.000000
    7       10.910329   0.000000
    8       13.244328   0.000000
 
 -0.1739130E+00  0.8695652E-01  0.0000000E+00  0.1972549E-02
    1       -8.502297   1.000000
    2        2.120166   1.000000
    3        3.936495   1.000000
    4        5.300470   1.000000
    5        9.457542   0.000000
    6       10.000356   0.000000
    7       10.689443   0.000000
    8       12.802529   0.000000
 
 -0.1304348E+00  0.8695652E-01  0.0000000E+00  0.1972549E-02
    1       -8.747849   1.000000
    2        3.071725   1.000000
    3        4.228214   1.000000
    4        5.524733   1.000000
    5        9.512236   0.000000
    6        9.717663   0.000000
    7       10.372429   0.000000
    8       12.337881   0.000000
 
 -0.8695652E-01  0.8695652E-01  0.0000000E+00  0.9862743E-03
    1       -8.937084   1.000000
    2        3.899359   1.000000
    3        4.639386   1.000000
    4        5.685846   1.000000
    5        9.467961   0.000000
    6        9.492816   0.000000
    7       10.059093   0.000000
    8       11.826264   0.000000
 
  0.1304348E+00  0.1304348E+00  0.0000000E+00  0.4931372E-03
    1       -8.895995   1.000000
    2        4.340520   1.000000
    3        4.705874   1.000000
    4        4.705874   1.000000
    5        8.423764   0.000000
    6       10.737034   0.000000
    7       10.737034   0.000000
    8       11.334412   0.000000
 
  0.1739130E+00  0.1304348E+00  0.0000000E+00  0.1972549E-02
    1       -8.745854   1.000000
    2        3.627589   1.000000
    3        4.430794   1.000000
    4        4.573098   1.000000
    5        8.369322   0.000000
    6       10.865413   0.000000
    7       11.142238   0.000000
    8       11.673693   0.000000
 
  0.2173913E+00  0.1304348E+00  0.0000000E+00  0.1972549E-02
    1       -8.537998   1.000000
    2        2.727056   1.000000
    3        4.180174   1.000000
    4        4.408303   1.000000
    5        8.499074   0.000000
    6       10.785830   0.000000
    7       11.505505   0.000000
    8       12.060872   0.000000
 
  0.2608696E+00  0.1304348E+00  0.0000000E+00  0.1972549E-02
    1       -8.275205   1.000000
    2        1.787251   1.000000
    3        3.965358   1.000000
    4        4.170755   1.000000
    5        8.706933   0.000000
    6       10.732397   0.000000
    7       11.783474   0.000000
    8       12.302867   0.000000
 
  0.3043478E+00  0.1304348E+00  0.0000000E+00  0.1972549E-02
    1       -7.962139   1.000000
    2        0.855159   1.000000
    3        3.793388   1.000000
    4        3.899987   1.000000
    5        8.886211   0.000000
    6       10.742205   0.000000
    7       11.947621   0.000000
    8       12.506050   0.000000
 
  0.3478261E+00  0.1304348E+00  0.0000000E+00  0.1972549E-02
    1       -7.606694   1.000000
    2       -0.037824   1.000000
    3        3.625724   1.000000
    4        3.668566   1.000000
    5        8.986359   0.000000
    6       10.783768   0.000000
    7       11.995931   0.000000
    8       12.808747   0.000000
 
  0.3913043E+00  0.1304348E+00  0.0000000E+00  0.1972549E-02
    1       -7.222986   1.000000
    2       -0.863346   1.000000
    3        3.366473   1.000000
    4        3.593191   1.000000
    5        9.024100   0.000000
    6       10.808209   0.000000
    7       11.951368   0.000000
    8       13.266111   0.000000
 
  0.4347826E+00  0.1304348E+00  0.0000000E+00  0.1972549E-02
    1       -6.837202   1.000000
    2       -1.586200   1.000000
    3        3.133845   1.000000
    4        3.568123   1.000000
    5        9.038140   0.000000
    6       10.808573   0.000000
    7       11.847566   0.000000
    8       13.831144   0.000000
 
  0.4782609E+00  0.1304348E+00  0.0000000E+00  0.1972549E-02
    1       -6.498573   1.000000
    2       -2.151533   1.000000
    3        2.935748   1.000000
    4        3.593175   1.000000
    5        9.056720   0.000000
    6       10.805287   0.000000
    7       11.715127   0.000000
    8       14.400231   0.000000
 
 -0.4782609E+00  0.1304348E+00  0.0000000E+00  0.1972549E-02
    1       -6.288735   1.000000
    2       -2.474411   1.000000
    3        2.777857   1.000000
    4        3.667098   1.000000
    5        9.093834   0.000000
    6       10.818014   0.000000
    7       11.575002   0.000000
    8       14.842680   0.000000
 
 -0.4347826E+00  0.1304348E+00  0.0000000E+00  0.1972549E-02
    1       -6.290532   1.000000
    2       -2.470509   1.000000
    3        2.664585   1.000000
    4        3.787682   1.000000
    5        9.153805   0.000000
    6       10.859030   0.000000
    7       11.437518   0.000000
    8       15.036673   0.000000
 
 -0.3913043E+00  0.1304348E+00  0.0000000E+00  0.1972549E-02
    1       -6.502994   1.000000
    2       -2.141011   1.000000
    3        2.599544   1.000000
    4        3.951590   1.000000
    5        9.235065   0.000000
    6       10.933090   0.000000
    7       11.302565   0.000000
    8       14.932090   0.000000
 
 -0.3478261E+00  0.1304348E+00  0.0000000E+00  0.1972549E-02
    1       -6.842620   1.000000
    2       -1.571389   1.000000
    3        2.585946   1.000000
    4        4.154184   1.000000
    5        9.332768   0.000000
    6       11.036042   0.000000
    7       11.160103   0.000000
    8       14.572550   0.000000
 
 -0.3043478E+00  0.1304348E+00  0.0000000E+00  0.1972549E-02
    1       -7.228374   1.000000
    2       -0.847179   1.000000
    3        2.627113   1.000000
    4        4.388929   1.000000
    5        9.440297   0.000000
    6       10.991790   0.000000
    7       11.149179   0.000000
    8       14.064159   0.000000
 
 -0.2608696E+00  0.1304348E+00  0.0000000E+00  0.1972549E-02
    1       -7.611570   1.000000
    2       -0.025595   1.000000
    3        2.727582   1.000000
    4        4.646547   1.000000
    5        9.549190   0.000000
    6       10.777714   0.000000
    7       11.227835   0.000000
    8       13.528809   0.000000
 
 -0.2173913E+00  0.1304348E+00  0.0000000E+00  0.1972549E-02
    1       -7.966321   1.000000
    2        0.850381   1.000000
    3        2.896480   1.000000
    4        4.913569   1.000000
    5        9.646530   0.000000
    6       10.510438   0.000000
    7       11.191630   0.000000
    8       13.084753   0.000000
 
 -0.1739130E+00  0.1304348E+00  0.0000000E+00  0.1972549E-02
    1       -8.278645   1.000000
    2        1.728067   1.000000
    3        3.158456   1.000000
    4        5.169951   1.000000
    5        9.707407   0.000000
    6       10.209594   0.000000
    7       10.976443   0.000000
    8       12.799472   0.000000
 
 -0.1304348E+00  0.1304348E+00  0.0000000E+00  0.9862743E-03
    1       -8.540704   1.000000
    2        2.506414   1.000000
    3        3.581628   1.000000
    4        5.386374   1.000000
    5        9.681108   0.000000
    6        9.923729   0.000000
    7       10.656472   0.000000
    8       12.594002   0.000000
 
  0.1739130E+00  0.1739130E+00  0.0000000E+00  0.4931372E-03
    1       -8.615685   1.000000
    2        3.464084   1.000000
    3        4.148561   1.000000
    4        4.148561   1.000000
    5        8.088017   0.000000
    6       11.335531   0.000000
    7       11.590512   0.000000
    8       11.590512   0.000000
 
  0.2173913E+00  0.1739130E+00  0.0000000E+00  0.1972549E-02
    1       -8.427554   1.000000
    2        2.812226   1.000000
    3        3.891364   1.000000
    4        3.950025   1.000000
    5        8.042452   0.000000
    6       11.123827   0.000000
    7       12.005394   0.000000
    8       12.022597   0.000000
 
  0.2608696E+00  0.1739130E+00  0.0000000E+00  0.1972549E-02
    1       -8.183887   1.000000
    2        1.988358   1.000000
    3        3.670828   1.000000
    4        3.728632   1.000000
    5        8.187040   0.000000
    6       10.969100   0.000000
    7       12.237195   0.000000
    8       12.341311   0.000000
 
  0.3043478E+00  0.1739130E+00  0.0000000E+00  0.1972549E-02
    1       -7.888658   1.000000
    2        1.123743   1.000000
    3        3.448482   1.000000
    4        3.494354   1.000000
    5        8.408031   0.000000
    6       10.953614   0.000000
    7       12.295444   0.000000
    8       12.562162   0.000000
 
  0.3478261E+00  0.1739130E+00  0.0000000E+00  0.1972549E-02
    1       -7.548593   1.000000
    2        0.268239   1.000000
    3        3.143922   1.000000
    4        3.366561   1.000000
    5        8.595588   0.000000
    6       11.100471   0.000000
    7       12.331719   0.000000
    8       12.655408   0.000000
 
  0.3913043E+00  0.1739130E+00  0.0000000E+00  0.1972549E-02
    1       -7.175437   1.000000
    2       -0.543121   1.000000
    3        2.843374   1.000000
    4        3.290058   1.000000
    5        8.708115   0.000000
    6       11.314956   0.000000
    7       12.503556   0.000000
    8       12.636695   0.000000
 
  0.4347826E+00  0.1739130E+00  0.0000000E+00  0.1972549E-02
    1       -6.790602   1.000000
    2       -1.274498   1.000000
    3        2.564957   1.000000
    4        3.266003   1.000000
    5        8.772033   0.000000
    6       11.434654   0.000000
    7       12.538773   0.000000
    8       12.943528   0.000000
 
  0.4782609E+00  0.1739130E+00  0.0000000E+00  0.1972549E-02
    1       -6.434264   1.000000
    2       -1.876704   1.000000
    3        2.320199   1.000000
    4        3.294416   1.000000
    5        8.827550   0.000000
    6       11.456030   0.000000
    7       12.395043   0.000000
    8       13.589406   0.000000
 
 -0.4782609E+00  0.1739130E+00  0.0000000E+00  0.1972549E-02
    1       -6.176814   1.000000
    2       -2.273887   1.000000
    3        2.116992   1.000000
    4        3.374167   1.000000
    5        8.900380   0.000000
    6       11.448474   0.000000
    7       12.230221   0.000000
    8       14.284163   0.000000
 
 -0.4347826E+00  0.1739130E+00  0.0000000E+00  0.1972549E-02
    1       -6.106628   1.000000
    2       -2.375054   1.000000
    3        1.961296   1.000000
    4        3.503052   1.000000
    5        9.001631   0.000000
    6       11.449422   0.000000
    7       12.057539   0.000000
    8       14.830813   0.000000
 
 -0.3913043E+00  0.1739130E+00  0.0000000E+00  0.1972549E-02
    1       -6.255645   1.000000
    2       -2.148050   1.000000
    3        1.858209   1.000000
    4        3.677590   1.000000
    5        9.132437   0.000000
    6       11.474921   0.000000
    7       11.878844   0.000000
    8       14.946035   0.000000
 
 -0.3478261E+00  0.1739130E+00  0.0000000E+00  0.1972549E-02
    1       -6.559777   1.000000
    2       -1.659827   1.000000
    3        1.812997   1.000000
    4        3.892701   1.000000
    5        9.286861   0.000000
    6       11.530479   0.000000
    7       11.685291   0.000000
    8       14.578508   0.000000
 
 -0.3043478E+00  0.1739130E+00  0.0000000E+00  0.1972549E-02
    1       -6.932343   1.000000
    2       -1.004313   1.000000
    3        1.832770   1.000000
    4        4.141077   1.000000
    5        9.453058   0.000000
    6       11.459884   0.000000
    7       11.610164   0.000000
    8       13.984454   0.000000
 
 -0.2608696E+00  0.1739130E+00  0.0000000E+00  0.1972549E-02
    1       -7.315552   1.000000
    2       -0.255782   1.000000
    3        1.930785   1.000000
    4        4.412193   1.000000
    5        9.613235   0.000000
    6       11.185934   0.000000
    7       11.680300   0.000000
    8       13.366743   0.000000
 
 -0.2173913E+00  0.1739130E+00  0.0000000E+00  0.1972549E-02
    1       -7.677735   1.000000
    2        0.515747   1.000000
    3        2.138331   1.000000
    4        4.690597   1.000000
    5        9.741187   0.000000
    6       10.862765   0.000000
    7       11.632646   0.000000
    8       12.907552   0.000000
 
 -0.1739130E+00  0.1739130E+00  0.0000000E+00  0.9862743E-03
    1       -8.001947   1.000000
    2        1.208796   1.000000
    3        2.526834   1.000000
    4        4.953756   1.000000
    5        9.794374   0.000000
    6       10.518957   0.000000
    7       11.345447   0.000000
    8       12.764586   0.000000
 
  0.2173913E+00  0.2173913E+00  0.0000000E+00  0.4931372E-03
    1       -8.259215   1.000000
    2        2.536940   1.000000
    3        3.626482   1.000000
    4        3.626482   1.000000
    5        7.774644   0.000000
    6       10.879991   0.000000
    7       12.483620   0.000000
    8       12.483620   0.000000
 
  0.2608696E+00  0.2173913E+00  0.0000000E+00  0.1972549E-02
    1       -8.035058   1.000000
    2        1.943811   1.000000
    3        3.386145   1.000000
    4        3.397858   1.000000
    5        7.748807   0.000000
    6       10.601409   0.000000
    7       12.824622   0.000000
    8       12.892866   0.000000
 
  0.3043478E+00  0.2173913E+00  0.0000000E+00  0.1972549E-02
    1       -7.758545   1.000000
    2        1.220690   1.000000
    3        3.094488   1.000000
    4        3.213525   1.000000
    5        7.911565   0.000000
    6       10.451567   0.000000
    7       12.945504   0.000000
    8       13.190161   0.000000
 