Automatically generated mesh
     364
Reciprocal lattice
    0.00000000000000    0.00000000000000    0.00000000000000             1
    0.04347826086957    0.00000000000000    0.00000000000000             8
    0.08695652173913    0.00000000000000    0.00000000000000             8
    0.13043478260870    0.00000000000000    0.00000000000000             8
    0.17391304347826    0.00000000000000    0.00000000000000             8
    0.21739130434783    0.00000000000000    0.00000000000000             8
    0.26086956521739    0.00000000000000    0.00000000000000             8
    0.30434782608696    0.00000000000000    0.00000000000000             8
    0.34782608695652    0.00000000000000    0.00000000000000             8
    0.39130434782609    0.00000000000000    0.00000000000000             8
    0.43478260869565    0.00000000000000    0.00000000000000             8
    0.47826086956522    0.00000000000000    0.00000000000000             8
    0.04347826086957    0.04347826086957    0.00000000000000             6
    0.08695652173913    0.04347826086957    0.00000000000000            24
    0.13043478260870    0.04347826086957    0.00000000000000            24
    0.17391304347826    0.04347826086957    0.00000000000000            24
    0.21739130434783    0.04347826086957    0.00000000000000            24
    0.26086956521739    0.04347826086957    0.00000000000000            24
    0.30434782608696    0.04347826086957    0.00000000000000            24
    0.34782608695652    0.04347826086957    0.00000000000000            24
    0.39130434782609    0.04347826086957    0.00000000000000            24
    0.43478260869565    0.04347826086957    0.00000000000000            24
    0.47826086956522    0.04347826086957    0.00000000000000            24
   -0.47826086956522    0.04347826086957    0.00000000000000            24
   -0.43478260869565    0.04347826086957    0.00000000000000            24
   -0.39130434782609    0.04347826086957    0.00000000000000            24
   -0.34782608695652    0.04347826086957    0.00000000000000            24
   -0.30434782608696    0.04347826086957    0.00000000000000            24
   -0.26086956521739    0.04347826086957    0.00000000000000            24
   -0.21739130434783    0.04347826086957    0.00000000000000            24
   -0.17391304347826    0.04347826086957    0.00000000000000            24
   -0.13043478260870    0.04347826086957    0.00000000000000            24
   -0.08695652173913    0.04347826086957    0.00000000000000            24
   -0.04347826086956    0.04347826086957    0.00000000000000            12
    0.08695652173913    0.08695652173913    0.00000000000000             6
    0.13043478260870    0.08695652173913    0.00000000000000            24
    0.17391304347826    0.08695652173913    0.00000000000000            24
    0.21739130434783    0.08695652173913    0.00000000000000            24
    0.26086956521739    0.08695652173913    0.00000000000000            24
    0.30434782608696    0.08695652173913    0.00000000000000            24
    0.34782608695652    0.08695652173913    0.00000000000000            24
    0.39130434782609    0.08695652173913    0.00000000000000            24
    0.43478260869565    0.08695652173913    0.00000000000000            24
    0.47826086956522    0.08695652173913    0.00000000000000            24
   -0.47826086956522    0.08695652173913    0.00000000000000            24
   -0.43478260869565    0.08695652173913    0.00000000000000            24
   -0.39130434782609    0.08695652173913    0.00000000000000            24
   -0.34782608695652    0.08695652173913    0.00000000000000            24
   -0.30434782608696    0.08695652173913    0.00000000000000            24
   -0.26086956521739    0.08695652173913    0.00000000000000            24
   -0.21739130434783    0.08695652173913    0.00000000000000            24
   -0.17391304347826    0.08695652173913    0.00000000000000            24
   -0.13043478260870    0.08695652173913    0.00000000000000            24
   -0.08695652173913    0.08695652173913    0.00000000000000            12
    0.13043478260870    0.13043478260870    0.00000000000000             6
    0.17391304347826    0.13043478260870    0.00000000000000            24
    0.21739130434783    0.13043478260870    0.00000000000000            24
    0.26086956521739    0.13043478260870    0.00000000000000            24
    0.30434782608696    0.13043478260870    0.00000000000000            24
    0.34782608695652    0.13043478260870    0.00000000000000            24
    0.39130434782609    0.13043478260870    0.00000000000000            24
    0.43478260869565    0.13043478260870    0.00000000000000            24
    0.47826086956522    0.13043478260870    0.00000000000000            24
   -0.47826086956522    0.13043478260870    0.00000000000000            24
   -0.43478260869565    0.13043478260870    0.00000000000000            24
   -0.39130434782609    0.13043478260870    0.00000000000000            24
   -0.34782608695652    0.13043478260870    0.00000000000000            24
   -0.30434782608696    0.13043478260870    0.00000000000000            24
   -0.26086956521739    0.13043478260870    0.00000000000000            24
   -0.21739130434783    0.13043478260870    0.00000000000000            24
   -0.17391304347826    0.13043478260870    0.00000000000000            24
   -0.13043478260870    0.13043478260870    0.00000000000000            12
    0.17391304347826    0.17391304347826    0.00000000000000             6
    0.21739130434783    0.17391304347826    0.00000000000000            24
    0.26086956521739    0.17391304347826    0.00000000000000            24
    0.30434782608696    0.17391304347826    0.00000000000000            24
    0.34782608695652    0.17391304347826    0.00000000000000            24
    0.39130434782609    0.17391304347826    0.00000000000000            24
    0.43478260869565    0.17391304347826    0.00000000000000            24
    0.47826086956522    0.17391304347826    0.00000000000000            24
   -0.47826086956522    0.17391304347826    0.00000000000000            24
   -0.43478260869565    0.17391304347826    0.00000000000000            24
   -0.39130434782609    0.17391304347826    0.00000000000000            24
   -0.34782608695652    0.17391304347826    0.00000000000000            24
   -0.30434782608696    0.17391304347826    0.00000000000000            24
   -0.26086956521739    0.17391304347826    0.00000000000000            24
   -0.21739130434783    0.17391304347826    0.00000000000000            24
   -0.17391304347826    0.17391304347826    0.00000000000000            12
    0.21739130434783    0.21739130434783    0.00000000000000             6
    0.26086956521739    0.21739130434783    0.00000000000000            24
    0.30434782608696    0.21739130434783    0.00000000000000            24
    0.34782608695652    0.21739130434783    0.00000000000000            24
    0.39130434782609    0.21739130434783    0.00000000000000            24
    0.43478260869565    0.21739130434783    0.00000000000000            24
    0.47826086956522    0.21739130434783    0.00000000000000            24
   -0.47826086956522    0.21739130434783    0.00000000000000            24
   -0.43478260869565    0.21739130434783    0.00000000000000            24
   -0.39130434782609    0.21739130434783    0.00000000000000            24
   -0.34782608695652    0.21739130434783    0.00000000000000            24
   -0.30434782608696    0.21739130434783    0.00000000000000            24
   -0.26086956521739    0.21739130434783    0.00000000000000            24
   -0.21739130434783    0.21739130434783    0.00000000000000            12
    0.26086956521739    0.26086956521739    0.00000000000000             6
    0.30434782608696    0.26086956521739    0.00000000000000            24
    0.34782608695652    0.26086956521739    0.00000000000000            24
    0.39130434782609    0.26086956521739    0.00000000000000            24
    0.43478260869565    0.26086956521739    0.00000000000000            24
    0.47826086956522    0.26086956521739    0.00000000000000            24
   -0.47826086956522    0.26086956521739    0.00000000000000            24
   -0.43478260869565    0.26086956521739    0.00000000000000            24
   -0.39130434782609    0.26086956521739    0.00000000000000            24
   -0.34782608695652    0.26086956521739    0.00000000000000            24
   -0.30434782608696    0.26086956521739    0.00000000000000            24
   -0.26086956521739    0.26086956521739    0.00000000000000            12
    0.30434782608696    0.30434782608696    0.00000000000000             6
    0.34782608695652    0.30434782608696    0.00000000000000            24
    0.39130434782609    0.30434782608696    0.00000000000000            24
    0.43478260869565    0.30434782608696    0.00000000000000            24
    0.47826086956522    0.30434782608696    0.00000000000000            24
   -0.47826086956522    0.30434782608696    0.00000000000000            24
   -0.43478260869565    0.30434782608696    0.00000000000000            24
   -0.39130434782609    0.30434782608696    0.00000000000000            24
   -0.34782608695652    0.30434782608696    0.00000000000000            24
   -0.30434782608696    0.30434782608696    0.00000000000000            12
    0.34782608695652    0.34782608695652    0.00000000000000             6
    0.39130434782609    0.34782608695652    0.00000000000000            24
    0.43478260869565    0.34782608695652    0.00000000000000            24
    0.47826086956522    0.34782608695652    0.00000000000000            24
   -0.47826086956522    0.34782608695652    0.00000000000000            24
   -0.43478260869565    0.34782608695652    0.00000000000000            24
   -0.39130434782609    0.34782608695652    0.00000000000000            24
   -0.34782608695652    0.34782608695652    0.00000000000000            12
    0.39130434782609    0.39130434782609    0.00000000000000             6
    0.43478260869565    0.39130434782609    0.00000000000000            24
    0.47826086956522    0.39130434782609    0.00000000000000            24
   -0.47826086956522    0.39130434782609    0.00000000000000            24
   -0.43478260869565    0.39130434782609    0.00000000000000            24
   -0.39130434782609    0.39130434782609    0.00000000000000            12
    0.43478260869565    0.43478260869565    0.00000000000000             6
    0.47826086956522    0.43478260869565    0.00000000000000            24
   -0.47826086956522    0.43478260869565    0.00000000000000            24
   -0.43478260869565    0.43478260869565    0.00000000000000            12
    0.47826086956522    0.47826086956522    0.00000000000000             6
   -0.47826086956522    0.47826086956522    0.00000000000000            12
    0.13043478260870    0.08695652173913    0.04347826086957            24
    0.17391304347826    0.08695652173913    0.04347826086957            48
    0.21739130434783    0.08695652173913    0.04347826086957            48
    0.26086956521739    0.08695652173913    0.04347826086957            48
    0.30434782608696    0.08695652173913    0.04347826086957            48
    0.34782608695652    0.08695652173913    0.04347826086957            48
    0.39130434782609    0.08695652173913    0.04347826086957            48
    0.43478260869565    0.08695652173913    0.04347826086957            48
    0.47826086956522    0.08695652173913    0.04347826086957            48
   -0.47826086956522    0.08695652173913    0.04347826086957            48
    0.17391304347826    0.13043478260870    0.04347826086957            24
    0.21739130434783    0.13043478260870    0.04347826086957            48
    0.26086956521739    0.13043478260870    0.04347826086957            48
    0.30434782608696    0.13043478260870    0.04347826086957            48
    0.34782608695652    0.13043478260870    0.04347826086957            48
    0.39130434782609    0.13043478260870    0.04347826086957            48
    0.43478260869565    0.13043478260870    0.04347826086957            48
    0.47826086956522    0.13043478260870    0.04347826086957            48
   -0.47826086956522    0.13043478260870    0.04347826086957            48
   -0.43478260869565    0.13043478260870    0.04347826086957            48
   -0.39130434782609    0.13043478260870    0.04347826086957            48
   -0.34782608695652    0.13043478260870    0.04347826086957            48
   -0.30434782608696    0.13043478260870    0.04347826086957            48
   -0.26086956521739    0.13043478260870    0.04347826086957            48
   -0.21739130434783    0.13043478260870    0.04347826086957            48
   -0.17391304347826    0.13043478260870    0.04347826086957            48
   -0.13043478260870    0.13043478260870    0.04347826086957            48
   -0.08695652173913    0.13043478260870    0.04347826086957            24
    0.21739130434783    0.17391304347826    0.04347826086957            24
    0.26086956521739    0.17391304347826    0.04347826086957            48
    0.30434782608696    0.17391304347826    0.04347826086957            48
    0.34782608695652    0.17391304347826    0.04347826086957            48
    0.39130434782609    0.17391304347826    0.04347826086957            48
    0.43478260869565    0.17391304347826    0.04347826086957            48
    0.47826086956522    0.17391304347826    0.04347826086957            48
   -0.47826086956522    0.17391304347826    0.04347826086957            48
   -0.43478260869565    0.17391304347826    0.04347826086957            48
   -0.39130434782609    0.17391304347826    0.04347826086957            48
   -0.34782608695652    0.17391304347826    0.04347826086957            48
   -0.30434782608696    0.17391304347826    0.04347826086957            48
   -0.26086956521739    0.17391304347826    0.04347826086957            48
   -0.21739130434783    0.17391304347826    0.04347826086957            48
   -0.17391304347826    0.17391304347826    0.04347826086957            48
   -0.13043478260870    0.17391304347826    0.04347826086957            24
    0.26086956521739    0.21739130434783    0.04347826086957            24
    0.30434782608696    0.21739130434783    0.04347826086957            48
    0.34782608695652    0.21739130434783    0.04347826086957            48
    0.39130434782609    0.21739130434783    0.04347826086957            48
    0.43478260869565    0.21739130434783    0.04347826086957            48
    0.47826086956522    0.21739130434783    0.04347826086957            48
   -0.47826086956522    0.21739130434783    0.04347826086957            48
   -0.43478260869565    0.21739130434783    0.04347826086957            48
   -0.39130434782609    0.21739130434783    0.04347826086957            48
   -0.34782608695652    0.21739130434783    0.04347826086957            48
   -0.30434782608696    0.21739130434783    0.04347826086957            48
   -0.26086956521739    0.21739130434783    0.04347826086957            48
   -0.21739130434783    0.21739130434783    0.04347826086957            48
   -0.17391304347826    0.21739130434783    0.04347826086957            24
    0.30434782608696    0.26086956521739    0.04347826086957            24
    0.34782608695652    0.26086956521739    0.04347826086957            48
    0.39130434782609    0.26086956521739    0.04347826086957            48
    0.43478260869565    0.26086956521739    0.04347826086957            48
    0.47826086956522    0.26086956521739    0.04347826086957            48
   -0.47826086956522    0.26086956521739    0.04347826086957            48
   -0.43478260869565    0.26086956521739    0.04347826086957            48
   -0.39130434782609    0.26086956521739    0.04347826086957            48
   -0.34782608695652    0.26086956521739    0.04347826086957            48
   -0.30434782608696    0.26086956521739    0.04347826086957            48
   -0.26086956521739    0.26086956521739    0.04347826086957            48
   -0.21739130434783    0.26086956521739    0.04347826086957            24
    0.34782608695652    0.30434782608696    0.04347826086957            24
    0.39130434782609    0.30434782608696    0.04347826086957            48
    0.43478260869565    0.30434782608696    0.04347826086957            48
    0.47826086956522    0.30434782608696    0.04347826086957            48
   -0.47826086956522    0.30434782608696    0.04347826086957            48
   -0.43478260869565    0.30434782608696    0.04347826086957            48
   -0.39130434782609    0.30434782608696    0.04347826086957            48
   -0.34782608695652    0.30434782608696    0.04347826086957            48
   -0.30434782608696    0.30434782608696    0.04347826086957            48
   -0.26086956521739    0.30434782608696    0.04347826086957            24
    0.39130434782609    0.34782608695652    0.04347826086957            24
    0.43478260869565    0.34782608695652    0.04347826086957            48
    0.47826086956522    0.34782608695652    0.04347826086957            48
   -0.47826086956522    0.34782608695652    0.04347826086957            48
   -0.43478260869565    0.34782608695652    0.04347826086957            48
   -0.39130434782609    0.34782608695652    0.04347826086957            48
   -0.34782608695652    0.34782608695652    0.04347826086957            48
   -0.30434782608696    0.34782608695652    0.04347826086957            24
    0.43478260869565    0.39130434782609    0.04347826086957            24
    0.47826086956522    0.39130434782609    0.04347826086957            48
   -0.47826086956522    0.39130434782609    0.04347826086957            48
   -0.43478260869565    0.39130434782609    0.04347826086957            48
   -0.39130434782609    0.39130434782609    0.04347826086957            48
   -0.34782608695652    0.39130434782609    0.04347826086957            24
    0.47826086956522    0.43478260869565    0.04347826086957            24
   -0.47826086956522    0.43478260869565    0.04347826086957            48
   -0.43478260869565    0.43478260869565    0.04347826086957            48
   -0.39130434782609    0.43478260869565    0.04347826086957            24
   -0.47826086956522    0.47826086956522    0.04347826086957            24
   -0.43478260869565    0.47826086956522    0.04347826086957            24
    0.26086956521739    0.17391304347826    0.08695652173913            24
    0.30434782608696    0.17391304347826    0.08695652173913            48
    0.34782608695652    0.17391304347826    0.08695652173913            48
    0.39130434782609    0.17391304347826    0.08695652173913            48
    0.43478260869565    0.17391304347826    0.08695652173913            48
    0.47826086956522    0.17391304347826    0.08695652173913            48
   -0.47826086956522    0.17391304347826    0.08695652173913            48
   -0.43478260869565    0.17391304347826    0.08695652173913            48
    0.30434782608696    0.21739130434783    0.08695652173913            24
    0.34782608695652    0.21739130434783    0.08695652173913            48
    0.39130434782609    0.21739130434783    0.08695652173913            48
    0.43478260869565    0.21739130434783    0.08695652173913            48
    0.47826086956522    0.21739130434783    0.08695652173913            48
   -0.47826086956522    0.21739130434783    0.08695652173913            48
   -0.43478260869565    0.21739130434783    0.08695652173913            48
   -0.39130434782609    0.21739130434783    0.08695652173913            48
   -0.34782608695652    0.21739130434783    0.08695652173913            48
   -0.30434782608696    0.21739130434783    0.08695652173913            48
   -0.26086956521739    0.21739130434783    0.08695652173913            48
   -0.21739130434783    0.21739130434783    0.08695652173913            48
   -0.17391304347826    0.21739130434783    0.08695652173913            48
   -0.13043478260870    0.21739130434783    0.08695652173913            24
    0.34782608695652    0.26086956521739    0.08695652173913            24
    0.39130434782609    0.26086956521739    0.08695652173913            48
    0.43478260869565    0.26086956521739    0.08695652173913            48
    0.47826086956522    0.26086956521739    0.08695652173913            48
   -0.47826086956522    0.26086956521739    0.08695652173913            48
   -0.43478260869565    0.26086956521739    0.08695652173913            48
   -0.39130434782609    0.26086956521739    0.08695652173913            48
   -0.34782608695652    0.26086956521739    0.08695652173913            48
   -0.30434782608696    0.26086956521739    0.08695652173913            48
   -0.26086956521739    0.26086956521739    0.08695652173913            48
   -0.21739130434783    0.26086956521739    0.08695652173913            48
   -0.17391304347826    0.26086956521739    0.08695652173913            24
    0.39130434782609    0.30434782608696    0.08695652173913            24
    0.43478260869565    0.30434782608696    0.08695652173913            48
    0.47826086956522    0.30434782608696    0.08695652173913            48
   -0.47826086956522    0.30434782608696    0.08695652173913            48
   -0.43478260869565    0.30434782608696    0.08695652173913            48
   -0.39130434782609    0.30434782608696    0.08695652173913            48
   -0.34782608695652    0.30434782608696    0.08695652173913            48
   -0.30434782608696    0.30434782608696    0.08695652173913            48
   -0.26086956521739    0.30434782608696    0.08695652173913            48
   -0.21739130434783    0.30434782608696    0.08695652173913            24
    0.43478260869565    0.34782608695652    0.08695652173913            24
    0.47826086956522    0.34782608695652    0.08695652173913            48
   -0.47826086956522    0.34782608695652    0.08695652173913            48
   -0.43478260869565    0.34782608695652    0.08695652173913            48
   -0.39130434782609    0.34782608695652    0.08695652173913            48
   -0.34782608695652    0.34782608695652    0.08695652173913            48
   -0.30434782608696    0.34782608695652    0.08695652173913            48
   -0.26086956521739    0.34782608695652    0.08695652173913            24
    0.47826086956522    0.39130434782609    0.08695652173913            24
   -0.47826086956522    0.39130434782609    0.08695652173913            48
   -0.43478260869565    0.39130434782609    0.08695652173913            48
   -0.39130434782609    0.39130434782609    0.08695652173913            48
   -0.34782608695652    0.39130434782609    0.08695652173913            48
   -0.30434782608696    0.39130434782609    0.08695652173913            24
   -0.47826086956522    0.43478260869565    0.08695652173913            24
   -0.43478260869565    0.43478260869565    0.08695652173913            48
   -0.39130434782609    0.43478260869565    0.08695652173913            48
   -0.34782608695652    0.43478260869565    0.08695652173913            24
   -0.43478260869565    0.47826086956522    0.08695652173913            24
   -0.39130434782609    0.47826086956522    0.08695652173913            24
    0.39130434782609    0.26086956521739    0.13043478260870            24
    0.43478260869565    0.26086956521739    0.13043478260870            48
    0.47826086956522    0.26086956521739    0.13043478260870            48
   -0.47826086956522    0.26086956521739    0.13043478260870            48
   -0.43478260869565    0.26086956521739    0.13043478260870            48
   -0.39130434782609    0.26086956521739    0.13043478260870            48
    0.43478260869565    0.30434782608696    0.13043478260870            24
    0.47826086956522    0.30434782608696    0.13043478260870            48
   -0.47826086956522    0.30434782608696    0.13043478260870            48
   -0.43478260869565    0.30434782608696    0.13043478260870            48
   -0.39130434782609    0.30434782608696    0.13043478260870            48
   -0.34782608695652    0.30434782608696    0.13043478260870            48
   -0.30434782608696    0.30434782608696    0.13043478260870            48
   -0.26086956521739    0.30434782608696    0.13043478260870            48
   -0.21739130434783    0.30434782608696    0.13043478260870            48
   -0.17391304347826    0.30434782608696    0.13043478260870            24
    0.47826086956522    0.34782608695652    0.13043478260870            24
   -0.47826086956522    0.34782608695652    0.13043478260870            48
   -0.43478260869565    0.34782608695652    0.13043478260870            48
   -0.39130434782609    0.34782608695652    0.13043478260870            48
   -0.34782608695652    0.34782608695652    0.13043478260870            48
   -0.30434782608696    0.34782608695652    0.13043478260870            48
   -0.26086956521739    0.34782608695652    0.13043478260870            48
   -0.21739130434783    0.34782608695652    0.13043478260870            24
   -0.47826086956522    0.39130434782609    0.13043478260870            24
   -0.43478260869565    0.39130434782609    0.13043478260870            48
   -0.39130434782609    0.39130434782609    0.13043478260870            48
   -0.34782608695652    0.39130434782609    0.13043478260870            48
   -0.30434782608696    0.39130434782609    0.13043478260870            48
   -0.26086956521739    0.39130434782609    0.13043478260870            24
   -0.43478260869565    0.43478260869565    0.13043478260870            24
   -0.39130434782609    0.43478260869565    0.13043478260870            48
   -0.34782608695652    0.43478260869565    0.13043478260870            48
   -0.30434782608696    0.43478260869565    0.13043478260870            24
   -0.39130434782609    0.47826086956522    0.13043478260870            24
   -0.34782608695652    0.47826086956522    0.13043478260870            24
   -0.47826086956522    0.34782608695652    0.17391304347826            24
   -0.43478260869565    0.34782608695652    0.17391304347826            48
   -0.39130434782609    0.34782608695652    0.17391304347826            48
   -0.34782608695652    0.34782608695652    0.17391304347826            48
   -0.43478260869565    0.39130434782609    0.17391304347826            24
   -0.39130434782609    0.39130434782609    0.17391304347826            48
   -0.34782608695652    0.39130434782609    0.17391304347826            48
   -0.30434782608696    0.39130434782609    0.17391304347826            48
   -0.26086956521739    0.39130434782609    0.17391304347826            48
   -0.21739130434783    0.39130434782609    0.17391304347826            24
   -0.39130434782609    0.43478260869565    0.17391304347826            24
   -0.34782608695652    0.43478260869565    0.17391304347826            48
   -0.30434782608696    0.43478260869565    0.17391304347826            48
   -0.26086956521739    0.43478260869565    0.17391304347826            24
   -0.34782608695652    0.47826086956522    0.17391304347826            24
   -0.30434782608696    0.47826086956522    0.17391304347826            24
   -0.34782608695652    0.43478260869565    0.21739130434783            24
   -0.30434782608696    0.43478260869565    0.21739130434783            48
   -0.30434782608696    0.47826086956522    0.21739130434783            24
   -0.26086956521739    0.47826086956522    0.21739130434783            24
Tetrahedra
      1662    0.00001369825484
        24         1         2         2        13
        48         2        13        14        34
        48         2         3        14        34
        24         2         2        13        34
        48         3        14        15        33
        48         3         4        15        33
        48         3        14        33        34
        48         4        15        16        32
        48         4         5        16        32
        48         4        15        32        33
        48         5        16        17        31
        48         5         6        17        31
        48         5        16        31        32
        48         6        17        18        30
        48         6         7        18        30
        48         6        17        30        31
        48         7        18        19        29
        48         7         8        19        29
        48         7        18        29        30
        48         8        19        20        28
        48         8         9        20        28
        48         8        19        28        29
        48         9        20        21        27
        48         9        10        21        27
        48         9        20        27        28
        48        10        21        22        26
        48        10        11        22        26
        48        10        21        26        27
        48        11        22        23        25
        48        11        12        23        25
        48        11        22        25        26
        48        12        23        24        24
        24        12        12        24        24
        48        12        23        24        25
        24        13        14        14        35
        24        13        14        14        34
        48        14        35        36       145
        48        14        15        36       145
        48        14        15        33       145
        24        14        14        35       145
        24        14        14        34       145
        48        14        33        34       145
        48        15        36        37       146
        48        15        16        37       146
        48        15        16        32       146
        48        15        36       145       146
        48        15        33       145       146
        48        15        32        33       146
        48        16        37        38       147
        48        16        17        38       147
        48        16        17        31       147