 running  128 mpi-ranks, with    1 threads/rank, on    1 nodes
 distrk:  each k-point on   32 cores,    4 groups
 distr:  one band on   16 cores,    2 groups
 vasp.6.4.3 19Mar24 (build Jun  3 2025 16:21:13) complex                         
 POSCAR found type information on POSCAR NaCl
 POSCAR found :  2 types and       2 ions
 Reading from existing POTCAR
 scaLAPACK will be used
 Reading from existing POTCAR
 LDA part: xc-table for (Slater+PW92), standard interpolation
 -----------------------------------------------------------------------------
|                                                                             |
|           W    W    AA    RRRRR   N    N  II  N    N   GGGG   !!!           |
|           W    W   A  A   R    R  NN   N  II  NN   N  G    G  !!!           |
|           W    W  A    A  R    R  N N  N  II  N N  N  G       !!!           |
|           W WW W  AAAAAA  RRRRR   N  N N  II  N  N N  G  GGG   !            |
|           WW  WW  A    A  R   R   N   NN  II  N   NN  G    G                |
|           W    W  A    A  R    R  N    N  II  N    N   GGGG   !!!           |
|                                                                             |
|     The requested file  could not be found or opened for reading            |
|     k-point information. Automatic k-point generation is used as a          |
|     fallback, which may lead to unwanted results.                           |
|                                                                             |
 -----------------------------------------------------------------------------

 INCAR ok, starting setup
 POSCAR ok, starting setup
 FFT: planning ... GRIDC
 FFT: planning ... GRID_SOFT
 FFT: planning ... GRID
 WAVECAR not read
 entering main loop
       N       E                     dE             d eps       ncg     rms          rms(c)
DAV:   1     0.122018068652E+03    0.12202E+03   -0.52170E+03  6944   0.444E+02
DAV:   2     0.210151285879E+01   -0.11992E+03   -0.10703E+03  7056   0.185E+02
DAV:   3    -0.683829593204E+01   -0.89398E+01   -0.88237E+01  8384   0.397E+01
DAV:   4    -0.694482911711E+01   -0.10653E+00   -0.10649E+00  7888   0.429E+00
DAV:   5    -0.694552640606E+01   -0.69729E-03   -0.69728E-03  8328   0.363E-01    0.217E+00
DAV:   6    -0.676104977877E+01    0.18448E+00   -0.12406E-01  8680   0.144E+00    0.156E+00
DAV:   7    -0.675030991546E+01    0.10740E-01   -0.47789E-02  9712   0.776E-01    0.118E+00
DAV:   8    -0.675567288437E+01   -0.53630E-02   -0.10318E-02  7864   0.413E-01    0.557E-01
DAV:   9    -0.675530502760E+01    0.36786E-03   -0.52231E-04  7992   0.856E-02    0.196E-01
DAV:  10    -0.675535814893E+01   -0.53121E-04   -0.73316E-05  8048   0.341E-02    0.171E-02
DAV:  11    -0.675536370570E+01   -0.55568E-05   -0.45829E-06  8320   0.729E-03    0.108E-02
DAV:  12    -0.675536380347E+01   -0.97774E-07   -0.27006E-07  8072   0.310E-03
   1 F= -.67553638E+01 E0= -.67553638E+01  d E =0.000000E+00
 PROFILE, used timers:     404
