unknown system                          
            1
    -1.642136    1.642136    1.642136
     1.642136   -1.642136    1.642136
     1.642136    1.642136   -1.642136
   Ti
     1
Direct configuration=     1
   0.00000000  0.00000000  0.00000000
