   2   2   0   0
  0.3027847E+02  0.4407845E-09  0.4407845E-09  0.4407845E-09  0.0000000E+00
  1.000000000000000E-004
  CAR 
 unknown system                          
     13.79775169     -7.02130229  301      4.43351470      1.00000000
     -7.021  0.0000E+00  0.0000E+00
     -6.952  0.0000E+00  0.0000E+00
     -6.883  0.0000E+00  0.0000E+00
     -6.813  0.0000E+00  0.0000E+00
     -6.744  0.0000E+00  0.0000E+00
     -6.674  0.0000E+00  0.0000E+00
     -6.605  0.0000E+00  0.0000E+00
     -6.536  0.0000E+00  0.0000E+00
     -6.466  0.0000E+00  0.0000E+00
     -6.397  0.0000E+00  0.0000E+00
     -6.327  0.0000E+00  0.0000E+00
     -6.258  0.0000E+00  0.0000E+00
     -6.189  0.0000E+00  0.0000E+00
     -6.119  0.0000E+00  0.0000E+00
     -6.050  0.9794E-01  0.8239E-03
     -5.980  0.1886E+00  0.1061E-01
     -5.911  0.2590E+00  0.2588E-01
     -5.842  0.3084E+00  0.4556E-01
     -5.772  0.3656E+00  0.6903E-01
     -5.703  0.4101E+00  0.9587E-01
     -5.633  0.4621E+00  0.1261E+00
     -5.564  0.5056E+00  0.1596E+00
     -5.495  0.5546E+00  0.1964E+00
     -5.425  0.6051E+00  0.2367E+00
     -5.356  0.6570E+00  0.2805E+00
     -5.286  0.7136E+00  0.3280E+00
     -5.217  0.7757E+00  0.3796E+00
     -5.148  0.8452E+00  0.4358E+00
     -5.078  0.9231E+00  0.4971E+00
     -5.009  0.1019E+01  0.5643E+00
     -4.939  0.1139E+01  0.6391E+00
     -4.870  0.1296E+01  0.7233E+00
     -4.801  0.1573E+01  0.8215E+00
     -4.731  0.1885E+01  0.9480E+00
     -4.662  0.1860E+01  0.1077E+01
     -4.592  0.1863E+01  0.1206E+01
     -4.523  0.1843E+01  0.1334E+01
     -4.454  0.1882E+01  0.1463E+01
     -4.384  0.1918E+01  0.1595E+01
     -4.315  0.2037E+01  0.1733E+01
     -4.245  0.2437E+01  0.1886E+01
     -4.176  0.0000E+00  0.2000E+01
     -4.107  0.0000E+00  0.2000E+01
     -4.037  0.0000E+00  0.2000E+01
     -3.968  0.0000E+00  0.2000E+01
     -3.898  0.0000E+00  0.2000E+01
     -3.829  0.0000E+00  0.2000E+01
     -3.760  0.0000E+00  0.2000E+01
     -3.690  0.0000E+00  0.2000E+01
     -3.621  0.0000E+00  0.2000E+01
     -3.551  0.0000E+00  0.2000E+01
     -3.482  0.0000E+00  0.2000E+01
     -3.413  0.0000E+00  0.2000E+01
     -3.343  0.0000E+00  0.2000E+01
     -3.274  0.0000E+00  0.2000E+01
     -3.204  0.0000E+00  0.2000E+01
     -3.135  0.0000E+00  0.2000E+01
     -3.066  0.0000E+00  0.2000E+01
     -2.996  0.0000E+00  0.2000E+01
     -2.927  0.0000E+00  0.2000E+01
     -2.857  0.0000E+00  0.2000E+01
     -2.788  0.0000E+00  0.2000E+01
     -2.719  0.0000E+00  0.2000E+01
     -2.649  0.0000E+00  0.2000E+01
     -2.580  0.0000E+00  0.2000E+01
     -2.511  0.0000E+00  0.2000E+01
     -2.441  0.0000E+00  0.2000E+01
     -2.372  0.0000E+00  0.2000E+01
     -2.302  0.0000E+00  0.2000E+01
     -2.233  0.0000E+00  0.2000E+01
     -2.164  0.0000E+00  0.2000E+01
     -2.094  0.0000E+00  0.2000E+01
     -2.025  0.0000E+00  0.2000E+01
     -1.955  0.0000E+00  0.2000E+01
     -1.886  0.0000E+00  0.2000E+01
     -1.817  0.0000E+00  0.2000E+01
     -1.747  0.0000E+00  0.2000E+01
     -1.678  0.0000E+00  0.2000E+01
     -1.608  0.0000E+00  0.2000E+01
     -1.539  0.0000E+00  0.2000E+01
     -1.470  0.0000E+00  0.2000E+01
     -1.400  0.0000E+00  0.2000E+01
     -1.331  0.0000E+00  0.2000E+01
     -1.261  0.0000E+00  0.2000E+01
     -1.192  0.0000E+00  0.2000E+01
     -1.123  0.0000E+00  0.2000E+01
     -1.053  0.0000E+00  0.2000E+01
     -0.984  0.1629E-02  0.2000E+01
     -0.914  0.4143E+00  0.2015E+01
     -0.845  0.9407E+00  0.2060E+01
     -0.776  0.2601E+01  0.2175E+01
     -0.706  0.4202E+01  0.2397E+01
     -0.637  0.2592E+01  0.2671E+01
     -0.567  0.1811E+01  0.2821E+01
     -0.498  0.1422E+01  0.2931E+01
     -0.429  0.1195E+01  0.3022E+01
     -0.359  0.1021E+01  0.3098E+01
     -0.290  0.8941E+00  0.3164E+01
     -0.220  0.8089E+00  0.3223E+01
     -0.151  0.7296E+00  0.3276E+01
     -0.082  0.6508E+00  0.3324E+01
     -0.012  0.6018E+00  0.3367E+01
      0.057  0.5612E+00  0.3408E+01
      0.127  0.5203E+00  0.3445E+01
      0.196  0.4804E+00  0.3480E+01
      0.265  0.4390E+00  0.3512E+01
      0.335  0.4153E+00  0.3542E+01
      0.404  0.3926E+00  0.3570E+01
      0.474  0.3701E+00  0.3596E+01
      0.543  0.3478E+00  0.3621E+01
      0.612  0.3223E+00  0.3644E+01
      0.682  0.2989E+00  0.3666E+01
      0.751  0.2857E+00  0.3686E+01
      0.821  0.2726E+00  0.3705E+01
      0.890  0.2592E+00  0.3724E+01
      0.959  0.2443E+00  0.3741E+01
      1.029  0.2296E+00  0.3758E+01
      1.098  0.2125E+00  0.3773E+01
      1.168  0.2004E+00  0.3787E+01
      1.237  0.4551E+00  0.3805E+01
      1.306  0.9288E+00  0.3857E+01
      1.376  0.1552E+01  0.3940E+01
      1.445  0.1726E+01  0.4060E+01
      1.515  0.1448E+01  0.4173E+01
      1.584  0.1405E+01  0.4272E+01
      1.653  0.1352E+01  0.4368E+01
      1.723  0.1269E+01  0.4459E+01
      1.792  0.1233E+01  0.4546E+01
      1.861  0.1269E+01  0.4633E+01
      1.931  0.1363E+01  0.4723E+01
      2.000  0.1417E+01  0.4820E+01
      2.070  0.1435E+01  0.4918E+01
      2.139  0.1521E+01  0.5023E+01
      2.208  0.1663E+01  0.5134E+01
      2.278  0.1945E+01  0.5259E+01
      2.347  0.2004E+01  0.5400E+01
      2.417  0.2003E+01  0.5540E+01
      2.486  0.1952E+01  0.5676E+01
      2.555  0.1936E+01  0.5812E+01
      2.625  0.1905E+01  0.5945E+01
      2.694  0.1857E+01  0.6075E+01
      2.764  0.1843E+01  0.6204E+01
      2.833  0.1827E+01  0.6331E+01
      2.902  0.1789E+01  0.6457E+01
      2.972  0.1763E+01  0.6580E+01
      3.041  0.1742E+01  0.6702E+01
      3.111  0.1702E+01  0.6821E+01
      3.180  0.1697E+01  0.6939E+01
      3.249  0.1683E+01  0.7056E+01
      3.319  0.1675E+01  0.7173E+01
      3.388  0.1652E+01  0.7288E+01
      3.458  0.1636E+01  0.7402E+01
      3.527  0.1318E+01  0.7508E+01
      3.596  0.1099E+01  0.7591E+01
      3.666  0.9381E+00  0.7662E+01
      3.735  0.8188E+00  0.7723E+01
      3.805  0.7194E+00  0.7776E+01
      3.874  0.6338E+00  0.7823E+01
      3.943  0.5600E+00  0.7864E+01
      4.013  0.4788E+00  0.7900E+01
      4.082  0.4060E+00  0.7931E+01
      4.152  0.3508E+00  0.7957E+01
      4.221  0.2634E+00  0.7979E+01
      4.290  0.1488E+00  0.7993E+01
      4.360  0.9318E-02  0.8000E+01
      4.429  0.0000E+00  0.8000E+01
      4.499  0.0000E+00  0.8000E+01
      4.568  0.0000E+00  0.8000E+01
      4.637  0.0000E+00  0.8000E+01
      4.707  0.0000E+00  0.8000E+01
      4.776  0.0000E+00  0.8000E+01
      4.846  0.0000E+00  0.8000E+01
      4.915  0.0000E+00  0.8000E+01
      4.984  0.0000E+00  0.8000E+01
      5.054  0.0000E+00  0.8000E+01
      5.123  0.0000E+00  0.8000E+01
      5.193  0.0000E+00  0.8000E+01
      5.262  0.0000E+00  0.8000E+01
      5.331  0.0000E+00  0.8000E+01
      5.401  0.0000E+00  0.8000E+01
      5.470  0.0000E+00  0.8000E+01
      5.540  0.0000E+00  0.8000E+01
      5.609  0.3590E-03  0.8000E+01
      5.678  0.9053E-01  0.8002E+01
      5.748  0.2728E+00  0.8015E+01
      5.817  0.4215E+00  0.8039E+01
      5.887  0.5385E+00  0.8072E+01
      5.956  0.6789E+00  0.8114E+01
      6.025  0.8070E+00  0.8166E+01
      6.095  0.9146E+00  0.8226E+01
      6.164  0.1032E+01  0.8294E+01
      6.233  0.1165E+01  0.8370E+01
      6.303  0.1348E+01  0.8457E+01
      6.372  0.1545E+01  0.8557E+01
      6.442  0.1766E+01  0.8672E+01
      6.511  0.2045E+01  0.8803E+01
      6.580  0.2375E+01  0.8957E+01
      6.650  0.2434E+01  0.9127E+01
      6.719  0.2317E+01  0.9289E+01
      6.789  0.1829E+01  0.9437E+01
      6.858  0.1679E+01  0.9558E+01
      6.927  0.1614E+01  0.9671E+01
      6.997  0.1382E+01  0.9777E+01
      7.066  0.1232E+01  0.9869E+01
      7.136  0.9818E+00  0.9944E+01
      7.205  0.9003E+00  0.1001E+02
      7.274  0.9504E+00  0.1007E+02
      7.344  0.1109E+01  0.1014E+02
      7.413  0.1116E+01  0.1022E+02
      7.483  0.1222E+01  0.1030E+02
      7.552  0.1632E+01  0.1039E+02
      7.621  0.1163E+01  0.1049E+02
      7.691  0.1177E+01  0.1057E+02
      7.760  0.1235E+01  0.1065E+02
      7.830  0.1328E+01  0.1074E+02
      7.899  0.2324E+01  0.1086E+02
      7.968  0.2639E+01  0.1107E+02
      8.038  0.2595E+01  0.1125E+02
      8.107  0.2200E+01  0.1142E+02
      8.177  0.1904E+01  0.1156E+02
      8.246  0.1689E+01  0.1168E+02
      8.315  0.1570E+01  0.1179E+02
      8.385  0.1514E+01  0.1190E+02
      8.454  0.1421E+01  0.1200E+02
      8.524  0.1359E+01  0.1210E+02
      8.593  0.1305E+01  0.1219E+02
      8.662  0.1380E+01  0.1228E+02
      8.732  0.1574E+01  0.1238E+02
      8.801  0.1836E+01  0.1250E+02
      8.871  0.1969E+01  0.1264E+02
      8.940  0.2124E+01  0.1278E+02
      9.009  0.1735E+01  0.1291E+02
      9.079  0.1721E+01  0.1303E+02
      9.148  0.1860E+01  0.1316E+02
      9.218  0.1642E+01  0.1328E+02
      9.287  0.1686E+01  0.1339E+02
      9.356  0.1574E+01  0.1351E+02
      9.426  0.1452E+01  0.1361E+02
      9.495  0.1379E+01  0.1371E+02
      9.565  0.1342E+01  0.1380E+02
      9.634  0.1325E+01  0.1390E+02
      9.703  0.1357E+01  0.1399E+02
      9.773  0.1308E+01  0.1408E+02
      9.842  0.1394E+01  0.1418E+02
      9.912  0.1072E+01  0.1427E+02
      9.981  0.9662E+00  0.1434E+02
     10.050  0.1008E+01  0.1441E+02
     10.120  0.1109E+01  0.1448E+02
     10.189  0.1178E+01  0.1456E+02
     10.259  0.1208E+01  0.1464E+02
     10.328  0.1325E+01  0.1473E+02
     10.397  0.1390E+01  0.1482E+02
     10.467  0.1387E+01  0.1492E+02
     10.536  0.1266E+01  0.1501E+02
     10.605  0.1160E+01  0.1510E+02
     10.675  0.1052E+01  0.1517E+02
     10.744  0.9727E+00  0.1524E+02
     10.814  0.9254E+00  0.1531E+02
     10.883  0.8743E+00  0.1537E+02
     10.952  0.8625E+00  0.1543E+02
     11.022  0.1027E+01  0.1550E+02
     11.091  0.9527E+00  0.1557E+02
     11.161  0.7820E+00  0.1563E+02
     11.230  0.6422E+00  0.1568E+02
     11.299  0.4045E+00  0.1571E+02
     11.369  0.3792E+00  0.1574E+02
     11.438  0.3596E+00  0.1577E+02
     11.508  0.3381E+00  0.1579E+02
     11.577  0.3141E+00  0.1581E+02
     11.646  0.2918E+00  0.1583E+02
     11.716  0.2681E+00  0.1585E+02
     11.785  0.2513E+00  0.1587E+02
     11.855  0.2468E+00  0.1589E+02
     11.924  0.2263E+00  0.1591E+02
     11.993  0.1972E+00  0.1592E+02
     12.063  0.1708E+00  0.1593E+02
     12.132  0.1505E+00  0.1594E+02
     12.202  0.1339E+00  0.1595E+02
     12.271  0.1197E+00  0.1596E+02
     12.340  0.1100E+00  0.1597E+02
     12.410  0.9954E-01  0.1598E+02
     12.479  0.9653E-01  0.1598E+02
     12.549  0.9186E-01  0.1599E+02
     12.618  0.4905E-01  0.1600E+02
     12.687  0.2422E-01  0.1600E+02
     12.757  0.8062E-02  0.1600E+02
     12.826  0.5733E-03  0.1600E+02
     12.896  0.0000E+00  0.1600E+02
     12.965  0.0000E+00  0.1600E+02
     13.034  0.0000E+00  0.1600E+02
     13.104  0.0000E+00  0.1600E+02
     13.173  0.0000E+00  0.1600E+02
     13.243  0.0000E+00  0.1600E+02
     13.312  0.0000E+00  0.1600E+02
     13.381  0.0000E+00  0.1600E+02
     13.451  0.0000E+00  0.1600E+02
     13.520  0.0000E+00  0.1600E+02
     13.590  0.0000E+00  0.1600E+02
     13.659  0.0000E+00  0.1600E+02
     13.728  0.0000E+00  0.1600E+02
     13.798  0.0000E+00  0.1600E+02
