   3   3   0   0
  0.2337051E+02  0.4628442E-09  0.4628442E-09  0.4628442E-09  0.5000000E-15
  1.000000000000000E-004
  CAR
 unknown system
     13.62936627    -35.66178824  301     10.66407630      1.00000000
    -35.662  0.0000E+00  0.0000E+00
    -35.497  0.0000E+00  0.0000E+00
    -35.333  0.0000E+00  0.0000E+00
    -35.169  0.0000E+00  0.0000E+00
    -35.005  0.0000E+00  0.0000E+00
    -34.840  0.0000E+00  0.0000E+00
    -34.676  0.0000E+00  0.0000E+00
    -34.512  0.0000E+00  0.0000E+00
    -34.347  0.0000E+00  0.0000E+00
    -34.183  0.0000E+00  0.0000E+00
    -34.019  0.0000E+00  0.0000E+00
    -33.854  0.0000E+00  0.0000E+00
    -33.690  0.0000E+00  0.0000E+00
    -33.526  0.0000E+00  0.0000E+00
    -33.362  0.1217E+02  0.2000E+01
    -33.197  0.0000E+00  0.2000E+01
    -33.033  0.0000E+00  0.2000E+01
    -32.869  0.0000E+00  0.2000E+01
    -32.704  0.0000E+00  0.2000E+01
    -32.540  0.0000E+00  0.2000E+01
    -32.376  0.0000E+00  0.2000E+01
    -32.211  0.0000E+00  0.2000E+01
    -32.047  0.0000E+00  0.2000E+01
    -31.883  0.0000E+00  0.2000E+01
    -31.718  0.0000E+00  0.2000E+01
    -31.554  0.0000E+00  0.2000E+01
    -31.390  0.0000E+00  0.2000E+01
    -31.226  0.0000E+00  0.2000E+01
    -31.061  0.0000E+00  0.2000E+01
    -30.897  0.0000E+00  0.2000E+01
    -30.733  0.0000E+00  0.2000E+01
    -30.568  0.0000E+00  0.2000E+01
    -30.404  0.0000E+00  0.2000E+01
    -30.240  0.0000E+00  0.2000E+01
    -30.075  0.0000E+00  0.2000E+01
    -29.911  0.0000E+00  0.2000E+01
    -29.747  0.0000E+00  0.2000E+01
    -29.583  0.0000E+00  0.2000E+01
    -29.418  0.0000E+00  0.2000E+01
    -29.254  0.0000E+00  0.2000E+01
    -29.090  0.0000E+00  0.2000E+01
    -28.925  0.0000E+00  0.2000E+01
    -28.761  0.0000E+00  0.2000E+01
    -28.597  0.0000E+00  0.2000E+01
    -28.432  0.0000E+00  0.2000E+01
    -28.268  0.0000E+00  0.2000E+01
    -28.104  0.0000E+00  0.2000E+01
    -27.940  0.0000E+00  0.2000E+01
    -27.775  0.0000E+00  0.2000E+01
    -27.611  0.0000E+00  0.2000E+01
    -27.447  0.0000E+00  0.2000E+01
    -27.282  0.0000E+00  0.2000E+01
    -27.118  0.0000E+00  0.2000E+01
    -26.954  0.0000E+00  0.2000E+01
    -26.789  0.0000E+00  0.2000E+01
    -26.625  0.0000E+00  0.2000E+01
    -26.461  0.0000E+00  0.2000E+01
    -26.296  0.0000E+00  0.2000E+01
    -26.132  0.0000E+00  0.2000E+01
    -25.968  0.0000E+00  0.2000E+01
    -25.804  0.0000E+00  0.2000E+01
    -25.639  0.0000E+00  0.2000E+01
    -25.475  0.0000E+00  0.2000E+01
    -25.311  0.0000E+00  0.2000E+01
    -25.146  0.0000E+00  0.2000E+01
    -24.982  0.0000E+00  0.2000E+01
    -24.818  0.0000E+00  0.2000E+01
    -24.653  0.0000E+00  0.2000E+01
    -24.489  0.0000E+00  0.2000E+01
    -24.325  0.0000E+00  0.2000E+01
    -24.161  0.0000E+00  0.2000E+01
    -23.996  0.0000E+00  0.2000E+01
    -23.832  0.0000E+00  0.2000E+01
    -23.668  0.0000E+00  0.2000E+01
    -23.503  0.0000E+00  0.2000E+01
    -23.339  0.0000E+00  0.2000E+01
    -23.175  0.0000E+00  0.2000E+01
    -23.010  0.0000E+00  0.2000E+01
    -22.846  0.0000E+00  0.2000E+01
    -22.682  0.0000E+00  0.2000E+01
    -22.517  0.0000E+00  0.2000E+01
    -22.353  0.0000E+00  0.2000E+01
    -22.189  0.0000E+00  0.2000E+01
    -22.025  0.0000E+00  0.2000E+01
    -21.860  0.0000E+00  0.2000E+01
    -21.696  0.0000E+00  0.2000E+01
    -21.532  0.0000E+00  0.2000E+01
    -21.367  0.0000E+00  0.2000E+01
    -21.203  0.0000E+00  0.2000E+01
    -21.039  0.0000E+00  0.2000E+01
    -20.874  0.0000E+00  0.2000E+01
    -20.710  0.0000E+00  0.2000E+01
    -20.546  0.0000E+00  0.2000E+01
    -20.382  0.0000E+00  0.2000E+01
    -20.217  0.0000E+00  0.2000E+01
    -20.053  0.0000E+00  0.2000E+01
    -19.889  0.0000E+00  0.2000E+01
    -19.724  0.0000E+00  0.2000E+01
    -19.560  0.0000E+00  0.2000E+01
    -19.396  0.0000E+00  0.2000E+01
    -19.231  0.0000E+00  0.2000E+01
    -19.067  0.0000E+00  0.2000E+01
    -18.903  0.0000E+00  0.2000E+01
    -18.738  0.0000E+00  0.2000E+01
    -18.574  0.0000E+00  0.2000E+01
    -18.410  0.0000E+00  0.2000E+01
    -18.246  0.0000E+00  0.2000E+01
    -18.081  0.0000E+00  0.2000E+01
    -17.917  0.0000E+00  0.2000E+01
    -17.753  0.0000E+00  0.2000E+01
    -17.588  0.0000E+00  0.2000E+01
    -17.424  0.0000E+00  0.2000E+01
    -17.260  0.0000E+00  0.2000E+01
    -17.095  0.0000E+00  0.2000E+01
    -16.931  0.0000E+00  0.2000E+01
    -16.767  0.0000E+00  0.2000E+01
    -16.603  0.0000E+00  0.2000E+01
    -16.438  0.0000E+00  0.2000E+01
    -16.274  0.0000E+00  0.2000E+01
    -16.110  0.0000E+00  0.2000E+01
    -15.945  0.0000E+00  0.2000E+01
    -15.781  0.0000E+00  0.2000E+01
    -15.617  0.0000E+00  0.2000E+01
    -15.452  0.0000E+00  0.2000E+01
    -15.288  0.0000E+00  0.2000E+01
    -15.124  0.0000E+00  0.2000E+01
    -14.960  0.0000E+00  0.2000E+01
    -14.795  0.0000E+00  0.2000E+01
    -14.631  0.0000E+00  0.2000E+01
    -14.467  0.0000E+00  0.2000E+01
    -14.302  0.0000E+00  0.2000E+01
    -14.138  0.0000E+00  0.2000E+01
    -13.974  0.0000E+00  0.2000E+01
    -13.809  0.0000E+00  0.2000E+01
    -13.645  0.0000E+00  0.2000E+01
    -13.481  0.0000E+00  0.2000E+01
    -13.316  0.0000E+00  0.2000E+01
    -13.152  0.0000E+00  0.2000E+01
    -12.988  0.0000E+00  0.2000E+01
    -12.824  0.0000E+00  0.2000E+01
    -12.659  0.0000E+00  0.2000E+01
    -12.495  0.0000E+00  0.2000E+01
    -12.331  0.2059E+02  0.5383E+01
    -12.166  0.0000E+00  0.1200E+02
    -12.002  0.0000E+00  0.1200E+02
    -11.838  0.0000E+00  0.1200E+02
    -11.673  0.0000E+00  0.1200E+02
    -11.509  0.0000E+00  0.1200E+02
    -11.345  0.0000E+00  0.1200E+02
    -11.181  0.0000E+00  0.1200E+02
    -11.016  0.0000E+00  0.1200E+02
    -10.852  0.0000E+00  0.1200E+02
    -10.688  0.0000E+00  0.1200E+02
    -10.523  0.0000E+00  0.1200E+02
    -10.359  0.0000E+00  0.1200E+02
    -10.195  0.0000E+00  0.1200E+02
    -10.030  0.0000E+00  0.1200E+02
     -9.866  0.0000E+00  0.1200E+02
     -9.702  0.0000E+00  0.1200E+02
     -9.537  0.0000E+00  0.1200E+02
     -9.373  0.0000E+00  0.1200E+02
     -9.209  0.0000E+00  0.1200E+02
     -9.045  0.1783E-05  0.1200E+02
     -8.880  0.8556E+01  0.1376E+02
     -8.716  0.1386E+02  0.1693E+02
     -8.552  0.0000E+00  0.1800E+02
     -8.387  0.0000E+00  0.1800E+02
     -8.223  0.0000E+00  0.1800E+02
     -8.059  0.0000E+00  0.1800E+02
     -7.894  0.0000E+00  0.1800E+02
     -7.730  0.0000E+00  0.1800E+02
     -7.566  0.0000E+00  0.1800E+02
     -7.402  0.0000E+00  0.1800E+02
     -7.237  0.0000E+00  0.1800E+02
     -7.073  0.0000E+00  0.1800E+02
     -6.909  0.0000E+00  0.1800E+02
     -6.744  0.0000E+00  0.1800E+02
     -6.580  0.0000E+00  0.1800E+02
     -6.416  0.0000E+00  0.1800E+02
     -6.251  0.0000E+00  0.1800E+02
     -6.087  0.0000E+00  0.1800E+02
     -5.923  0.0000E+00  0.1800E+02
     -5.758  0.0000E+00  0.1800E+02
     -5.594  0.0000E+00  0.1800E+02
     -5.430  0.0000E+00  0.1800E+02
     -5.266  0.0000E+00  0.1800E+02
     -5.101  0.0000E+00  0.1800E+02
     -4.937  0.0000E+00  0.1800E+02
     -4.773  0.0000E+00  0.1800E+02
     -4.608  0.0000E+00  0.1800E+02
     -4.444  0.0000E+00  0.1800E+02
     -4.280  0.0000E+00  0.1800E+02
     -4.115  0.0000E+00  0.1800E+02
     -3.951  0.0000E+00  0.1800E+02
     -3.787  0.0000E+00  0.1800E+02
     -3.623  0.0000E+00  0.1800E+02
     -3.458  0.0000E+00  0.1800E+02
     -3.294  0.0000E+00  0.1800E+02
     -3.130  0.0000E+00  0.1800E+02
     -2.965  0.0000E+00  0.1800E+02
     -2.801  0.0000E+00  0.1800E+02
     -2.637  0.0000E+00  0.1800E+02
     -2.472  0.0000E+00  0.1800E+02
     -2.308  0.0000E+00  0.1800E+02
     -2.144  0.2021E-06  0.1800E+02
     -1.979  0.7757E-01  0.1801E+02
     -1.815  0.1739E+00  0.1805E+02
     -1.651  0.2656E+00  0.1810E+02
     -1.487  0.1773E+00  0.1815E+02
     -1.322  0.3901E+00  0.1828E+02
     -1.158  0.1986E+01  0.1872E+02
     -0.994  0.2675E+01  0.1949E+02
     -0.829  0.6265E+00  0.1994E+02
     -0.665  0.0000E+00  0.2000E+02
     -0.501  0.0000E+00  0.2000E+02
     -0.336  0.0000E+00  0.2000E+02
     -0.172  0.0000E+00  0.2000E+02
     -0.008  0.0000E+00  0.2000E+02
      0.156  0.0000E+00  0.2000E+02
      0.321  0.0000E+00  0.2000E+02
      0.485  0.0000E+00  0.2000E+02
      0.649  0.0000E+00  0.2000E+02
      0.814  0.0000E+00  0.2000E+02
      0.978  0.0000E+00  0.2000E+02
      1.142  0.0000E+00  0.2000E+02
      1.307  0.0000E+00  0.2000E+02
      1.471  0.0000E+00  0.2000E+02
      1.635  0.0000E+00  0.2000E+02
      1.799  0.0000E+00  0.2000E+02
      1.964  0.0000E+00  0.2000E+02
      2.128  0.0000E+00  0.2000E+02
      2.292  0.0000E+00  0.2000E+02
      2.457  0.0000E+00  0.2000E+02
      2.621  0.0000E+00  0.2000E+02
      2.785  0.0000E+00  0.2000E+02
      2.950  0.0000E+00  0.2000E+02
      3.114  0.0000E+00  0.2000E+02
      3.278  0.0000E+00  0.2000E+02
      3.443  0.0000E+00  0.2000E+02
      3.607  0.0000E+00  0.2000E+02
      3.771  0.0000E+00  0.2000E+02
      3.935  0.0000E+00  0.2000E+02
      4.100  0.0000E+00  0.2000E+02
      4.264  0.2664E+00  0.2005E+02
      4.428  0.1839E+01  0.2045E+02
      4.593  0.1585E+01  0.2093E+02
      4.757  0.3833E+00  0.2116E+02
      4.921  0.5319E+00  0.2143E+02
      5.086  0.1933E+01  0.2182E+02
      5.250  0.3568E+01  0.2291E+02
      5.414  0.2467E+01  0.2380E+02
      5.578  0.3179E+01  0.2477E+02
      5.743  0.1880E+01  0.2559E+02
      5.907  0.8400E+00  0.2601E+02
      6.071  0.1808E+00  0.2607E+02
      6.236  0.7026E+01  0.2761E+02
      6.400  0.3299E+01  0.2885E+02
      6.564  0.2354E+01  0.3002E+02
      6.729  0.4640E+00  0.3030E+02
      6.893  0.1445E+01  0.3078E+02
      7.057  0.1067E+01  0.3121E+02
      7.222  0.7978E+00  0.3153E+02
      7.386  0.2706E+00  0.3169E+02
      7.550  0.4840E+00  0.3191E+02
      7.714  0.2125E+00  0.3206E+02
      7.879  0.1361E+01  0.3241E+02
      8.043  0.6540E+00  0.3257E+02
      8.207  0.1496E+01  0.3288E+02
      8.372  0.5569E+00  0.3313E+02
      8.536  0.1235E+01  0.3339E+02
      8.700  0.4590E+00  0.3361E+02
      8.865  0.1606E+01  0.3392E+02
      9.029  0.3491E+01  0.3539E+02
      9.193  0.7368E+00  0.3593E+02
      9.357  0.1429E+00  0.3600E+02
      9.522  0.0000E+00  0.3600E+02
      9.686  0.0000E+00  0.3600E+02
      9.850  0.1329E+00  0.3603E+02
     10.015  0.1092E+01  0.3623E+02
     10.179  0.1331E+01  0.3681E+02
     10.343  0.2159E+01  0.3753E+02
     10.508  0.6988E+00  0.3799E+02
     10.672  0.7044E+01  0.3926E+02
     10.836  0.4382E+01  0.4167E+02
     11.001  0.1014E+02  0.4408E+02
     11.165  0.7255E+01  0.4700E+02
     11.329  0.8920E+00  0.4798E+02
     11.493  0.0000E+00  0.4800E+02
     11.658  0.0000E+00  0.4800E+02
     11.822  0.0000E+00  0.4800E+02
     11.986  0.0000E+00  0.4800E+02
     12.151  0.0000E+00  0.4800E+02
     12.315  0.0000E+00  0.4800E+02
     12.479  0.0000E+00  0.4800E+02
     12.644  0.0000E+00  0.4800E+02
     12.808  0.0000E+00  0.4800E+02
     12.972  0.0000E+00  0.4800E+02
     13.136  0.0000E+00  0.4800E+02
     13.301  0.0000E+00  0.4800E+02
     13.465  0.0000E+00  0.4800E+02
     13.629  0.0000E+00  0.4800E+02
