    3    3    1    1
  0.2337051E+02  0.4628442E-09  0.4628442E-09  0.4628442E-09  0.5000000E-15
  1.000000000000000E-004
  CAR
 unknown system
     39     84     24

  0.0000000E+00  0.0000000E+00  0.0000000E+00  0.4551661E-03
    1      -33.421281   1.000000
    2      -12.330645   1.000000
    3      -12.330645   1.000000
    4      -12.299329   1.000000
    5      -12.299329   1.000000
    6      -12.299329   1.000000
    7       -8.755089   1.000000
    8       -8.755089   1.000000
    9       -8.755089   1.000000
   10       -2.115756   1.000000
   11        5.854640   1.000000
   12        5.854640   1.000000
   13        5.854640   1.000000
   14        6.064339   1.000000
   15        6.064339   1.000000
   16        9.179142   1.000000
   17        9.412031   1.000000
   18        9.412031   1.000000
   19        9.412031   1.000000
   20       10.581349   1.000000
   21       10.581349   1.000000
   22       10.581349   1.000000
   23       10.932219   0.000000
   24       10.932226   0.000000

  0.7692308E-01 -0.7270632E-18  0.1252048E-17  0.3641329E-02
    1      -33.420933   1.000000
    2      -12.332691   1.000000
    3      -12.332691   1.000000
    4      -12.299697   1.000000
    5      -12.299077   1.000000
    6      -12.299077   1.000000
    7       -8.773224   1.000000
    8       -8.750553   1.000000
    9       -8.750553   1.000000
   10       -2.038989   1.000000
   11        5.707384   1.000000
   12        5.707384   1.000000
   13        5.728399   1.000000
   14        6.202623   1.000000
   15        6.202623   1.000000
   16        8.643564   1.000000
   17        9.349743   1.000000
   18        9.349743   1.000000
   19        9.745506   1.000000
   20       10.582697   1.000000
   21       10.582697   1.000000
   22       10.599368   1.000000
   23       10.933682   0.000000
   24       11.002568   0.000000

  0.1538462E+00 -0.2797454E-17  0.3847424E-17  0.3641329E-02
    1      -33.419972   1.000000
    2      -12.338375   1.000000
    3      -12.338375   1.000000
    4      -12.300846   1.000000
    5      -12.298372   1.000000
    6      -12.298371   1.000000
    7       -8.821360   1.000000
    8       -8.738041   1.000000
    9       -8.738041   1.000000
   10       -1.825297   1.000000
   11        5.403512   1.000000
   12        5.518888   1.000000
   13        5.518888   1.000000
   14        6.352757   1.000000
   15        6.352757   1.000000
   16        7.984653   1.000000
   17        9.218292   1.000000
   18        9.218292   1.000000
   19        9.809286   1.000000
   20       10.593341   1.000000
   21       10.593341   1.000000
   22       10.838315   0.000000
   23       10.937351   0.000000
   24       11.145809   0.000000

  0.2307692E+00  0.2864698E-16 -0.4362395E-17  0.3641329E-02
    1      -33.418617   1.000000
    2      -12.346367   1.000000
    3      -12.346367   1.000000
    4      -12.302774   1.000000
    5      -12.297317   1.000000
    6      -12.297317   1.000000
    7       -8.884289   1.000000
    8       -8.720509   1.000000
    9       -8.720509   1.000000
   10       -1.520939   1.000000
   11        4.993830   1.000000
   12        5.378532   1.000000
   13        5.378532   1.000000
   14        6.404550   1.000000
   15        6.404550   1.000000
   16        7.393430   1.000000
   17        9.110272   1.000000
   18        9.110272   1.000000
   19        9.793221   1.000000
   20       10.617917   1.000000
   21       10.617917   1.000000
   22       10.942321   0.000000
   23       10.995033   0.000000
   24       11.235280   0.000000

  0.3076923E+00 -0.5594908E-17  0.7694847E-17  0.3641329E-02
    1      -33.417179   1.000000
    2      -12.354794   1.000000
    3      -12.354794   1.000000
    4      -12.305218   1.000000
    5      -12.296149   1.000000
    6      -12.296149   1.000000
    7       -8.945331   1.000000
    8       -8.702039   1.000000
    9       -8.702039   1.000000
   10       -1.193008   1.000000
   11        4.606109   1.000000
   12        5.301584   1.000000
   13        5.301584   1.000000
   14        6.346573   1.000000
   15        6.346573   1.000000
   16        6.930174   1.000000
   17        9.068929   1.000000
   18        9.068929   1.000000
   19        9.827843   1.000000
   20       10.657109   0.837779
   21       10.657109   0.837778
   22       10.947783   0.000000
   23       11.074847   0.000000
   24       11.211445   0.000000

  0.3846154E+00  0.9448764E-17 -0.6823840E-17  0.3641329E-02
    1      -33.415989   1.000000
    2      -12.361723   1.000000
    3      -12.361723   1.000000
    4      -12.307563   1.000000
    5      -12.295166   1.000000
    6      -12.295166   1.000000
    7       -8.991819   1.000000
    8       -8.686839   1.000000
    9       -8.686839   1.000000
   10       -0.916935   1.000000
   11        4.315276   1.000000
   12        5.281946   1.000000
   13        5.281946   1.000000
   14        6.228751   1.000000
   15        6.228751   1.000000
   16        6.618212   1.000000
   17        9.076412   1.000000
   18        9.076412   1.000000
   19        9.905782   1.000000
   20       10.708391   0.000000
   21       10.708391   0.000000
   22       10.954812   0.000000
   23       11.127654   0.000000
   24       11.133454   0.000000

  0.4615385E+00 -0.5869389E-17  0.9019298E-17  0.3641329E-02
    1      -33.415314   1.000000
    2      -12.365616   1.000000
    3      -12.365616   1.000000
    4      -12.309021   1.000000
    5      -12.294608   1.000000
    6      -12.294608   1.000000
    7       -9.016517   1.000000
    8       -8.678296   1.000000
    9       -8.678296   1.000000
   10       -0.759379   1.000000
   11        4.162412   1.000000
   12        5.291063   1.000000
   13        5.291063   1.000000
   14        6.134357   1.000000
   15        6.134357   1.000000
   16        6.462426   1.000000
   17        9.092926   1.000000
   18        9.092926   1.000000
   19        9.975342   1.000000
   20       10.755187   0.000000
   21       10.755187   0.000000
   22       11.053778   0.000000
   23       11.054275   0.000000
   24       11.127920   0.000000

  0.7692308E-01  0.7692308E-01  0.3975728E-17  0.2730997E-02
    1      -33.420819   1.000000
    2      -12.336221   1.000000
    3      -12.330138   1.000000
    4      -12.299923   1.000000
    5      -12.298948   1.000000
    6      -12.298948   1.000000
    7       -8.764473   1.000000
    8       -8.756648   1.000000
    9       -8.756648   1.000000
   10       -2.015119   1.000000
   11        5.434178   1.000000
   12        5.867769   1.000000
   13        5.867769   1.000000
   14        6.078562   1.000000
   15        6.256906   1.000000
   16        8.628017   1.000000
   17        9.248103   1.000000
   18        9.248103   1.000000
   19        9.900052   1.000000
   20       10.511541   1.000000
   21       10.612257   1.000000
   22       10.612257   1.000000
   23       10.944089   0.000000
   24       11.019169   0.000000

  0.1538462E+00  0.7692308E-01  0.3645345E-17  0.1092399E-01
    1      -33.420066   1.000000
    2      -12.342487   1.000000
    3      -12.331795   1.000000
    4      -12.300817   1.000000
    5      -12.298453   1.000000
    6      -12.298315   1.000000
    7       -8.801248   1.000000
    8       -8.753545   1.000000
    9       -8.742508   1.000000
   10       -1.852402   1.000000
   11        5.142358   1.000000
   12        5.741044   1.000000
   13        5.754626   1.000000
   14        6.196599   1.000000
   15        6.371356   1.000000
   16        8.179517   1.000000
   17        9.105544   1.000000
   18        9.107653   1.000000
   19        9.981890   1.000000
   20       10.559219   1.000000
   21       10.624565   1.000000
   22       10.751736   0.000000
   23       10.950456   0.000000
   24       11.122418   0.000000

  0.2307692E+00  0.7692308E-01 -0.1485528E-18  0.1092399E-01
    1      -33.418849   1.000000
    2      -12.350033   1.000000
    3      -12.337305   1.000000
    4      -12.302311   1.000000
    5      -12.297734   1.000000
    6      -12.297244   1.000000
    7       -8.859738   1.000000
    8       -8.742031   1.000000
    9       -8.723190   1.000000
   10       -1.587737   1.000000
   11        4.860488   1.000000
   12        5.493775   1.000000
   13        5.611987   1.000000
   14        6.281639   1.000000
   15        6.466709   1.000000
   16        7.627246   1.000000
   17        8.967655   1.000000
   18        9.007338   1.000000
   19        9.953931   1.000000
   20       10.594675   1.000000
   21       10.634931   0.999981
   22       10.944155   0.000000
   23       10.953853   0.000000
   24       11.206578   0.000000

  0.3076923E+00  0.7692308E-01  0.5538751E-18  0.1092399E-01
    1      -33.417445   1.000000
    2      -12.357153   1.000000
    3      -12.345320   1.000000
    4      -12.304344   1.000000
    5      -12.296844   1.000000
    6      -12.296015   1.000000
    7       -8.921307   1.000000
    8       -8.724831   1.000000
    9       -8.705375   1.000000
   10       -1.281404   1.000000
   11        4.595848   1.000000
   12        5.297200   1.000000
   13        5.508776   1.000000
   14        6.258513   1.000000
   15        6.468022   1.000000
   16        7.129833   1.000000
   17        8.894071   1.000000
   18        8.986469   1.000000
   19        9.939594   1.000000
   20       10.644277   0.997446
   21       10.657179   0.835309
   22       10.956775   0.000000
   23       11.030743   0.000000
   24       11.205422   0.000000

  0.3846154E+00  0.7692308E-01  0.1379076E-16  0.1092399E-01
    1      -33.416178   1.000000
    2      -12.362245   1.000000
    3      -12.353896   1.000000
    4      -12.306526   1.000000
    5      -12.295951   1.000000
    6      -12.294982   1.000000
    7       -8.972104   1.000000
    8       -8.705922   1.000000
    9       -8.693018   1.000000
   10       -1.004136   1.000000
   11        4.378392   1.000000
   12        5.212430   1.000000
   13        5.437184   1.000000
   14        6.176588   1.000000
   15        6.380579   1.000000
   16        6.754121   1.000000
   17        8.887183   1.000000
   18        9.014536   1.000000
   19        9.971526   1.000000
   20       10.696278   0.000003
   21       10.701141   0.000000
   22       10.957594   0.000000
   23       11.066760   0.000000
   24       11.162792   0.000000

  0.4615385E+00  0.7692308E-01  0.1197022E-16  0.1092399E-01
    1      -33.415337   1.000000
    2      -12.364202   1.000000
    3      -12.361067   1.000000
    4      -12.308154   1.000000
    5      -12.295252   1.000000
    6      -12.294393   1.000000
    7       -9.003428   1.000000
    8       -8.689576   1.000000
    9       -8.688760   1.000000
   10       -0.819875   1.000000
   11        4.245116   1.000000
   12        5.228556   1.000000
   13        5.363086   1.000000
   14        6.130381   1.000000
   15        6.255984   1.000000
   16        6.530146   1.000000
   17        8.907006   1.000000
   18        9.044770   1.000000
   19       10.027588   1.000000
   20       10.747499   0.000000
   21       10.749452   0.000000
   22       10.952478   0.000000
   23       11.044927   0.000000
   24       11.112694   0.000000

 -0.4615385E+00  0.7692308E-01 -0.3542533E-17  0.1092399E-01
    1      -33.415112   1.000000
    2      -12.365256   1.000000
    3      -12.362619   1.000000
    4      -12.308584   1.000000
    5      -12.294949   1.000000
    6      -12.294391   1.000000
    7       -9.011271   1.000000
    8       -8.693388   1.000000
    9       -8.679436   1.000000
   10       -0.769499   1.000000
   11        4.210809   1.000000
   12        5.267593   1.000000
   13        5.306978   1.000000
   14        6.157184   1.000000
   15        6.180465   1.000000
   16        6.475124   1.000000
   17        8.909589   1.000000
   18        9.053434   1.000000
   19       10.051437   1.000000
   20       10.754182   0.000000
   21       10.781424   0.000000
   22       10.942048   0.000000
   23       11.051341   0.000000
   24       11.062209   0.000000

 -0.3846154E+00  0.7692308E-01 -0.1040902E-16  0.1092399E-01
    1      -33.415558   1.000000
    2      -12.365575   1.000000
    3      -12.357816   1.000000
    4      -12.307618   1.000000
    5      -12.295131   1.000000
    6      -12.294943   1.000000
    7       -8.994915   1.000000
    8       -8.705724   1.000000
    9       -8.677780   1.000000
   10       -0.864078   1.000000
   11        4.281255   1.000000
   12        5.181533   1.000000
   13        5.403336   1.000000
   14        6.136422   1.000000
   15        6.305396   1.000000
   16        6.590231   1.000000
   17        8.870997   1.000000
   18        9.047683   1.000000
   19       10.016762   1.000000
   20       10.715188   0.000000
   21       10.753017   0.000000
   22       10.948407   0.000000
   23       11.082191   0.000000
   24       11.100689   0.000000

 -0.3076923E+00  0.7692308E-01 -0.1483582E-16  0.1092399E-01
    1      -33.416569   1.000000
    2      -12.361973   1.000000
    3      -12.350810   1.000000
    4      -12.305660   1.000000
    5      -12.295900   1.000000
    6      -12.295784   1.000000
    7       -8.956376   1.000000
    8       -8.722863   1.000000
    9       -8.685023   1.000000
   10       -1.083838   1.000000
   11        4.463898   1.000000
   12        5.145752   1.000000
   13        5.500162   1.000000
   14        6.191597   1.000000
   15        6.441140   1.000000
   16        6.864941   1.000000
   17        8.801247   1.000000
   18        9.057003   1.000000
   19        9.964134   1.000000
   20       10.672018   0.130706
   21       10.693249   0.000018
   22       10.953487   0.000000
   23       11.078833   0.000000
   24       11.149540   0.000000

 -0.2307692E+00  0.7692308E-01  0.6053265E-17  0.1092399E-01
    1      -33.417919   1.000000
    2      -12.355240   1.000000
    3      -12.343129   1.000000
    4      -12.303435   1.000000
    5      -12.297019   1.000000
    6      -12.296750   1.000000
    7       -8.901439   1.000000
    8       -8.740723   1.000000
    9       -8.699607   1.000000
   10       -1.378957   1.000000
   11        4.748867   1.000000
   12        5.183212   1.000000
   13        5.619616   1.000000
   14        6.247512   1.000000
   15        6.519708   1.000000
   16        7.282750   1.000000
   17        8.751313   1.000000
   18        9.115666   1.000000
   19        9.940580   1.000000
   20       10.635207   0.999978
   21       10.641426   0.999321
   22       10.951580   0.000000
   23       11.018218   0.000000
   24       11.206446   0.000000

 -0.1538462E+00  0.7692308E-01  0.3664188E-18  0.1092399E-01
    1      -33.419294   1.000000
    2      -12.346875   1.000000
    3      -12.336581   1.000000
    4      -12.301561   1.000000
    5      -12.298040   1.000000
    6      -12.297779   1.000000
    7       -8.841207   1.000000
    8       -8.754594   1.000000
    9       -8.718246   1.000000
   10       -1.680378   1.000000
   11        5.092760   1.000000
   12        5.299151   1.000000
   13        5.775139   1.000000
   14        6.223317   1.000000
   15        6.497497   1.000000
   16        7.800051   1.000000
   17        8.803840   1.000000
   18        9.227743   1.000000
   19        9.953113   1.000000
   20       10.588986   1.000000
   21       10.621938   1.000000
   22       10.913397   0.000000
   23       10.946853   0.000000
   24       11.189047   0.000000

 -0.7692308E-01  0.7692308E-01 -0.1454126E-17  0.5461994E-02
    1      -33.420383   1.000000
    2      -12.338738   1.000000
    3      -12.332790   1.000000
    4      -12.300308   1.000000
    5      -12.298764   1.000000
    6      -12.298612   1.000000
    7       -8.793207   1.000000
    8       -8.758585   1.000000
    9       -8.736667   1.000000
   10       -1.918389   1.000000
   11        5.433875   1.000000
   12        5.483487   1.000000
   13        5.879396   1.000000
   14        6.150945   1.000000
   15        6.377896   1.000000
   16        8.301814   1.000000
   17        9.040770   1.000000
   18        9.335706   1.000000
   19        9.924315   1.000000
   20       10.566562   1.000000
   21       10.597305   1.000000
   22       10.724623   0.000000
   23       10.940366   0.000000
   24       11.088927   0.000000

  0.1538462E+00  0.1538462E+00  0.7951457E-17  0.2730997E-02
    1      -33.419558   1.000000
    2      -12.347820   1.000000
    3      -12.328752   1.000000
    4      -12.301728   1.000000
    5      -12.297825   1.000000
    6      -12.297825   1.000000
    7       -8.791744   1.000000
    8       -8.761156   1.000000
    9       -8.761156   1.000000
   10       -1.756489   1.000000
   11        4.829784   1.000000
   12        5.890454   1.000000
   13        5.890454   1.000000
   14        6.118509   1.000000
   15        6.311207   1.000000
   16        8.144954   1.000000
   17        8.965440   1.000000
   18        8.965440   1.000000
   19       10.007781   1.000000
   20       10.646000   0.994711
   21       10.646000   0.994711
   22       10.696115   0.000003
   23       10.979811   0.000000
   24       11.177025   0.000000

  0.2307692E+00  0.1538462E+00 -0.4324723E-18  0.1092399E-01
    1      -33.418561   1.000000
    2      -12.353120   1.000000
    3      -12.330174   1.000000
    4      -12.303007   1.000000
    5      -12.297128   1.000000
    6      -12.296836   1.000000
    7       -8.835094   1.000000
    8       -8.759152   1.000000
    9       -8.747226   1.000000
   10       -1.563798   1.000000
   11        4.582942   1.000000
   12        5.748767   1.000000
   13        5.816786   1.000000
   14        6.186340   1.000000
   15        6.367274   1.000000
   16        7.845642   1.000000
   17        8.793483   1.000000
   18        8.877631   1.000000
   19       10.035482   1.000000
   20       10.615406   1.000000
   21       10.657042   0.840084
   22       10.866621   0.000000
   23       10.993932   0.000000
   24       11.231142   0.000000

  0.3076923E+00  0.1538462E+00  0.5947363E-17  0.1092399E-01
    1      -33.417308   1.000000
    2      -12.357164   1.000000
    3      -12.335677   1.000000
    4      -12.304405   1.000000
    5      -12.296623   1.000000
    6      -12.295562   1.000000
    7       -8.892407   1.000000
    8       -8.748096   1.000000
    9       -8.730035   1.000000
   10       -1.324083   1.000000
   11        4.430899   1.000000
   12        5.500504   1.000000
   13        5.711790   1.000000
   14        6.201081   1.000000
   15        6.441300   1.000000
   16        7.431412   1.000000
   17        8.627272   1.000000
   18        8.871983   1.000000
   19       10.075287   1.000000
   20       10.635137   0.999979
   21       10.672368   0.120482
   22       10.958491   0.000000
   23       10.995316   0.000000
   24       11.231409   0.000000

  0.3846154E+00  0.1538462E+00  0.2783490E-17  0.1092399E-01
    1      -33.416083   1.000000
    2      -12.359098   1.000000
    3      -12.343809   1.000000
    4      -12.305786   1.000000
    5      -12.296319   1.000000
    6      -12.294442   1.000000
    7       -8.942881   1.000000
    8       -8.730586   1.000000
    9       -8.720410   1.000000
   10       -1.095963   1.000000
   11        4.378879   1.000000
   12        5.307590   1.000000
   13        5.602507   1.000000
   14        6.167115   1.000000
   15        6.441860   1.000000
   16        7.023898   1.000000
   17        8.549842   1.000000
   18        8.914051   1.000000
   19       10.094398   1.000000
   20       10.688561   0.000267
   21       10.702223   0.000000
   22       10.989453   0.000000
   23       10.994844   0.000000
   24       11.199690   0.000000

  0.4615385E+00  0.1538462E+00  0.1484073E-16  0.1092399E-01
    1      -33.415168   1.000000
    2      -12.358562   1.000000
    3      -12.352603   1.000000
    4      -12.306837   1.000000
    5      -12.296140   1.000000
    6      -12.293806   1.000000
    7       -8.976629   1.000000
    8       -8.720603   1.000000
    9       -8.710624   1.000000
   10       -0.928326   1.000000
   11        4.393473   1.000000
   12        5.226029   1.000000
   13        5.461634   1.000000
   14        6.171775   1.000000
   15        6.370083   1.000000
   16        6.721711   1.000000
   17        8.531457   1.000000
   18        8.949784   1.000000
   19       10.127542   1.000000
   20       10.733859   0.000000
   21       10.749698   0.000000
   22       10.973605   0.000000
   23       11.013238   0.000000
   24       11.174392   0.000000

 -0.4615385E+00  0.1538462E+00 -0.2338165E-16  0.1092399E-01
    1      -33.414771   1.000000
    2      -12.360080   1.000000
    3      -12.355770   1.000000
    4      -12.307106   1.000000
    5      -12.296083   1.000000
    6      -12.293778   1.000000
    7       -8.989113   1.000000
    8       -8.730015   1.000000
    9       -8.692702   1.000000
   10       -0.849298   1.000000
   11        4.409108   1.000000
   12        5.265971   1.000000
   13        5.297777   1.000000
   14        6.253578   1.000000
   15        6.262573   1.000000
   16        6.598526   1.000000
   17        8.516156   1.000000
   18        8.955875   1.000000
   19       10.161263   1.000000
   20       10.737121   0.000000
   21       10.804978   0.000000
   22       10.940725   0.000000
   23       11.045443   0.000000
   24       11.115134   0.000000

 -0.3846154E+00  0.1538462E+00  0.7599329E-17  0.1092399E-01
    1      -33.414984   1.000000
    2      -12.364641   1.000000
    3      -12.351345   1.000000
    4      -12.306387   1.000000
    5      -12.296174   1.000000
    6      -12.294318   1.000000
    7       -8.979764   1.000000
    8       -8.745638   1.000000
    9       -8.680839   1.000000
   10       -0.870870   1.000000
   11        4.398955   1.000000
   12        5.154087   1.000000
   13        5.396402   1.000000
   14        6.176401   1.000000
   15        6.386453   1.000000
   16        6.677685   1.000000
   17        8.458149   1.000000
   18        8.947191   1.000000
   19       10.161401   1.000000
   20       10.705056   0.000000
   21       10.818838   0.000000
   22       10.923884   0.000000
   23       11.080485   0.000000
   24       11.091211   0.000000

 -0.3076923E+00  0.1538462E+00  0.1074432E-16  0.1092399E-01
    1      -33.415757   1.000000
    2      -12.365320   1.000000
    3      -12.346130   1.000000
    4      -12.305008   1.000000
    5      -12.296408   1.000000
    6      -12.295259   1.000000
    7       -8.951204   1.000000
    8       -8.762569   1.000000
    9       -8.677742   1.000000
   10       -0.994921   1.000000
   11        4.417620   1.000000
   12        5.067719   1.000000
   13        5.569617   1.000000
   14        6.140491   1.000000
   15        6.519592   1.000000
   16        6.928610   1.000000
   17        8.351263   1.000000
   18        8.959703   1.000000
   19       10.131749   1.000000
   20       10.672658   0.112438
   21       10.761253   0.000000
   22       10.950546   0.000000
   23       11.068849   0.000000
   24       11.110626   0.000000

 -0.2307692E+00  0.1538462E+00 -0.1378585E-16  0.1092399E-01
    1      -33.416914   1.000000
    2      -12.361993   1.000000
    3      -12.341167   1.000000
    4      -12.303575   1.000000
    5      -12.296750   1.000000
    6      -12.296354   1.000000
    7       -8.910090   1.000000
    8       -8.774308   1.000000
    9       -8.684186   1.000000
   10       -1.204400   1.000000
   11        4.535719   1.000000
   12        5.060250   1.000000
   13        5.749293   1.000000
   14        6.131721   1.000000
   15        6.598544   1.000000
   16        7.289609   1.000000
   17        8.257725   1.000000
   18        9.025355   1.000000
   19       10.097583   1.000000
   20       10.653063   0.940325
   21       10.691696   0.000047
   22       10.962452   0.000000
   23       11.032824   0.000000
   24       11.159572   0.000000

 -0.1538462E+00  0.1538462E+00 -0.5594908E-17  0.5461994E-02
    1      -33.418191   1.000000
    2      -12.355361   1.000000
    3      -12.337631   1.000000
    4      -12.302448   1.000000
    5      -12.297344   1.000000
    6      -12.297205   1.000000
    7       -8.869161   1.000000
    8       -8.772649   1.000000
    9       -8.698795   1.000000
   10       -1.453915   1.000000
   11        4.773024   1.000000
   12        5.139292   1.000000
   13        5.881455   1.000000
   14        6.119170   1.000000
   15        6.589687   1.000000
   16        7.620786   1.000000
   17        8.363294   1.000000
   18        9.136823   1.000000
   19       10.057179   1.000000
   20       10.628471   1.000000
   21       10.640260   0.999622
   22       10.958777   0.000000
   23       10.982096   0.000000
   24       11.198253   0.000000

  0.2307692E+00  0.2307692E+00  0.1192718E-16  0.2730997E-02
    1      -33.417818   1.000000
    2      -12.354798   1.000000
    3      -12.326805   1.000000
    4      -12.304402   1.000000
    5      -12.296027   1.000000
    6      -12.296027   1.000000
    7       -8.833905   1.000000
    8       -8.767946   1.000000
    9       -8.767946   1.000000
   10       -1.462737   1.000000
   11        4.389802   1.000000
   12        5.884799   1.000000
   13        5.884799   1.000000
   14        6.176281   1.000000
   15        6.200877   1.000000
   16        7.812802   1.000000
   17        8.799253   1.000000
   18        8.799253   1.000000
   19        9.982639   1.000000
   20       10.672087   0.128622
   21       10.672087   0.128622
   22       10.826869   0.000000
   23       11.039191   0.000000
   24       11.300512   0.000000

  0.3076923E+00  0.2307692E+00  0.1457713E-16  0.1092399E-01
    1      -33.416796   1.000000
    2      -12.354675   1.000000
    3      -12.328168   1.000000
    4      -12.305745   1.000000
    5      -12.295244   1.000000
    6      -12.294840   1.000000
    7       -8.873538   1.000000
    8       -8.766456   1.000000
    9       -8.761450   1.000000
   10       -1.319241   1.000000
   11        4.327621   1.000000
   12        5.708248   1.000000
   13        5.827449   1.000000
   14        6.203121   1.000000
   15        6.246760   1.000000
   16        7.598013   1.000000
   17        8.648322   1.000000
   18        8.803687   1.000000
   19       10.078952   1.000000
   20       10.656877   0.845683
   21       10.686980   0.000600
   22       10.877839   0.000000
   23       11.059692   0.000000
   24       11.296214   0.000000

  0.3846154E+00  0.2307692E+00 -0.1834509E-17  0.1092399E-01
    1      -33.415723   1.000000
    2      -12.352790   1.000000
    3      -12.333781   1.000000
    4      -12.306643   1.000000
    5      -12.295123   1.000000
    6      -12.293665   1.000000
    7       -8.917469   1.000000
    8       -8.755655   1.000000
    9       -8.755110   1.000000
   10       -1.173184   1.000000
   11        4.402221   1.000000
   12        5.468793   1.000000
   13        5.718205   1.000000
   14        6.207977   1.000000
   15        6.337569   1.000000
   16        7.293047   1.000000
   17        8.418718   1.000000
   18        8.853233   1.000000
   19       10.183262   1.000000
   20       10.669334   0.228574
   21       10.711485   0.000000
   22       10.920750   0.000000
   23       11.055432   0.000000
   24       11.249818   0.000000

  0.4615385E+00  0.2307692E+00  0.7699761E-17  0.1092399E-01
    1      -33.414849   1.000000
    2      -12.349719   1.000000
    3      -12.342132   1.000000
    4      -12.306832   1.000000
    5      -12.295687   1.000000
    6      -12.292955   1.000000
    7       -8.947562   1.000000
    8       -8.760791   1.000000
    9       -8.736550   1.000000
   10       -1.053426   1.000000
   11        4.568990   1.000000
   12        5.306279   1.000000
   13        5.559016   1.000000
   14        6.240977   1.000000
   15        6.363839   1.000000
   16        6.984797   1.000000
   17        8.247735   1.000000
   18        8.885114   1.000000
   19       10.227874   1.000000
   20       10.705137   0.000000
   21       10.751342   0.000000
   22       10.964204   0.000000
   23       11.032039   0.000000
   24       11.199388   0.000000

 -0.4615385E+00  0.2307692E+00 -0.7812991E-17  0.1092399E-01
    1      -33.414372   1.000000
    2      -12.351264   1.000000
    3      -12.346348   1.000000
    4      -12.306090   1.000000
    5      -12.296710   1.000000
    6      -12.292883   1.000000
    7       -8.958231   1.000000
    8       -8.776204   1.000000
    9       -8.714981   1.000000
   10       -0.972615   1.000000
   11        4.711780   1.000000
   12        5.249253   1.000000
   13        5.371725   1.000000
   14        6.305995   1.000000
   15        6.327342   1.000000
   16        6.812515   1.000000
   17        8.132638   1.000000
   18        8.875004   1.000000
   19       10.259189   1.000000
   20       10.706696   0.000000
   21       10.804133   0.000000
   22       10.986975   0.000000
   23       11.028587   0.000000
   24       11.160474   0.000000

 -0.3846154E+00  0.2307692E+00  0.2316799E-16  0.1092399E-01
    1      -33.414401   1.000000
    2      -12.359172   1.000000
    3      -12.343514   1.000000
    4      -12.304569   1.000000
    5      -12.297769   1.000000
    6      -12.293404   1.000000
    7       -8.950488   1.000000
    8       -8.796263   1.000000
    9       -8.695247   1.000000
   10       -0.937319   1.000000
   11        4.689715   1.000000
   12        5.198175   1.000000
   13        5.313509   1.000000
   14        6.225268   1.000000
   15        6.446406   1.000000
   16        6.859926   1.000000
   17        8.030891   1.000000
   18        8.847642   1.000000
   19       10.276016   1.000000
   20       10.675083   0.059788
   21       10.857023   0.000000
   22       10.926680   0.000000