 vasp.6.0.8 29Jun18 (build Jun 13 2019 12:54:44) complex

 executed on      IFC18_CrayMPICH date 2021.12.05  14:21:52
 running   64 mpi-ranks, with    1 threads/rank
 distrk:  each k-point on   16 cores,    4 groups
 distr:  one band on NCORES_PER_BAND=   4 cores,    4 groups


--------------------------------------------------------------------------------------------------------


 INCAR:
 POTCAR:    PAW_PBE U 06Sep2000
 POTCAR:    PAW_PBE Bi_d 06Sep2000
 POTCAR:    PAW_PBE Pt 04Feb2005
 POTCAR:    PAW_PBE U 06Sep2000
   VRHFIN =U:  [Xe,5d,4f]
   LEXCH  = PE
   EATOM  =  1405.3058 eV,  103.2871 Ry

   TITEL  = PAW_PBE U 06Sep2000
   LULTRA =        F    use ultrasoft PP ?
   IUNSCR =        1    unscreen: 0-lin 1-nonlin 2-no
   RPACOR =    2.200    partial core radius
   POMASS =  238.029; ZVAL   =   14.000    mass and valenz
   RCORE  =    2.800    outmost cutoff radius
   RWIGS  =    3.000; RWIGS  =    1.588    wigner-seitz radius (au A)
   ENMAX  =  252.502; ENMIN  =  189.376 eV
   RCLOC  =    1.811    cutoff for local pot
   LCOR   =        T    correct aug charges
   LPAW   =        T    paw PP
   EAUG   =  526.410
   DEXC   =    0.000
   RMAX   =    2.863    core radius for proj-oper
   RAUG   =    1.300    factor for augmentation sphere
   RDEP   =    2.950    radius for radial grids
   RDEPT  =    2.270    core radius for aug-charge

   Atomic configuration
   18 entries
     n  l   j            E        occ.
     1  0  0.50   -116038.1941   2.0000
     2  0  0.50    -21694.8835   2.0000
     2  1  1.50    -18009.1553   6.0000
     3  0  0.50     -5481.2929   2.0000
     3  1  1.50     -4458.9283   6.0000
     3  2  2.50     -3575.9978  10.0000
     4  0  0.50     -1400.5351   2.0000
     4  1  1.50     -1066.7807   6.0000
     4  2  2.50      -732.1336  10.0000
     4  3  3.50      -377.4393  14.0000
     5  0  0.50      -314.7366   2.0000
     5  1  1.50      -211.6057   6.0000
     5  2  2.50      -103.2045  10.0000
     6  0  0.50       -50.6026   2.0000
     7  0  0.50        -4.5896   2.0000
     6  1  1.50       -25.2884   6.0000
     6  2  1.50        -3.1039   2.0000
     5  3  2.50        -6.3670   2.0000
   Description
     l       E           TYP  RCUT    TYP  RCUT
     0    -50.6026097     23  2.600
     0     -4.5896371     23  2.600
     1    -25.2883770     23  2.500
     1     27.2116520     23  2.500
     2     -3.1038686     23  2.500
     2      0.8290654     23  2.500
     3     -6.3670133     23  2.800
     3     -7.7275959     23  2.800
  local pseudopotential read in
  partial core-charges read in
  partial kinetic energy density read in
  atomic valenz-charges read in
  non local Contribution for L=           0  read in
    real space projection operators read in
  non local Contribution for L=           0  read in
    real space projection operators read in
  non local Contribution for L=           1  read in
    real space projection operators read in
  non local Contribution for L=           1  read in
    real space projection operators read in
  non local Contribution for L=           2  read in
    real space projection operators read in
  non local Contribution for L=           2  read in
    real space projection operators read in
  non local Contribution for L=           3  read in
    real space projection operators read in
  non local Contribution for L=           3  read in
    real space projection operators read in
    PAW grid and wavefunctions read in

   number of l-projection  operators is LMAX  =           8
   number of lm-projection operators is LMMAX =          32

 POTCAR:    PAW_PBE Bi_d 06Sep2000
   VRHFIN =Bi:
   LEXCH  = PE
   EATOM  =  1959.2045 eV,  143.9975 Ry

   TITEL  = PAW_PBE Bi_d 06Sep2000
   LULTRA =        F    use ultrasoft PP ?
   IUNSCR =        1    unscreen: 0-lin 1-nonlin 2-no
   RPACOR =    2.200    partial core radius
   POMASS =  208.980; ZVAL   =   15.000    mass and valenz
   RCORE  =    2.500    outmost cutoff radius
   RWIGS  =    3.090; RWIGS  =    1.635    wigner-seitz radius (au A)
   ENMAX  =  242.839; ENMIN  =  182.129 eV
   ICORE  =        3    local potential
   LCOR   =        T    correct aug charges
   LPAW   =        T    paw PP
   EAUG   =  442.899
   DEXC   =    0.000
   RMAX   =    2.551    core radius for proj-oper
   RAUG   =    1.300    factor for augmentation sphere
   RDEP   =    2.650    radius for radial grids
   RDEPT  =    2.039    core radius for aug-charge

   Atomic configuration
   16 entries
     n  l   j            E        occ.
     1  0  0.50    -90639.6581   2.0000
     2  0  0.50    -16282.4666   2.0000
     2  1  1.50    -13922.8286   6.0000
     3  0  0.50     -3930.4763   2.0000
     3  1  1.50     -3256.7013   6.0000
     3  2  2.50     -2581.6168  10.0000
     4  0  0.50      -902.2614   2.0000
     4  1  1.50      -681.5915   6.0000
     4  2  2.50      -429.8249  10.0000
     4  3  3.50      -152.6004  14.0000
     5  0  0.50      -157.7156   2.0000
     5  1  1.50       -95.8054   6.0000
     5  2  2.50       -27.0806  10.0000
     6  0  0.50       -14.4732   2.0000
     6  1  1.50        -4.5702   3.0000
     5  3  2.50        -2.7212   0.0000
   Description
     l       E           TYP  RCUT    TYP  RCUT
     2    -27.0805982     23  2.500
     2     -1.3605826     23  2.500
     0    -14.4732271     23  2.500
     0      6.8029130     23  2.500
     1     -4.5701651     23  2.500
     1     13.6058260     23  2.500
     3     -1.3605826      7  2.500
  local pseudopotential read in
  partial core-charges read in
  partial kinetic energy density read in
  atomic valenz-charges read in
  non local Contribution for L=           2  read in
    real space projection operators read in
  non local Contribution for L=           2  read in
    real space projection operators read in
  non local Contribution for L=           0  read in
    real space projection operators read in
  non local Contribution for L=           0  read in
    real space projection operators read in
  non local Contribution for L=           1  read in
    real space projection operators read in
  non local Contribution for L=           1  read in
    real space projection operators read in
    PAW grid and wavefunctions read in

   number of l-projection  operators is LMAX  =           6
   number of lm-projection operators is LMMAX =          18

 POTCAR:    PAW_PBE Pt 04Feb2005
   VRHFIN =Pt: s1d9
   LEXCH  = PE
   EATOM  =   729.1176 eV,   53.5886 Ry

   TITEL  = PAW_PBE Pt 04Feb2005
   LULTRA =        F    use ultrasoft PP ?
   IUNSCR =        1    unscreen: 0-lin 1-nonlin 2-no
   RPACOR =    2.330    partial core radius
   POMASS =  195.080; ZVAL   =   10.000    mass and valenz
   RCORE  =    2.600    outmost cutoff radius
   RWIGS  =    2.750; RWIGS  =    1.455    wigner-seitz radius (au A)
   ENMAX  =  230.283; ENMIN  =  172.712 eV
   ICORE  =        3    local potential
   LCOR   =        T    correct aug charges
   LPAW   =        T    paw PP
   EAUG   =  358.966
   DEXC   =    0.000
   RMAX   =    2.658    core radius for proj-oper
   RAUG   =    1.300    factor for augmentation sphere
   RDEP   =    2.761    radius for radial grids
   RDEPT  =    2.203    core radius for aug-charge

   Atomic configuration
   16 entries
     n  l   j            E        occ.
     1  0  0.50    -78401.1885   2.0000
     2  0  0.50    -13770.7750   2.0000
     2  1  1.50    -11931.0468   6.0000
     3  0  0.50     -3234.7234   2.0000
     3  1  1.50     -2699.2216   6.0000
     3  2  2.50     -2119.5714  10.0000
     4  0  0.50      -695.1528   2.0000
     4  1  1.50      -519.6034   6.0000
     4  2  2.50      -306.6786  10.0000
     4  3  3.50       -70.1041  14.0000
     5  0  0.50      -101.7747   2.0000
     5  1  1.50       -55.9873   6.0000
     5  2  2.50        -6.1423   9.0000
     6  0  0.50        -5.6573   1.0000
     6  1  1.50        -6.8029   0.0000
     5  3  2.50        -1.3606   0.0000
   Description
     l       E           TYP  RCUT    TYP  RCUT
     2     -6.1423404     23  2.500
     2     -7.5029230     23  2.500
     0     -5.6573207     23  2.500
     0      0.7416693     23  2.500
     1     -2.7211652     23  2.600
     1     20.4087390     23  2.600
     3     -1.3605826     23  2.500
  local pseudopotential read in
  partial core-charges read in
  partial kinetic energy density read in
  atomic valenz-charges read in
  non local Contribution for L=           2  read in
    real space projection operators read in
  non local Contribution for L=           2  read in
    real space projection operators read in
  non local Contribution for L=           0  read in
    real space projection operators read in
  non local Contribution for L=           0  read in
    real space projection operators read in
  non local Contribution for L=           1  read in
    real space projection operators read in
  non local Contribution for L=           1  read in
    real space projection operators read in
    PAW grid and wavefunctions read in

   number of l-projection  operators is LMAX  =           6
   number of lm-projection operators is LMMAX =          18

 WARNING: PSMAXN for non-local potential too small
          PSMAXN should be >   13.5545592237991       NTYP=           1

 -----------------------------------------------------------------------------
|                                                                             |
|  ADVICE TO THIS USER RUNNING 'VASP/VAMP'   (HEAR YOUR MASTER'S VOICE ...):  |
|                                                                             |
|      You enforced a specific xc-type in the INCAR file,                     |
|      a different type was found on the POTCAR file                          |
|          I HOPE YOU KNOW, WHAT YOU ARE  DOING                               |
|                                                                             |
 -----------------------------------------------------------------------------

  PAW_PBE U 06Sep2000                   :
 energy of atom  1       EATOM=-1405.3058
 kinetic energy error for atom=    0.0006 (will be added to EATOM!!)
  PAW_PBE Bi_d 06Sep2000                :
 energy of atom  2       EATOM=-1959.2045
 kinetic energy error for atom=    0.0012 (will be added to EATOM!!)
  PAW_PBE Pt 04Feb2005                  :
 energy of atom  3       EATOM= -729.1176
 kinetic energy error for atom=    0.0010 (will be added to EATOM!!)


 POSCAR: U1 Bi1 Pt1
  positions in direct lattice
  No initial velocities read in
 exchange correlation table for  LEXCH =       14
   RHO(1)=    0.500       N(1)  =     2000
   RHO(2)=  100.500       N(2)  =     4000



--------------------------------------------------------------------------------------------------------


 ion  position               nearest neighbor table
   1  0.250  0.250  0.250-   3 2.83   3 2.83   3 2.83   3 2.83   2 3.27   2 3.27   2 3.27   2 3.27
                             2 3.27   2 3.27
   2  0.750  0.750  0.750-   3 2.83   3 2.83   3 2.83   3 2.83   1 3.27   1 3.27   1 3.27   1 3.27
                             1 3.27   1 3.27
   3  0.000  0.000  0.000-   2 2.83   2 2.83   2 2.83   1 2.83   2 2.83   1 2.83   1 2.83   1 2.83


  LATTYP: Found a face centered cubic cell.
 ALAT       =     6.5456050340

  Lattice vectors:

 A1 = (   0.0000000000,   3.2728025170,   3.2728025170)
 A2 = (   3.2728025170,   0.0000000000,   3.2728025170)
 A3 = (   3.2728025170,   3.2728025170,   0.0000000000)


Analysis of symmetry for initial positions (statically):
=====================================================================
 Subroutine PRICEL returns:
 Original cell was already a primitive cell.


 Routine SETGRP: Setting up the symmetry group for a
 face centered cubic supercell.


 Subroutine GETGRP returns: Found 24 space group operations
 (whereof 24 operations were pure point group operations)
 out of a pool of 48 trial point group operations.


The static configuration has the point symmetry T_d .


Analysis of symmetry for dynamics (positions and initial velocities):
=====================================================================
 Subroutine PRICEL returns:
 Original cell was already a primitive cell.


 Routine SETGRP: Setting up the symmetry group for a
 face centered cubic supercell.


 Subroutine GETGRP returns: Found 24 space group operations
 (whereof 24 operations were pure point group operations)
 out of a pool of 48 trial point group operations.


The dynamic configuration has the point symmetry T_d .


 Subroutine INISYM returns: Found 24 space group operations
 (whereof 24 operations are pure point group operations),
 and found     1 'primitive' translations


----------------------------------------------------------------------------------------

                                     Primitive cell

  volume of cell :      70.1115

  direct lattice vectors                    reciprocal lattice vectors
     0.000000000  3.272802517  3.272802517    -0.152774265  0.152774265  0.152774265
     3.272802517  0.000000000  3.272802517     0.152774265 -0.152774265  0.152774265
     3.272802517  3.272802517  0.000000000     0.152774265  0.152774265 -0.152774265

  length of vectors
     4.628441707  4.628441707  4.628441707     0.264612790  0.264612790  0.264612790

  position of ions in fractional coordinates (direct lattice)
     0.250000000  0.250000000  0.250000000
     0.750000000  0.750000000  0.750000000
     0.000000000  0.000000000  0.000000000

  ion indices of the primitive-cell ions
   primitive index   ion index
                 1           1
                 2           2
                 3           3

----------------------------------------------------------------------------------------



 KPOINTS: KPOINTS

Automatic generation of k-mesh.
Space group operators:
 irot       det(A)        alpha          n_x          n_y          n_z        tau_x        tau_y        tau_z
    1     1.000000     0.000000     1.000000     0.000000     0.000000     0.000000     0.000000     0.000000
    2     1.000000   120.000000    -0.577350    -0.577350    -0.577350     0.000000     0.000000     0.000000
    3     1.000000   120.000000     0.577350     0.577350     0.577350     0.000000     0.000000     0.000000
    4    -1.000000    90.000000     0.000000     0.000000    -1.000000     0.000000     0.000000     0.000000
    5    -1.000000   180.000000     0.000000     0.707107     0.707107     0.000000     0.000000     0.000000
    6    -1.000000    90.000000     0.000000     1.000000     0.000000     0.000000     0.000000     0.000000
    7     1.000000   180.000000    -0.000000     0.000000    -1.000000     0.000000     0.000000     0.000000
    8     1.000000   120.000000    -0.577350     0.577350     0.577350     0.000000     0.000000     0.000000
    9     1.000000   120.000000    -0.577350     0.577350    -0.577350     0.000000     0.000000     0.000000
   10    -1.000000    90.000000     0.000000     0.000000     1.000000     0.000000     0.000000     0.000000
   11    -1.000000    90.000000    -1.000000    -0.000000    -0.000000     0.000000     0.000000     0.000000
   12    -1.000000   180.000000     0.707107     0.000000     0.707107     0.000000     0.000000     0.000000
   13     1.000000   120.000000     0.577350    -0.577350     0.577350     0.000000     0.000000     0.000000
   14     1.000000   120.000000    -0.577350    -0.577350     0.577350     0.000000     0.000000     0.000000
   15     1.000000   180.000000     1.000000     0.000000     0.000000     0.000000     0.000000     0.000000
   16    -1.000000    90.000000     0.000000    -1.000000     0.000000     0.000000     0.000000     0.000000
   17    -1.000000   180.000000     0.707107     0.707107     0.000000     0.000000     0.000000     0.000000
   18    -1.000000    90.000000     1.000000     0.000000    -0.000000     0.000000     0.000000     0.000000
   19     1.000000   120.000000     0.577350    -0.577350    -0.577350     0.000000     0.000000     0.000000
   20     1.000000   180.000000     0.000000    -1.000000     0.000000     0.000000     0.000000     0.000000
   21     1.000000   120.000000     0.577350     0.577350    -0.577350     0.000000     0.000000     0.000000
   22    -1.000000   180.000000     0.000000    -0.707107     0.707107     0.000000     0.000000     0.000000
   23    -1.000000   180.000000     0.707107    -0.707107    -0.000000     0.000000     0.000000     0.000000
   24    -1.000000   180.000000     0.707107     0.000000    -0.707107     0.000000     0.000000     0.000000

 Subroutine IBZKPT returns following result:
 ===========================================

 Found     84 irreducible k-points:

 Following reciprocal coordinates:
            Coordinates               Weight
  0.000000  0.000000  0.000000      1.000000
  0.076923 -0.000000  0.000000      8.000000
  0.153846 -0.000000  0.000000      8.000000
  0.230769  0.000000 -0.000000      8.000000
  0.307692 -0.000000  0.000000      8.000000
  0.384615  0.000000 -0.000000      8.000000
  0.461538 -0.000000  0.000000      8.000000
  0.076923  0.076923  0.000000      6.000000
  0.153846  0.076923  0.000000     24.000000
  0.230769  0.076923 -0.000000     24.000000
  0.307692  0.076923  0.000000     24.000000
  0.384615  0.076923  0.000000     24.000000
  0.461538  0.076923  0.000000     24.000000
 -0.461538  0.076923 -0.000000     24.000000
 -0.384615  0.076923 -0.000000     24.000000
 -0.307692  0.076923 -0.000000     24.000000
 -0.230769  0.076923  0.000000     24.000000
 -0.153846  0.076923  0.000000     24.000000
 -0.076923  0.076923 -0.000000     12.000000
  0.153846  0.153846  0.000000      6.000000
  0.230769  0.153846 -0.000000     24.000000
  0.307692  0.153846  0.000000     24.000000
  0.384615  0.153846  0.000000     24.000000
  0.461538  0.153846  0.000000     24.000000
 -0.461538  0.153846 -0.000000     24.000000
 -0.384615  0.153846  0.000000     24.000000
 -0.307692  0.153846  0.000000     24.000000
 -0.230769  0.153846 -0.000000     24.000000
 -0.153846  0.153846 -0.000000     12.000000
  0.230769  0.230769  0.000000      6.000000
  0.307692  0.230769  0.000000     24.000000
  0.384615  0.230769 -0.000000     24.000000
  0.461538  0.230769  0.000000     24.000000
 -0.461538  0.230769 -0.000000     24.000000
 -0.384615  0.230769  0.000000     24.000000
 -0.307692  0.230769 -0.000000     24.000000
 -0.230769  0.230769  0.000000     12.000000
  0.307692  0.307692  0.000000      6.000000
  0.384615  0.307692  0.000000     24.000000
  0.461538  0.307692  0.000000     24.000000
 -0.461538  0.307692 -0.000000     24.000000
 -0.384615  0.307692  0.000000     24.000000
 -0.307692  0.307692 -0.000000     12.000000
  0.384615  0.384615  0.000000      6.000000
  0.461538  0.384615  0.000000     24.000000
 -0.461538  0.384615  0.000000     24.000000
 -0.384615  0.384615  0.000000     12.000000
  0.461538  0.461538  0.000000      6.000000
 -0.461538  0.461538 -0.000000     12.000000
  0.230769  0.153846  0.076923     24.000000
  0.307692  0.153846  0.076923     48.000000
  0.384615  0.153846  0.076923     48.000000
  0.461538  0.153846  0.076923     48.000000
 -0.461538  0.153846  0.076923     48.000000
  0.307692  0.230769  0.076923     24.000000
  0.384615  0.230769  0.076923     48.000000
  0.461538  0.230769  0.076923     48.000000
 -0.461538  0.230769  0.076923     48.000000
 -0.384615  0.230769  0.076923     48.000000
 -0.307692  0.230769  0.076923     48.000000
 -0.230769  0.230769  0.076923     48.000000
 -0.153846  0.230769  0.076923     24.000000
  0.384615  0.307692  0.076923     24.000000
  0.461538  0.307692  0.076923     48.000000
 -0.461538  0.307692  0.076923     48.000000
 -0.384615  0.307692  0.076923     48.000000
 -0.307692  0.307692  0.076923     48.000000
 -0.230769  0.307692  0.076923     24.000000
  0.461538  0.384615  0.076923     24.000000
 -0.461538  0.384615  0.076923     48.000000
 -0.384615  0.384615  0.076923     48.000000
 -0.307692  0.384615  0.076923     24.000000
 -0.461538  0.461538  0.076923     24.000000
 -0.384615  0.461538  0.076923     24.000000
  0.461538  0.307692  0.153846     24.000000
 -0.461538  0.307692  0.153846     48.000000
 -0.384615  0.307692  0.153846     48.000000
 -0.461538  0.384615  0.153846     24.000000
 -0.384615  0.384615  0.153846     48.000000
 -0.307692  0.384615  0.153846     48.000000
 -0.230769  0.384615  0.153846     24.000000
 -0.384615  0.461538  0.153846     24.000000
 -0.307692  0.461538  0.153846     24.000000
 -0.307692  0.461538  0.230769     24.000000

 Following cartesian coordinates:
            Coordinates               Weight
  0.000000  0.000000  0.000000      1.000000
 -0.011593  0.011593  0.011593      8.000000
 -0.023186  0.023186  0.023186      8.000000
 -0.034779  0.034779  0.034779      8.000000
 -0.046372  0.046372  0.046372      8.000000
 -0.057965  0.057965  0.057965      8.000000
 -0.069558  0.069558  0.069558      8.000000
  0.000000  0.000000  0.023186      6.000000
 -0.011593  0.011593  0.034779     24.000000
 -0.023186  0.023186  0.046372     24.000000
 -0.034779  0.034779  0.057965     24.000000
 -0.046372  0.046372  0.069558     24.000000
 -0.057965  0.057965  0.081151     24.000000
  0.081151 -0.081151 -0.057965     24.000000
  0.069558 -0.069558 -0.046372     24.000000
  0.057965 -0.057965 -0.034779     24.000000
  0.046372 -0.046372 -0.023186     24.000000
  0.034779 -0.034779 -0.011593     24.000000
  0.023186 -0.023186  0.000000     12.000000
  0.000000  0.000000  0.046372      6.000000
 -0.011593  0.011593  0.057965     24.000000
 -0.023186  0.023186  0.069558     24.000000
 -0.034779  0.034779  0.081151     24.000000
 -0.046372  0.046372  0.092744     24.000000
  0.092744 -0.092744 -0.046372     24.000000
  0.081151 -0.081151 -0.034779     24.000000
  0.069558 -0.069558 -0.023186     24.000000
  0.057965 -0.057965 -0.011593     24.000000
  0.046372 -0.046372  0.000000     12.000000
  0.000000 -0.000000  0.069558      6.000000
 -0.011593  0.011593  0.081151     24.000000
 -0.023186  0.023186  0.092744     24.000000
 -0.034779  0.034779  0.104337     24.000000
  0.104337 -0.104337 -0.034779     24.000000
  0.092744 -0.092744 -0.023186     24.000000
  0.081151 -0.081151 -0.011593     24.000000
  0.069558 -0.069558  0.000000     12.000000
  0.000000  0.000000  0.092744      6.000000
 -0.011593  0.011593  0.104337     24.000000
 -0.023186  0.023186  0.115930     24.000000
  0.115930 -0.115930 -0.023186     24.000000
  0.104337 -0.104337 -0.011593     24.000000
  0.092744 -0.092744  0.000000     12.000000
 -0.000000  0.000000  0.115930      6.000000
 -0.011593  0.011593  0.127523     24.000000
  0.127523 -0.127523 -0.011593     24.000000
  0.115930 -0.115930 -0.000000     12.000000
  0.000000 -0.000000  0.139116      6.000000
  0.139116 -0.139116  0.000000     12.000000
  0.000000  0.023186  0.046372     24.000000
 -0.011593  0.034779  0.057965     48.000000
 -0.023186  0.046372  0.069558     48.000000
 -0.034779  0.057965  0.081151     48.000000
  0.104337 -0.081151 -0.057965     48.000000
  0.000000  0.023186  0.069558     24.000000
 -0.011593  0.034779  0.081151     48.000000
 -0.023186  0.046372  0.092744     48.000000
  0.115930 -0.092744 -0.046372     48.000000
  0.104337 -0.081151 -0.034779     48.000000
  0.092744 -0.069558 -0.023186     48.000000
  0.081151 -0.057965 -0.011593     48.000000
  0.069558 -0.046372 -0.000000     24.000000
  0.000000  0.023186  0.092744     24.000000
 -0.011593  0.034779  0.104337     48.000000
  0.127523 -0.104337 -0.034779     48.000000
  0.115930 -0.092744 -0.023186     48.000000
  0.104337 -0.081151 -0.011593     48.000000
  0.092744 -0.069558 -0.000000     24.000000
  0.000000  0.023186  0.115930     24.000000
  0.139116 -0.115930 -0.023186     48.000000
  0.127523 -0.104337 -0.011593     48.000000
  0.115930 -0.092744 -0.000000     24.000000
  0.150709 -0.127523 -0.011593     24.000000
  0.139116 -0.115930 -0.000000     24.000000
  0.000000  0.046372  0.092744     24.000000
  0.139116 -0.092744 -0.046372     48.000000
  0.127523 -0.081151 -0.034779     48.000000
  0.150709 -0.104337 -0.034779     24.000000
  0.139116 -0.092744 -0.023186     48.000000
  0.127523 -0.081151 -0.011593     48.000000
  0.115930 -0.069558  0.000000     24.000000
  0.150709 -0.104337 -0.011593     24.000000
  0.139116 -0.092744  0.000000     24.000000
  0.150709 -0.081151 -0.011593     24.000000



--------------------------------------------------------------------------------------------------------




 Dimension of arrays:
   k-points           NKPTS =     84   k-points in BZ     NKDIM =     84   number of bands    NBANDS=     24
   number of dos      NEDOS =    301   number of ions     NIONS =      3
   non local maximal  LDIM  =      8   non local SUM 2l+1 LMDIM =     32
   total plane-waves  NPLWV =  64000
   max r-space proj   IRMAX =      1   max aug-charges    IRDMAX= 445549
   dimension x,y,z NGX =    40 NGY =   40 NGZ =   40
   dimension x,y,z NGXF=    80 NGYF=   80 NGZF=   80
   support grid    NGXF=   160 NGYF=  160 NGZF=  160
   ions per type =               1   1   1
   NGX,Y,Z   is equivalent  to a cutoff of  14.37, 14.37, 14.37 a.u.
   NGXF,Y,Z  is equivalent  to a cutoff of  28.73, 28.73, 28.73 a.u.

 SYSTEM =  unknown system
 POSCAR =  U1 Bi1 Pt1

 Startparameter for this run:
   NWRITE =      2    write-flag & timer
   PREC   = acc       normal or accurate (medium, high low for compatibility)
   ISTART =      0    job   : 0-new  1-cont  2-samecut
   ICHARG =      2    charge: 1-file 2-atom 10-const
   ISPIN  =      1    spin polarized calculation?
   LNONCOLLINEAR =      F non collinear calculations
   LSORBIT =      F    spin-orbit coupling
   INIWAV =      1    electr: 0-lowe 1-rand  2-diag
   LASPH  =      F    aspherical Exc in radial PAW
   METAGGA=      F    non-selfconsistent MetaGGA calc.

 Electronic Relaxation 1
   ENCUT  =  700.0 eV  51.45 Ry    7.17 a.u.   9.98  9.98  9.98*2*pi/ulx,y,z
   ENINI  =  700.0     initial cutoff
   ENAUG  =  526.4 eV  augmentation charge cutoff
   NELM   =     60;   NELMIN=  5; NELMDL= -5     # of ELM steps
   EDIFF  = 0.1E-06   stopping-criterion for ELM
   LREAL  =      F    real-space projection
   NLSPLINE    = F    spline interpolate recip. space projectors
   LCOMPAT=      F    compatible to vasp.4.4
   GGA_COMPAT  = T    GGA compatible to vasp.4.4-vasp.4.6
   LMAXPAW     = -100 max onsite density
   LMAXMIX     =    2 max onsite mixed and CHGCAR
   VOSKOWN=      0    Vosko Wilk Nusair interpolation
   ROPT   =    0.00000   0.00000   0.00000
 Ionic relaxation
   EDIFFG = 0.1E-05   stopping-criterion for IOM
   NSW    =      0    number of steps for IOM
   NBLOCK =      1;   KBLOCK =      1    inner block; outer block
   IBRION =     -1    ionic relax: 0-MD 1-quasi-New 2-CG
   NFREE  =      0    steps in history (QN), initial steepest desc. (CG)
   ISIF   =      3    stress and relaxation
   IWAVPR =     10    prediction:  0-non 1-charg 2-wave 3-comb
   ISYM   =      2    0-nonsym 1-usesym 2-fastsym
   LCORR  =      T    Harris-Foulkes like correction to forces

   POTIM  = 0.5000    time-step for ionic-motion
   TEIN   =    0.0    initial temperature
   TEBEG  =    0.0;   TEEND  =   0.0 temperature during run
   SMASS  =  -3.00    Nose mass-parameter (am)
   estimated Nose-frequenzy (Omega)   =  0.10E-29 period in steps = 0.13E+47 mass=  -0.490E-27a.u.
   SCALEE = 1.0000    scale energy and forces
   NPACO  =    256;   APACO  = 16.0  distance and # of slots for P.C.
   PSTRESS=    0.0 pullay stress

  Mass of Ions in am
   POMASS = 238.03208.98195.08
  Ionic Valenz
   ZVAL   =  14.00 15.00 10.00
  Atomic Wigner-Seitz radii
   RWIGS  =  -1.00 -1.00 -1.00
  virtual crystal weights
   VCA    =   1.00  1.00  1.00
   NELECT =      39.0000    total number of electrons
   NUPDOWN=      -1.0000    fix difference up-down

 DOS related values:
   EMIN   =  10.00;   EMAX   =-10.00  energy-range for DOS
   EFERMI =   0.00
   ISMEAR =     0;   SIGMA  =   0.01  broadening in eV -4-tet -1-fermi 0-gaus

 Electronic relaxation 2 (details)
   IALGO  =     38    algorithm
   LDIAG  =      T    sub-space diagonalisation (order eigenvalues)
   LSUBROT=      F    optimize rotation matrix (better conditioning)
   TURBO    =      0    0=normal 1=particle mesh
   IRESTART =      0    0=no restart 2=restart with 2 vectors
   NREBOOT  =      0    no. of reboots
   NMIN     =      0    reboot dimension
   EREF     =   0.00    reference energy to select bands
   IMIX   =      4    mixing-type and parameters
     AMIX     =   0.40;   BMIX     =  1.00
     AMIX_MAG =   1.60;   BMIX_MAG =  1.00
     AMIN     =   0.10
     WC   =   100.;   INIMIX=   1;  MIXPRE=   1;  MAXMIX= -45

 Intra band minimization:
   WEIMIN = 0.0000     energy-eigenvalue tresh-hold
   EBREAK =  0.10E-08  absolut break condition
   DEPER  =   0.30     relativ break condition

   TIME   =   0.40     timestep for ELM

  volume/ion in A,a.u.               =      23.37       157.71
  Fermi-wavevector in a.u.,A,eV,Ry     =   1.346377  2.544283 24.663690  1.812730
  Thomas-Fermi vector in A             =   2.474214

 Write flags
   LWAVE        =      F    write WAVECAR
   LDOWNSAMPLE  =      F    k-point downsampling of WAVECAR
   LCHARG       =      F    write CHGCAR
   LVTOT        =      F    write LOCPOT, total local potential
   LVHAR        =      F    write LOCPOT, Hartree potential only
   LELF         =      F    write electronic localiz. function (ELF)
   LORBIT       =      0    0 simple, 1 ext, 2 COOP (PROOUT), +10 PAW based schemes


 Dipole corrections
   LMONO  =      F    monopole corrections only (constant potential shift)
   LDIPOL =      F    correct potential (dipole corrections)
   IDIPOL =      0    1-x, 2-y, 3-z, 4-all directions
   EPSILON=  1.0000000 bulk dielectric constant

 Exchange correlation treatment:
   GGA     =    PS    GGA type
   LEXCH   =    14    internal setting for exchange type
   VOSKOWN=      0    Vosko Wilk Nusair interpolation
   LHFCALC =     F    Hartree Fock is set to
   LHFONE  =     F    Hartree Fock one center treatment
   AEXX    =    0.0000 exact exchange contribution

 Linear response parameters
   LEPSILON=     F    determine dielectric tensor
   LRPA    =     F    only Hartree local field effects (RPA)
   LNABLA  =     F    use nabla operator in PAW spheres
   LVEL    =     F    velocity operator in full k-point grid
   LINTERFAST=   F  fast interpolation
   KINTER  =     0    interpolate to denser k-point grid
   CSHIFT  =0.1000    complex shift for real part using Kramers Kronig
   OMEGAMAX=  -1.0    maximum frequency
   DEG_THRESHOLD= 0.2000000E-02 threshold for treating states as degnerate
   RTIME   =   -0.100 relaxation time in fs
  (WPLASMAI=    0.000 imaginary part of plasma frequency in eV, 0.658/RTIME)
   DFIELD  = 0.0000000 0.0000000 0.0000000 field for delta impulse in time

 Orbital magnetization related:
   ORBITALMAG=     F  switch on orbital magnetization
   LCHIMAG   =     F  perturbation theory with respect to B field
   DQ        =  0.001000  dq finite difference perturbation B field
   LLRAUG    =     F  two centre corrections for induced B field



--------------------------------------------------------------------------------------------------------


 Static calculation
 charge density and potential will be updated during run
 non-spin polarized calculation
 Variant of blocked Davidson
 Davidson routine will perform the subspace rotation
 perform sub-space diagonalisation
    after iterative eigenvector-optimisation
 modified Broyden-mixing scheme, WC =      100.0
 initial mixing is a Kerker type mixing with AMIX =  0.4000 and BMIX =      1.0000
 Hartree-type preconditioning will be used
 using additional bands            4
 reciprocal scheme for non local part
 use partial core corrections
 calculate Harris-corrections to forces
   (improved forces if not selfconsistent)
 use gradient corrections
 use of overlap-Matrix (Vanderbilt PP)
 Gauss-broadening in eV      SIGMA  =   0.01


--------------------------------------------------------------------------------------------------------


  energy-cutoff  :      700.00
  volume of cell :       70.11
      direct lattice vectors                 reciprocal lattice vectors
     0.000000000  3.272802517  3.272802517    -0.152774265  0.152774265  0.152774265
     3.272802517  0.000000000  3.272802517     0.152774265 -0.152774265  0.152774265
     3.272802517  3.272802517  0.000000000     0.152774265  0.152774265 -0.152774265

  length of vectors
     4.628441707  4.628441707  4.628441707     0.264612790  0.264612790  0.264612790



 k-points in units of 2pi/SCALE and weight: KPOINTS
   0.00000000  0.00000000  0.00000000       0.000
  -0.01159304  0.01159304  0.01159304       0.004
  -0.02318608  0.02318608  0.02318608       0.004
  -0.03477911  0.03477911  0.03477911       0.004
  -0.04637215  0.04637215  0.04637215       0.004
  -0.05796519  0.05796519  0.05796519       0.004
  -0.06955823  0.06955823  0.06955823       0.004
   0.00000000  0.00000000  0.02318608       0.003
  -0.01159304  0.01159304  0.03477911       0.011
  -0.02318608  0.02318608  0.04637215       0.011
  -0.03477911  0.03477911  0.05796519       0.011
  -0.04637215  0.04637215  0.06955823       0.011
  -0.05796519  0.05796519  0.08115127       0.011
   0.08115127 -0.08115127 -0.05796519       0.011
   0.06955823 -0.06955823 -0.04637215       0.011
   0.05796519 -0.05796519 -0.03477911       0.011
   0.04637215 -0.04637215 -0.02318608       0.011
   0.03477911 -0.03477911 -0.01159304       0.011
   0.02318608 -0.02318608  0.00000000       0.005
   0.00000000  0.00000000  0.04637215       0.003
  -0.01159304  0.01159304  0.05796519       0.011
  -0.02318608  0.02318608  0.06955823       0.011
  -0.03477911  0.03477911  0.08115127       0.011
  -0.04637215  0.04637215  0.09274430       0.011
   0.09274430 -0.09274430 -0.04637215       0.011
   0.08115127 -0.08115127 -0.03477911       0.011
   0.06955823 -0.06955823 -0.02318608       0.011
   0.05796519 -0.05796519 -0.01159304       0.011
   0.04637215 -0.04637215  0.00000000       0.005
   0.00000000 -0.00000000  0.06955823       0.003
  -0.01159304  0.01159304  0.08115127       0.011
  -0.02318608  0.02318608  0.09274430       0.011
  -0.03477911  0.03477911  0.10433734       0.011
   0.10433734 -0.10433734 -0.03477911       0.011
   0.09274430 -0.09274430 -0.02318608       0.011
   0.08115127 -0.08115127 -0.01159304       0.011
   0.06955823 -0.06955823  0.00000000       0.005
   0.00000000  0.00000000  0.09274430       0.003
  -0.01159304  0.01159304  0.10433734       0.011
  -0.02318608  0.02318608  0.11593038       0.011
   0.11593038 -0.11593038 -0.02318608       0.011
   0.10433734 -0.10433734 -0.01159304       0.011
   0.09274430 -0.09274430  0.00000000       0.005
  -0.00000000  0.00000000  0.11593038       0.003
  -0.01159304  0.01159304  0.12752342       0.011
   0.12752342 -0.12752342 -0.01159304       0.011
   0.11593038 -0.11593038 -0.00000000       0.005
   0.00000000 -0.00000000  0.13911646       0.003
   0.13911646 -0.13911646  0.00000000       0.005
   0.00000000  0.02318608  0.04637215       0.011
  -0.01159304  0.03477911  0.05796519       0.022
  -0.02318608  0.04637215  0.06955823       0.022
  -0.03477911  0.05796519  0.08115127       0.022
   0.10433734 -0.08115127 -0.05796519       0.022
   0.00000000  0.02318608  0.06955823       0.011
  -0.01159304  0.03477911  0.08115127       0.022
  -0.02318608  0.04637215  0.09274430       0.022
   0.11593038 -0.09274430 -0.04637215       0.022
   0.10433734 -0.08115127 -0.03477911       0.022
   0.09274430 -0.06955823 -0.02318608       0.022
   0.08115127 -0.05796519 -0.01159304       0.022
   0.06955823 -0.04637215 -0.00000000       0.011
   0.00000000  0.02318608  0.09274430       0.011
  -0.01159304  0.03477911  0.10433734       0.022
   0.12752342 -0.10433734 -0.03477911       0.022
   0.11593038 -0.09274430 -0.02318608       0.022
   0.10433734 -0.08115127 -0.01159304       0.022
   0.09274430 -0.06955823 -0.00000000       0.011
   0.00000000  0.02318608  0.11593038       0.011
   0.13911646 -0.11593038 -0.02318608       0.022
   0.12752342 -0.10433734 -0.01159304       0.022
   0.11593038 -0.09274430 -0.00000000       0.011
   0.15070950 -0.12752342 -0.01159304       0.011
   0.13911646 -0.11593038 -0.00000000       0.011
   0.00000000  0.04637215  0.09274430       0.011
   0.13911646 -0.09274430 -0.04637215       0.022
   0.12752342 -0.08115127 -0.03477911       0.022
   0.15070950 -0.10433734 -0.03477911       0.011
   0.13911646 -0.09274430 -0.02318608       0.022
   0.12752342 -0.08115127 -0.01159304       0.022
   0.11593038 -0.06955823  0.00000000       0.011
   0.15070950 -0.10433734 -0.01159304       0.011
   0.13911646 -0.09274430  0.00000000       0.011
   0.15070950 -0.08115127 -0.01159304       0.011

 k-points in reciprocal lattice and weights: KPOINTS
   0.00000000  0.00000000  0.00000000       0.000
   0.07692308 -0.00000000  0.00000000       0.004
   0.15384615 -0.00000000  0.00000000       0.004
   0.23076923  0.00000000 -0.00000000       0.004
   0.30769231 -0.00000000  0.00000000       0.004
   0.38461538  0.00000000 -0.00000000       0.004
   0.46153846 -0.00000000  0.00000000       0.004
   0.07692308  0.07692308  0.00000000       0.003
   0.15384615  0.07692308  0.00000000       0.011
   0.23076923  0.07692308 -0.00000000       0.011
   0.30769231  0.07692308  0.00000000       0.011
   0.38461538  0.07692308  0.00000000       0.011
   0.46153846  0.07692308  0.00000000       0.011
  -0.46153846  0.07692308 -0.00000000       0.011
  -0.38461538  0.07692308 -0.00000000       0.011
  -0.30769231  0.07692308 -0.00000000       0.011
  -0.23076923  0.07692308  0.00000000       0.011
  -0.15384615  0.07692308  0.00000000       0.011
  -0.07692308  0.07692308 -0.00000000       0.005
   0.15384615  0.15384615  0.00000000       0.003
   0.23076923  0.15384615 -0.00000000       0.011
   0.30769231  0.15384615  0.00000000       0.011
   0.38461538  0.15384615  0.00000000       0.011
   0.46153846  0.15384615  0.00000000       0.011
  -0.46153846  0.15384615 -0.00000000       0.011
  -0.38461538  0.15384615  0.00000000       0.011
  -0.30769231  0.15384615  0.00000000       0.011
  -0.23076923  0.15384615 -0.00000000       0.011
  -0.15384615  0.15384615 -0.00000000       0.005
   0.23076923  0.23076923  0.00000000       0.003
   0.30769231  0.23076923  0.00000000       0.011
   0.38461538  0.23076923 -0.00000000       0.011
   0.46153846  0.23076923  0.00000000       0.011
  -0.46153846  0.23076923 -0.00000000       0.011
  -0.38461538  0.23076923  0.00000000       0.011
  -0.30769231  0.23076923 -0.00000000       0.011
  -0.23076923  0.23076923  0.00000000       0.005
   0.30769231  0.30769231  0.00000000       0.003
   0.38461538  0.30769231  0.00000000       0.011
   0.46153846  0.30769231  0.00000000       0.011
  -0.46153846  0.30769231 -0.00000000       0.011
  -0.38461538  0.30769231  0.00000000       0.011
  -0.30769231  0.30769231 -0.00000000       0.005
   0.38461538  0.38461538  0.00000000       0.003
   0.46153846  0.38461538  0.00000000       0.011
  -0.46153846  0.38461538  0.00000000       0.011
  -0.38461538  0.38461538  0.00000000       0.005
   0.46153846  0.46153846  0.00000000       0.003
  -0.46153846  0.46153846 -0.00000000       0.005
   0.23076923  0.15384615  0.07692308       0.011
   0.30769231  0.15384615  0.07692308       0.022
   0.38461538  0.15384615  0.07692308       0.022
   0.46153846  0.15384615  0.07692308       0.022
  -0.46153846  0.15384615  0.07692308       0.022
   0.30769231  0.23076923  0.07692308       0.011
   0.38461538  0.23076923  0.07692308       0.022
   0.46153846  0.23076923  0.07692308       0.022
  -0.46153846  0.23076923  0.07692308       0.022
  -0.38461538  0.23076923  0.07692308       0.022
  -0.30769231  0.23076923  0.07692308       0.022
  -0.23076923  0.23076923  0.07692308       0.022
  -0.15384615  0.23076923  0.07692308       0.011
   0.38461538  0.30769231  0.07692308       0.011
   0.46153846  0.30769231  0.07692308       0.022
  -0.46153846  0.30769231  0.07692308       0.022
  -0.38461538  0.30769231  0.07692308       0.022
  -0.30769231  0.30769231  0.07692308       0.022
  -0.23076923  0.30769231  0.07692308       0.011
   0.46153846  0.38461538  0.07692308       0.011
  -0.46153846  0.38461538  0.07692308       0.022
  -0.38461538  0.38461538  0.07692308       0.022
  -0.30769231  0.38461538  0.07692308       0.011
  -0.46153846  0.46153846  0.07692308       0.011
  -0.38461538  0.46153846  0.07692308       0.011
   0.46153846  0.30769231  0.15384615       0.011
  -0.46153846  0.30769231  0.15384615       0.022
  -0.38461538  0.30769231  0.15384615       0.022
  -0.46153846  0.38461538  0.15384615       0.011
  -0.38461538  0.38461538  0.15384615       0.022
  -0.30769231  0.38461538  0.15384615       0.022
  -0.23076923  0.38461538  0.15384615       0.011
  -0.38461538  0.46153846  0.15384615       0.011
  -0.30769231  0.46153846  0.15384615       0.011
  -0.30769231  0.46153846  0.23076923       0.011

 position of ions in fractional coordinates (direct lattice)
   0.25000000  0.25000000  0.25000000
   0.75000000  0.75000000  0.75000000
   0.00000000  0.00000000  0.00000000

 position of ions in cartesian coordinates  (Angst):
   1.63640126  1.63640126  1.63640126
   4.90920378  4.90920378  4.90920378
   0.00000000  0.00000000  0.00000000



--------------------------------------------------------------------------------------------------------


 k-point  1 :   0.0000 0.0000 0.0000  plane waves:    2891
 k-point  2 :   0.0769-0.0000 0.0000  plane waves:    2918
 k-point  3 :   0.1538-0.0000 0.0000  plane waves:    2929
 k-point  4 :   0.2308 0.0000-0.0000  plane waves:    2935
 k-point  5 :   0.3077-0.0000 0.0000  plane waves:    2932
 k-point  6 :   0.3846 0.0000-0.0000  plane waves:    2947
 k-point  7 :   0.4615-0.0000 0.0000  plane waves:    2938
 k-point  8 :   0.0769 0.0769 0.0000  plane waves:    2922
 k-point  9 :   0.1538 0.0769 0.0000  plane waves:    2927
 k-point 10 :   0.2308 0.0769-0.0000  plane waves:    2926
 k-point 11 :   0.3077 0.0769 0.0000  plane waves:    2935
 k-point 12 :   0.3846 0.0769 0.0000  plane waves:    2942
 k-point 13 :   0.4615 0.0769 0.0000  plane waves:    2938
 k-point 14 :  -0.4615 0.0769-0.0000  plane waves:    2946
 k-point 15 :  -0.3846 0.0769-0.0000  plane waves:    2947
 k-point 16 :  -0.3077 0.0769-0.0000  plane waves:    2943
 k-point 17 :  -0.2308 0.0769 0.0000  plane waves:    2932
 k-point 18 :  -0.1538 0.0769 0.0000  plane waves:    2931
 k-point 19 :  -0.0769 0.0769-0.0000  plane waves:    2920
 k-point 20 :   0.1538 0.1538 0.0000  plane waves:    2922
 k-point 21 :   0.2308 0.1538-0.0000  plane waves:    2926
 k-point 22 :   0.3077 0.1538 0.0000  plane waves:    2943
 k-point 23 :   0.3846 0.1538 0.0000  plane waves:    2960
 k-point 24 :   0.4615 0.1538 0.0000  plane waves:    2956
 k-point 25 :  -0.4615 0.1538-0.0000  plane waves:    2948
 k-point 26 :  -0.3846 0.1538 0.0000  plane waves:    2948
 k-point 27 :  -0.3077 0.1538 0.0000  plane waves:    2942
 k-point 28 :  -0.2308 0.1538-0.0000  plane waves:    2937
 k-point 29 :  -0.1538 0.1538-0.0000  plane waves:    2944
 k-point 30 :   0.2308 0.2308 0.0000  plane waves:    2910
 k-point 31 :   0.3077 0.2308 0.0000  plane waves:    2933
 k-point 32 :   0.3846 0.2308-0.0000  plane waves:    2943
 k-point 33 :   0.4615 0.2308 0.0000  plane waves:    2955
 k-point 34 :  -0.4615 0.2308-0.0000  plane waves:    2962
 k-point 35 :  -0.3846 0.2308 0.0000  plane waves:    2959
 k-point 36 :  -0.3077 0.2308-0.0000  plane waves:    2953
 k-point 37 :  -0.2308 0.2308 0.0000  plane waves:    2944
 k-point 38 :   0.3077 0.3077 0.0000  plane waves:    2934
 k-point 39 :   0.3846 0.3077 0.0000  plane waves:    2948
 k-point 40 :   0.4615 0.3077 0.0000  plane waves:    2945
 k-point 41 :  -0.4615 0.3077-0.0000  plane waves:    2941
 k-point 42 :  -0.3846 0.3077 0.0000  plane waves:    2948
 k-point 43 :  -0.3077 0.3077-0.0000  plane waves:    2950
 k-point 44 :   0.3846 0.3846 0.0000  plane waves:    2938
 k-point 45 :   0.4615 0.3846 0.0000  plane waves:    2954
 k-point 46 :  -0.4615 0.3846 0.0000  plane waves:    2939
 k-point 47 :  -0.3846 0.3846 0.0000  plane waves:    2950
 k-point 48 :   0.4615 0.4615 0.0000  plane waves:    2958
 k-point 49 :  -0.4615 0.4615-0.0000  plane waves:    2962
 k-point 50 :   0.2308 0.1538 0.0769  plane waves:    2924
 k-point 51 :   0.3077 0.1538 0.0769  plane waves:    2931
 k-point 52 :   0.3846 0.1538 0.0769  plane waves:    2937
 k-point 53 :   0.4615 0.1538 0.0769  plane waves:    2954
 k-point 54 :  -0.4615 0.1538 0.0769  plane waves:    2949
 k-point 55 :   0.3077 0.2308 0.0769  plane waves:    2934
 k-point 56 :   0.3846 0.2308 0.0769  plane waves:    2947
 k-point 57 :   0.4615 0.2308 0.0769  plane waves:    2962
 k-point 58 :  -0.4615 0.2308 0.0769  plane waves:    2953
 k-point 59 :  -0.3846 0.2308 0.0769  plane waves:    2950
 k-point 60 :  -0.3077 0.2308 0.0769  plane waves:    2966
 k-point 61 :  -0.2308 0.2308 0.0769  plane waves:    2948
 k-point 62 :  -0.1538 0.2308 0.0769  plane waves:    2950
 k-point 63 :   0.3846 0.3077 0.0769  plane waves:    2940
 k-point 64 :   0.4615 0.3077 0.0769  plane waves:    2963
 k-point 65 :  -0.4615 0.3077 0.0769  plane waves:    2948
 k-point 66 :  -0.3846 0.3077 0.0769  plane waves:    2957
 k-point 67 :  -0.3077 0.3077 0.0769  plane waves:    2956
 k-point 68 :  -0.2308 0.3077 0.0769  plane waves:    2951
 k-point 69 :   0.4615 0.3846 0.0769  plane waves:    2953
 k-point 70 :  -0.4615 0.3846 0.0769  plane waves:    2948
 k-point 71 :  -0.3846 0.3846 0.0769  plane waves:    2948
 k-point 72 :  -0.3077 0.3846 0.0769  plane waves:    2956
 k-point 73 :  -0.4615 0.4615 0.0769  plane waves:    2950
 k-point 74 :  -0.3846 0.4615 0.0769  plane waves:    2948
 k-point 75 :   0.4615 0.3077 0.1538  plane waves:    2967
 k-point 76 :  -0.4615 0.3077 0.1538  plane waves:    2953
 k-point 77 :  -0.3846 0.3077 0.1538  plane waves:    2954
 k-point 78 :  -0.4615 0.3846 0.1538  plane waves:    2956
 k-point 79 :  -0.3846 0.3846 0.1538  plane waves:    2949
 k-point 80 :  -0.3077 0.3846 0.1538  plane waves:    2970
 k-point 81 :  -0.2308 0.3846 0.1538  plane waves:    2967
 k-point 82 :  -0.3846 0.4615 0.1538  plane waves:    2942
 k-point 83 :  -0.3077 0.4615 0.1538  plane waves:    2971
 k-point 84 :  -0.3077 0.4615 0.2308  plane waves:    2963

 maximum and minimum number of plane-waves per node :       750      715

 maximum number of plane-waves:      2971
 maximum index in each direction:
   IXMAX=   10   IYMAX=    9   IZMAX=    9
   IXMIN=  -10   IYMIN=  -10   IZMIN=  -10


 parallel 3D FFT for wavefunctions:
    minimum data exchange during FFTs selected (reduces bandwidth)
 parallel 3D FFT for charge:
    minimum data exchange during FFTs selected (reduces bandwidth)


 total amount of memory used by VASP MPI-rank0    92857. kBytes
=======================================================================

   base      :      30000. kBytes
   nonl-proj :      48549. kBytes
   fftplans  :       5205. kBytes
   grid      :       2732. kBytes
   one-center:         49. kBytes
   wavefun   :       6322. kBytes

     INWAV:  cpu time    0.0003: real time    0.0006
 Broyden mixing: mesh for mixing (old mesh)
   NGX = 19   NGY = 19   NGZ = 19
  (NGX  = 80   NGY  = 80   NGZ  = 80)
  gives a total of   6859 points

 initial charge density was supplied:
 charge density of overlapping atoms calculated
 number of electron      39.0000000 magnetization
 keeping initial charge density in first step


--------------------------------------------------------------------------------------------------------


 Maximum index for augmentation-charges        27158 (set IRDMAX)


--------------------------------------------------------------------------------------------------------


 First call to EWALD:  gamma=   0.430
 Maximum number of real-space cells 3x 3x 3
 Maximum number of reciprocal cells 3x 3x 3

    FEWALD:  cpu time    0.0057: real time    0.0065


--------------------------------------- Iteration      1(   1)  ---------------------------------------


    POTLOK:  cpu time    0.0446: real time    0.1447
    SETDIJ:  cpu time    0.0827: real time    0.0832
     EDDAV:  cpu time    1.4241: real time    1.4449
       DOS:  cpu time    0.0047: real time    0.0053
    --------------------------------------------
      LOOP:  cpu time    1.5565: real time    1.6786

 eigenvalue-minimisations  :  4032
 total energy-change (2. order) : 0.4326157E+03  (-0.2255781E+04)
 number of electron      39.0000000 magnetization
 augmentation part       39.0000000 magnetization

 Free energy of the ion-electron system (eV)
  ---------------------------------------------------
  alpha Z        PSCENC =       224.28245953
  Ewald energy   TEWEN  =     -3642.53867378
  -Hartree energ DENC   =      -763.34153310
  -exchange      EXHF   =         0.00000000
  -V(xc)+E(xc)   XCENC  =        90.85171631
  PAW double counting   =      3513.29252893    -3436.88002192
  entropy T*S    EENTRO =        -0.00006428
  eigenvalues    EBANDS =       351.59720863
  atomic energy  EATOM  =      4095.35208632
  Solvation  Ediel_sol  =         0.00000000
  ---------------------------------------------------
  free energy    TOTEN  =       432.61570664 eV

  energy without entropy =      432.61577093  energy(sigma->0) =      432.61573878


--------------------------------------------------------------------------------------------------------




--------------------------------------- Iteration      1(   2)  ---------------------------------------


     EDDAV:  cpu time    1.4995: real time    1.5244
       DOS:  cpu time    0.0031: real time    0.0033
    --------------------------------------------
      LOOP:  cpu time    1.5026: real time    1.5287

 eigenvalue-minimisations  :  4352
 total energy-change (2. order) :-0.4021026E+03  (-0.3940755E+03)
 number of electron      39.0000000 magnetization
 augmentation part       39.0000000 magnetization

 Free energy of the ion-electron system (eV)
  ---------------------------------------------------
  alpha Z        PSCENC =       224.28245953
  Ewald energy   TEWEN  =     -3642.53867378
  -Hartree energ DENC   =      -763.34153310
  -exchange      EXHF   =         0.00000000
  -V(xc)+E(xc)   XCENC  =        90.85171631
  PAW double counting   =      3513.29252893    -3436.88002192
  entropy T*S    EENTRO =        -0.00040792
  eigenvalues    EBANDS =       -50.50508444
  atomic energy  EATOM  =      4095.35208632
  Solvation  Ediel_sol  =         0.00000000
  ---------------------------------------------------
  free energy    TOTEN  =        30.51306993 eV

  energy without entropy =       30.51347785  energy(sigma->0) =       30.51327389


--------------------------------------------------------------------------------------------------------




--------------------------------------- Iteration      1(   3)  ---------------------------------------


     EDDAV:  cpu time    1.7191: real time    1.7399
       DOS:  cpu time    0.0032: real time    0.0034
    --------------------------------------------
      LOOP:  cpu time    1.7223: real time    1.7432

 eigenvalue-minimisations  :  5088
 total energy-change (2. order) :-0.5130011E+02  (-0.5023056E+02)
 number of electron      39.0000000 magnetization
 augmentation part       39.0000000 magnetization

 Free energy of the ion-electron system (eV)
  ---------------------------------------------------
  alpha Z        PSCENC =       224.28245953
  Ewald energy   TEWEN  =     -3642.53867378
  -Hartree energ DENC   =      -763.34153310
  -exchange      EXHF   =         0.00000000
  -V(xc)+E(xc)   XCENC  =        90.85171631
  PAW double counting   =      3513.29252893    -3436.88002192
  entropy T*S    EENTRO =        -0.00084627
  eigenvalues    EBANDS =      -101.80476030
  atomic energy  EATOM  =      4095.35208632
  Solvation  Ediel_sol  =         0.00000000
  ---------------------------------------------------
  free energy    TOTEN  =       -20.78704428 eV

  energy without entropy =      -20.78619800  energy(sigma->0) =      -20.78662114


--------------------------------------------------------------------------------------------------------




--------------------------------------- Iteration      1(   4)  ---------------------------------------


     EDDAV:  cpu time    2.2505: real time    2.2744
       DOS:  cpu time    0.0032: real time    0.0041
    --------------------------------------------
      LOOP:  cpu time    2.2537: real time    2.2784

 eigenvalue-minimisations  :  7384
 total energy-change (2. order) :-0.5145783E+01  (-0.5127229E+01)
 number of electron      39.0000000 magnetization
 augmentation part       39.0000000 magnetization

 Free energy of the ion-electron system (eV)
  ---------------------------------------------------
  alpha Z        PSCENC =       224.28245953
  Ewald energy   TEWEN  =     -3642.53867378
  -Hartree energ DENC   =      -763.34153310
  -exchange      EXHF   =         0.00000000
  -V(xc)+E(xc)   XCENC  =        90.85171631
  PAW double counting   =      3513.29252893    -3436.88002192
  entropy T*S    EENTRO =        -0.00077226
  eigenvalues    EBANDS =      -106.95061720
  atomic energy  EATOM  =      4095.35208632
  Solvation  Ediel_sol  =         0.00000000
  ---------------------------------------------------
  free energy    TOTEN  =       -25.93282717 eV

  energy without entropy =      -25.93205491  energy(sigma->0) =      -25.93244104


--------------------------------------------------------------------------------------------------------




--------------------------------------- Iteration      1(   5)  ---------------------------------------


     EDDAV:  cpu time    1.8018: real time    1.8248
       DOS:  cpu time    0.0031: real time    0.0033
    CHARGE:  cpu time    0.3371: real time    0.3381
    MIXING:  cpu time    0.0048: real time    0.0053
    --------------------------------------------
      LOOP:  cpu time    2.1468: real time    2.1738

 eigenvalue-minimisations  :  5560
 total energy-change (2. order) :-0.1687459E+00  (-0.1686450E+00)
 number of electron      39.0000000 magnetization
 augmentation part        8.7583240 magnetization

 Broyden mixing:
  rms(total) = 0.15193E+01    rms(broyden)= 0.15193E+01
  rms(prec ) = 0.43661E+01
  weight for this iteration     100.00

 Free energy of the ion-electron system (eV)
  ---------------------------------------------------
  alpha Z        PSCENC =       224.28245953
  Ewald energy   TEWEN  =     -3642.53867378
  -Hartree energ DENC   =      -763.34153310
  -exchange      EXHF   =         0.00000000
  -V(xc)+E(xc)   XCENC  =        90.85171631
  PAW double counting   =      3513.29252893    -3436.88002192
  entropy T*S    EENTRO =        -0.00082176
  eigenvalues    EBANDS =      -107.11931363
  atomic energy  EATOM  =      4095.35208632
  Solvation  Ediel_sol  =         0.00000000
  ---------------------------------------------------
  free energy    TOTEN  =       -26.10157310 eV

  energy without entropy =      -26.10075134  energy(sigma->0) =      -26.10116222


--------------------------------------------------------------------------------------------------------




--------------------------------------- Iteration      1(   6)  ---------------------------------------


    POTLOK:  cpu time    0.0320: real time    0.0604
    SETDIJ:  cpu time    0.0861: real time    0.0862
     EDDAV:  cpu time    1.9386: real time    1.9389
       DOS:  cpu time    0.0029: real time    0.0032
    CHARGE:  cpu time    0.2850: real time    0.2851
    MIXING:  cpu time    0.0044: real time    0.0050
    --------------------------------------------
      LOOP:  cpu time    2.3488: real time    2.3768

 eigenvalue-minimisations  :  6120
 total energy-change (2. order) :-0.6414042E+01  (-0.1823785E+02)
 number of electron      39.0000000 magnetization
 augmentation part        7.0224935 magnetization

 Broyden mixing:
  rms(total) = 0.22138E+01    rms(broyden)= 0.22138E+01
  rms(prec ) = 0.58748E+01
  weight for this iteration     100.00

 eigenvalues of (default mixing * dielectric matrix)
  average eigenvalue GAMMA=   0.3455
  0.3455

 Free energy of the ion-electron system (eV)
  ---------------------------------------------------
  alpha Z        PSCENC =       224.28245953
  Ewald energy   TEWEN  =     -3642.53867378
  -Hartree energ DENC   =      -769.34344655
  -exchange      EXHF   =         0.00000000
  -V(xc)+E(xc)   XCENC  =        91.32496577
  PAW double counting   =      3861.21374928    -3785.53298617
  entropy T*S    EENTRO =        -0.00015922
  eigenvalues    EBANDS =      -107.27360983
  atomic energy  EATOM  =      4095.35208632
  Solvation  Ediel_sol  =         0.00000000
  ---------------------------------------------------
  free energy    TOTEN  =       -32.51561466 eV

  energy without entropy =      -32.51545544  energy(sigma->0) =      -32.51553505


--------------------------------------------------------------------------------------------------------




--------------------------------------- Iteration      1(   7)  ---------------------------------------


    POTLOK:  cpu time    0.0321: real time    0.0613
    SETDIJ:  cpu time    0.0872: real time    0.0873
     EDDAV:  cpu time    1.8695: real time    1.8709
       DOS:  cpu time    0.0032: real time    0.0037
    CHARGE:  cpu time    0.2704: real time    0.2706
    MIXING:  cpu time    0.0037: real time    0.0039
    --------------------------------------------
      LOOP:  cpu time    2.2662: real time    2.2982

 eigenvalue-minimisations  :  5864
 total energy-change (2. order) : 0.8065194E+01  (-0.2616592E+01)
 number of electron      39.0000000 magnetization
 augmentation part        7.6081848 magnetization

 Broyden mixing:
  rms(total) = 0.92744E+00    rms(broyden)= 0.92744E+00
  rms(prec ) = 0.25827E+01
  weight for this iteration     100.00

 eigenvalues of (default mixing * dielectric matrix)
  average eigenvalue GAMMA=   0.7778
  0.7778  0.7778

 Free energy of the ion-electron system (eV)
  ---------------------------------------------------
  alpha Z        PSCENC =       224.28245953
  Ewald energy   TEWEN  =     -3642.53867378
  -Hartree energ DENC   =      -756.90900869
  -exchange      EXHF   =         0.00000000
  -V(xc)+E(xc)   XCENC  =        90.72328172
  PAW double counting   =      3975.88631806    -3904.43956504
  entropy T*S    EENTRO =        -0.00090261
  eigenvalues    EBANDS =      -106.80641613
  atomic energy  EATOM  =      4095.35208632
  Solvation  Ediel_sol  =         0.00000000
  ---------------------------------------------------
  free energy    TOTEN  =       -24.45042061 eV

  energy without entropy =      -24.44951800  energy(sigma->0) =      -24.44996931


--------------------------------------------------------------------------------------------------------




--------------------------------------- Iteration      1(   8)  ---------------------------------------


    POTLOK:  cpu time    0.0378: real time    0.0597
    SETDIJ:  cpu time    0.0860: real time    0.0861
     EDDAV:  cpu time    1.8812: real time    1.8816
       DOS:  cpu time    0.0033: real time    0.0037
    CHARGE:  cpu time    0.2692: real time    0.2707
    MIXING:  cpu time    0.0065: real time    0.0068
    --------------------------------------------
      LOOP:  cpu time    2.2842: real time    2.3097

 eigenvalue-minimisations  :  5944
 total energy-change (2. order) : 0.5271866E-01  (-0.2580246E+01)
 number of electron      39.0000000 magnetization
 augmentation part        8.7033167 magnetization

 Broyden mixing:
  rms(total) = 0.72332E+00    rms(broyden)= 0.72332E+00
  rms(prec ) = 0.23752E+01
  weight for this iteration     100.00

 eigenvalues of (default mixing * dielectric matrix)
  average eigenvalue GAMMA=   0.9976
  1.8638  0.5645  0.5645

 Free energy of the ion-electron system (eV)
  ---------------------------------------------------
  alpha Z        PSCENC =       224.28245953
  Ewald energy   TEWEN  =     -3642.53867378
  -Hartree energ DENC   =      -747.25332576
  -exchange      EXHF   =         0.00000000
  -V(xc)+E(xc)   XCENC  =        90.31438433
  PAW double counting   =      4096.16524725    -4028.00560082
  entropy T*S    EENTRO =        -0.00122479
  eigenvalues    EBANDS =      -112.71305423
  atomic energy  EATOM  =      4095.35208632
  Solvation  Ediel_sol  =         0.00000000
  ---------------------------------------------------
  free energy    TOTEN  =       -24.39770195 eV

  energy without entropy =      -24.39647716  energy(sigma->0) =      -24.39708956


--------------------------------------------------------------------------------------------------------




--------------------------------------- Iteration      1(   9)  ---------------------------------------


    POTLOK:  cpu time    0.0322: real time    0.0650
    SETDIJ:  cpu time    0.0859: real time    0.0860
     EDDAV:  cpu time    1.9344: real time    1.9347
       DOS:  cpu time    0.0032: real time    0.0053
    CHARGE:  cpu time    0.2680: real time    0.2682
    MIXING:  cpu time    0.0069: real time    0.0070
    --------------------------------------------
      LOOP:  cpu time    2.3307: real time    2.3682

 eigenvalue-minimisations  :  6176
 total energy-change (2. order) : 0.6779111E+00  (-0.7917238E+00)
 number of electron      39.0000000 magnetization
 augmentation part        7.9519318 magnetization

 Broyden mixing:
  rms(total) = 0.13490E+00    rms(broyden)= 0.13490E+00
  rms(prec ) = 0.31055E+00
  weight for this iteration     100.00

 eigenvalues of (default mixing * dielectric matrix)
  average eigenvalue GAMMA=   0.9945
  2.2250  0.5830  0.5830  0.5870

 Free energy of the ion-electron system (eV)
  ---------------------------------------------------
  alpha Z        PSCENC =       224.28245953
  Ewald energy   TEWEN  =     -3642.53867378
  -Hartree energ DENC   =      -750.29391285
  -exchange      EXHF   =         0.00000000
  -V(xc)+E(xc)   XCENC  =        90.48871532
  PAW double counting   =      4252.43513586    -4185.46906873
  entropy T*S    EENTRO =        -0.00126532
  eigenvalues    EBANDS =      -107.97526719
  atomic energy  EATOM  =      4095.35208632
  Solvation  Ediel_sol  =         0.00000000
  ---------------------------------------------------
  free energy    TOTEN  =       -23.71979086 eV

  energy without entropy =      -23.71852554  energy(sigma->0) =      -23.71915820


--------------------------------------------------------------------------------------------------------




--------------------------------------- Iteration      1(  10)  ---------------------------------------


    POTLOK:  cpu time    0.0323: real time    0.0768
    SETDIJ:  cpu time    0.0847: real time    0.0849
     EDDAV:  cpu time    1.9874: real time    1.9876
       DOS:  cpu time    0.0030: real time    0.0032
    CHARGE:  cpu time    0.2719: real time    0.2721
    MIXING:  cpu time    0.0041: real time    0.0042
    --------------------------------------------
      LOOP:  cpu time    2.3834: real time    2.4263

 eigenvalue-minimisations  :  6432
 total energy-change (2. order) :-0.1866532E-01  (-0.2791505E-01)
 number of electron      39.0000000 magnetization
 augmentation part        7.9524682 magnetization

 Broyden mixing:
  rms(total) = 0.10682E+00    rms(broyden)= 0.10682E+00
  rms(prec ) = 0.34902E+00
  weight for this iteration     100.00

 eigenvalues of (default mixing * dielectric matrix)
  average eigenvalue GAMMA=   0.9663
  1.9236  0.5537  0.5537  0.7683  1.0320

 Free energy of the ion-electron system (eV)
  ---------------------------------------------------
  alpha Z        PSCENC =       224.28245953
  Ewald energy   TEWEN  =     -3642.53867378
  -Hartree energ DENC   =      -748.91986075
  -exchange      EXHF   =         0.00000000
  -V(xc)+E(xc)   XCENC  =        90.44445207
  PAW double counting   =      4311.77384567    -4245.52611117
  entropy T*S    EENTRO =        -0.00135847
  eigenvalues    EBANDS =      -108.60529560
  atomic energy  EATOM  =      4095.35208632
  Solvation  Ediel_sol  =         0.00000000
  ---------------------------------------------------
  free energy    TOTEN  =       -23.73845618 eV

  energy without entropy =      -23.73709771  energy(sigma->0) =      -23.73777694


--------------------------------------------------------------------------------------------------------




--------------------------------------- Iteration      1(  11)  ---------------------------------------


    POTLOK:  cpu time    0.0416: real time    0.0596
    SETDIJ:  cpu time    0.0872: real time    0.0874
     EDDAV:  cpu time    1.9001: real time    1.9004
       DOS:  cpu time    0.0031: real time    0.0034
    CHARGE:  cpu time    0.2665: real time    0.2667
    MIXING:  cpu time    0.0076: real time    0.0077
    --------------------------------------------
      LOOP:  cpu time    2.3061: real time    2.3253

 eigenvalue-minimisations  :  6024
 total energy-change (2. order) : 0.1960991E-01  (-0.1722416E-01)
 number of electron      39.0000000 magnetization
 augmentation part        8.0507187 magnetization

 Broyden mixing:
  rms(total) = 0.29379E-01    rms(broyden)= 0.29379E-01
  rms(prec ) = 0.49647E-01
  weight for this iteration     100.00

 eigenvalues of (default mixing * dielectric matrix)
  average eigenvalue GAMMA=   1.2330
  2.3753  2.3753  0.5551  0.5551  0.8520  0.6850

 Free energy of the ion-electron system (eV)
  ---------------------------------------------------
  alpha Z        PSCENC =       224.28245953
  Ewald energy   TEWEN  =     -3642.53867378
  -Hartree energ DENC   =      -748.36200663
  -exchange      EXHF   =         0.00000000
  -V(xc)+E(xc)   XCENC  =        90.41221081
  PAW double counting   =      4302.58199092    -4236.37164764
  entropy T*S    EENTRO =        -0.00154030
  eigenvalues    EBANDS =      -109.07372549
  atomic energy  EATOM  =      4095.35208632
  Solvation  Ediel_sol  =         0.00000000
  ---------------------------------------------------
  free energy    TOTEN  =       -23.71884627 eV

  energy without entropy =      -23.71730596  energy(sigma->0) =      -23.71807611


--------------------------------------------------------------------------------------------------------




--------------------------------------- Iteration      1(  12)  ---------------------------------------


    POTLOK:  cpu time    0.0467: real time    0.0719
    SETDIJ:  cpu time    0.0871: real time    0.0872
     EDDAV:  cpu time    2.0834: real time    2.0843
       DOS:  cpu time    0.0031: real time    0.0033
    CHARGE:  cpu time    0.2722: real time    0.2724
    MIXING:  cpu time    0.0043: real time    0.0044
    --------------------------------------------
      LOOP:  cpu time    2.4966: real time    2.5235

 eigenvalue-minimisations  :  6728
 total energy-change (2. order) :-0.3171792E-03  (-0.5262428E-03)
 number of electron      39.0000000 magnetization
 augmentation part        8.0440518 magnetization

 Broyden mixing:
  rms(total) = 0.69712E-02    rms(broyden)= 0.69710E-02
  rms(prec ) = 0.17492E-01
  weight for this iteration     100.00

 eigenvalues of (default mixing * dielectric matrix)
  average eigenvalue GAMMA=   1.2388
  2.6952  2.1632  0.5568  0.5568  1.0209  1.0209  0.6580

 Free energy of the ion-electron system (eV)
  ---------------------------------------------------
  alpha Z        PSCENC =       224.28245953
  Ewald energy   TEWEN  =     -3642.53867378
  -Hartree energ DENC   =      -748.40309857
  -exchange      EXHF   =         0.00000000
  -V(xc)+E(xc)   XCENC  =        90.41089354
  PAW double counting   =      4313.75808361    -4247.53712016
  entropy T*S    EENTRO =        -0.00155722
  eigenvalues    EBANDS =      -109.04223671
  atomic energy  EATOM  =      4095.35208632
  Solvation  Ediel_sol  =         0.00000000
  ---------------------------------------------------
  free energy    TOTEN  =       -23.71916344 eV

  energy without entropy =      -23.71760622  energy(sigma->0) =      -23.71838483


--------------------------------------------------------------------------------------------------------




--------------------------------------- Iteration      1(  13)  ---------------------------------------


    POTLOK:  cpu time    0.0522: real time    0.0816
    SETDIJ:  cpu time    0.0836: real time    0.0837
     EDDAV:  cpu time    1.9261: real time    1.9264
       DOS:  cpu time    0.0032: real time    0.0034
    CHARGE:  cpu time    0.2699: real time    0.2724
    MIXING:  cpu time    0.0044: real time    0.0045
    --------------------------------------------
      LOOP:  cpu time    2.3394: real time    2.3714

 eigenvalue-minimisations  :  6120
 total energy-change (2. order) : 0.5161004E-04  (-0.8228457E-04)
 number of electron      39.0000000 magnetization
 augmentation part        8.0372014 magnetization

 Broyden mixing:
  rms(total) = 0.26724E-02    rms(broyden)= 0.26724E-02
  rms(prec ) = 0.80810E-02
  weight for this iteration     100.00

 eigenvalues of (default mixing * dielectric matrix)
  average eigenvalue GAMMA=   1.2509
  2.5321  2.1520  1.7102  0.5568  0.5568  0.9186  0.9186  0.6618

 Free energy of the ion-electron system (eV)
  ---------------------------------------------------
  alpha Z        PSCENC =       224.28245953
  Ewald energy   TEWEN  =     -3642.53867378
  -Hartree energ DENC   =      -748.48928605
  -exchange      EXHF   =         0.00000000
  -V(xc)+E(xc)   XCENC  =        90.41355503
  PAW double counting   =      4314.00485852    -4247.70608119
  entropy T*S    EENTRO =        -0.00154480
  eigenvalues    EBANDS =      -109.03648541
  atomic energy  EATOM  =      4095.35208632
  Solvation  Ediel_sol  =         0.00000000
  ---------------------------------------------------
  free energy    TOTEN  =       -23.71911183 eV

  energy without entropy =      -23.71756703  energy(sigma->0) =      -23.71833943


--------------------------------------------------------------------------------------------------------




--------------------------------------- Iteration      1(  14)  ---------------------------------------


    POTLOK:  cpu time    0.0347: real time    0.0605
    SETDIJ:  cpu time    0.0860: real time    0.0861
     EDDAV:  cpu time    1.8866: real time    1.8868
       DOS:  cpu time    0.0032: real time    0.0035
    CHARGE:  cpu time    0.2716: real time    0.2718
    MIXING:  cpu time    0.0060: real time    0.0065
    --------------------------------------------
      LOOP:  cpu time    2.2879: real time    2.3153

 eigenvalue-minimisations  :  6000
 total energy-change (2. order) :-0.4900962E-05  (-0.3917345E-04)
 number of electron      39.0000000 magnetization
 augmentation part        8.0405174 magnetization

 Broyden mixing:
  rms(total) = 0.30399E-02    rms(broyden)= 0.30398E-02
  rms(prec ) = 0.95423E-02
  weight for this iteration     100.00

 eigenvalues of (default mixing * dielectric matrix)
  average eigenvalue GAMMA=   1.2731
  2.6327  2.1668  0.5568  0.5568  1.3797  1.3797  1.1703  0.9502  0.6647

 Free energy of the ion-electron system (eV)
  ---------------------------------------------------
  alpha Z        PSCENC =       224.28245953
  Ewald energy   TEWEN  =     -3642.53867378
  -Hartree energ DENC   =      -748.46868725
  -exchange      EXHF   =         0.00000000
  -V(xc)+E(xc)   XCENC  =        90.41213440
  PAW double counting   =      4314.57759800    -4248.25660428
  entropy T*S    EENTRO =        -0.00155753
  eigenvalues    EBANDS =      -109.07787215
  atomic energy  EATOM  =      4095.35208632
  Solvation  Ediel_sol  =         0.00000000
  ---------------------------------------------------
  free energy    TOTEN  =       -23.71911674 eV

  energy without entropy =      -23.71755921  energy(sigma->0) =      -23.71833797


--------------------------------------------------------------------------------------------------------




--------------------------------------- Iteration      1(  15)  ---------------------------------------


    POTLOK:  cpu time    0.0398: real time    0.0637
    SETDIJ:  cpu time    0.0866: real time    0.0867
     EDDAV:  cpu time    2.1741: real time    2.1745
       DOS:  cpu time    0.0031: real time    0.0034
    CHARGE:  cpu time    0.2724: real time    0.2725
    MIXING:  cpu time    0.0048: real time    0.0051
    --------------------------------------------
      LOOP:  cpu time    2.5810: real time    2.6048

 eigenvalue-minimisations  :  7128
 total energy-change (2. order) : 0.1209993E-04  (-0.1066732E-04)
 number of electron      39.0000000 magnetization
 augmentation part        8.0392825 magnetization

 Broyden mixing:
  rms(total) = 0.39007E-03    rms(broyden)= 0.38999E-03
  rms(prec ) = 0.94140E-03
  weight for this iteration     100.00

 eigenvalues of (default mixing * dielectric matrix)
  average eigenvalue GAMMA=   1.2964
  2.6906  2.0915  2.0915  0.5568  0.5568  1.4078  0.6670  1.0195  1.0195  0.8633

 Free energy of the ion-electron system (eV)
  ---------------------------------------------------
  alpha Z        PSCENC =       224.28245953
  Ewald energy   TEWEN  =     -3642.53867378
  -Hartree energ DENC   =      -748.47909818
  -exchange      EXHF   =         0.00000000
  -V(xc)+E(xc)   XCENC  =        90.41257475
  PAW double counting   =      4315.05869958    -4248.73778952
  entropy T*S    EENTRO =        -0.00155215
  eigenvalues    EBANDS =      -109.06781117
  atomic energy  EATOM  =      4095.35208632
  Solvation  Ediel_sol  =         0.00000000
  ---------------------------------------------------
  free energy    TOTEN  =       -23.71910464 eV

  energy without entropy =      -23.71755248  energy(sigma->0) =      -23.71832856


--------------------------------------------------------------------------------------------------------




--------------------------------------- Iteration      1(  16)  ---------------------------------------


    POTLOK:  cpu time    0.0417: real time    0.0680
    SETDIJ:  cpu time    0.0839: real time    0.0840
     EDDAV:  cpu time    2.2242: real time    2.2249
       DOS:  cpu time    0.0034: real time    0.0035
    CHARGE:  cpu time    0.2599: real time    0.2637
    MIXING:  cpu time    0.0068: real time    0.0232
    --------------------------------------------
      LOOP:  cpu time    2.6198: real time    2.6691

 eigenvalue-minimisations  :  7184
 total energy-change (2. order) :-0.4034373E-06  (-0.8977416E-06)
 number of electron      39.0000000 magnetization
 augmentation part        8.0388035 magnetization

 Broyden mixing:
  rms(total) = 0.57713E-03    rms(broyden)= 0.57707E-03
  rms(prec ) = 0.17201E-02
  weight for this iteration     100.00

 eigenvalues of (default mixing * dielectric matrix)
  average eigenvalue GAMMA=   1.2935
  2.7484  2.2161  2.2161  1.4844  0.5568  0.5568  0.6647  1.0000  1.0000  0.8924
  0.8924

 Free energy of the ion-electron system (eV)
  ---------------------------------------------------
  alpha Z        PSCENC =       224.28245953
  Ewald energy   TEWEN  =     -3642.53867378
  -Hartree energ DENC   =      -748.48507272
  -exchange      EXHF   =         0.00000000
  -V(xc)+E(xc)   XCENC  =        90.41282441
  PAW double counting   =      4315.25407119    -4248.93004810
  entropy T*S    EENTRO =        -0.00155109
  eigenvalues    EBANDS =      -109.06520078
  atomic energy  EATOM  =      4095.35208632
  Solvation  Ediel_sol  =         0.00000000
  ---------------------------------------------------
  free energy    TOTEN  =       -23.71910504 eV

  energy without entropy =      -23.71755395  energy(sigma->0) =      -23.71832949


--------------------------------------------------------------------------------------------------------




--------------------------------------- Iteration      1(  17)  ---------------------------------------


    POTLOK:  cpu time    0.0498: real time    0.0719
    SETDIJ:  cpu time    0.0857: real time    0.0859
     EDDAV:  cpu time    1.5755: real time    1.5757
       DOS:  cpu time    0.0034: real time    0.0037
    CHARGE:  cpu time    0.2711: real time    0.2713
    MIXING:  cpu time    0.0053: real time    0.0060
    --------------------------------------------
      LOOP:  cpu time    1.9908: real time    2.0156

 eigenvalue-minimisations  :  4600
 total energy-change (2. order) : 0.2432707E-06  (-0.7613863E-07)
 number of electron      39.0000000 magnetization
 augmentation part        8.0388919 magnetization

 Broyden mixing:
  rms(total) = 0.37888E-03    rms(broyden)= 0.37880E-03
  rms(prec ) = 0.11664E-02
  weight for this iteration     100.00

 eigenvalues of (default mixing * dielectric matrix)
  average eigenvalue GAMMA=   1.3742
  2.6169  2.6169  2.6226  1.8377  0.5568  0.5568  0.6658  1.0304  1.0304  1.0296
  1.0296  0.8972

 Free energy of the ion-electron system (eV)
  ---------------------------------------------------
  alpha Z        PSCENC =       224.28245953
  Ewald energy   TEWEN  =     -3642.53867378
  -Hartree energ DENC   =      -748.48362162
  -exchange      EXHF   =         0.00000000
  -V(xc)+E(xc)   XCENC  =        90.41278841
  PAW double counting   =      4315.32730892    -4249.00363308
  entropy T*S    EENTRO =        -0.00155150
  eigenvalues    EBANDS =      -109.06626799
  atomic energy  EATOM  =      4095.35208632
  Solvation  Ediel_sol  =         0.00000000
  ---------------------------------------------------
  free energy    TOTEN  =       -23.71910480 eV

  energy without entropy =      -23.71755329  energy(sigma->0) =      -23.71832904


--------------------------------------------------------------------------------------------------------




--------------------------------------- Iteration      1(  18)  ---------------------------------------


    POTLOK:  cpu time    0.0559: real time    0.0766
    SETDIJ:  cpu time    0.0855: real time    0.0856
     EDDAV:  cpu time    1.7331: real time    1.7335
       DOS:  cpu time    0.0033: real time    0.0035
    CHARGE:  cpu time    0.2672: real time    0.2674
    MIXING:  cpu time    0.0096: real time    0.0097
    --------------------------------------------
      LOOP:  cpu time    2.1546: real time    2.1735

 eigenvalue-minimisations  :  5240
 total energy-change (2. order) : 0.1759490E-06  (-0.1823098E-06)
 number of electron      39.0000000 magnetization
 augmentation part        8.0391208 magnetization

 Broyden mixing:
  rms(total) = 0.61224E-04    rms(broyden)= 0.60717E-04
  rms(prec ) = 0.14431E-03
  weight for this iteration     100.00

 eigenvalues of (default mixing * dielectric matrix)
  average eigenvalue GAMMA=   1.3389
  2.5767  2.5244  2.5244  1.9746  0.5568  0.5568  1.2465  1.0248  1.0248  0.9576
  0.9576  0.6661  0.8143

 Free energy of the ion-electron system (eV)
  ---------------------------------------------------
  alpha Z        PSCENC =       224.28245953
  Ewald energy   TEWEN  =     -3642.53867378
  -Hartree energ DENC   =      -748.48208850
  -exchange      EXHF   =         0.00000000
  -V(xc)+E(xc)   XCENC  =        90.41274970
  PAW double counting   =      4315.35204333    -4249.02898807
  entropy T*S    EENTRO =        -0.00155223
  eigenvalues    EBANDS =      -109.06714091
  atomic energy  EATOM  =      4095.35208632
  Solvation  Ediel_sol  =         0.00000000
  ---------------------------------------------------
  free energy    TOTEN  =       -23.71910462 eV

  energy without entropy =      -23.71755238  energy(sigma->0) =      -23.71832850


--------------------------------------------------------------------------------------------------------




[...]
  212              fftbas_plan_mpi                       0.060065                     12   6
  213                dfftw_execute                         0.025994                   36   7
  214                map_backward                          0.004215                   12   7
  215                  map_gather                            0.000772                  6   8
  216                  m_alltoallv_z                         0.002066                  6   8
  217                  map_scatter                           0.001093                  6   8
  218                map_forward                           0.026824                   12   7
  219                  map_gather                            0.015017                  6   8
  220                  m_alltoallv_z                         0.005287                  6   8
  221                  map_scatter                           0.006227                  6   8
  222            M_sumb_d                              0.001037                        6   5
  223          M_sumb_d                              0.000024                          1   4
  224        setdij_                               1.393972                           20   3
  225          fft3d_mpi                             0.220160                         40   4
  226            fftbas_plan_mpi                       0.202496                       40   5
  227              dfftw_execute                         0.087873                    120   6
  228              map_backward                          0.014003                     40   6
  229                map_gather                            0.002587                   20   7
  230                m_alltoallv_z                         0.006627                   20   7
  231                map_scatter                           0.003822                   20   7
  232              map_forward                           0.089916                     40   6
  233                map_gather                            0.050111                   20   7
  234                m_alltoallv_z                         0.016878                   20   7
  235                map_scatter                           0.021865                   20   7
  236          M_sumb_d                              0.005742                         20   4
  237        set_dd_magatom                        0.000003                            1   3
  238        set_dd_paw                            0.020884                            1   3
  239          set_rsgf_all                          0.000004                          1   4
  240          M_sumb_d                              0.020738                          8   4
  241        strkin                                0.001126                            1   3
  242          M_sumb_d                              0.000550                          1   4
  243        strelo                                0.002674                            1   3
  244          M_sumb_d                              0.000650                          2   4
  245        strenl                                1.034341                            1   3
  246          spher                                 0.757079                         19   4
  247          phase                                 0.012218                        189   4
  248          proj1                                 0.228716                       1134   4
  249            crexp_mul_wave                        0.031459                     3402   5
  250            M_sumb_d                              0.066370                     1134   5
  251          M_sumb_d                              0.014189                          1   4
  252        M_sumb_d                              0.000209                            6   3
  253        fft3d_mpi                             0.015447                           11   3
  254          fftbas_plan_mpi                       0.014444                         11   4
  255            dfftw_execute                         0.004950                       33   5
  256            map_forward                           0.002912                       10   5
  257              map_gather                            0.000614                      5   6
  258              m_alltoallv_z                         0.001434                      5   6
  259              map_scatter                           0.000620                      5   6
  260            map_backward                          0.003873                       12   5
  261              map_gather                            0.000717                      6   6
  262              m_alltoallv_z                         0.001791                      6   6
  263              map_scatter                           0.001085                      6   6
  264        ggaall_grid                           0.001515                            1   3
  265        forhar                                0.006218                            2   3
  266          M_sumb_d                              0.000270                          2   4
  267        strehar                               0.002562                            1   3
  268          M_sumb_d                              0.000117                          1   4
  269        chggra                                0.006035                            1   3
  270          fft3d_mpi                             0.004030                          3   4
  271            fftbas_plan_mpi                       0.003753                        3   5
  272              dfftw_execute                         0.001333                      9   6
  273              map_backward                          0.000607                      2   6
  274                map_gather                            0.000119                    1   7
  275                m_alltoallv_z                         0.000242                    1   7
  276                map_scatter                           0.000192                    1   7
  277              map_forward                           0.001034                      4   6
  278                map_gather                            0.000246                    2   7
  279                m_alltoallv_z                         0.000456                    2   7
  280                map_scatter                           0.000240                    2   7
  281          M_sumb_d                              0.000141                          3   4
  282        brmix                                 0.009084                            1   3
  283          M_sumb_d                              0.000289                          6   4
  284          brpre                                 0.000050                          1   4
  285          setg0                                 0.001263                          1   4
  286          broyd                                 0.002823                          1   4
  287            M_sumb_d                              0.000756                       21   5
  288            brget                                 0.000386                       79   5
  289            brsav                                 0.000085                       19   5
  290          M_bcast_z                             0.003740                          1   4
  291          M_bcast_d                             0.000033                          1   4
  292        M_bcast_d                             0.000079                            2   3
  293      potlok                                0.026731                              1   2
  294        fft3d_mpi                             0.018329                           13   3
  295          fftbas_plan_mpi                       0.017118                         13   4
  296            dfftw_execute                         0.005818                       39   5
  297            map_forward                           0.004070                       14   5
  298              map_gather                            0.000779                      8   6
  299              m_alltoallv_z                         0.002031                      8   6
  300              map_scatter                           0.000898                      8   6
  301            map_backward                          0.004158                       12   5
  302              map_gather                            0.000908                      6   6
  303              m_alltoallv_z                         0.001794                      6   6
  304              map_scatter                           0.001138                      6   6
  305        ggaall_grid                           0.001518                            1   3
  306        M_sumb_d                              0.000334                            6   3
  307        M_bcast_d                             0.000103                            1   3
  308      potlok_metagga                        0.000004                              1   2
  309      set_dd_magatom                        0.000003                              1   2
  310      set_dd_paw                            0.000456                              1   2
  311        set_rsgf_all                          0.000004                            1   3
  312        M_sumb_d                              0.000274                            8   3
  313      densta                                0.002586                              1   2
  314        M_sumb_d                              0.000893                           44   3
  315      lprj_proall                           0.000008                              1   2

 Flat profile
 ============

             routine name                   CPU           calls
 ---------------------------------------------------------------
 total_time                             14.222272           1
 eddav                                   6.513674          19
 dfftw_execute                           5.937740       61506
 fftbas_plan_mpi                         4.122461       20504
 M_sumb_d                                3.329667       56155
 setdij_                                 2.622624          43
 set_charge                              2.491175          15
 m_alltoallv_z                           2.265757       20533
 pdssyex_zheevx                          1.774891         399
 M_alltoall_d                            1.441570       67746
 elmin                                   1.418272           1
 orth1                                   1.118113       13890
 proj1                                   1.075964        8112
 gemm                                    0.961331       27738
 vhamil                                  0.933073        9246
 spher                                   0.871373          20
 fftwav_mpi                              0.792439       10917
 map_forward                             0.774949       22160
 map_gather                              0.740297       20533
 map_scatter                             0.680476       20533
 vnlac0                                  0.622237        9246
 redis_pw                                0.570270       26184
 M_bcast_z                               0.553767        7180
 hamiltmu                                0.508127        4623
 redis_proj                              0.504996       33057
 w1_copy                                 0.391956       27738
 map_backward                            0.330539       18844
 fft3d_mpi                               0.326492       20502
 work_mul_crexp                          0.326263       27738
 fftext_mpi                              0.299319        9246
 crpa_reader                             0.261414           1
 crexp_mul_wave                          0.239563       24336
 eccp                                    0.215480        2394
 kinhamil                                0.187236        9246
 overl                                   0.180412       16119
 M_bcast_d                               0.165485        4661
 overl1                                  0.112764        9246
 potlok                                  0.101542          16
 pw_charge                               0.101480        1671
 apply_precond                           0.094986        6852
 setup_precond                           0.077141        2394
 w1_projall                              0.075398        3426
 lincom                                  0.065027         420
 force_and_stress                        0.051421           1
 fornl                                   0.045166           1
 soft_charge                             0.042302          15
 phase                                   0.040822         631
 truncate_high_frequency_w1              0.039656       11640
 densta                                  0.032016          20
 broyd                                   0.030630          15
 ggaall_grid                             0.026139          17
 strenl                                  0.022138           1
 setg0                                   0.017612          16
 brmix                                   0.016681          15
 depsum                                  0.006581          15
 forhar                                  0.005948           2
 brget                                   0.003062         654
 set_dd_paw                              0.002970          17
 forloc                                  0.002913           1
 strehar                                 0.002445           1
 orthch                                  0.002165           1
 strelo                                  0.002024           1
 chggra                                  0.001864           1
 choleski                                0.001771          21
 proj                                    0.001635          21
 brgrid                                  0.001234           1
 brpre                                   0.000942          15
 brsav                                   0.000932         182
 strkin                                  0.000576           1
 fordep                                  0.000114           1
 vectorpot                               0.000083          16
 set_rsgf_all                            0.000080          17
 potlok_metagga                          0.000062          16
 set_dd_magatom                          0.000059          17
 set_kineden                             0.000056          14
 rotate_active_occupied_orbital          0.000015           1
 lprj_proall                             0.000008           1
 redis_pw_over_bands                     0.000003           1
 ---------------------------------------------------------------
  summed up times    60.8021390438080

 Accumulative profile
 ====================

             routine name                   CPU           calls
 ---------------------------------------------------------------
 total_time                             60.802139           1
 elmin                                  42.207317           1
 eddav                                  35.123169          19
 fft3d_mpi                              15.157442       20502
 fftbas_plan_mpi                        14.852220       20504
 hamiltmu                               10.825365        4623
 fftwav_mpi                              8.649631       10917
 kinhamil                                6.776331        9246
 fftext_mpi                              6.589095        9246
 dfftw_execute                           5.937740       61506
 set_charge                              4.126519          15
 M_sumb_d                                3.329667       56155
 force_and_stress                        3.308505           1
 setdij_                                 3.137987          43
 map_forward                             2.828852       22160
 vnlac0                                  2.495070        9246
 m_alltoallv_z                           2.265757       20533
 map_backward                            1.963167       18844
 proj1                                   1.864694        8112
 pdssyex_zheevx                          1.774891         399
 w1_projall                              1.686168        3426
 soft_charge                             1.444700          15
 M_alltoall_d                            1.441570       67746
 redis_pw                                1.383628       26184
 redis_proj                              1.133208       33057
 orth1                                   1.118113       13890
 strenl                                  1.034341           1
 gemm                                    0.961331       27738
 vhamil                                  0.933073        9246
 spher                                   0.871373          20
 map_gather                              0.740297       20533
 map_scatter                             0.680476       20533
 M_bcast_z                               0.553767        7180
 fordep                                  0.421726           1
 potlok                                  0.413885          16
 w1_copy                                 0.391956       27738
 eccp                                    0.360375        2394
 work_mul_crexp                          0.326263       27738
 crpa_reader                             0.261414           1
 crexp_mul_wave                          0.239563       24336
 set_dd_paw                              0.204147          17
 overl                                   0.180412       16119
 M_bcast_d                               0.165485        4661
 setup_precond                           0.133420        2394
 overl1                                  0.112764        9246
 brmix                                   0.101954          15
 pw_charge                               0.101480        1671
 apply_precond                           0.094986        6852
 lincom                                  0.065027         420
 fornl                                   0.063076           1
 densta                                  0.049513          20
 broyd                                   0.041583          15
 phase                                   0.040822         631
 truncate_high_frequency_w1              0.039656       11640
 orthch                                  0.030125           1
 proj                                    0.026842          21
 ggaall_grid                             0.026139          17
 setg0                                   0.017612          16
 depsum                                  0.010837          15
 forhar                                  0.006218           2
 chggra                                  0.006035           1
 brget                                   0.003062         654
 forloc                                  0.003017           1
 strelo                                  0.002674           1
 strehar                                 0.002562           1
 choleski                                0.001771          21
 brgrid                                  0.001234           1
 strkin                                  0.001126           1
 brpre                                   0.000942          15
 brsav                                   0.000932         182
 vectorpot                               0.000083          16
 set_rsgf_all                            0.000080          17
 potlok_metagga                          0.000062          16
 set_dd_magatom                          0.000059          17
 set_kineden                             0.000056          14
 rotate_active_occupied_orbital          0.000015           1
 lprj_proall                             0.000008           1
 redis_pw_over_bands                     0.000003           1
 ---------------------------------------------------------------

Profiling took   1.603173  1.936613  0.005782  0.004422 seconds
Profiling took   1.557823 seconds
