 ----------------------------------------------------
    OOO  PPPP  EEEEE N   N M   M PPPP
   O   O P   P E     NN  N MM MM P   P
   O   O PPPP  EEEEE N N N M M M PPPP   -- VERSION
   O   O P     E     N  NN M   M P
    OOO  P     EEEEE N   N M   M P
 ----------------------------------------------------
 running   64 mpi-ranks, with    1 threads/rank
 distrk:  each k-point on   16 cores,    4 groups
 distr:  one band on    4 cores,    4 groups
 using from now: INCAR
 vasp.6.0.8 29Jun18 (build Jun 13 2019 12:54:44) complex

 POSCAR found type information on POSCAR  U  Bi Pt
 POSCAR found :  3 types and       3 ions
 scaLAPACK will be used
 WARNING: PSMAXN for non-local potential too small

 -----------------------------------------------------------------------------
|                                                                             |
|  ADVICE TO THIS USER RUNNING 'VASP/VAMP'   (HEAR YOUR MASTER'S VOICE ...):  |
|                                                                             |
|      You enforced a specific xc-type in the INCAR file,                     |
|      a different type was found on the POTCAR file                          |
|          I HOPE YOU KNOW, WHAT YOU ARE  DOING                               |
|                                                                             |
 -----------------------------------------------------------------------------

 LDA part: xc-table for Pade appr. of Perdew
 POSCAR, INCAR and KPOINTS ok, starting setup
 FFT: planning ...
 WAVECAR not read
 entering main loop
       N       E                     dE             d eps       ncg     rms          rms(c)
 ELPA: falling back to scaLAPACK
 ELPA: falling back to scaLAPACK
 ELPA: falling back to scaLAPACK
 ELPA: falling back to scaLAPACK
DAV:   1     0.432615706640E+03    0.43262E+03   -0.22558E+04  4032   0.235E+03
DAV:   2     0.305130699319E+02   -0.40210E+03   -0.39408E+03  4352   0.506E+02
DAV:   3    -0.207870442769E+02   -0.51300E+02   -0.50231E+02  5088   0.182E+02
DAV:   4    -0.259328271708E+02   -0.51458E+01   -0.51272E+01  7384   0.466E+01
DAV:   5    -0.261015731010E+02   -0.16875E+00   -0.16864E+00  5560   0.709E+00    0.152E+01
DAV:   6    -0.325156146597E+02   -0.64140E+01   -0.18238E+02  6120   0.885E+01    0.221E+01
DAV:   7    -0.244504206134E+02    0.80652E+01   -0.26166E+01  5864   0.283E+01    0.927E+00
DAV:   8    -0.243977019535E+02    0.52719E-01   -0.25802E+01  5944   0.224E+01    0.723E+00
DAV:   9    -0.237197908551E+02    0.67791E+00   -0.79172E+00  6176   0.169E+01    0.135E+00
DAV:  10    -0.237384561789E+02   -0.18665E-01   -0.27915E-01  6432   0.281E+00    0.107E+00
DAV:  11    -0.237188462652E+02    0.19610E-01   -0.17224E-01  6024   0.226E+00    0.294E-01
DAV:  12    -0.237191634444E+02   -0.31718E-03   -0.52624E-03  6728   0.463E-01    0.697E-02
DAV:  13    -0.237191118344E+02    0.51610E-04   -0.82285E-04  6120   0.202E-01    0.267E-02
DAV:  14    -0.237191167353E+02   -0.49010E-05   -0.39173E-04  6000   0.107E-01    0.304E-02
DAV:  15    -0.237191046354E+02    0.12100E-04   -0.10667E-04  7128   0.592E-02    0.390E-03
DAV:  16    -0.237191050389E+02   -0.40344E-06   -0.89774E-06  7184   0.144E-02    0.577E-03
DAV:  17    -0.237191047956E+02    0.24327E-06   -0.76139E-07  4600   0.505E-03    0.379E-03
DAV:  18    -0.237191046196E+02    0.17595E-06   -0.18231E-06  5240   0.651E-03    0.612E-04
DAV:  19    -0.237191046241E+02   -0.44702E-08   -0.62797E-08  3744   0.189E-03
   1 F= -.23719105E+02 E0= -.23718329E+02  d E =-.155212E-02
