<?xml version="1.0" encoding="ISO-8859-1"?>
<modeling>
 <generator>
  <i name="program" type="string">vasp </i>
  <i name="version" type="string">6.0.8  </i>
  <i name="subversion" type="string">29Jun18 (build Jun 13 2019 12:54:44) complex                          parallel </i>
  <i name="platform" type="string">IFC18_CrayMPICH </i>
  <i name="date" type="string">2021 12 05 </i>
  <i name="time" type="string">14:21:52 </i>
 </generator>
 <incar>
  <i type="int" name="KPAR">     4</i>
  <i type="int" name="NPAR">     4</i>
  <i type="int" name="ISTART">     0</i>
  <i type="string" name="PREC"> ACC</i>
  <i type="string" name="ALGO"> Normal</i>
  <i type="logical" name="ADDGRID"> T  </i>
  <i type="int" name="ISPIN">     1</i>
  <i type="int" name="NELMIN">     5</i>
  <i type="int" name="IBRION">    -1</i>
  <i name="EDIFF">      0.00000010</i>
  <i type="int" name="NSW">     0</i>
  <i type="int" name="ISIF">     3</i>
  <i name="ENCUT">    700.00000000</i>
  <i type="logical" name="LREAL"> F  </i>
  <i type="int" name="ISMEAR">     0</i>
  <i name="SIGMA">      0.01000000</i>
  <i type="logical" name="LWAVE"> F  </i>
  <i type="logical" name="LCHARG"> F  </i>
  <i type="logical" name="LVTOT"> F  </i>
  <i type="string" name="ALGO"> Normal</i>
  <i type="string" name="GGA"> PS</i>
  <i name="EDIFF">      0.00000010</i>
  <i type="int" name="ISPIN">     1</i>
 </incar>
 <structure name="primitive_cell" >
  <crystal>
   <varray name="basis" >
    <v>       0.00000000       3.27280252       3.27280252 </v>
    <v>       3.27280252       0.00000000       3.27280252 </v>
    <v>       3.27280252       3.27280252       0.00000000 </v>
   </varray>
   <i name="volume">     70.11152235 </i>
   <varray name="rec_basis" >
    <v>      -0.15277427       0.15277427       0.15277427 </v>
    <v>       0.15277427      -0.15277427       0.15277427 </v>
    <v>       0.15277427       0.15277427      -0.15277427 </v>
   </varray>
  </crystal>
  <varray name="positions" >
   <v>       0.25000000       0.25000000       0.25000000 </v>
   <v>       0.75000000       0.75000000       0.75000000 </v>
   <v>       0.00000000       0.00000000       0.00000000 </v>
  </varray>
 </structure>
 <varray name="primitive_index" >
  <v type="int" >        1 </v>
  <v type="int" >        2 </v>
  <v type="int" >        3 </v>
 </varray>
 <kpoints>
  <generation param="Gamma">
   <v type="int" name="divisions">      13       13       13 </v>
   <v name="usershift">      0.00000000       0.00000000       0.00000000 </v>
   <v name="genvec1">      0.07692308      -0.00000000       0.00000000 </v>
   <v name="genvec2">     -0.00000000       0.07692308      -0.00000000 </v>
   <v name="genvec3">      0.00000000       0.00000000       0.07692308 </v>
   <v name="shift">      0.00000000       0.00000000       0.00000000 </v>
  </generation>
  <varray name="kpointlist" >
   <v>       0.00000000       0.00000000       0.00000000 </v>
   <v>       0.07692308      -0.00000000       0.00000000 </v>
   <v>       0.15384615      -0.00000000       0.00000000 </v>
   <v>       0.23076923       0.00000000      -0.00000000 </v>
   <v>       0.30769231      -0.00000000       0.00000000 </v>
   <v>       0.38461538       0.00000000      -0.00000000 </v>
   <v>       0.46153846      -0.00000000       0.00000000 </v>
   <v>       0.07692308       0.07692308       0.00000000 </v>
   <v>       0.15384615       0.07692308       0.00000000 </v>
   <v>       0.23076923       0.07692308      -0.00000000 </v>
   <v>       0.30769231       0.07692308       0.00000000 </v>
   <v>       0.38461538       0.07692308       0.00000000 </v>
   <v>       0.46153846       0.07692308       0.00000000 </v>
   <v>      -0.46153846       0.07692308      -0.00000000 </v>
   <v>      -0.38461538       0.07692308      -0.00000000 </v>
   <v>      -0.30769231       0.07692308      -0.00000000 </v>
   <v>      -0.23076923       0.07692308       0.00000000 </v>
   <v>      -0.15384615       0.07692308       0.00000000 </v>
   <v>      -0.07692308       0.07692308      -0.00000000 </v>
   <v>       0.15384615       0.15384615       0.00000000 </v>
   <v>       0.23076923       0.15384615      -0.00000000 </v>
   <v>       0.30769231       0.15384615       0.00000000 </v>
   <v>       0.38461538       0.15384615       0.00000000 </v>
   <v>       0.46153846       0.15384615       0.00000000 </v>
   <v>      -0.46153846       0.15384615      -0.00000000 </v>
   <v>      -0.38461538       0.15384615       0.00000000 </v>
   <v>      -0.30769231       0.15384615       0.00000000 </v>
   <v>      -0.23076923       0.15384615      -0.00000000 </v>
   <v>      -0.15384615       0.15384615      -0.00000000 </v>
   <v>       0.23076923       0.23076923       0.00000000 </v>
   <v>       0.30769231       0.23076923       0.00000000 </v>
   <v>       0.38461538       0.23076923      -0.00000000 </v>
   <v>       0.46153846       0.23076923       0.00000000 </v>
   <v>      -0.46153846       0.23076923      -0.00000000 </v>
   <v>      -0.38461538       0.23076923       0.00000000 </v>
   <v>      -0.30769231       0.23076923      -0.00000000 </v>
   <v>      -0.23076923       0.23076923       0.00000000 </v>
   <v>       0.30769231       0.30769231       0.00000000 </v>
   <v>       0.38461538       0.30769231       0.00000000 </v>
   <v>       0.46153846       0.30769231       0.00000000 </v>
   <v>      -0.46153846       0.30769231      -0.00000000 </v>
   <v>      -0.38461538       0.30769231       0.00000000 </v>
   <v>      -0.30769231       0.30769231      -0.00000000 </v>
   <v>       0.38461538       0.38461538       0.00000000 </v>
   <v>       0.46153846       0.38461538       0.00000000 </v>
   <v>      -0.46153846       0.38461538       0.00000000 </v>
   <v>      -0.38461538       0.38461538       0.00000000 </v>
   <v>       0.46153846       0.46153846       0.00000000 </v>
   <v>      -0.46153846       0.46153846      -0.00000000 </v>
   <v>       0.23076923       0.15384615       0.07692308 </v>
   <v>       0.30769231       0.15384615       0.07692308 </v>
   <v>       0.38461538       0.15384615       0.07692308 </v>
   <v>       0.46153846       0.15384615       0.07692308 </v>
   <v>      -0.46153846       0.15384615       0.07692308 </v>
   <v>       0.30769231       0.23076923       0.07692308 </v>
   <v>       0.38461538       0.23076923       0.07692308 </v>
   <v>       0.46153846       0.23076923       0.07692308 </v>
   <v>      -0.46153846       0.23076923       0.07692308 </v>
   <v>      -0.38461538       0.23076923       0.07692308 </v>
   <v>      -0.30769231       0.23076923       0.07692308 </v>
   <v>      -0.23076923       0.23076923       0.07692308 </v>
   <v>      -0.15384615       0.23076923       0.07692308 </v>
   <v>       0.38461538       0.30769231       0.07692308 </v>
   <v>       0.46153846       0.30769231       0.07692308 </v>
   <v>      -0.46153846       0.30769231       0.07692308 </v>
   <v>      -0.38461538       0.30769231       0.07692308 </v>
   <v>      -0.30769231       0.30769231       0.07692308 </v>
   <v>      -0.23076923       0.30769231       0.07692308 </v>
   <v>       0.46153846       0.38461538       0.07692308 </v>
   <v>      -0.46153846       0.38461538       0.07692308 </v>
   <v>      -0.38461538       0.38461538       0.07692308 </v>
   <v>      -0.30769231       0.38461538       0.07692308 </v>
   <v>      -0.46153846       0.46153846       0.07692308 </v>
   <v>      -0.38461538       0.46153846       0.07692308 </v>
   <v>       0.46153846       0.30769231       0.15384615 </v>
   <v>      -0.46153846       0.30769231       0.15384615 </v>
   <v>      -0.38461538       0.30769231       0.15384615 </v>
   <v>      -0.46153846       0.38461538       0.15384615 </v>
   <v>      -0.38461538       0.38461538       0.15384615 </v>
   <v>      -0.30769231       0.38461538       0.15384615 </v>
   <v>      -0.23076923       0.38461538       0.15384615 </v>
   <v>      -0.38461538       0.46153846       0.15384615 </v>
   <v>      -0.30769231       0.46153846       0.15384615 </v>
   <v>      -0.30769231       0.46153846       0.23076923 </v>
  </varray>
  <varray name="weights" >
   <v>       0.00045517 </v>
   <v>       0.00364133 </v>
   <v>       0.00364133 </v>
   <v>       0.00364133 </v>
   <v>       0.00364133 </v>
   <v>       0.00364133 </v>
   <v>       0.00364133 </v>
   <v>       0.00273100 </v>
   <v>       0.01092399 </v>
   <v>       0.01092399 </v>
   <v>       0.01092399 </v>
   <v>       0.01092399 </v>
   <v>       0.01092399 </v>
   <v>       0.01092399 </v>
   <v>       0.01092399 </v>
   <v>       0.01092399 </v>
   <v>       0.01092399 </v>
   <v>       0.01092399 </v>
   <v>       0.00546199 </v>
   <v>       0.00273100 </v>
   <v>       0.01092399 </v>
   <v>       0.01092399 </v>
   <v>       0.01092399 </v>
   <v>       0.01092399 </v>
   <v>       0.01092399 </v>
   <v>       0.01092399 </v>
   <v>       0.01092399 </v>
   <v>       0.01092399 </v>
   <v>       0.00546199 </v>
   <v>       0.00273100 </v>
   <v>       0.01092399 </v>
   <v>       0.01092399 </v>
   <v>       0.01092399 </v>
   <v>       0.01092399 </v>
   <v>       0.01092399 </v>
   <v>       0.01092399 </v>
   <v>       0.00546199 </v>
   <v>       0.00273100 </v>
   <v>       0.01092399 </v>
   <v>       0.01092399 </v>
   <v>       0.01092399 </v>
   <v>       0.01092399 </v>
   <v>       0.00546199 </v>
   <v>       0.00273100 </v>
   <v>       0.01092399 </v>
   <v>       0.01092399 </v>
   <v>       0.00546199 </v>
   <v>       0.00273100 </v>
   <v>       0.00546199 </v>
   <v>       0.01092399 </v>
   <v>       0.02184797 </v>
   <v>       0.02184797 </v>
   <v>       0.02184797 </v>
   <v>       0.02184797 </v>
   <v>       0.01092399 </v>
   <v>       0.02184797 </v>
   <v>       0.02184797 </v>
   <v>       0.02184797 </v>
   <v>       0.02184797 </v>
   <v>       0.02184797 </v>
   <v>       0.02184797 </v>
   <v>       0.01092399 </v>
   <v>       0.01092399 </v>
   <v>       0.02184797 </v>
   <v>       0.02184797 </v>
   <v>       0.02184797 </v>
   <v>       0.02184797 </v>
   <v>       0.01092399 </v>
   <v>       0.01092399 </v>
   <v>       0.02184797 </v>
   <v>       0.02184797 </v>
   <v>       0.01092399 </v>
   <v>       0.01092399 </v>
   <v>       0.01092399 </v>
   <v>       0.01092399 </v>
   <v>       0.02184797 </v>
   <v>       0.02184797 </v>
   <v>       0.01092399 </v>
   <v>       0.02184797 </v>
   <v>       0.02184797 </v>
   <v>       0.01092399 </v>
   <v>       0.01092399 </v>
   <v>       0.01092399 </v>
   <v>       0.01092399 </v>
  </varray>
 </kpoints>
 <parameters>
  <separator name="general" >
   <i type="string" name="SYSTEM">unknown system</i>
   <i type="logical" name="LCOMPAT"> F  </i>
  </separator>
  <separator name="electronic" >
   <i type="string" name="PREC">acc</i>
   <i name="ENMAX">    700.00000000</i>
   <i name="ENAUG">    526.41000000</i>
   <i name="EDIFF">      0.00000010</i>
   <i type="int" name="IALGO">    38</i>
   <i type="int" name="IWAVPR">    10</i>
   <i type="int" name="NBANDS">    24</i>
   <i type="int" name="NBANDSLOW">    -1</i>
   <i type="int" name="NBANDSHIGH">    -1</i>
   <i name="NELECT">     39.00000000</i>
   <i type="int" name="TURBO">     0</i>
   <i type="int" name="IRESTART">     0</i>
   <i type="int" name="NREBOOT">     0</i>
   <i type="int" name="NMIN">     0</i>
   <i name="EREF">      0.00000000</i>
   <separator name="electronic smearing" >
    <i type="int" name="ISMEAR">     0</i>
    <i name="SIGMA">      0.01000000</i>
    <i name="KSPACING">      0.50000000</i>
    <i type="logical" name="KGAMMA"> T  </i>
    <i type="logical" name="KBLOWUP"> T  </i>
   </separator>
   <separator name="electronic projectors" >
    <i type="logical" name="LREAL"> F  </i>
    <v name="ROPT">      0.00000000      0.00000000      0.00000000</v>
    <i type="int" name="LMAXPAW">  -100</i>
    <i type="int" name="LMAXMIX">     2</i>
    <i type="logical" name="NLSPLINE"> F  </i>
   </separator>
   <separator name="electronic startup" >
    <i type="int" name="ISTART">     0</i>
    <i type="int" name="ICHARG">     2</i>
    <i type="int" name="INIWAV">     1</i>
   </separator>
   <separator name="electronic spin" >
    <i type="int" name="ISPIN">     1</i>
    <i type="logical" name="LNONCOLLINEAR"> F  </i>
    <v name="MAGMOM">      1.00000000      1.00000000      1.00000000</v>
    <i name="NUPDOWN">     -1.00000000</i>
    <i type="logical" name="LSORBIT"> F  </i>
    <v name="SAXIS">      0.00000000      0.00000000      1.00000000</v>
    <i type="logical" name="LSPIRAL"> F  </i>
    <v name="QSPIRAL">      0.00000000      0.00000000      0.00000000</v>
    <i type="logical" name="LZEROZ"> F  </i>
   </separator>
   <separator name="electronic exchange-correlation" >
    <i type="logical" name="LASPH"> F  </i>
    <i type="logical" name="LMETAGGA"> F  </i>
   </separator>
   <separator name="electronic convergence" >
    <i type="int" name="NELM">    60</i>
    <i type="int" name="NELMDL">    -5</i>
    <i type="int" name="NELMIN">     5</i>
    <i name="ENINI">    700.00000000</i>
    <separator name="electronic convergence detail" >
     <i type="logical" name="LDIAG"> T  </i>
     <i type="logical" name="LSUBROT"> F  </i>
     <i name="WEIMIN">      0.00000000</i>
     <i name="EBREAK">      0.00000000</i>
     <i name="DEPER">      0.30000000</i>
     <i type="int" name="NRMM">     4</i>
     <i name="TIME">      0.40000000</i>
    </separator>
   </separator>
   <separator name="electronic mixer" >
    <i name="AMIX">      0.40000000</i>
    <i name="BMIX">      1.00000000</i>
    <i name="AMIN">      0.10000000</i>
    <i name="AMIX_MAG">      1.60000000</i>
    <i name="BMIX_MAG">      1.00000000</i>
    <separator name="electronic mixer details" >
     <i type="int" name="IMIX">     4</i>
     <i type="logical" name="MIXFIRST"> F  </i>
     <i type="int" name="MAXMIX">   -45</i>
     <i name="WC">    100.00000000</i>
     <i type="int" name="INIMIX">     1</i>
     <i type="int" name="MIXPRE">     1</i>
     <i type="int" name="MREMOVE">     5</i>
    </separator>
   </separator>
   <separator name="electronic dipolcorrection" >
    <i type="logical" name="LDIPOL"> F  </i>
    <i type="logical" name="LMONO"> F  </i>
    <i type="int" name="IDIPOL">     0</i>
    <i name="EPSILON">      1.00000000</i>
    <v name="DIPOL">   -100.00000000   -100.00000000   -100.00000000</v>
    <i name="EFIELD">      0.00000000</i>
   </separator>
  </separator>
  <separator name="grids" >
   <i type="int" name="NGX">    40</i>
   <i type="int" name="NGY">    40</i>
   <i type="int" name="NGZ">    40</i>
   <i type="int" name="NGXF">    80</i>
   <i type="int" name="NGYF">    80</i>
   <i type="int" name="NGZF">    80</i>
   <i type="logical" name="ADDGRID"> T  </i>
  </separator>
  <separator name="ionic" >
   <i type="int" name="NSW">     0</i>
   <i type="int" name="IBRION">    -1</i>
   <i type="int" name="MDALGO">     0</i>
   <i type="int" name="ISIF">     3</i>
   <i name="PSTRESS">      0.00000000</i>
   <i name="EDIFFG">      0.00000100</i>
   <i type="int" name="NFREE">     0</i>
   <i name="POTIM">      0.50000000</i>
   <i name="SMASS">     -3.00000000</i>
   <i name="SCALEE">      1.00000000</i>
  </separator>
  <separator name="ionic md" >
   <i name="TEBEG">      0.00010000</i>
   <i name="TEEND">      0.00010000</i>
   <i type="int" name="NBLOCK">     1</i>
   <i type="int" name="KBLOCK">     1</i>
   <i type="int" name="NPACO">   256</i>
   <i name="APACO">     16.00000000</i>
  </separator>
  <separator name="symmetry" >
   <i type="int" name="ISYM">     2</i>
   <i name="SYMPREC">      0.00001000</i>
  </separator>
  <separator name="dos" >
   <i type="int" name="LORBIT">     0</i>
   <v name="RWIGS">     -1.00000000     -1.00000000     -1.00000000</v>
   <i type="int" name="NEDOS">   301</i>
   <i name="EMIN">     10.00000000</i>
   <i name="EMAX">    -10.00000000</i>
   <i name="EFERMI">      0.00000000</i>
  </separator>
  <separator name="writing" >
   <i type="int" name="NWRITE">     2</i>
   <i type="logical" name="LWAVE"> F  </i>
   <i type="logical" name="LDOWNSAMPLE"> F  </i>
   <i type="logical" name="LCHARG"> F  </i>
   <i type="logical" name="LPARD"> F  </i>
   <i type="logical" name="LVTOT"> F  </i>
   <i type="logical" name="LVHAR"> F  </i>
   <i type="logical" name="LELF"> F  </i>
   <i type="logical" name="LOPTICS"> F  </i>
   <v name="STM">      0.00000000      0.00000000      0.00000000      0.00000000      0.00000000      0.00000000      0.00000000</v>
  </separator>
  <separator name="performance" >
   <i type="int" name="NPAR">     4</i>
   <i type="int" name="NSIM">     4</i>
   <i type="int" name="NBLK">    -1</i>
   <i type="logical" name="LPLANE"> T  </i>
   <i type="logical" name="LSCALAPACK"> T  </i>
   <i type="logical" name="LSCAAWARE"> F  </i>
   <i type="logical" name="LSCALU"> F  </i>
   <i type="logical" name="LASYNC"> F  </i>
   <i type="logical" name="LORBITALREAL"> F  </i>
  </separator>
  <separator name="miscellaneous" >
   <i type="int" name="IDIOT">     3</i>
   <i type="int" name="PHON_NSTRUCT">    -1</i>
   <i type="logical" name="LMUSIC"> F  </i>
   <v name="POMASS">    238.02900000    208.98000000    195.08000000</v>
   <v name="DARWINR">      0.00000000      0.00000000      0.00000000</v>
   <v name="DARWINV">      1.00000000      1.00000000      1.00000000</v>
   <i type="logical" name="LCORR"> T  </i>
  </separator>
  <i type="logical" name="GGA_COMPAT"> T  </i>
  <i type="logical" name="LBERRY"> F  </i>
  <i type="int" name="ICORELEVEL">     0</i>
  <i type="logical" name="LDAU"> F  </i>
  <i type="int" name="I_CONSTRAINED_M">     0</i>
  <separator name="electronic exchange-correlation" >
   <i type="string" name="GGA">PS</i>
   <i type="int" name="VOSKOWN">     0</i>
   <i type="logical" name="LHFCALC"> F  </i>
   <i type="string" name="PRECFOCK"></i>
   <i type="logical" name="LSYMGRAD"> F  </i>
   <i type="logical" name="LHFONE"> F  </i>
   <i type="logical" name="LRHFCALC"> F  </i>
   <i type="logical" name="LTHOMAS"> F  </i>
   <i type="logical" name="LMODELHF"> F  </i>
   <i type="logical" name="LFOCKACE"> F  </i>
   <i name="ENCUT4O">     -1.00000000</i>
   <i type="int" name="EXXOEP">     0</i>
   <i type="int" name="FOURORBIT">     0</i>
   <i name="AEXX">      0.00000000</i>
   <i name="HFALPHA">      0.00000000</i>
   <i name="MCALPHA">      0.00000000</i>
   <i name="ALDAX">      1.00000000</i>
   <i name="AGGAX">      1.00000000</i>
   <i name="ALDAC">      1.00000000</i>
   <i name="AGGAC">      1.00000000</i>
   <i type="int" name="NKREDX">     1</i>
   <i type="int" name="NKREDY">     1</i>
   <i type="int" name="NKREDZ">     1</i>
   <i type="logical" name="SHIFTRED"> F  </i>
   <i type="logical" name="ODDONLY"> F  </i>
   <i type="logical" name="EVENONLY"> F  </i>
   <i type="int" name="LMAXFOCK">     0</i>
   <i type="int" name="NMAXFOCKAE">     0</i>
   <i type="logical" name="LFOCKAEDFT"> F  </i>
   <i name="HFSCREEN">      0.00000000</i>
   <i name="HFSCREENC">      0.00000000</i>
   <i type="int" name="NBANDSGWLOW">     0</i>
  </separator>
  <separator name="vdW DFT" >
   <i type="logical" name="LUSE_VDW"> F  </i>
   <i name="Zab_VDW">     -0.84910000</i>
   <i name="PARAM1">      0.12340000</i>
   <i name="PARAM2">      1.00000000</i>
   <i name="PARAM3">      0.00000000</i>
  </separator>
  <separator name="model GW" >
   <i type="int" name="MODEL_GW">     0</i>
   <i name="MODEL_EPS0">     14.02230447</i>
   <i name="MODEL_ALPHA">      1.00000000</i>
  </separator>
  <separator name="linear response parameters" >
   <i type="logical" name="LEPSILON"> F  </i>
   <i type="logical" name="LRPA"> F  </i>
   <i type="logical" name="LNABLA"> F  </i>
   <i type="logical" name="LVEL"> F  </i>
   <i type="int" name="KINTER">     0</i>
   <i name="CSHIFT">      0.10000000</i>
   <i name="OMEGAMAX">     -1.00000000</i>
   <i name="DEG_THRESHOLD">      0.00200000</i>
   <i name="RTIME">     -0.10000000</i>
   <i name="WPLASMAI">      0.00000000</i>
   <v name="DFIELD">      0.00000000      0.00000000      0.00000000</v>
   <v name="WPLASMA">      0.00000000      0.00000000      0.00000000      0.00000000      0.00000000      0.00000000      0.00000000      0.00000000      0.00000000</v>
  </separator>
  <separator name="orbital magnetization" >
   <i type="logical" name="NUCIND"> F  </i>
   <v name="MAGPOS">      0.00000000      0.00000000      0.00000000</v>
   <i type="logical" name="LNICSALL"> T  </i>
   <i type="logical" name="ORBITALMAG"> F  </i>
   <i type="logical" name="LMAGBLOCH"> F  </i>
   <i type="logical" name="LCHIMAG"> F  </i>
   <i type="logical" name="LGAUGE"> T  </i>
   <i type="int" name="MAGATOM">     0</i>
   <v name="MAGDIPOL">      0.00000000      0.00000000      0.00000000</v>
   <v name="AVECCONST">      0.00000000      0.00000000      0.00000000</v>
  </separator>
  <separator name="response functions" >
   <i type="logical" name="LFINITE_TEMPERATURE"> F  </i>
   <i type="logical" name="LADDER"> F  </i>
   <i type="logical" name="LRPAFORCE"> F  </i>
   <i type="logical" name="LFXC"> F  </i>
   <i type="logical" name="LHARTREE"> T  </i>
   <i type="int" name="IBSE">     0</i>
   <v type="int" name="KPOINT">    -1     0     0     0</v>
   <i type="logical" name="LTCTC"> F  </i>
   <i type="logical" name="LTCTE"> F  </i>
   <i type="logical" name="LTETE"> F  </i>
   <i type="logical" name="LTRIPLET"> F  </i>
   <i type="logical" name="LFXCEPS"> F  </i>
   <i type="logical" name="LFXHEG"> F  </i>
   <i type="int" name="NATURALO">     2</i>
   <i type="logical" name="L2ORDER"> F  </i>
   <i type="logical" name="LDMP1"> F  </i>
   <i type="logical" name="LMP2LT"> F  </i>
   <i type="logical" name="LSMP2LT"> F  </i>
   <i type="logical" name="LUSEW"> F  </i>
   <i name="ENCUTGW">     -2.00000000</i>
   <i name="ENCUTGWSOFT">     -2.00000000</i>
   <i name="ENCUTLF">     -1.00000000</i>
   <i type="int" name="LMAXMP2">    -1</i>
   <i name="SCISSOR">      0.00000000</i>
   <i type="int" name="NOMEGA">     0</i>
   <i type="int" name="NOMEGAR">     0</i>
   <i type="int" name="NBANDSGW">    -1</i>
   <i type="int" name="NBANDSO">    -1</i>
   <i type="int" name="NBANDSV">    -1</i>
   <i type="int" name="NELM">     1</i>
   <i type="int" name="NELMHF">     1</i>
   <i type="int" name="DIM">     3</i>
   <i type="int" name="IESPILON">     4</i>
   <i type="int" name="ANTIRES">     0</i>
   <i name="OMEGAMAX">    -30.00000000</i>
   <i name="OMEGAMIN">    -30.00000000</i>
   <i name="OMEGATL">   -200.00000000</i>
   <i type="int" name="OMEGAGRID">   145</i>
   <i name="CSHIFT">     -0.10000000</i>
   <i type="logical" name="LSELFENERGY"> F  </i>
   <i type="logical" name="LSPECTRAL"> F  </i>
   <i type="logical" name="LSPECTRALGW"> F  </i>
   <i type="logical" name="LSINGLES"> F  </i>
   <i type="logical" name="LFERMIGW"> F  </i>
   <i type="logical" name="ODDONLYGW"> F  </i>
   <i type="logical" name="EVENONLYGW"> F  </i>
   <i type="int" name="NKREDLFX">     1</i>
   <i type="int" name="NKREDLFY">     1</i>
   <i type="int" name="NKREDLFZ">     1</i>
   <i type="int" name="MAXMEM">  2800</i>
   <i type="int" name="TELESCOPE">     0</i>
   <i type="int" name="NTAUPAR">     1</i>
   <i type="int" name="NOMEGAPAR">    -1</i>
   <i name="LAMBDA">      1.00000000</i>
  </separator>
  <separator name="External order field" >
   <i name="OFIELD_KAPPA">      0.00000000</i>
   <v name="OFIELD_K">      0.00000000      0.00000000      0.00000000</v>
   <i name="OFIELD_Q6_NEAR">      0.00000000</i>
   <i name="OFIELD_Q6_FAR">      0.00000000</i>
   <i name="OFIELD_A">      0.00000000</i>
  </separator>
 </parameters>
 <atominfo>
  <atoms>       3 </atoms>
  <types>       3 </types>
  <array name="atoms" >
   <dimension dim="1">ion</dimension>
   <field type="string">element</field>
   <field type="int">atomtype</field>
   <set>
    <rc><c>U </c><c>   1</c></rc>
    <rc><c>Bi</c><c>   2</c></rc>
    <rc><c>Pt</c><c>   3</c></rc>
   </set>
  </array>
  <array name="atomtypes" >
   <dimension dim="1">type</dimension>
   <field type="int">atomspertype</field>
   <field type="string">element</field>
   <field>mass</field>
   <field>valence</field>
   <field type="string">pseudopotential</field>
   <set>
    <rc><c>   1</c><c>U </c><c>    238.02900000</c><c>     14.00000000</c><c>  PAW_PBE U 06Sep2000                   </c></rc>
    <rc><c>   1</c><c>Bi</c><c>    208.98000000</c><c>     15.00000000</c><c>  PAW_PBE Bi_d 06Sep2000                </c></rc>
    <rc><c>   1</c><c>Pt</c><c>    195.08000000</c><c>     10.00000000</c><c>  PAW_PBE Pt 04Feb2005                  </c></rc>
   </set>
  </array>
 </atominfo>
 <structure name="initialpos" >
  <crystal>
   <varray name="basis" >
    <v>       0.00000000       3.27280252       3.27280252 </v>
    <v>       3.27280252       0.00000000       3.27280252 </v>
    <v>       3.27280252       3.27280252       0.00000000 </v>
   </varray>
   <i name="volume">     70.11152235 </i>
   <varray name="rec_basis" >
    <v>      -0.15277427       0.15277427       0.15277427 </v>
    <v>       0.15277427      -0.15277427       0.15277427 </v>
    <v>       0.15277427       0.15277427      -0.15277427 </v>
   </varray>
  </crystal>
  <varray name="positions" >
   <v>       0.25000000       0.25000000       0.25000000 </v>
   <v>       0.75000000       0.75000000       0.75000000 </v>
   <v>       0.00000000       0.00000000       0.00000000 </v>
  </varray>
 </structure>
 <calculation>
  <scstep>
   <time name="dav">    1.42    1.44</time>
   <time name="total">    1.56    1.68</time>
   <energy>
    <i name="alphaZ">    224.28245953 </i>
    <i name="ewald">  -3642.53867378 </i>
    <i name="hartreedc">   -763.34153310 </i>
    <i name="XCdc">     90.85171631 </i>
    <i name="pawpsdc">   3513.29252893 </i>
    <i name="pawaedc">  -3436.88002192 </i>
    <i name="eentropy">     -0.00006428 </i>
    <i name="bandstr">    351.59720863 </i>
    <i name="atom">   4095.35208632 </i>
    <i name="e_fr_energy">    432.61570664 </i>
    <i name="e_wo_entrp">    432.61577093 </i>
    <i name="e_0_energy">    432.61573878 </i>
   </energy>
  </scstep>
  <scstep>
   <time name="dav">    1.50    1.52</time>
   <time name="total">    1.50    1.53</time>
   <energy>
    <i name="e_fr_energy">     30.51306993 </i>
    <i name="e_wo_entrp">     30.51347785 </i>
    <i name="e_0_energy">     30.51327389 </i>
   </energy>
  </scstep>
  <scstep>
   <time name="dav">    1.72    1.74</time>
   <time name="total">    1.72    1.74</time>
   <energy>
    <i name="e_fr_energy">    -20.78704428 </i>
    <i name="e_wo_entrp">    -20.78619800 </i>
    <i name="e_0_energy">    -20.78662114 </i>
   </energy>
  </scstep>
  <scstep>
   <time name="dav">    2.25    2.27</time>
   <time name="total">    2.25    2.28</time>
   <energy>
    <i name="e_fr_energy">    -25.93282717 </i>
    <i name="e_wo_entrp">    -25.93205491 </i>
    <i name="e_0_energy">    -25.93244104 </i>
   </energy>
  </scstep>
  <scstep>
   <time name="dav">    1.80    1.82</time>
   <time name="total">    2.15    2.17</time>
   <energy>
    <i name="e_fr_energy">    -26.10157310 </i>
    <i name="e_wo_entrp">    -26.10075134 </i>
    <i name="e_0_energy">    -26.10116222 </i>
   </energy>
  </scstep>
  <scstep>
   <time name="dav">    1.94    1.94</time>
   <time name="total">    2.35    2.38</time>
   <energy>
    <i name="e_fr_energy">    -32.51561466 </i>
    <i name="e_wo_entrp">    -32.51545544 </i>
    <i name="e_0_energy">    -32.51553505 </i>
   </energy>
  </scstep>
  <scstep>
   <time name="dav">    1.87    1.87</time>
   <time name="total">    2.27    2.30</time>
   <energy>
    <i name="e_fr_energy">    -24.45042061 </i>
    <i name="e_wo_entrp">    -24.44951800 </i>
    <i name="e_0_energy">    -24.44996931 </i>
   </energy>
  </scstep>
  <scstep>
   <time name="dav">    1.88    1.88</time>
   <time name="total">    2.28    2.31</time>
   <energy>
    <i name="e_fr_energy">    -24.39770195 </i>
    <i name="e_wo_entrp">    -24.39647716 </i>
    <i name="e_0_energy">    -24.39708956 </i>
   </energy>
  </scstep>
  <scstep>
   <time name="dav">    1.93    1.93</time>
   <time name="total">    2.33    2.37</time>
   <energy>
    <i name="e_fr_energy">    -23.71979086 </i>
    <i name="e_wo_entrp">    -23.71852554 </i>
    <i name="e_0_energy">    -23.71915820 </i>
   </energy>
  </scstep>
  <scstep>
   <time name="dav">    1.99    1.99</time>
   <time name="total">    2.38    2.43</time>
   <energy>
    <i name="e_fr_energy">    -23.73845618 </i>
    <i name="e_wo_entrp">    -23.73709771 </i>
    <i name="e_0_energy">    -23.73777694 </i>
   </energy>
  </scstep>
  <scstep>
   <time name="dav">    1.90    1.90</time>
   <time name="total">    2.31    2.33</time>
   <energy>
    <i name="e_fr_energy">    -23.71884627 </i>
    <i name="e_wo_entrp">    -23.71730596 </i>
    <i name="e_0_energy">    -23.71807611 </i>
   </energy>
  </scstep>
  <scstep>
   <time name="dav">    2.08    2.08</time>
   <time name="total">    2.50    2.52</time>
   <energy>
    <i name="e_fr_energy">    -23.71916344 </i>
    <i name="e_wo_entrp">    -23.71760622 </i>
    <i name="e_0_energy">    -23.71838483 </i>
   </energy>
  </scstep>
  <scstep>
   <time name="dav">    1.93    1.93</time>
   <time name="total">    2.34    2.37</time>
   <energy>
    <i name="e_fr_energy">    -23.71911183 </i>
    <i name="e_wo_entrp">    -23.71756703 </i>
    <i name="e_0_energy">    -23.71833943 </i>
   </energy>
  </scstep>
  <scstep>
   <time name="dav">    1.89    1.89</time>
   <time name="total">    2.29    2.32</time>
   <energy>
    <i name="e_fr_energy">    -23.71911674 </i>
    <i name="e_wo_entrp">    -23.71755921 </i>
    <i name="e_0_energy">    -23.71833797 </i>
   </energy>
  </scstep>
  <scstep>
   <time name="dav">    2.17    2.17</time>
   <time name="total">    2.58    2.60</time>
   <energy>
    <i name="e_fr_energy">    -23.71910464 </i>
    <i name="e_wo_entrp">    -23.71755248 </i>
    <i name="e_0_energy">    -23.71832856 </i>
   </energy>
  </scstep>
  <scstep>
   <time name="dav">    2.22    2.22</time>
   <time name="total">    2.62    2.67</time>
   <energy>
    <i name="e_fr_energy">    -23.71910504 </i>
    <i name="e_wo_entrp">    -23.71755395 </i>
    <i name="e_0_energy">    -23.71832949 </i>
   </energy>
  </scstep>
  <scstep>
   <time name="dav">    1.58    1.58</time>
   <time name="total">    1.99    2.02</time>
   <energy>
    <i name="e_fr_energy">    -23.71910480 </i>
    <i name="e_wo_entrp">    -23.71755329 </i>
    <i name="e_0_energy">    -23.71832904 </i>
   </energy>
  </scstep>
  <scstep>
   <time name="dav">    1.73    1.73</time>
   <time name="total">    2.15    2.17</time>
   <energy>
    <i name="e_fr_energy">    -23.71910462 </i>
    <i name="e_wo_entrp">    -23.71755238 </i>
    <i name="e_0_energy">    -23.71832850 </i>
   </energy>
  </scstep>
  <scstep>
   <time name="dav">    1.38    1.39</time>
   <time name="total">    1.52    1.54</time>
   <energy>
    <i name="alphaZ">    224.28245953 </i>
    <i name="ewald">  -3642.53867378 </i>
    <i name="hartreedc">   -748.48242387 </i>
    <i name="XCdc">     90.41275699 </i>
    <i name="pawpsdc">   4315.34066064 </i>
    <i name="pawaedc">  -4249.01721102 </i>
    <i name="eentropy">     -0.00155212 </i>
    <i name="bandstr">   -109.06720730 </i>
    <i name="atom">   4095.35208632 </i>
    <i name="e_fr_energy">    -23.71910462 </i>
    <i name="e_wo_entrp">    -23.71755250 </i>
    <i name="e_0_energy">    -23.71832856 </i>
   </energy>
  </scstep>
  <structure>
   <crystal>
    <varray name="basis" >
     <v>       0.00000000       3.27280252       3.27280252 </v>
     <v>       3.27280252       0.00000000       3.27280252 </v>
     <v>       3.27280252       3.27280252       0.00000000 </v>
    </varray>
    <i name="volume">     70.11152235 </i>
    <varray name="rec_basis" >
     <v>      -0.15277427       0.15277427       0.15277427 </v>
     <v>       0.15277427      -0.15277427       0.15277427 </v>
     <v>       0.15277427       0.15277427      -0.15277427 </v>
    </varray>
   </crystal>
   <varray name="positions" >
    <v>       0.25000000       0.25000000       0.25000000 </v>
    <v>       0.75000000       0.75000000       0.75000000 </v>
    <v>       0.00000000       0.00000000       0.00000000 </v>
   </varray>
  </structure>
  <varray name="forces" >
   <v>       0.00000000       0.00000000       0.00000000 </v>
   <v>       0.00000000       0.00000000       0.00000000 </v>
   <v>      -0.00000000      -0.00000000      -0.00000000 </v>
  </varray>
  <varray name="stress" >
   <v>      55.69977978       0.00000000      -0.00000000 </v>
   <v>       0.00000000      55.69977978       0.00000000 </v>
   <v>       0.00000000       0.00000000      55.69977978 </v>
  </varray>
  <energy>
   <i name="e_fr_energy">    -23.71910462 </i>
   <i name="e_wo_entrp">    -23.71832856 </i>
   <i name="e_0_energy">     -0.00155212 </i>
  </energy>
  <time name="totalsc">   44.65   45.68</time>
  <eigenvalues>
   <array>
    <dimension dim="1">band</dimension>
    <dimension dim="2">kpoint</dimension>
    <dimension dim="3">spin</dimension>
    <field>eigene</field>
    <field>occ</field>
    <set>
     <set comment="spin 1">
      <set comment="kpoint 1">
       <r>  -33.4213    1.0000 </r>
       <r>  -12.3306    1.0000 </r>
       <r>  -12.3306    1.0000 </r>
       <r>  -12.2993    1.0000 </r>
       <r>  -12.2993    1.0000 </r>
       <r>  -12.2993    1.0000 </r>
       <r>   -8.7551    1.0000 </r>
       <r>   -8.7551    1.0000 </r>
       <r>   -8.7551    1.0000 </r>
       <r>   -2.1158    1.0000 </r>
       <r>    5.8546    1.0000 </r>
       <r>    5.8546    1.0000 </r>
       <r>    5.8546    1.0000 </r>
       <r>    6.0643    1.0000 </r>
       <r>    6.0643    1.0000 </r>
       <r>    9.1791    1.0000 </r>
       <r>    9.4120    1.0000 </r>
       <r>    9.4120    1.0000 </r>
       <r>    9.4120    1.0000 </r>
       <r>   10.5813    1.0000 </r>
       <r>   10.5813    1.0000 </r>
       <r>   10.5813    1.0000 </r>
       <r>   10.9322    0.0000 </r>
       <r>   10.9322    0.0000 </r>
      </set>
      <set comment="kpoint 2">
       <r>  -33.4209    1.0000 </r>
       <r>  -12.3327    1.0000 </r>
       <r>  -12.3327    1.0000 </r>
       <r>  -12.2997    1.0000 </r>
       <r>  -12.2991    1.0000 </r>
       <r>  -12.2991    1.0000 </r>
       <r>   -8.7732    1.0000 </r>
       <r>   -8.7506    1.0000 </r>
       <r>   -8.7506    1.0000 </r>
       <r>   -2.0390    1.0000 </r>
       <r>    5.7074    1.0000 </r>
       <r>    5.7074    1.0000 </r>
       <r>    5.7284    1.0000 </r>
       <r>    6.2026    1.0000 </r>
       <r>    6.2026    1.0000 </r>
       <r>    8.6436    1.0000 </r>
       <r>    9.3497    1.0000 </r>
       <r>    9.3497    1.0000 </r>
       <r>    9.7455    1.0000 </r>
       <r>   10.5827    1.0000 </r>
       <r>   10.5827    1.0000 </r>
       <r>   10.5994    1.0000 </r>
       <r>   10.9337    0.0000 </r>
       <r>   11.0026    0.0000 </r>
      </set>
      <set comment="kpoint 3">
       <r>  -33.4200    1.0000 </r>
       <r>  -12.3384    1.0000 </r>
       <r>  -12.3384    1.0000 </r>
       <r>  -12.3008    1.0000 </r>
       <r>  -12.2984    1.0000 </r>
       <r>  -12.2984    1.0000 </r>
       <r>   -8.8214    1.0000 </r>
       <r>   -8.7380    1.0000 </r>
       <r>   -8.7380    1.0000 </r>
       <r>   -1.8253    1.0000 </r>
       <r>    5.4035    1.0000 </r>
       <r>    5.5189    1.0000 </r>
       <r>    5.5189    1.0000 </r>
       <r>    6.3528    1.0000 </r>
       <r>    6.3528    1.0000 </r>
       <r>    7.9847    1.0000 </r>
       <r>    9.2183    1.0000 </r>
       <r>    9.2183    1.0000 </r>
       <r>    9.8093    1.0000 </r>
       <r>   10.5933    1.0000 </r>
       <r>   10.5933    1.0000 </r>
       <r>   10.8383    0.0000 </r>
       <r>   10.9374    0.0000 </r>
       <r>   11.1458    0.0000 </r>
      </set>
      <set comment="kpoint 4">
       <r>  -33.4186    1.0000 </r>
       <r>  -12.3464    1.0000 </r>
       <r>  -12.3464    1.0000 </r>
       <r>  -12.3028    1.0000 </r>
       <r>  -12.2973    1.0000 </r>
       <r>  -12.2973    1.0000 </r>
       <r>   -8.8843    1.0000 </r>
       <r>   -8.7205    1.0000 </r>
       <r>   -8.7205    1.0000 </r>
       <r>   -1.5209    1.0000 </r>
       <r>    4.9938    1.0000 </r>
       <r>    5.3785    1.0000 </r>
       <r>    5.3785    1.0000 </r>
       <r>    6.4045    1.0000 </r>
       <r>    6.4045    1.0000 </r>
       <r>    7.3934    1.0000 </r>
       <r>    9.1103    1.0000 </r>
       <r>    9.1103    1.0000 </r>
       <r>    9.7932    1.0000 </r>
       <r>   10.6179    1.0000 </r>
       <r>   10.6179    1.0000 </r>
       <r>   10.9423    0.0000 </r>
       <r>   10.9950    0.0000 </r>
       <r>   11.2353    0.0000 </r>
      </set>
      <set comment="kpoint 5">
       <r>  -33.4172    1.0000 </r>
       <r>  -12.3548    1.0000 </r>
       <r>  -12.3548    1.0000 </r>
       <r>  -12.3052    1.0000 </r>
       <r>  -12.2961    1.0000 </r>
       <r>  -12.2961    1.0000 </r>
       <r>   -8.9453    1.0000 </r>
       <r>   -8.7020    1.0000 </r>
       <r>   -8.7020    1.0000 </r>
       <r>   -1.1930    1.0000 </r>
       <r>    4.6061    1.0000 </r>
       <r>    5.3016    1.0000 </r>
       <r>    5.3016    1.0000 </r>
       <r>    6.3466    1.0000 </r>
       <r>    6.3466    1.0000 </r>
       <r>    6.9302    1.0000 </r>
       <r>    9.0689    1.0000 </r>
       <r>    9.0689    1.0000 </r>
       <r>    9.8278    1.0000 </r>
       <r>   10.6571    0.8378 </r>
       <r>   10.6571    0.8378 </r>
       <r>   10.9478    0.0000 </r>
       <r>   11.0748    0.0000 </r>
       <r>   11.2114    0.0000 </r>
      </set>
      <set comment="kpoint 6">
       <r>  -33.4160    1.0000 </r>
       <r>  -12.3617    1.0000 </r>
       <r>  -12.3617    1.0000 </r>
       <r>  -12.3076    1.0000 </r>
       <r>  -12.2952    1.0000 </r>
       <r>  -12.2952    1.0000 </r>
       <r>   -8.9918    1.0000 </r>
       <r>   -8.6868    1.0000 </r>
       <r>   -8.6868    1.0000 </r>
       <r>   -0.9169    1.0000 </r>
       <r>    4.3153    1.0000 </r>
       <r>    5.2819    1.0000 </r>
       <r>    5.2819    1.0000 </r>
       <r>    6.2288    1.0000 </r>
       <r>    6.2288    1.0000 </r>
       <r>    6.6182    1.0000 </r>
       <r>    9.0764    1.0000 </r>
       <r>    9.0764    1.0000 </r>
       <r>    9.9058    1.0000 </r>
       <r>   10.7084    0.0000 </r>
       <r>   10.7084    0.0000 </r>
       <r>   10.9548    0.0000 </r>
       <r>   11.1277    0.0000 </r>
       <r>   11.1335    0.0000 </r>
      </set>
      <set comment="kpoint 7">
       <r>  -33.4153    1.0000 </r>
       <r>  -12.3656    1.0000 </r>
       <r>  -12.3656    1.0000 </r>
       <r>  -12.3090    1.0000 </r>
       <r>  -12.2946    1.0000 </r>
       <r>  -12.2946    1.0000 </r>
       <r>   -9.0165    1.0000 </r>
       <r>   -8.6783    1.0000 </r>
       <r>   -8.6783    1.0000 </r>
       <r>   -0.7594    1.0000 </r>
       <r>    4.1624    1.0000 </r>
       <r>    5.2911    1.0000 </r>
       <r>    5.2911    1.0000 </r>
       <r>    6.1344    1.0000 </r>
       <r>    6.1344    1.0000 </r>
       <r>    6.4624    1.0000 </r>
       <r>    9.0929    1.0000 </r>
       <r>    9.0929    1.0000 </r>
       <r>    9.9753    1.0000 </r>
       <r>   10.7552    0.0000 </r>
       <r>   10.7552    0.0000 </r>
       <r>   11.0538    0.0000 </r>
       <r>   11.0543    0.0000 </r>
       <r>   11.1279    0.0000 </r>
      </set>
      <set comment="kpoint 8">
       <r>  -33.4208    1.0000 </r>
       <r>  -12.3362    1.0000 </r>
       <r>  -12.3301    1.0000 </r>
       <r>  -12.2999    1.0000 </r>
       <r>  -12.2989    1.0000 </r>
       <r>  -12.2989    1.0000 </r>
       <r>   -8.7645    1.0000 </r>
       <r>   -8.7566    1.0000 </r>
       <r>   -8.7566    1.0000 </r>
       <r>   -2.0151    1.0000 </r>
       <r>    5.4342    1.0000 </r>
       <r>    5.8678    1.0000 </r>
       <r>    5.8678    1.0000 </r>
       <r>    6.0786    1.0000 </r>
       <r>    6.2569    1.0000 </r>
       <r>    8.6280    1.0000 </r>
       <r>    9.2481    1.0000 </r>
       <r>    9.2481    1.0000 </r>
       <r>    9.9001    1.0000 </r>
       <r>   10.5115    1.0000 </r>
       <r>   10.6123    1.0000 </r>
       <r>   10.6123    1.0000 </r>
       <r>   10.9441    0.0000 </r>
       <r>   11.0192    0.0000 </r>
      </set>
      <set comment="kpoint 9">
       <r>  -33.4201    1.0000 </r>
       <r>  -12.3425    1.0000 </r>
       <r>  -12.3318    1.0000 </r>
       <r>  -12.3008    1.0000 </r>
       <r>  -12.2985    1.0000 </r>
       <r>  -12.2983    1.0000 </r>
       <r>   -8.8012    1.0000 </r>
       <r>   -8.7535    1.0000 </r>
       <r>   -8.7425    1.0000 </r>
       <r>   -1.8524    1.0000 </r>
       <r>    5.1424    1.0000 </r>
       <r>    5.7410    1.0000 </r>
       <r>    5.7546    1.0000 </r>
       <r>    6.1966    1.0000 </r>
       <r>    6.3714    1.0000 </r>
       <r>    8.1795    1.0000 </r>
       <r>    9.1055    1.0000 </r>
       <r>    9.1077    1.0000 </r>
       <r>    9.9819    1.0000 </r>
       <r>   10.5592    1.0000 </r>
       <r>   10.6246    1.0000 </r>
       <r>   10.7517    0.0000 </r>
       <r>   10.9505    0.0000 </r>
       <r>   11.1224    0.0000 </r>
      </set>
      <set comment="kpoint 10">
       <r>  -33.4188    1.0000 </r>
       <r>  -12.3500    1.0000 </r>
       <r>  -12.3373    1.0000 </r>
       <r>  -12.3023    1.0000 </r>
       <r>  -12.2977    1.0000 </r>
       <r>  -12.2972    1.0000 </r>
       <r>   -8.8597    1.0000 </r>
       <r>   -8.7420    1.0000 </r>
       <r>   -8.7232    1.0000 </r>
       <r>   -1.5877    1.0000 </r>
       <r>    4.8605    1.0000 </r>
       <r>    5.4938    1.0000 </r>
       <r>    5.6120    1.0000 </r>
       <r>    6.2816    1.0000 </r>
       <r>    6.4667    1.0000 </r>
       <r>    7.6272    1.0000 </r>
       <r>    8.9677    1.0000 </r>
       <r>    9.0073    1.0000 </r>
       <r>    9.9539    1.0000 </r>
       <r>   10.5947    1.0000 </r>
       <r>   10.6349    1.0000 </r>
       <r>   10.9442    0.0000 </r>
       <r>   10.9539    0.0000 </r>
       <r>   11.2066    0.0000 </r>
      </set>
      <set comment="kpoint 11">
       <r>  -33.4174    1.0000 </r>
       <r>  -12.3572    1.0000 </r>
       <r>  -12.3453    1.0000 </r>
       <r>  -12.3043    1.0000 </r>
       <r>  -12.2968    1.0000 </r>
       <r>  -12.2960    1.0000 </r>
       <r>   -8.9213    1.0000 </r>
       <r>   -8.7248    1.0000 </r>
       <r>   -8.7054    1.0000 </r>
       <r>   -1.2814    1.0000 </r>
       <r>    4.5958    1.0000 </r>
       <r>    5.2972    1.0000 </r>
       <r>    5.5088    1.0000 </r>
       <r>    6.2585    1.0000 </r>
       <r>    6.4680    1.0000 </r>
       <r>    7.1298    1.0000 </r>
       <r>    8.8941    1.0000 </r>
       <r>    8.9865    1.0000 </r>
       <r>    9.9396    1.0000 </r>
       <r>   10.6443    0.9974 </r>
       <r>   10.6572    0.8353 </r>
       <r>   10.9568    0.0000 </r>
       <r>   11.0307    0.0000 </r>
       <r>   11.2054    0.0000 </r>
      </set>
      <set comment="kpoint 12">
       <r>  -33.4162    1.0000 </r>
       <r>  -12.3622    1.0000 </r>
       <r>  -12.3539    1.0000 </r>
       <r>  -12.3065    1.0000 </r>
       <r>  -12.2960    1.0000 </r>
       <r>  -12.2950    1.0000 </r>
       <r>   -8.9721    1.0000 </r>
       <r>   -8.7059    1.0000 </r>
       <r>   -8.6930    1.0000 </r>
       <r>   -1.0041    1.0000 </r>
       <r>    4.3784    1.0000 </r>
       <r>    5.2124    1.0000 </r>
       <r>    5.4372    1.0000 </r>
       <r>    6.1766    1.0000 </r>
       <r>    6.3806    1.0000 </r>
       <r>    6.7541    1.0000 </r>
       <r>    8.8872    1.0000 </r>
       <r>    9.0145    1.0000 </r>
       <r>    9.9715    1.0000 </r>
       <r>   10.6963    0.0000 </r>
       <r>   10.7011    0.0000 </r>
       <r>   10.9576    0.0000 </r>
       <r>   11.0668    0.0000 </r>
       <r>   11.1628    0.0000 </r>
      </set>
      <set comment="kpoint 13">
       <r>  -33.4153    1.0000 </r>
       <r>  -12.3642    1.0000 </r>
       <r>  -12.3611    1.0000 </r>
       <r>  -12.3082    1.0000 </r>
       <r>  -12.2953    1.0000 </r>
       <r>  -12.2944    1.0000 </r>
       <r>   -9.0034    1.0000 </r>
       <r>   -8.6896    1.0000 </r>
       <r>   -8.6888    1.0000 </r>
       <r>   -0.8199    1.0000 </r>
       <r>    4.2451    1.0000 </r>
       <r>    5.2286    1.0000 </r>
       <r>    5.3631    1.0000 </r>
       <r>    6.1304    1.0000 </r>
       <r>    6.2560    1.0000 </r>
       <r>    6.5301    1.0000 </r>
       <r>    8.9070    1.0000 </r>
       <r>    9.0448    1.0000 </r>
       <r>   10.0276    1.0000 </r>
       <r>   10.7475    0.0000 </r>
       <r>   10.7495    0.0000 </r>
       <r>   10.9525    0.0000 </r>
       <r>   11.0449    0.0000 </r>
       <r>   11.1127    0.0000 </r>
      </set>
      <set comment="kpoint 14">
       <r>  -33.4151    1.0000 </r>
       <r>  -12.3653    1.0000 </r>
       <r>  -12.3626    1.0000 </r>
       <r>  -12.3086    1.0000 </r>
       <r>  -12.2949    1.0000 </r>
       <r>  -12.2944    1.0000 </r>
       <r>   -9.0113    1.0000 </r>
       <r>   -8.6934    1.0000 </r>
       <r>   -8.6794    1.0000 </r>
       <r>   -0.7695    1.0000 </r>
       <r>    4.2108    1.0000 </r>
       <r>    5.2676    1.0000 </r>
       <r>    5.3070    1.0000 </r>
       <r>    6.1572    1.0000 </r>
       <r>    6.1805    1.0000 </r>
       <r>    6.4751    1.0000 </r>
       <r>    8.9096    1.0000 </r>
       <r>    9.0534    1.0000 </r>
       <r>   10.0514    1.0000 </r>
       <r>   10.7542    0.0000 </r>
       <r>   10.7814    0.0000 </r>
       <r>   10.9420    0.0000 </r>
       <r>   11.0513    0.0000 </r>
       <r>   11.0622    0.0000 </r>
      </set>
      <set comment="kpoint 15">
       <r>  -33.4156    1.0000 </r>
       <r>  -12.3656    1.0000 </r>
       <r>  -12.3578    1.0000 </r>
       <r>  -12.3076    1.0000 </r>
       <r>  -12.2951    1.0000 </r>
       <r>  -12.2949    1.0000 </r>
       <r>   -8.9949    1.0000 </r>
       <r>   -8.7057    1.0000 </r>
       <r>   -8.6778    1.0000 </r>
       <r>   -0.8641    1.0000 </r>
       <r>    4.2813    1.0000 </r>
       <r>    5.1815    1.0000 </r>
       <r>    5.4033    1.0000 </r>
       <r>    6.1364    1.0000 </r>
       <r>    6.3054    1.0000 </r>
       <r>    6.5902    1.0000 </r>
       <r>    8.8710    1.0000 </r>
       <r>    9.0477    1.0000 </r>
       <r>   10.0168    1.0000 </r>
       <r>   10.7152    0.0000 </r>
       <r>   10.7530    0.0000 </r>
       <r>   10.9484    0.0000 </r>
       <r>   11.0822    0.0000 </r>
       <r>   11.1007    0.0000 </r>
      </set>
      <set comment="kpoint 16">
       <r>  -33.4166    1.0000 </r>
       <r>  -12.3620    1.0000 </r>
       <r>  -12.3508    1.0000 </r>
       <r>  -12.3057    1.0000 </r>
       <r>  -12.2959    1.0000 </r>
       <r>  -12.2958    1.0000 </r>
       <r>   -8.9564    1.0000 </r>
       <r>   -8.7229    1.0000 </r>
       <r>   -8.6850    1.0000 </r>
       <r>   -1.0838    1.0000 </r>
       <r>    4.4639    1.0000 </r>
       <r>    5.1458    1.0000 </r>
       <r>    5.5002    1.0000 </r>
       <r>    6.1916    1.0000 </r>
       <r>    6.4411    1.0000 </r>
       <r>    6.8649    1.0000 </r>
       <r>    8.8012    1.0000 </r>
       <r>    9.0570    1.0000 </r>
       <r>    9.9641    1.0000 </r>
       <r>   10.6720    0.1307 </r>
       <r>   10.6932    0.0000 </r>
       <r>   10.9535    0.0000 </r>
       <r>   11.0788    0.0000 </r>
       <r>   11.1495    0.0000 </r>
      </set>
      <set comment="kpoint 17">
       <r>  -33.4179    1.0000 </r>
       <r>  -12.3552    1.0000 </r>
       <r>  -12.3431    1.0000 </r>
       <r>  -12.3034    1.0000 </r>
       <r>  -12.2970    1.0000 </r>
       <r>  -12.2967    1.0000 </r>
       <r>   -8.9014    1.0000 </r>
       <r>   -8.7407    1.0000 </r>
       <r>   -8.6996    1.0000 </r>
       <r>   -1.3790    1.0000 </r>
       <r>    4.7489    1.0000 </r>
       <r>    5.1832    1.0000 </r>
       <r>    5.6196    1.0000 </r>
       <r>    6.2475    1.0000 </r>
       <r>    6.5197    1.0000 </r>
       <r>    7.2827    1.0000 </r>
       <r>    8.7513    1.0000 </r>
       <r>    9.1157    1.0000 </r>
       <r>    9.9406    1.0000 </r>
       <r>   10.6352    1.0000 </r>
       <r>   10.6414    0.9993 </r>
       <r>   10.9516    0.0000 </r>
       <r>   11.0182    0.0000 </r>
       <r>   11.2064    0.0000 </r>
      </set>
      <set comment="kpoint 18">
       <r>  -33.4193    1.0000 </r>
       <r>  -12.3469    1.0000 </r>
       <r>  -12.3366    1.0000 </r>
       <r>  -12.3016    1.0000 </r>
       <r>  -12.2980    1.0000 </r>
       <r>  -12.2978    1.0000 </r>
       <r>   -8.8412    1.0000 </r>
       <r>   -8.7546    1.0000 </r>
       <r>   -8.7182    1.0000 </r>
       <r>   -1.6804    1.0000 </r>
       <r>    5.0928    1.0000 </r>
       <r>    5.2992    1.0000 </r>
       <r>    5.7751    1.0000 </r>
       <r>    6.2233    1.0000 </r>
       <r>    6.4975    1.0000 </r>
       <r>    7.8001    1.0000 </r>
       <r>    8.8038    1.0000 </r>
       <r>    9.2277    1.0000 </r>
       <r>    9.9531    1.0000 </r>
       <r>   10.5890    1.0000 </r>
       <r>   10.6219    1.0000 </r>
       <r>   10.9134    0.0000 </r>
       <r>   10.9469    0.0000 </r>
       <r>   11.1890    0.0000 </r>
      </set>
      <set comment="kpoint 19">
       <r>  -33.4204    1.0000 </r>
       <r>  -12.3387    1.0000 </r>
       <r>  -12.3328    1.0000 </r>
       <r>  -12.3003    1.0000 </r>
       <r>  -12.2988    1.0000 </r>
       <r>  -12.2986    1.0000 </r>
       <r>   -8.7932    1.0000 </r>
       <r>   -8.7586    1.0000 </r>
       <r>   -8.7367    1.0000 </r>
       <r>   -1.9184    1.0000 </r>
       <r>    5.4339    1.0000 </r>
       <r>    5.4835    1.0000 </r>
       <r>    5.8794    1.0000 </r>
       <r>    6.1509    1.0000 </r>
       <r>    6.3779    1.0000 </r>
       <r>    8.3018    1.0000 </r>
       <r>    9.0408    1.0000 </r>
       <r>    9.3357    1.0000 </r>
       <r>    9.9243    1.0000 </r>
       <r>   10.5666    1.0000 </r>
       <r>   10.5973    1.0000 </r>
       <r>   10.7246    0.0000 </r>
       <r>   10.9404    0.0000 </r>
       <r>   11.0889    0.0000 </r>
      </set>
      <set comment="kpoint 20">
       <r>  -33.4196    1.0000 </r>
       <r>  -12.3478    1.0000 </r>
       <r>  -12.3288    1.0000 </r>
       <r>  -12.3017    1.0000 </r>
       <r>  -12.2978    1.0000 </r>
       <r>  -12.2978    1.0000 </r>
       <r>   -8.7917    1.0000 </r>
       <r>   -8.7612    1.0000 </r>
       <r>   -8.7612    1.0000 </r>
       <r>   -1.7565    1.0000 </r>
       <r>    4.8298    1.0000 </r>
       <r>    5.8905    1.0000 </r>
       <r>    5.8905    1.0000 </r>
       <r>    6.1185    1.0000 </r>
       <r>    6.3112    1.0000 </r>
       <r>    8.1450    1.0000 </r>
       <r>    8.9654    1.0000 </r>
       <r>    8.9654    1.0000 </r>
       <r>   10.0078    1.0000 </r>
       <r>   10.6460    0.9947 </r>
       <r>   10.6460    0.9947 </r>
       <r>   10.6961    0.0000 </r>
       <r>   10.9798    0.0000 </r>
       <r>   11.1770    0.0000 </r>
      </set>
      <set comment="kpoint 21">
       <r>  -33.4186    1.0000 </r>
       <r>  -12.3531    1.0000 </r>
       <r>  -12.3302    1.0000 </r>
       <r>  -12.3030    1.0000 </r>
       <r>  -12.2971    1.0000 </r>
       <r>  -12.2968    1.0000 </r>
       <r>   -8.8351    1.0000 </r>
       <r>   -8.7592    1.0000 </r>
       <r>   -8.7472    1.0000 </r>
       <r>   -1.5638    1.0000 </r>
       <r>    4.5829    1.0000 </r>
       <r>    5.7488    1.0000 </r>
       <r>    5.8168    1.0000 </r>
       <r>    6.1863    1.0000 </r>
       <r>    6.3673    1.0000 </r>
       <r>    7.8456    1.0000 </r>
       <r>    8.7935    1.0000 </r>
       <r>    8.8776    1.0000 </r>
       <r>   10.0355    1.0000 </r>
       <r>   10.6154    1.0000 </r>
       <r>   10.6570    0.8401 </r>
       <r>   10.8666    0.0000 </r>
       <r>   10.9939    0.0000 </r>
       <r>   11.2311    0.0000 </r>
      </set>
      <set comment="kpoint 22">
       <r>  -33.4173    1.0000 </r>
       <r>  -12.3572    1.0000 </r>
       <r>  -12.3357    1.0000 </r>
       <r>  -12.3044    1.0000 </r>
       <r>  -12.2966    1.0000 </r>
       <r>  -12.2956    1.0000 </r>
       <r>   -8.8924    1.0000 </r>
       <r>   -8.7481    1.0000 </r>
       <r>   -8.7300    1.0000 </r>
       <r>   -1.3241    1.0000 </r>
       <r>    4.4309    1.0000 </r>
       <r>    5.5005    1.0000 </r>
       <r>    5.7118    1.0000 </r>
       <r>    6.2011    1.0000 </r>
       <r>    6.4413    1.0000 </r>
       <r>    7.4314    1.0000 </r>
       <r>    8.6273    1.0000 </r>
       <r>    8.8720    1.0000 </r>
       <r>   10.0753    1.0000 </r>
       <r>   10.6351    1.0000 </r>
       <r>   10.6724    0.1205 </r>
       <r>   10.9585    0.0000 </r>
       <r>   10.9953    0.0000 </r>
       <r>   11.2314    0.0000 </r>
      </set>
      <set comment="kpoint 23">
       <r>  -33.4161    1.0000 </r>
       <r>  -12.3591    1.0000 </r>
       <r>  -12.3438    1.0000 </r>
       <r>  -12.3058    1.0000 </r>
       <r>  -12.2963    1.0000 </r>
       <r>  -12.2944    1.0000 </r>
       <r>   -8.9429    1.0000 </r>
       <r>   -8.7306    1.0000 </r>
       <r>   -8.7204    1.0000 </r>
       <r>   -1.0960    1.0000 </r>
       <r>    4.3789    1.0000 </r>
       <r>    5.3076    1.0000 </r>
       <r>    5.6025    1.0000 </r>
       <r>    6.1671    1.0000 </r>
       <r>    6.4419    1.0000 </r>
       <r>    7.0239    1.0000 </r>
       <r>    8.5498    1.0000 </r>
       <r>    8.9141    1.0000 </r>
       <r>   10.0944    1.0000 </r>
       <r>   10.6886    0.0003 </r>
       <r>   10.7022    0.0000 </r>
       <r>   10.9895    0.0000 </r>
       <r>   10.9948    0.0000 </r>
       <r>   11.1997    0.0000 </r>
      </set>
      <set comment="kpoint 24">
       <r>  -33.4152    1.0000 </r>
       <r>  -12.3586    1.0000 </r>
       <r>  -12.3526    1.0000 </r>
       <r>  -12.3068    1.0000 </r>
       <r>  -12.2961    1.0000 </r>
       <r>  -12.2938    1.0000 </r>
       <r>   -8.9766    1.0000 </r>
       <r>   -8.7206    1.0000 </r>
       <r>   -8.7106    1.0000 </r>
       <r>   -0.9283    1.0000 </r>
       <r>    4.3935    1.0000 </r>
       <r>    5.2260    1.0000 </r>
       <r>    5.4616    1.0000 </r>
       <r>    6.1718    1.0000 </r>
       <r>    6.3701    1.0000 </r>
       <r>    6.7217    1.0000 </r>
       <r>    8.5315    1.0000 </r>
       <r>    8.9498    1.0000 </r>
       <r>   10.1275    1.0000 </r>
       <r>   10.7339    0.0000 </r>
       <r>   10.7497    0.0000 </r>
       <r>   10.9736    0.0000 </r>
       <r>   11.0132    0.0000 </r>
       <r>   11.1744    0.0000 </r>
      </set>
      <set comment="kpoint 25">
       <r>  -33.4148    1.0000 </r>
       <r>  -12.3601    1.0000 </r>
       <r>  -12.3558    1.0000 </r>
       <r>  -12.3071    1.0000 </r>
       <r>  -12.2961    1.0000 </r>
       <r>  -12.2938    1.0000 </r>
       <r>   -8.9891    1.0000 </r>
       <r>   -8.7300    1.0000 </r>
       <r>   -8.6927    1.0000 </r>
       <r>   -0.8493    1.0000 </r>
       <r>    4.4091    1.0000 </r>
       <r>    5.2660    1.0000 </r>
       <r>    5.2978    1.0000 </r>
       <r>    6.2536    1.0000 </r>
       <r>    6.2626    1.0000 </r>
       <r>    6.5985    1.0000 </r>
       <r>    8.5162    1.0000 </r>
       <r>    8.9559    1.0000 </r>
       <r>   10.1613    1.0000 </r>
       <r>   10.7371    0.0000 </r>
       <r>   10.8050    0.0000 </r>
       <r>   10.9407    0.0000 </r>
       <r>   11.0454    0.0000 </r>
       <r>   11.1151    0.0000 </r>
      </set>
      <set comment="kpoint 26">
       <r>  -33.4150    1.0000 </r>
       <r>  -12.3646    1.0000 </r>
       <r>  -12.3513    1.0000 </r>
       <r>  -12.3064    1.0000 </r>
       <r>  -12.2962    1.0000 </r>
       <r>  -12.2943    1.0000 </r>
       <r>   -8.9798    1.0000 </r>
       <r>   -8.7456    1.0000 </r>
       <r>   -8.6808    1.0000 </r>
       <r>   -0.8709    1.0000 </r>
       <r>    4.3990    1.0000 </r>
       <r>    5.1541    1.0000 </r>
       <r>    5.3964    1.0000 </r>
       <r>    6.1764    1.0000 </r>
       <r>    6.3865    1.0000 </r>
       <r>    6.6777    1.0000 </r>
       <r>    8.4581    1.0000 </r>
       <r>    8.9472    1.0000 </r>
       <r>   10.1614    1.0000 </r>
       <r>   10.7051    0.0000 </r>
       <r>   10.8188    0.0000 </r>
       <r>   10.9239    0.0000 </r>
       <r>   11.0805    0.0000 </r>
       <r>   11.0912    0.0000 </r>
      </set>
      <set comment="kpoint 27">
       <r>  -33.4158    1.0000 </r>
       <r>  -12.3653    1.0000 </r>
       <r>  -12.3461    1.0000 </r>
       <r>  -12.3050    1.0000 </r>
       <r>  -12.2964    1.0000 </r>
       <r>  -12.2953    1.0000 </r>
       <r>   -8.9512    1.0000 </r>
       <r>   -8.7626    1.0000 </r>
       <r>   -8.6777    1.0000 </r>
       <r>   -0.9949    1.0000 </r>
       <r>    4.4176    1.0000 </r>
       <r>    5.0677    1.0000 </r>
       <r>    5.5696    1.0000 </r>
       <r>    6.1405    1.0000 </r>
       <r>    6.5196    1.0000 </r>
       <r>    6.9286    1.0000 </r>
       <r>    8.3513    1.0000 </r>
       <r>    8.9597    1.0000 </r>
       <r>   10.1317    1.0000 </r>
       <r>   10.6727    0.1124 </r>
       <r>   10.7613    0.0000 </r>
       <r>   10.9505    0.0000 </r>
       <r>   11.0688    0.0000 </r>
       <r>   11.1106    0.0000 </r>
      </set>
      <set comment="kpoint 28">
       <r>  -33.4169    1.0000 </r>
       <r>  -12.3620    1.0000 </r>
       <r>  -12.3412    1.0000 </r>
       <r>  -12.3036    1.0000 </r>
       <r>  -12.2968    1.0000 </r>
       <r>  -12.2964    1.0000 </r>
       <r>   -8.9101    1.0000 </r>
       <r>   -8.7743    1.0000 </r>
       <r>   -8.6842    1.0000 </r>
       <r>   -1.2044    1.0000 </r>
       <r>    4.5357    1.0000 </r>
       <r>    5.0602    1.0000 </r>
       <r>    5.7493    1.0000 </r>
       <r>    6.1317    1.0000 </r>
       <r>    6.5985    1.0000 </r>
       <r>    7.2896    1.0000 </r>
       <r>    8.2577    1.0000 </r>
       <r>    9.0254    1.0000 </r>
       <r>   10.0976    1.0000 </r>
       <r>   10.6531    0.9403 </r>
       <r>   10.6917    0.0000 </r>
       <r>   10.9625    0.0000 </r>
       <r>   11.0328    0.0000 </r>
       <r>   11.1596    0.0000 </r>
      </set>
      <set comment="kpoint 29">
       <r>  -33.4182    1.0000 </r>
       <r>  -12.3554    1.0000 </r>
       <r>  -12.3376    1.0000 </r>
       <r>  -12.3024    1.0000 </r>
       <r>  -12.2973    1.0000 </r>
       <r>  -12.2972    1.0000 </r>
       <r>   -8.8692    1.0000 </r>
       <r>   -8.7726    1.0000 </r>
       <r>   -8.6988    1.0000 </r>
       <r>   -1.4539    1.0000 </r>
       <r>    4.7730    1.0000 </r>
       <r>    5.1393    1.0000 </r>
       <r>    5.8815    1.0000 </r>
       <r>    6.1192    1.0000 </r>
       <r>    6.5897    1.0000 </r>
       <r>    7.6208    1.0000 </r>
       <r>    8.3633    1.0000 </r>
       <r>    9.1368    1.0000 </r>
       <r>   10.0572    1.0000 </r>
       <r>   10.6285    1.0000 </r>
       <r>   10.6403    0.9996 </r>
       <r>   10.9588    0.0000 </r>
       <r>   10.9821    0.0000 </r>
       <r>   11.1983    0.0000 </r>
      </set>
      <set comment="kpoint 30">
       <r>  -33.4178    1.0000 </r>
       <r>  -12.3548    1.0000 </r>
       <r>  -12.3268    1.0000 </r>
       <r>  -12.3044    1.0000 </r>
       <r>  -12.2960    1.0000 </r>
       <r>  -12.2960    1.0000 </r>
       <r>   -8.8339    1.0000 </r>
       <r>   -8.7679    1.0000 </r>
       <r>   -8.7679    1.0000 </r>
       <r>   -1.4627    1.0000 </r>
       <r>    4.3898    1.0000 </r>
       <r>    5.8848    1.0000 </r>
       <r>    5.8848    1.0000 </r>
       <r>    6.1763    1.0000 </r>
       <r>    6.2009    1.0000 </r>
       <r>    7.8128    1.0000 </r>
       <r>    8.7993    1.0000 </r>
       <r>    8.7993    1.0000 </r>
       <r>    9.9826    1.0000 </r>
       <r>   10.6721    0.1286 </r>
       <r>   10.6721    0.1286 </r>
       <r>   10.8269    0.0000 </r>
       <r>   11.0392    0.0000 </r>
       <r>   11.3005    0.0000 </r>
      </set>
      <set comment="kpoint 31">
       <r>  -33.4168    1.0000 </r>
       <r>  -12.3547    1.0000 </r>
       <r>  -12.3282    1.0000 </r>
       <r>  -12.3057    1.0000 </r>
       <r>  -12.2952    1.0000 </r>
       <r>  -12.2948    1.0000 </r>
       <r>   -8.8735    1.0000 </r>
       <r>   -8.7665    1.0000 </r>
       <r>   -8.7614    1.0000 </r>
       <r>   -1.3192    1.0000 </r>
       <r>    4.3276    1.0000 </r>
       <r>    5.7082    1.0000 </r>
       <r>    5.8274    1.0000 </r>
       <r>    6.2031    1.0000 </r>
       <r>    6.2468    1.0000 </r>
       <r>    7.5980    1.0000 </r>
       <r>    8.6483    1.0000 </r>
       <r>    8.8037    1.0000 </r>
       <r>   10.0790    1.0000 </r>
       <r>   10.6569    0.8457 </r>
       <r>   10.6870    0.0006 </r>
       <r>   10.8778    0.0000 </r>
       <r>   11.0597    0.0000 </r>
       <r>   11.2962    0.0000 </r>
      </set>
      <set comment="kpoint 32">
       <r>  -33.4157    1.0000 </r>
       <r>  -12.3528    1.0000 </r>
       <r>  -12.3338    1.0000 </r>
       <r>  -12.3066    1.0000 </r>
       <r>  -12.2951    1.0000 </r>
       <r>  -12.2937    1.0000 </r>
       <r>   -8.9175    1.0000 </r>
       <r>   -8.7557    1.0000 </r>
       <r>   -8.7551    1.0000 </r>
       <r>   -1.1732    1.0000 </r>
       <r>    4.4022    1.0000 </r>
       <r>    5.4688    1.0000 </r>
       <r>    5.7182    1.0000 </r>
       <r>    6.2080    1.0000 </r>
       <r>    6.3376    1.0000 </r>
       <r>    7.2930    1.0000 </r>
       <r>    8.4187    1.0000 </r>
       <r>    8.8532    1.0000 </r>
       <r>   10.1833    1.0000 </r>
       <r>   10.6693    0.2286 </r>
       <r>   10.7115    0.0000 </r>
       <r>   10.9207    0.0000 </r>
       <r>   11.0554    0.0000 </r>
       <r>   11.2498    0.0000 </r>
      </set>
      <set comment="kpoint 33">
       <r>  -33.4148    1.0000 </r>
       <r>  -12.3497    1.0000 </r>
       <r>  -12.3421    1.0000 </r>
       <r>  -12.3068    1.0000 </r>
       <r>  -12.2957    1.0000 </r>
       <r>  -12.2930    1.0000 </r>
       <r>   -8.9476    1.0000 </r>
       <r>   -8.7608    1.0000 </r>
       <r>   -8.7366    1.0000 </r>
       <r>   -1.0534    1.0000 </r>
       <r>    4.5690    1.0000 </r>
       <r>    5.3063    1.0000 </r>
       <r>    5.5590    1.0000 </r>
       <r>    6.2410    1.0000 </r>
       <r>    6.3638    1.0000 </r>
       <r>    6.9848    1.0000 </r>
       <r>    8.2477    1.0000 </r>
       <r>    8.8851    1.0000 </r>
       <r>   10.2279    1.0000 </r>
       <r>   10.7051    0.0000 </r>
       <r>   10.7513    0.0000 </r>
       <r>   10.9642    0.0000 </r>
       <r>   11.0320    0.0000 </r>
       <r>   11.1994    0.0000 </r>
      </set>
      <set comment="kpoint 34">
       <r>  -33.4144    1.0000 </r>
       <r>  -12.3513    1.0000 </r>
       <r>  -12.3463    1.0000 </r>
       <r>  -12.3061    1.0000 </r>
       <r>  -12.2967    1.0000 </r>
       <r>  -12.2929    1.0000 </r>
       <r>   -8.9582    1.0000 </r>
       <r>   -8.7762    1.0000 </r>
       <r>   -8.7150    1.0000 </r>
       <r>   -0.9726    1.0000 </r>
       <r>    4.7118    1.0000 </r>
       <r>    5.2493    1.0000 </r>
       <r>    5.3717    1.0000 </r>
       <r>    6.3060    1.0000 </r>
       <r>    6.3273    1.0000 </r>
       <r>    6.8125    1.0000 </r>
       <r>    8.1326    1.0000 </r>
       <r>    8.8750    1.0000 </r>
       <r>   10.2592    1.0000 </r>
       <r>   10.7067    0.0000 </r>
       <r>   10.8041    0.0000 </r>
       <r>   10.9870    0.0000 </r>
       <r>   11.0286    0.0000 </r>
       <r>   11.1605    0.0000 </r>
      </set>
      <set comment="kpoint 35">
       <r>  -33.4144    1.0000 </r>
       <r>  -12.3592    1.0000 </r>
       <r>  -12.3435    1.0000 </r>
       <r>  -12.3046    1.0000 </r>
       <r>  -12.2978    1.0000 </r>
       <r>  -12.2934    1.0000 </r>
       <r>   -8.9505    1.0000 </r>
       <r>   -8.7963    1.0000 </r>
       <r>   -8.6952    1.0000 </r>
       <r>   -0.9373    1.0000 </r>
       <r>    4.6897    1.0000 </r>
       <r>    5.1982    1.0000 </r>
       <r>    5.3135    1.0000 </r>
       <r>    6.2253    1.0000 </r>
       <r>    6.4464    1.0000 </r>
       <r>    6.8599    1.0000 </r>
       <r>    8.0309    1.0000 </r>
       <r>    8.8476    1.0000 </r>
       <r>   10.2760    1.0000 </r>
       <r>   10.6751    0.0598 </r>
       <r>   10.8570    0.0000 </r>
       <r>   10.9267    0.0000 </r>
       <r>   11.0703    0.0000 </r>
       <r>   11.1607    0.0000 </r>
      </set>
      <set comment="kpoint 36">
       <r>  -33.4149    1.0000 </r>
       <r>  -12.3642    1.0000 </r>
       <r>  -12.3416    1.0000 </r>
       <r>  -12.3033    1.0000 </r>
       <r>  -12.2981    1.0000 </r>
       <r>  -12.2943    1.0000 </r>
       <r>   -8.9319    1.0000 </r>
       <r>   -8.8104    1.0000 </r>
       <r>   -8.6818    1.0000 </r>
       <r>   -0.9595    1.0000 </r>
       <r>    4.5522    1.0000 </r>
       <r>    5.0742    1.0000 </r>
       <r>    5.4633    1.0000 </r>
       <r>    6.1762    1.0000 </r>
       <r>    6.5566    1.0000 </r>
       <r>    7.0769    1.0000 </r>
       <r>    7.9233    1.0000 </r>
       <r>    8.8494    1.0000 </r>
       <r>   10.2556    1.0000 </r>
       <r>   10.6506    0.9717 </r>
       <r>   10.8370    0.0000 </r>
       <r>   10.9259    0.0000 </r>
       <r>   11.0637    0.0000 </r>
       <r>   11.1118    0.0000 </r>
      </set>
      <set comment="kpoint 37">
       <r>  -33.4158    1.0000 </r>
       <r>  -12.3652    1.0000 </r>
       <r>  -12.3407    1.0000 </r>
       <r>  -12.3032    1.0000 </r>
       <r>  -12.2974    1.0000 </r>
       <r>  -12.2954    1.0000 </r>
       <r>   -8.9167    1.0000 </r>
       <r>   -8.8037    1.0000 </r>
       <r>   -8.6778    1.0000 </r>
       <r>   -1.0513    1.0000 </r>
       <r>    4.4690    1.0000 </r>
       <r>    5.0240    1.0000 </r>
       <r>    5.6405    1.0000 </r>
       <r>    6.1416    1.0000 </r>
       <r>    6.6144    1.0000 </r>
       <r>    7.2858    1.0000 </r>
       <r>    7.9271    1.0000 </r>
       <r>    8.9134    1.0000 </r>
       <r>   10.1948    1.0000 </r>
       <r>   10.6500    0.9769 </r>
       <r>   10.7648    0.0000 </r>
       <r>   10.9565    0.0000 </r>
       <r>   11.0480    0.0000 </r>
       <r>   11.1210    0.0000 </r>
      </set>
      <set comment="kpoint 38">
       <r>  -33.4160    1.0000 </r>
       <r>  -12.3502    1.0000 </r>
       <r>  -12.3247    1.0000 </r>
       <r>  -12.3073    1.0000 </r>
       <r>  -12.2938    1.0000 </r>
       <r>  -12.2938    1.0000 </r>
       <r>   -8.8845    1.0000 </r>
       <r>   -8.7757    1.0000 </r>
       <r>   -8.7757    1.0000 </r>
       <r>   -1.2812    1.0000 </r>
       <r>    4.3591    1.0000 </r>
       <r>    5.8307    1.0000 </r>
       <r>    5.8307    1.0000 </r>
       <r>    6.0145    1.0000 </r>
       <r>    6.2396    1.0000 </r>
       <r>    7.5014    1.0000 </r>
       <r>    8.8186    1.0000 </r>
       <r>    8.8186    1.0000 </r>
       <r>   10.0651    1.0000 </r>
       <r>   10.7014    0.0000 </r>
       <r>   10.7014    0.0000 </r>
       <r>   10.8191    0.0000 </r>
       <r>   11.1190    0.0000 </r>
       <r>   11.3889    0.0000 </r>
      </set>
      <set comment="kpoint 39">
       <r>  -33.4152    1.0000 </r>
       <r>  -12.3447    1.0000 </r>
       <r>  -12.3262    1.0000 </r>
       <r>  -12.3084    1.0000 </r>
       <r>  -12.2932    1.0000 </r>
       <r>  -12.2927    1.0000 </r>
       <r>   -8.9140    1.0000 </r>
       <r>   -8.7778    1.0000 </r>
       <r>   -8.7739    1.0000 </r>
       <r>   -1.2272    1.0000 </r>
       <r>    4.5302    1.0000 </r>
       <r>    5.6284    1.0000 </r>
       <r>    5.7639    1.0000 </r>
       <r>    6.0944    1.0000 </r>
       <r>    6.2628    1.0000 </r>
       <r>    7.2850    1.0000 </r>
       <r>    8.6929    1.0000 </r>
       <r>    8.8786    1.0000 </r>
       <r>   10.2111    1.0000 </r>
       <r>   10.6835    0.0031 </r>
       <r>   10.7219    0.0000 </r>
       <r>   10.8437    0.0000 </r>
       <r>   11.1419    0.0000 </r>
       <r>   11.3252    0.0000 </r>
      </set>
      <set comment="kpoint 40">
       <r>  -33.4145    1.0000 </r>
       <r>  -12.3396    1.0000 </r>
       <r>  -12.3321    1.0000 </r>
       <r>  -12.3084    1.0000 </r>
       <r>  -12.2937    1.0000 </r>
       <r>  -12.2920    1.0000 </r>
       <r>   -8.9352    1.0000 </r>
       <r>   -8.7875    1.0000 </r>
       <r>   -8.7614    1.0000 </r>
       <r>   -1.1672    1.0000 </r>
       <r>    4.7919    1.0000 </r>
       <r>    5.4266    1.0000 </r>
       <r>    5.6382    1.0000 </r>
       <r>    6.2178    1.0000 </r>
       <r>    6.2987    1.0000 </r>
       <r>    7.0318    1.0000 </r>
       <r>    8.3764    1.0000 </r>
       <r>    8.9081    1.0000 </r>
       <r>   10.3267    1.0000 </r>
       <r>   10.6789    0.0183 </r>
       <r>   10.7534    0.0000 </r>
       <r>   10.9056    0.0000 </r>
       <r>   11.1261    0.0000 </r>
       <r>   11.2334    0.0000 </r>
      </set>
      <set comment="kpoint 41">
       <r>  -33.4140    1.0000 </r>
       <r>  -12.3408    1.0000 </r>
       <r>  -12.3363    1.0000 </r>
       <r>  -12.3072    1.0000 </r>
       <r>  -12.2953    1.0000 </r>
       <r>  -12.2919    1.0000 </r>
       <r>   -8.9372    1.0000 </r>
       <r>   -8.8097    1.0000 </r>
       <r>   -8.7411    1.0000 </r>
       <r>   -1.1030    1.0000 </r>
       <r>    5.0282    1.0000 </r>
       <r>    5.3123    1.0000 </r>
       <r>    5.4713    1.0000 </r>
       <r>    6.2642    1.0000 </r>
       <r>    6.3702    1.0000 </r>
       <r>    6.8664    1.0000 </r>
       <r>    8.0511    1.0000 </r>
       <r>    8.8758    1.0000 </r>
       <r>   10.3573    1.0000 </r>
       <r>   10.6789    0.0178 </r>
       <r>   10.7945    0.0000 </r>
       <r>   10.9967    0.0000 </r>
       <r>   11.0715    0.0000 </r>
       <r>   11.1581    0.0000 </r>
      </set>
      <set comment="kpoint 42">
       <r>  -33.4139    1.0000 </r>
       <r>  -12.3504    1.0000 </r>
       <r>  -12.3359    1.0000 </r>
       <r>  -12.3046    1.0000 </r>
       <r>  -12.2976    1.0000 </r>
       <r>  -12.2924    1.0000 </r>
       <r>   -8.9213    1.0000 </r>
       <r>   -8.8386    1.0000 </r>
       <r>   -8.7176    1.0000 </r>
       <r>   -1.0368    1.0000 </r>
       <r>    5.0773    1.0000 </r>
       <r>    5.2538    1.0000 </r>
       <r>    5.2993    1.0000 </r>
       <r>    6.2263    1.0000 </r>
       <r>    6.4610    1.0000 </r>
       <r>    6.9366    1.0000 </r>
       <r>    7.8004    1.0000 </r>
       <r>    8.8177    1.0000 </r>
       <r>   10.3634    1.0000 </r>
       <r>   10.6515    0.9629 </r>
       <r>   10.8386    0.0000 </r>
       <r>   10.9943    0.0000 </r>
       <r>   11.0625    0.0000 </r>
       <r>   11.1394    0.0000 </r>
      </set>
      <set comment="kpoint 43">
       <r>  -33.4143    1.0000 </r>
       <r>  -12.3588    1.0000 </r>
       <r>  -12.3379    1.0000 </r>
       <r>  -12.3020    1.0000 </r>
       <r>  -12.2998    1.0000 </r>
       <r>  -12.2933    1.0000 </r>
       <r>   -8.9112    1.0000 </r>
       <r>   -8.8473    1.0000 </r>
       <r>   -8.6962    1.0000 </r>
       <r>   -0.9808    1.0000 </r>
       <r>    4.8287    1.0000 </r>
       <r>    5.1576    1.0000 </r>
       <r>    5.3308    1.0000 </r>
       <r>    6.2028    1.0000 </r>
       <r>    6.5343    1.0000 </r>
       <r>    7.1124    1.0000 </r>
       <r>    7.6974    1.0000 </r>
       <r>    8.7960    1.0000 </r>
       <r>   10.3366    1.0000 </r>
       <r>   10.6326    1.0000 </r>
       <r>   10.8760    0.0000 </r>
       <r>   10.9235    0.0000 </r>
       <r>   11.0653    0.0000 </r>
       <r>   11.1445    0.0000 </r>
      </set>
      <set comment="kpoint 44">
       <r>  -33.4146    1.0000 </r>
       <r>  -12.3366    1.0000 </r>
       <r>  -12.3230    1.0000 </r>
       <r>  -12.3097    1.0000 </r>
       <r>  -12.2918    1.0000 </r>
       <r>  -12.2918    1.0000 </r>
       <r>   -8.9321    1.0000 </r>
       <r>   -8.7826    1.0000 </r>
       <r>   -8.7826    1.0000 </r>
       <r>   -1.2539    1.0000 </r>
       <r>    4.7732    1.0000 </r>
       <r>    5.7545    1.0000 </r>
       <r>    5.7545    1.0000 </r>
       <r>    5.8457    1.0000 </r>
       <r>    6.2937    1.0000 </r>
       <r>    7.0822    1.0000 </r>
       <r>    8.9591    1.0000 </r>
       <r>    8.9591    1.0000 </r>
       <r>   10.2616    1.0000 </r>
       <r>   10.7369    0.0000 </r>
       <r>   10.7369    0.0000 </r>
       <r>   10.7760    0.0000 </r>
       <r>   11.2068    0.0000 </r>
       <r>   11.3853    0.0000 </r>
      </set>
      <set comment="kpoint 45">
       <r>  -33.4141    1.0000 </r>
       <r>  -12.3306    1.0000 </r>
       <r>  -12.3248    1.0000 </r>
       <r>  -12.3102    1.0000 </r>
       <r>  -12.2916    1.0000 </r>
       <r>  -12.2911    1.0000 </r>
       <r>   -8.9474    1.0000 </r>
       <r>   -8.7896    1.0000 </r>
       <r>   -8.7794    1.0000 </r>
       <r>   -1.2493    1.0000 </r>
       <r>    5.0771    1.0000 </r>
       <r>    5.5676    1.0000 </r>
       <r>    5.6905    1.0000 </r>
       <r>    5.9760    1.0000 </r>
       <r>    6.3204    1.0000 </r>
       <r>    6.8199    1.0000 </r>
       <r>    8.8215    1.0000 </r>
       <r>    9.0050    1.0000 </r>
       <r>   10.4090    1.0000 </r>
       <r>   10.6920    0.0000 </r>
       <r>   10.7585    0.0000 </r>
       <r>   10.8405    0.0000 </r>
       <r>   11.2264    0.0000 </r>
       <r>   11.2386    0.0000 </r>
      </set>
      <set comment="kpoint 46">
       <r>  -33.4137    1.0000 </r>
       <r>  -12.3311    1.0000 </r>
       <r>  -12.3281    1.0000 </r>
       <r>  -12.3094    1.0000 </r>
       <r>  -12.2929    1.0000 </r>
       <r>  -12.2910    1.0000 </r>
       <r>   -8.9450    1.0000 </r>
       <r>   -8.8090    1.0000 </r>
       <r>   -8.7651    1.0000 </r>
       <r>   -1.2097    1.0000 </r>
       <r>    5.2501    1.0000 </r>
       <r>    5.5029    1.0000 </r>
       <r>    5.5755    1.0000 </r>
       <r>    6.1291    1.0000 </r>
       <r>    6.3686    1.0000 </r>
       <r>    6.6275    1.0000 </r>
       <r>    8.4182    1.0000 </r>
       <r>    8.9635    1.0000 </r>
       <r>   10.4579    1.0000 </r>
       <r>   10.6672    0.3290 </r>
       <r>   10.7853    0.0000 </r>
       <r>   10.9613    0.0000 </r>
       <r>   11.1278    0.0000 </r>
       <r>   11.1976    0.0000 </r>
      </set>
      <set comment="kpoint 47">
       <r>  -33.4137    1.0000 </r>
       <r>  -12.3403    1.0000 </r>
       <r>  -12.3302    1.0000 </r>
       <r>  -12.3071    1.0000 </r>
       <r>  -12.2952    1.0000 </r>
       <r>  -12.2915    1.0000 </r>
       <r>   -8.9262    1.0000 </r>
       <r>   -8.8361    1.0000 </r>
       <r>   -8.7428    1.0000 </r>
       <r>   -1.1355    1.0000 </r>
       <r>    5.2289    1.0000 </r>
       <r>    5.4280    1.0000 </r>
       <r>    5.4345    1.0000 </r>
       <r>    6.1896    1.0000 </r>
       <r>    6.4267    1.0000 </r>
       <r>    6.7363    1.0000 </r>
       <r>    7.9968    1.0000 </r>
       <r>    8.8735    1.0000 </r>
       <r>   10.4240    1.0000 </r>
       <r>   10.6538    0.9277 </r>
       <r>   10.8128    0.0000 </r>
       <r>   11.0548    0.0000 </r>
       <r>   11.0890    0.0000 </r>
       <r>   11.0950    0.0000 </r>
      </set>
      <set comment="kpoint 48">
       <r>  -33.4138    1.0000 </r>
       <r>  -12.3249    1.0000 </r>
       <r>  -12.3221    1.0000 </r>
       <r>  -12.3111    1.0000 </r>
       <r>  -12.2906    1.0000 </r>
       <r>  -12.2906    1.0000 </r>
       <r>   -8.9617    1.0000 </r>
       <r>   -8.7867    1.0000 </r>
       <r>   -8.7867    1.0000 </r>
       <r>   -1.2868    1.0000 </r>
       <r>    5.3760    1.0000 </r>
       <r>    5.7020    1.0000 </r>
       <r>    5.7020    1.0000 </r>
       <r>    5.7683    1.0000 </r>
       <r>    6.3249    1.0000 </r>
       <r>    6.5525    1.0000 </r>
       <r>    9.0848    1.0000 </r>
       <r>    9.0848    1.0000 </r>
       <r>   10.4980    1.0000 </r>
       <r>   10.7615    0.0000 </r>
       <r>   10.7667    0.0000 </r>
       <r>   10.7667    0.0000 </r>
       <r>   11.1419    0.0000 </r>
       <r>   11.2712    0.0000 </r>
      </set>
      <set comment="kpoint 49">
       <r>  -33.4137    1.0000 </r>
       <r>  -12.3243    1.0000 </r>
       <r>  -12.3240    1.0000 </r>
       <r>  -12.3109    1.0000 </r>
       <r>  -12.2910    1.0000 </r>
       <r>  -12.2905    1.0000 </r>
       <r>   -8.9606    1.0000 </r>
       <r>   -8.7939    1.0000 </r>
       <r>   -8.7815    1.0000 </r>
       <r>   -1.2737    1.0000 </r>
       <r>    5.4112    1.0000 </r>
       <r>    5.6605    1.0000 </r>
       <r>    5.6613    1.0000 </r>
       <r>    5.9308    1.0000 </r>
       <r>    6.3427    1.0000 </r>
       <r>    6.4292    1.0000 </r>
       <r>    8.8874    1.0000 </r>
       <r>    9.0649    1.0000 </r>
       <r>   10.5338    1.0000 </r>
       <r>   10.6889    0.0002 </r>
       <r>   10.7761    0.0000 </r>
       <r>   10.8882    0.0000 </r>
       <r>   11.0786    0.0000 </r>
       <r>   11.2725    0.0000 </r>
      </set>
      <set comment="kpoint 50">
       <r>  -33.4192    1.0000 </r>
       <r>  -12.3493    1.0000 </r>
       <r>  -12.3327    1.0000 </r>
       <r>  -12.3018    1.0000 </r>
       <r>  -12.2978    1.0000 </r>
       <r>  -12.2976    1.0000 </r>
       <r>   -8.8283    1.0000 </r>
       <r>   -8.7641    1.0000 </r>
       <r>   -8.7277    1.0000 </r>
       <r>   -1.6707    1.0000 </r>
       <r>    4.8504    1.0000 </r>
       <r>    5.5287    1.0000 </r>
       <r>    5.8956    1.0000 </r>
       <r>    6.1472    1.0000 </r>
       <r>    6.4615    1.0000 </r>
       <r>    7.9218    1.0000 </r>
       <r>    8.7153    1.0000 </r>
       <r>    9.1139    1.0000 </r>
       <r>   10.0400    1.0000 </r>
       <r>   10.5817    1.0000 </r>
       <r>   10.6403    0.9996 </r>
       <r>   10.8736    0.0000 </r>
       <r>   10.9639    0.0000 </r>
       <r>   11.1934    0.0000 </r>
      </set>
      <set comment="kpoint 51">
       <r>  -33.4180    1.0000 </r>
       <r>  -12.3560    1.0000 </r>
       <r>  -12.3369    1.0000 </r>
       <r>  -12.3032    1.0000 </r>
       <r>  -12.2971    1.0000 </r>
       <r>  -12.2966    1.0000 </r>
       <r>   -8.8774    1.0000 </r>
       <r>   -8.7624    1.0000 </r>
       <r>   -8.7089    1.0000 </r>
       <r>   -1.4182    1.0000 </r>
       <r>    4.6113    1.0000 </r>
       <r>    5.3271    1.0000 </r>
       <r>    5.7976    1.0000 </r>
       <r>    6.1728    1.0000 </r>
       <r>    6.5279    1.0000 </r>
       <r>    7.5333    1.0000 </r>
       <r>    8.5148    1.0000 </r>
       <r>    9.0407    1.0000 </r>
       <r>   10.0571    1.0000 </r>
       <r>   10.6201    1.0000 </r>
       <r>   10.6559    0.8769 </r>
       <r>   10.9697    0.0000 </r>
       <r>   10.9739    0.0000 </r>
       <r>   11.2135    0.0000 </r>
      </set>
      <set comment="kpoint 52">
       <r>  -33.4166    1.0000 </r>
       <r>  -12.3611    1.0000 </r>
       <r>  -12.3434    1.0000 </r>
       <r>  -12.3047    1.0000 </r>
[...]
       <r>   10.3908    1.0000 </r>
       <r>   10.6827    0.0043 </r>
       <r>   10.8994    0.0000 </r>
       <r>   10.9551    0.0000 </r>
       <r>   11.0644    0.0000 </r>
       <r>   11.1449    0.0000 </r>
      </set>
      <set comment="kpoint 81">
       <r>  -33.4141    1.0000 </r>
       <r>  -12.3539    1.0000 </r>
       <r>  -12.3327    1.0000 </r>
       <r>  -12.3038    1.0000 </r>
       <r>  -12.2995    1.0000 </r>
       <r>  -12.2918    1.0000 </r>
       <r>   -8.9113    1.0000 </r>
       <r>   -8.8391    1.0000 </r>
       <r>   -8.7235    1.0000 </r>
       <r>   -1.0412    1.0000 </r>
       <r>    4.9522    1.0000 </r>
       <r>    5.1383    1.0000 </r>
       <r>    5.5635    1.0000 </r>
       <r>    6.2315    1.0000 </r>
       <r>    6.4813    1.0000 </r>
       <r>    7.0753    1.0000 </r>
       <r>    7.4707    1.0000 </r>
       <r>    8.9856    1.0000 </r>
       <r>   10.3678    1.0000 </r>
       <r>   10.6655    0.4225 </r>
       <r>   10.8870    0.0000 </r>
       <r>   10.9450    0.0000 </r>
       <r>   11.0373    0.0000 </r>
       <r>   11.1613    0.0000 </r>
      </set>
      <set comment="kpoint 82">
       <r>  -33.4137    1.0000 </r>
       <r>  -12.3412    1.0000 </r>
       <r>  -12.3244    1.0000 </r>
       <r>  -12.3079    1.0000 </r>
       <r>  -12.2959    1.0000 </r>
       <r>  -12.2904    1.0000 </r>
       <r>   -8.9287    1.0000 </r>
       <r>   -8.8179    1.0000 </r>
       <r>   -8.7648    1.0000 </r>
       <r>   -1.1645    1.0000 </r>
       <r>    5.1133    1.0000 </r>
       <r>    5.4802    1.0000 </r>
       <r>    5.6937    1.0000 </r>
       <r>    6.1638    1.0000 </r>
       <r>    6.4505    1.0000 </r>
       <r>    6.6719    1.0000 </r>
       <r>    7.7802    1.0000 </r>
       <r>    9.1334    1.0000 </r>
       <r>   10.4501    1.0000 </r>
       <r>   10.6820    0.0057 </r>
       <r>   10.8305    0.0000 </r>
       <r>   11.0169    0.0000 </r>
       <r>   11.0929    0.0000 </r>
       <r>   11.1345    0.0000 </r>
      </set>
      <set comment="kpoint 83">
       <r>  -33.4136    1.0000 </r>
       <r>  -12.3465    1.0000 </r>
       <r>  -12.3245    1.0000 </r>
       <r>  -12.3060    1.0000 </r>
       <r>  -12.2984    1.0000 </r>
       <r>  -12.2904    1.0000 </r>
       <r>   -8.9122    1.0000 </r>
       <r>   -8.8374    1.0000 </r>
       <r>   -8.7562    1.0000 </r>
       <r>   -1.1260    1.0000 </r>
       <r>    5.0625    1.0000 </r>
       <r>    5.5148    1.0000 </r>
       <r>    5.6574    1.0000 </r>
       <r>    6.1913    1.0000 </r>
       <r>    6.4980    1.0000 </r>
       <r>    6.7514    1.0000 </r>
       <r>    7.4280    1.0000 </r>
       <r>    9.1220    1.0000 </r>
       <r>   10.4326    1.0000 </r>
       <r>   10.6932    0.0000 </r>
       <r>   10.8682    0.0000 </r>
       <r>   11.0246    0.0000 </r>
       <r>   11.0800    0.0000 </r>
       <r>   11.1044    0.0000 </r>
      </set>
      <set comment="kpoint 84">
       <r>  -33.4136    1.0000 </r>
       <r>  -12.3495    1.0000 </r>
       <r>  -12.3246    1.0000 </r>
       <r>  -12.3044    1.0000 </r>
       <r>  -12.3004    1.0000 </r>
       <r>  -12.2903    1.0000 </r>
       <r>   -8.9025    1.0000 </r>
       <r>   -8.8444    1.0000 </r>
       <r>   -8.7543    1.0000 </r>
       <r>   -1.1057    1.0000 </r>
       <r>    5.0242    1.0000 </r>
       <r>    5.4727    1.0000 </r>
       <r>    5.6777    1.0000 </r>
       <r>    6.2059    1.0000 </r>
       <r>    6.5362    1.0000 </r>
       <r>    6.9053    1.0000 </r>
       <r>    7.1502    1.0000 </r>
       <r>    9.1413    1.0000 </r>
       <r>   10.4211    1.0000 </r>
       <r>   10.7044    0.0000 </r>
       <r>   10.9091    0.0000 </r>
       <r>   10.9714    0.0000 </r>
       <r>   11.0690    0.0000 </r>
       <r>   11.1420    0.0000 </r>
      </set>
     </set>
    </set>
   </array>
  </eigenvalues>
  <separator name="orbital magnetization" >
   <v name="MAGDIPOLOUT">      0.00000000      0.00000000      0.00000000</v>
  </separator>
  <dos>
   <i name="efermi">     10.66407630 </i>
   <total>
    <array>
     <dimension dim="1">gridpoints</dimension>
     <dimension dim="2">spin</dimension>
     <field>energy</field>
     <field>total</field>
     <field>integrated</field>
     <set>
      <set comment="spin 1">
       <r>   -35.6618     0.0000     0.0000 </r>
       <r>   -35.4975     0.0000     0.0000 </r>
       <r>   -35.3332     0.0000     0.0000 </r>
       <r>   -35.1689     0.0000     0.0000 </r>
       <r>   -35.0046     0.0000     0.0000 </r>
       <r>   -34.8403     0.0000     0.0000 </r>
       <r>   -34.6760     0.0000     0.0000 </r>
       <r>   -34.5117     0.0000     0.0000 </r>
       <r>   -34.3474     0.0000     0.0000 </r>
       <r>   -34.1831     0.0000     0.0000 </r>
       <r>   -34.0187     0.0000     0.0000 </r>
       <r>   -33.8544     0.0000     0.0000 </r>
       <r>   -33.6901     0.0000     0.0000 </r>
       <r>   -33.5258     0.0000     0.0000 </r>
       <r>   -33.3615    12.1726     2.0000 </r>
       <r>   -33.1972     0.0000     2.0000 </r>
       <r>   -33.0329     0.0000     2.0000 </r>
       <r>   -32.8686     0.0000     2.0000 </r>
       <r>   -32.7043     0.0000     2.0000 </r>
       <r>   -32.5400     0.0000     2.0000 </r>
       <r>   -32.3757     0.0000     2.0000 </r>
       <r>   -32.2114     0.0000     2.0000 </r>
       <r>   -32.0471     0.0000     2.0000 </r>
       <r>   -31.8828     0.0000     2.0000 </r>
       <r>   -31.7185     0.0000     2.0000 </r>
       <r>   -31.5542     0.0000     2.0000 </r>
       <r>   -31.3899     0.0000     2.0000 </r>
       <r>   -31.2256     0.0000     2.0000 </r>
       <r>   -31.0613     0.0000     2.0000 </r>
       <r>   -30.8970     0.0000     2.0000 </r>
       <r>   -30.7327     0.0000     2.0000 </r>
       <r>   -30.5684     0.0000     2.0000 </r>
       <r>   -30.4041     0.0000     2.0000 </r>
       <r>   -30.2398     0.0000     2.0000 </r>
       <r>   -30.0755     0.0000     2.0000 </r>
       <r>   -29.9112     0.0000     2.0000 </r>
       <r>   -29.7468     0.0000     2.0000 </r>
       <r>   -29.5825     0.0000     2.0000 </r>
       <r>   -29.4182     0.0000     2.0000 </r>
       <r>   -29.2539     0.0000     2.0000 </r>
       <r>   -29.0896     0.0000     2.0000 </r>
       <r>   -28.9253     0.0000     2.0000 </r>
       <r>   -28.7610     0.0000     2.0000 </r>
       <r>   -28.5967     0.0000     2.0000 </r>
       <r>   -28.4324     0.0000     2.0000 </r>
       <r>   -28.2681     0.0000     2.0000 </r>
       <r>   -28.1038     0.0000     2.0000 </r>
       <r>   -27.9395     0.0000     2.0000 </r>
       <r>   -27.7752     0.0000     2.0000 </r>
       <r>   -27.6109     0.0000     2.0000 </r>
       <r>   -27.4466     0.0000     2.0000 </r>
       <r>   -27.2823     0.0000     2.0000 </r>
       <r>   -27.1180     0.0000     2.0000 </r>
       <r>   -26.9537     0.0000     2.0000 </r>
       <r>   -26.7894     0.0000     2.0000 </r>
       <r>   -26.6251     0.0000     2.0000 </r>
       <r>   -26.4608     0.0000     2.0000 </r>
       <r>   -26.2965     0.0000     2.0000 </r>
       <r>   -26.1322     0.0000     2.0000 </r>
       <r>   -25.9679     0.0000     2.0000 </r>
       <r>   -25.8036     0.0000     2.0000 </r>
       <r>   -25.6393     0.0000     2.0000 </r>
       <r>   -25.4749     0.0000     2.0000 </r>
       <r>   -25.3106     0.0000     2.0000 </r>
       <r>   -25.1463     0.0000     2.0000 </r>
       <r>   -24.9820     0.0000     2.0000 </r>
       <r>   -24.8177     0.0000     2.0000 </r>
       <r>   -24.6534     0.0000     2.0000 </r>
       <r>   -24.4891     0.0000     2.0000 </r>
       <r>   -24.3248     0.0000     2.0000 </r>
       <r>   -24.1605     0.0000     2.0000 </r>
       <r>   -23.9962     0.0000     2.0000 </r>
       <r>   -23.8319     0.0000     2.0000 </r>
       <r>   -23.6676     0.0000     2.0000 </r>
       <r>   -23.5033     0.0000     2.0000 </r>
       <r>   -23.3390     0.0000     2.0000 </r>
       <r>   -23.1747     0.0000     2.0000 </r>
       <r>   -23.0104     0.0000     2.0000 </r>
       <r>   -22.8461     0.0000     2.0000 </r>
       <r>   -22.6818     0.0000     2.0000 </r>
       <r>   -22.5175     0.0000     2.0000 </r>
       <r>   -22.3532     0.0000     2.0000 </r>
       <r>   -22.1889     0.0000     2.0000 </r>
       <r>   -22.0246     0.0000     2.0000 </r>
       <r>   -21.8603     0.0000     2.0000 </r>
       <r>   -21.6960     0.0000     2.0000 </r>
       <r>   -21.5317     0.0000     2.0000 </r>
       <r>   -21.3674     0.0000     2.0000 </r>
       <r>   -21.2030     0.0000     2.0000 </r>
       <r>   -21.0387     0.0000     2.0000 </r>
       <r>   -20.8744     0.0000     2.0000 </r>
       <r>   -20.7101     0.0000     2.0000 </r>
       <r>   -20.5458     0.0000     2.0000 </r>
       <r>   -20.3815     0.0000     2.0000 </r>
       <r>   -20.2172     0.0000     2.0000 </r>
       <r>   -20.0529     0.0000     2.0000 </r>
       <r>   -19.8886     0.0000     2.0000 </r>
       <r>   -19.7243     0.0000     2.0000 </r>
       <r>   -19.5600     0.0000     2.0000 </r>
       <r>   -19.3957     0.0000     2.0000 </r>
       <r>   -19.2314     0.0000     2.0000 </r>
       <r>   -19.0671     0.0000     2.0000 </r>
       <r>   -18.9028     0.0000     2.0000 </r>
       <r>   -18.7385     0.0000     2.0000 </r>
       <r>   -18.5742     0.0000     2.0000 </r>
       <r>   -18.4099     0.0000     2.0000 </r>
       <r>   -18.2456     0.0000     2.0000 </r>
       <r>   -18.0813     0.0000     2.0000 </r>
       <r>   -17.9170     0.0000     2.0000 </r>
       <r>   -17.7527     0.0000     2.0000 </r>
       <r>   -17.5884     0.0000     2.0000 </r>
       <r>   -17.4241     0.0000     2.0000 </r>
       <r>   -17.2598     0.0000     2.0000 </r>
       <r>   -17.0955     0.0000     2.0000 </r>
       <r>   -16.9311     0.0000     2.0000 </r>
       <r>   -16.7668     0.0000     2.0000 </r>
       <r>   -16.6025     0.0000     2.0000 </r>
       <r>   -16.4382     0.0000     2.0000 </r>
       <r>   -16.2739     0.0000     2.0000 </r>
       <r>   -16.1096     0.0000     2.0000 </r>
       <r>   -15.9453     0.0000     2.0000 </r>
       <r>   -15.7810     0.0000     2.0000 </r>
       <r>   -15.6167     0.0000     2.0000 </r>
       <r>   -15.4524     0.0000     2.0000 </r>
       <r>   -15.2881     0.0000     2.0000 </r>
       <r>   -15.1238     0.0000     2.0000 </r>
       <r>   -14.9595     0.0000     2.0000 </r>
       <r>   -14.7952     0.0000     2.0000 </r>
       <r>   -14.6309     0.0000     2.0000 </r>
       <r>   -14.4666     0.0000     2.0000 </r>
       <r>   -14.3023     0.0000     2.0000 </r>
       <r>   -14.1380     0.0000     2.0000 </r>
       <r>   -13.9737     0.0000     2.0000 </r>
       <r>   -13.8094     0.0000     2.0000 </r>
       <r>   -13.6451     0.0000     2.0000 </r>
       <r>   -13.4808     0.0000     2.0000 </r>
       <r>   -13.3165     0.0000     2.0000 </r>
       <r>   -13.1522     0.0000     2.0000 </r>
       <r>   -12.9879     0.0000     2.0000 </r>
       <r>   -12.8236     0.0000     2.0000 </r>
       <r>   -12.6592     0.0000     2.0000 </r>
       <r>   -12.4949     0.0000     2.0000 </r>
       <r>   -12.3306    20.5900     5.3830 </r>
       <r>   -12.1663     0.0000    12.0000 </r>
       <r>   -12.0020     0.0000    12.0000 </r>
       <r>   -11.8377     0.0000    12.0000 </r>
       <r>   -11.6734     0.0000    12.0000 </r>
       <r>   -11.5091     0.0000    12.0000 </r>
       <r>   -11.3448     0.0000    12.0000 </r>
       <r>   -11.1805     0.0000    12.0000 </r>
       <r>   -11.0162     0.0000    12.0000 </r>
       <r>   -10.8519     0.0000    12.0000 </r>
       <r>   -10.6876     0.0000    12.0000 </r>
       <r>   -10.5233     0.0000    12.0000 </r>
       <r>   -10.3590     0.0000    12.0000 </r>
       <r>   -10.1947     0.0000    12.0000 </r>
       <r>   -10.0304     0.0000    12.0000 </r>
       <r>    -9.8661     0.0000    12.0000 </r>
       <r>    -9.7018     0.0000    12.0000 </r>
       <r>    -9.5375     0.0000    12.0000 </r>
       <r>    -9.3732     0.0000    12.0000 </r>
       <r>    -9.2089     0.0000    12.0000 </r>
       <r>    -9.0446     0.0000    12.0000 </r>
       <r>    -8.8803     8.5560    13.7645 </r>
       <r>    -8.7160    13.8568    16.9349 </r>
       <r>    -8.5517     0.0000    18.0000 </r>
       <r>    -8.3873     0.0000    18.0000 </r>
       <r>    -8.2230     0.0000    18.0000 </r>
       <r>    -8.0587     0.0000    18.0000 </r>
       <r>    -7.8944     0.0000    18.0000 </r>
       <r>    -7.7301     0.0000    18.0000 </r>
       <r>    -7.5658     0.0000    18.0000 </r>
       <r>    -7.4015     0.0000    18.0000 </r>
       <r>    -7.2372     0.0000    18.0000 </r>
       <r>    -7.0729     0.0000    18.0000 </r>
       <r>    -6.9086     0.0000    18.0000 </r>
       <r>    -6.7443     0.0000    18.0000 </r>
       <r>    -6.5800     0.0000    18.0000 </r>
       <r>    -6.4157     0.0000    18.0000 </r>
       <r>    -6.2514     0.0000    18.0000 </r>
       <r>    -6.0871     0.0000    18.0000 </r>
       <r>    -5.9228     0.0000    18.0000 </r>
       <r>    -5.7585     0.0000    18.0000 </r>
       <r>    -5.5942     0.0000    18.0000 </r>
       <r>    -5.4299     0.0000    18.0000 </r>
       <r>    -5.2656     0.0000    18.0000 </r>
       <r>    -5.1013     0.0000    18.0000 </r>
       <r>    -4.9370     0.0000    18.0000 </r>
       <r>    -4.7727     0.0000    18.0000 </r>
       <r>    -4.6084     0.0000    18.0000 </r>
       <r>    -4.4441     0.0000    18.0000 </r>
       <r>    -4.2798     0.0000    18.0000 </r>
       <r>    -4.1154     0.0000    18.0000 </r>
       <r>    -3.9511     0.0000    18.0000 </r>
       <r>    -3.7868     0.0000    18.0000 </r>
       <r>    -3.6225     0.0000    18.0000 </r>
       <r>    -3.4582     0.0000    18.0000 </r>
       <r>    -3.2939     0.0000    18.0000 </r>
       <r>    -3.1296     0.0000    18.0000 </r>
       <r>    -2.9653     0.0000    18.0000 </r>
       <r>    -2.8010     0.0000    18.0000 </r>
       <r>    -2.6367     0.0000    18.0000 </r>
       <r>    -2.4724     0.0000    18.0000 </r>
       <r>    -2.3081     0.0000    18.0000 </r>
       <r>    -2.1438     0.0000    18.0000 </r>
       <r>    -1.9795     0.0776    18.0137 </r>
       <r>    -1.8152     0.1739    18.0532 </r>
       <r>    -1.6509     0.2656    18.1028 </r>
       <r>    -1.4866     0.1773    18.1538 </r>
       <r>    -1.3223     0.3901    18.2780 </r>
       <r>    -1.1580     1.9861    18.7205 </r>
       <r>    -0.9937     2.6746    19.4854 </r>
       <r>    -0.8294     0.6265    19.9427 </r>
       <r>    -0.6651     0.0000    20.0000 </r>
       <r>    -0.5008     0.0000    20.0000 </r>
       <r>    -0.3365     0.0000    20.0000 </r>
       <r>    -0.1722     0.0000    20.0000 </r>
       <r>    -0.0079     0.0000    20.0000 </r>
       <r>     0.1565     0.0000    20.0000 </r>
       <r>     0.3208     0.0000    20.0000 </r>
       <r>     0.4851     0.0000    20.0000 </r>
       <r>     0.6494     0.0000    20.0000 </r>
       <r>     0.8137     0.0000    20.0000 </r>
       <r>     0.9780     0.0000    20.0000 </r>
       <r>     1.1423     0.0000    20.0000 </r>
       <r>     1.3066     0.0000    20.0000 </r>
       <r>     1.4709     0.0000    20.0000 </r>
       <r>     1.6352     0.0000    20.0000 </r>
       <r>     1.7995     0.0000    20.0000 </r>
       <r>     1.9638     0.0000    20.0000 </r>
       <r>     2.1281     0.0000    20.0000 </r>
       <r>     2.2924     0.0000    20.0000 </r>
       <r>     2.4567     0.0000    20.0000 </r>
       <r>     2.6210     0.0000    20.0000 </r>
       <r>     2.7853     0.0000    20.0000 </r>
       <r>     2.9496     0.0000    20.0000 </r>
       <r>     3.1139     0.0000    20.0000 </r>
       <r>     3.2782     0.0000    20.0000 </r>
       <r>     3.4425     0.0000    20.0000 </r>
       <r>     3.6068     0.0000    20.0000 </r>
       <r>     3.7711     0.0000    20.0000 </r>
       <r>     3.9354     0.0000    20.0000 </r>
       <r>     4.0997     0.0000    20.0000 </r>
       <r>     4.2640     0.2664    20.0511 </r>
       <r>     4.4284     1.8392    20.4478 </r>
       <r>     4.5927     1.5846    20.9304 </r>
       <r>     4.7570     0.3833    21.1554 </r>
       <r>     4.9213     0.5319    21.4310 </r>
       <r>     5.0856     1.9328    21.8214 </r>
       <r>     5.2499     3.5679    22.9094 </r>
       <r>     5.4142     2.4670    23.7991 </r>
       <r>     5.5785     3.1793    24.7682 </r>
       <r>     5.7428     1.8797    25.5851 </r>
       <r>     5.9071     0.8400    26.0097 </r>
       <r>     6.0714     0.1808    26.0734 </r>
       <r>     6.2357     7.0258    27.6132 </r>
       <r>     6.4000     3.2988    28.8542 </r>
       <r>     6.5643     2.3542    30.0227 </r>
       <r>     6.7286     0.4640    30.3038 </r>
       <r>     6.8929     1.4449    30.7818 </r>
       <r>     7.0572     1.0675    31.2077 </r>
       <r>     7.2215     0.7978    31.5294 </r>
       <r>     7.3858     0.2706    31.6940 </r>
       <r>     7.5501     0.4840    31.9111 </r>
       <r>     7.7144     0.2125    32.0577 </r>
       <r>     7.8787     1.3605    32.4102 </r>
       <r>     8.0430     0.6540    32.5726 </r>
       <r>     8.2073     1.4960    32.8821 </r>
       <r>     8.3716     0.5569    33.1265 </r>
       <r>     8.5359     1.2350    33.3909 </r>
       <r>     8.7003     0.4590    33.6130 </r>
       <r>     8.8646     1.6056    33.9233 </r>
       <r>     9.0289     3.4911    35.3911 </r>
       <r>     9.1932     0.7368    35.9253 </r>
       <r>     9.3575     0.1429    35.9962 </r>
       <r>     9.5218     0.0000    36.0009 </r>
       <r>     9.6861     0.0000    36.0009 </r>
       <r>     9.8504     0.1329    36.0300 </r>
       <r>    10.0147     1.0920    36.2331 </r>
       <r>    10.1790     1.3311    36.8095 </r>
       <r>    10.3433     2.1590    37.5300 </r>
       <r>    10.5076     0.6988    37.9892 </r>
       <r>    10.6719     7.0437    39.2565 </r>
       <r>    10.8362     4.3825    41.6686 </r>
       <r>    11.0005    10.1357    44.0850 </r>
       <r>    11.1648     7.2548    46.9963 </r>
       <r>    11.3291     0.8920    47.9827 </r>
       <r>    11.4934     0.0000    48.0000 </r>
       <r>    11.6577     0.0000    48.0000 </r>
       <r>    11.8220     0.0000    48.0000 </r>
       <r>    11.9863     0.0000    48.0000 </r>
       <r>    12.1506     0.0000    48.0000 </r>
       <r>    12.3149     0.0000    48.0000 </r>
       <r>    12.4792     0.0000    48.0000 </r>
       <r>    12.6435     0.0000    48.0000 </r>
       <r>    12.8078     0.0000    48.0000 </r>
       <r>    12.9722     0.0000    48.0000 </r>
       <r>    13.1365     0.0000    48.0000 </r>
       <r>    13.3008     0.0000    48.0000 </r>
       <r>    13.4651     0.0000    48.0000 </r>
       <r>    13.6294     0.0000    48.0000 </r>
      </set>
     </set>
    </array>
   </total>
  </dos>
 </calculation>
 <structure name="finalpos" >
  <crystal>
   <varray name="basis" >
    <v>       0.00000000       3.27280252       3.27280252 </v>
    <v>       3.27280252       0.00000000       3.27280252 </v>
    <v>       3.27280252       3.27280252       0.00000000 </v>
   </varray>
   <i name="volume">     70.11152235 </i>
   <varray name="rec_basis" >
    <v>      -0.15277427       0.15277427       0.15277427 </v>
    <v>       0.15277427      -0.15277427       0.15277427 </v>
    <v>       0.15277427       0.15277427      -0.15277427 </v>
   </varray>
  </crystal>
  <varray name="positions" >
   <v>       0.25000000       0.25000000       0.25000000 </v>
   <v>       0.75000000       0.75000000       0.75000000 </v>
   <v>       0.00000000       0.00000000       0.00000000 </v>
  </varray>
 </structure>
</modeling>
