   2   2   1   0
  0.9404297E+01  0.2985088E-09  0.2985088E-09  0.2985088E-09  0.0000000E+00
   1.0000000000000000E-004
  CAR 
 unknown system                          
     39.97400774    -16.03105023  301      5.73205443      1.00000000
    -16.031  0.0000E+00  0.0000E+00  0.0000E+00  0.0000E+00
    -15.844  0.0000E+00  0.0000E+00  0.0000E+00  0.0000E+00
    -15.658  0.0000E+00  0.0000E+00  0.0000E+00  0.0000E+00
    -15.471  0.0000E+00  0.0000E+00  0.0000E+00  0.0000E+00
    -15.284  0.0000E+00  0.0000E+00  0.0000E+00  0.0000E+00
    -15.098  0.0000E+00  0.0000E+00  0.0000E+00  0.0000E+00
    -14.911  0.0000E+00  0.0000E+00  0.0000E+00  0.0000E+00
    -14.724  0.0000E+00  0.0000E+00  0.0000E+00  0.0000E+00
    -14.538  0.0000E+00  0.0000E+00  0.0000E+00  0.0000E+00
    -14.351  0.0000E+00  0.0000E+00  0.0000E+00  0.0000E+00
    -14.164  0.0000E+00  0.0000E+00  0.0000E+00  0.0000E+00
    -13.978  0.0000E+00  0.0000E+00  0.0000E+00  0.0000E+00
    -13.791  0.0000E+00  0.0000E+00  0.0000E+00  0.0000E+00
    -13.604  0.0000E+00  0.0000E+00  0.0000E+00  0.0000E+00
    -13.417  0.5960E-01  0.5961E-01  0.2141E-02  0.2142E-02
    -13.231  0.1736E+00  0.1736E+00  0.2045E-01  0.2046E-01
    -13.044  0.2150E+00  0.2150E+00  0.5186E-01  0.5186E-01
    -12.857  0.2940E+00  0.2940E+00  0.9765E-01  0.9765E-01
    -12.671  0.4146E+00  0.4146E+00  0.1627E+00  0.1627E+00
    -12.484  0.6458E+00  0.6458E+00  0.2584E+00  0.2584E+00
    -12.297  0.1379E+01  0.1379E+01  0.4192E+00  0.4192E+00
    -12.111  0.4928E+01  0.4928E+01  0.8614E+00  0.8615E+00
    -11.924  0.4703E+00  0.4703E+00  0.1000E+01  0.1000E+01
    -11.737  0.0000E+00  0.0000E+00  0.1000E+01  0.1000E+01
    -11.551  0.0000E+00  0.0000E+00  0.1000E+01  0.1000E+01
    -11.364  0.0000E+00  0.0000E+00  0.1000E+01  0.1000E+01
    -11.177  0.0000E+00  0.0000E+00  0.1000E+01  0.1000E+01
    -10.991  0.0000E+00  0.0000E+00  0.1000E+01  0.1000E+01
    -10.804  0.0000E+00  0.0000E+00  0.1000E+01  0.1000E+01
    -10.617  0.0000E+00  0.0000E+00  0.1000E+01  0.1000E+01
    -10.431  0.0000E+00  0.0000E+00  0.1000E+01  0.1000E+01
    -10.244  0.0000E+00  0.0000E+00  0.1000E+01  0.1000E+01
    -10.057  0.0000E+00  0.0000E+00  0.1000E+01  0.1000E+01
     -9.870  0.0000E+00  0.0000E+00  0.1000E+01  0.1000E+01
     -9.684  0.0000E+00  0.0000E+00  0.1000E+01  0.1000E+01
     -9.497  0.0000E+00  0.0000E+00  0.1000E+01  0.1000E+01
     -9.310  0.0000E+00  0.0000E+00  0.1000E+01  0.1000E+01
     -9.124  0.0000E+00  0.0000E+00  0.1000E+01  0.1000E+01
     -8.937  0.0000E+00  0.0000E+00  0.1000E+01  0.1000E+01
     -8.750  0.0000E+00  0.0000E+00  0.1000E+01  0.1000E+01
     -8.564  0.0000E+00  0.0000E+00  0.1000E+01  0.1000E+01
     -8.377  0.0000E+00  0.0000E+00  0.1000E+01  0.1000E+01
     -8.190  0.0000E+00  0.0000E+00  0.1000E+01  0.1000E+01
     -8.004  0.0000E+00  0.0000E+00  0.1000E+01  0.1000E+01
     -7.817  0.0000E+00  0.0000E+00  0.1000E+01  0.1000E+01
     -7.630  0.0000E+00  0.0000E+00  0.1000E+01  0.1000E+01
     -7.444  0.0000E+00  0.0000E+00  0.1000E+01  0.1000E+01
     -7.257  0.0000E+00  0.0000E+00  0.1000E+01  0.1000E+01
     -7.070  0.0000E+00  0.0000E+00  0.1000E+01  0.1000E+01
     -6.884  0.0000E+00  0.0000E+00  0.1000E+01  0.1000E+01
     -6.697  0.0000E+00  0.0000E+00  0.1000E+01  0.1000E+01
     -6.510  0.0000E+00  0.0000E+00  0.1000E+01  0.1000E+01
     -6.324  0.0000E+00  0.0000E+00  0.1000E+01  0.1000E+01
     -6.137  0.0000E+00  0.0000E+00  0.1000E+01  0.1000E+01
     -5.950  0.0000E+00  0.0000E+00  0.1000E+01  0.1000E+01
     -5.763  0.0000E+00  0.0000E+00  0.1000E+01  0.1000E+01
     -5.577  0.0000E+00  0.0000E+00  0.1000E+01  0.1000E+01
     -5.390  0.0000E+00  0.0000E+00  0.1000E+01  0.1000E+01
     -5.203  0.0000E+00  0.0000E+00  0.1000E+01  0.1000E+01
     -5.017  0.0000E+00  0.0000E+00  0.1000E+01  0.1000E+01
     -4.830  0.0000E+00  0.0000E+00  0.1000E+01  0.1000E+01
     -4.643  0.0000E+00  0.0000E+00  0.1000E+01  0.1000E+01
     -4.457  0.0000E+00  0.0000E+00  0.1000E+01  0.1000E+01
     -4.270  0.0000E+00  0.0000E+00  0.1000E+01  0.1000E+01
     -4.083  0.0000E+00  0.0000E+00  0.1000E+01  0.1000E+01
     -3.897  0.0000E+00  0.0000E+00  0.1000E+01  0.1000E+01
     -3.710  0.0000E+00  0.0000E+00  0.1000E+01  0.1000E+01
     -3.523  0.0000E+00  0.0000E+00  0.1000E+01  0.1000E+01
     -3.337  0.0000E+00  0.0000E+00  0.1000E+01  0.1000E+01
     -3.150  0.0000E+00  0.0000E+00  0.1000E+01  0.1000E+01
     -2.963  0.0000E+00  0.0000E+00  0.1000E+01  0.1000E+01
     -2.777  0.0000E+00  0.0000E+00  0.1000E+01  0.1000E+01
     -2.590  0.0000E+00  0.0000E+00  0.1000E+01  0.1000E+01
     -2.403  0.0000E+00  0.0000E+00  0.1000E+01  0.1000E+01
     -2.216  0.0000E+00  0.0000E+00  0.1000E+01  0.1000E+01
     -2.030  0.0000E+00  0.0000E+00  0.1000E+01  0.1000E+01
     -1.843  0.0000E+00  0.0000E+00  0.1000E+01  0.1000E+01
     -1.656  0.0000E+00  0.0000E+00  0.1000E+01  0.1000E+01
     -1.470  0.2592E-01  0.2593E-01  0.1000E+01  0.1000E+01
     -1.283  0.1649E+00  0.1649E+00  0.1019E+01  0.1019E+01
     -1.096  0.2277E+00  0.2277E+00  0.1054E+01  0.1054E+01
     -0.910  0.3226E+00  0.3226E+00  0.1105E+01  0.1105E+01
     -0.723  0.4578E+00  0.4578E+00  0.1176E+01  0.1176E+01
     -0.536  0.7567E+00  0.7567E+00  0.1291E+01  0.1291E+01
     -0.350  0.1006E+01  0.1006E+01  0.1444E+01  0.1444E+01
     -0.163  0.1031E+01  0.1031E+01  0.1639E+01  0.1639E+01
      0.024  0.8264E+00  0.8263E+00  0.1792E+01  0.1792E+01
      0.210  0.3322E+00  0.3322E+00  0.1878E+01  0.1878E+01
      0.397  0.3514E+00  0.3514E+00  0.1921E+01  0.1921E+01
      0.584  0.1241E+01  0.1241E+01  0.2049E+01  0.2049E+01
      0.770  0.2033E+01  0.2033E+01  0.2333E+01  0.2333E+01
      0.957  0.3723E+01  0.3720E+01  0.2741E+01  0.2741E+01
      1.144  0.1555E+01  0.1554E+01  0.3106E+01  0.3106E+01
      1.331  0.1138E+01  0.1145E+01  0.3346E+01  0.3346E+01
      1.517  0.9258E+00  0.9221E+00  0.3538E+01  0.3538E+01
      1.704  0.7290E+00  0.7289E+00  0.3690E+01  0.3690E+01
      1.891  0.6010E+00  0.6009E+00  0.3816E+01  0.3816E+01
      2.077  0.4171E+00  0.4171E+00  0.3909E+01  0.3909E+01
      2.264  0.2169E+00  0.2169E+00  0.3966E+01  0.3966E+01
      2.451  0.3013E+00  0.3014E+00  0.4007E+01  0.4007E+01
      2.637  0.8240E+00  0.8241E+00  0.4100E+01  0.4100E+01
      2.824  0.1428E+01  0.1428E+01  0.4291E+01  0.4291E+01
      3.011  0.2441E+01  0.2441E+01  0.4573E+01  0.4573E+01
      3.197  0.3562E+01  0.3562E+01  0.5074E+01  0.5074E+01
      3.384  0.8280E+01  0.8225E+01  0.5918E+01  0.5918E+01
      3.571  0.1988E+01  0.1988E+01  0.6140E+01  0.6140E+01
      3.757  0.5741E+01  0.5735E+01  0.6717E+01  0.6718E+01
      3.944  0.1370E+01  0.1370E+01  0.7014E+01  0.7014E+01
      4.131  0.9204E+00  0.9207E+00  0.7169E+01  0.7170E+01
      4.317  0.1262E+01  0.1262E+01  0.7369E+01  0.7369E+01
      4.504  0.8343E+00  0.8342E+00  0.7556E+01  0.7556E+01
      4.691  0.7639E+00  0.7639E+00  0.7702E+01  0.7702E+01
      4.878  0.7572E+00  0.7572E+00  0.7844E+01  0.7845E+01
      5.064  0.8296E+00  0.8296E+00  0.7990E+01  0.7990E+01
      5.251  0.7910E+00  0.7909E+00  0.8140E+01  0.8140E+01
      5.438  0.7567E+00  0.7567E+00  0.8283E+01  0.8283E+01
      5.624  0.7269E+00  0.7269E+00  0.8421E+01  0.8421E+01
      5.811  0.7233E+00  0.7232E+00  0.8558E+01  0.8558E+01
      5.998  0.7016E+00  0.7016E+00  0.8690E+01  0.8690E+01
      6.184  0.6990E+00  0.6990E+00  0.8825E+01  0.8825E+01
      6.371  0.7302E+00  0.7300E+00  0.8959E+01  0.8959E+01
      6.558  0.2939E-01  0.2939E-01  0.9000E+01  0.9000E+01
      6.744  0.0000E+00  0.0000E+00  0.9000E+01  0.9000E+01
      6.931  0.0000E+00  0.0000E+00  0.9000E+01  0.9000E+01
      7.118  0.0000E+00  0.0000E+00  0.9000E+01  0.9000E+01
      7.304  0.0000E+00  0.0000E+00  0.9000E+01  0.9000E+01
      7.491  0.0000E+00  0.0000E+00  0.9000E+01  0.9000E+01
      7.678  0.0000E+00  0.0000E+00  0.9000E+01  0.9000E+01
      7.864  0.3771E-03  0.3772E-03  0.9000E+01  0.9000E+01
      8.051  0.6269E-02  0.6269E-02  0.9001E+01  0.9001E+01
      8.238  0.7952E-02  0.7953E-02  0.9002E+01  0.9002E+01
      8.424  0.1109E-01  0.1109E-01  0.9004E+01  0.9004E+01
      8.611  0.1381E-01  0.1381E-01  0.9006E+01  0.9006E+01
      8.798  0.1673E-01  0.1673E-01  0.9009E+01  0.9009E+01
      8.985  0.1985E-01  0.1985E-01  0.9012E+01  0.9012E+01
      9.171  0.2324E-01  0.2324E-01  0.9016E+01  0.9016E+01
      9.358  0.2687E-01  0.2688E-01  0.9021E+01  0.9021E+01
      9.545  0.3070E-01  0.3070E-01  0.9026E+01  0.9026E+01
      9.731  0.3475E-01  0.3475E-01  0.9032E+01  0.9032E+01
      9.918  0.3954E-01  0.3954E-01  0.9039E+01  0.9039E+01
     10.105  0.4463E-01  0.4463E-01  0.9047E+01  0.9047E+01
     10.291  0.5004E-01  0.5004E-01  0.9056E+01  0.9056E+01
     10.478  0.5599E-01  0.5599E-01  0.9066E+01  0.9066E+01
     10.665  0.6301E-01  0.6301E-01  0.9077E+01  0.9077E+01
     10.851  0.7075E-01  0.7075E-01  0.9089E+01  0.9089E+01
     11.038  0.7925E-01  0.7925E-01  0.9103E+01  0.9103E+01
     11.225  0.8895E-01  0.8896E-01  0.9119E+01  0.9119E+01
     11.411  0.1009E+00  0.1009E+00  0.9137E+01  0.9137E+01
     11.598  0.1149E+00  0.1149E+00  0.9157E+01  0.9157E+01
     11.785  0.1316E+00  0.1316E+00  0.9180E+01  0.9180E+01
     11.971  0.1567E+00  0.1567E+00  0.9207E+01  0.9207E+01
     12.158  0.2075E+00  0.2075E+00  0.9240E+01  0.9240E+01
     12.345  0.2778E+00  0.2778E+00  0.9286E+01  0.9286E+01
     12.532  0.3532E+00  0.3532E+00  0.9347E+01  0.9347E+01
     12.718  0.3370E+00  0.3370E+00  0.9410E+01  0.9410E+01
     12.905  0.3306E+00  0.3306E+00  0.9472E+01  0.9472E+01
     13.092  0.3205E+00  0.3205E+00  0.9533E+01  0.9533E+01
     13.278  0.3101E+00  0.3101E+00  0.9592E+01  0.9592E+01
     13.465  0.3004E+00  0.3004E+00  0.9649E+01  0.9649E+01
     13.652  0.2878E+00  0.2878E+00  0.9704E+01  0.9704E+01
     13.838  0.2771E+00  0.2771E+00  0.9757E+01  0.9757E+01
     14.025  0.2645E+00  0.2645E+00  0.9807E+01  0.9807E+01
     14.212  0.2598E+00  0.2598E+00  0.9856E+01  0.9856E+01
     14.398  0.3024E+00  0.3024E+00  0.9906E+01  0.9906E+01
     14.585  0.2643E+00  0.2643E+00  0.9959E+01  0.9959E+01
     14.772  0.5272E-01  0.5271E-01  0.1000E+02  0.1000E+02
     14.958  0.0000E+00  0.0000E+00  0.1000E+02  0.1000E+02
     15.145  0.0000E+00  0.0000E+00  0.1000E+02  0.1000E+02
     15.332  0.2916E+00  0.2916E+00  0.1003E+02  0.1003E+02
     15.518  0.3390E+00  0.3390E+00  0.1009E+02  0.1009E+02
     15.705  0.3874E+00  0.3874E+00  0.1016E+02  0.1016E+02
     15.892  0.4486E+00  0.4486E+00  0.1024E+02  0.1024E+02
     16.079  0.4062E+00  0.4062E+00  0.1031E+02  0.1031E+02
     16.265  0.3871E+00  0.3871E+00  0.1038E+02  0.1038E+02
     16.452  0.3810E+00  0.3810E+00  0.1046E+02  0.1046E+02
     16.639  0.4837E+00  0.4837E+00  0.1053E+02  0.1053E+02
     16.825  0.7681E+00  0.7681E+00  0.1063E+02  0.1063E+02
     17.012  0.9068E+00  0.9068E+00  0.1077E+02  0.1077E+02
     17.199  0.6289E+00  0.6289E+00  0.1089E+02  0.1089E+02
     17.385  0.5887E+00  0.5887E+00  0.1100E+02  0.1100E+02
     17.572  0.5628E+00  0.5628E+00  0.1111E+02  0.1111E+02
     17.759  0.5120E+00  0.5120E+00  0.1121E+02  0.1121E+02
     17.945  0.4662E+00  0.4662E+00  0.1130E+02  0.1130E+02
     18.132  0.3729E+00  0.3729E+00  0.1138E+02  0.1138E+02
     18.319  0.3228E+00  0.3228E+00  0.1144E+02  0.1144E+02
     18.505  0.2872E+00  0.2872E+00  0.1150E+02  0.1150E+02
     18.692  0.2564E+00  0.2564E+00  0.1155E+02  0.1155E+02
     18.879  0.2325E+00  0.2325E+00  0.1160E+02  0.1160E+02
     19.065  0.2140E+00  0.2140E+00  0.1164E+02  0.1164E+02
     19.252  0.1939E+00  0.1939E+00  0.1168E+02  0.1168E+02
     19.439  0.1774E+00  0.1774E+00  0.1171E+02  0.1171E+02
     19.626  0.1657E+00  0.1657E+00  0.1174E+02  0.1174E+02
     19.812  0.1818E+00  0.1818E+00  0.1178E+02  0.1178E+02
     19.999  0.1891E+00  0.1891E+00  0.1181E+02  0.1181E+02
     20.186  0.1840E+00  0.1840E+00  0.1185E+02  0.1185E+02
     20.372  0.2809E+00  0.2809E+00  0.1189E+02  0.1189E+02
     20.559  0.3612E+00  0.3612E+00  0.1194E+02  0.1194E+02
     20.746  0.5276E+00  0.5276E+00  0.1203E+02  0.1203E+02
     20.932  0.6986E+00  0.6986E+00  0.1215E+02  0.1215E+02
     21.119  0.6625E+00  0.6626E+00  0.1227E+02  0.1227E+02
     21.306  0.6060E+00  0.6060E+00  0.1240E+02  0.1240E+02
     21.492  0.4786E+00  0.4786E+00  0.1249E+02  0.1249E+02
     21.679  0.4172E+00  0.4172E+00  0.1258E+02  0.1258E+02
     21.866  0.3873E+00  0.3873E+00  0.1265E+02  0.1265E+02
     22.052  0.3511E+00  0.3511E+00  0.1272E+02  0.1272E+02
     22.239  0.3402E+00  0.3402E+00  0.1279E+02  0.1279E+02
     22.426  0.3004E+00  0.3004E+00  0.1285E+02  0.1285E+02
     22.612  0.2001E+00  0.2001E+00  0.1289E+02  0.1289E+02
     22.799  0.1865E+00  0.1865E+00  0.1293E+02  0.1293E+02
     22.986  0.1895E+00  0.1895E+00  0.1296E+02  0.1296E+02
     23.172  0.1933E+00  0.1933E+00  0.1300E+02  0.1300E+02
     23.359  0.1815E+00  0.1815E+00  0.1303E+02  0.1303E+02
     23.546  0.1761E+00  0.1761E+00  0.1306E+02  0.1306E+02
     23.733  0.1774E+00  0.1774E+00  0.1310E+02  0.1310E+02
     23.919  0.1825E+00  0.1825E+00  0.1313E+02  0.1313E+02
     24.106  0.1839E+00  0.1839E+00  0.1316E+02  0.1316E+02
     24.293  0.1912E+00  0.1912E+00  0.1320E+02  0.1320E+02
     24.479  0.1631E+00  0.1631E+00  0.1323E+02  0.1323E+02
     24.666  0.1623E+00  0.1623E+00  0.1326E+02  0.1326E+02
     24.853  0.1836E+00  0.1836E+00  0.1330E+02  0.1330E+02
     25.039  0.1846E+00  0.1846E+00  0.1333E+02  0.1333E+02
     25.226  0.1937E+00  0.1937E+00  0.1336E+02  0.1336E+02
     25.413  0.2024E+00  0.2024E+00  0.1340E+02  0.1340E+02
     25.599  0.2089E+00  0.2089E+00  0.1344E+02  0.1344E+02
     25.786  0.2227E+00  0.2227E+00  0.1348E+02  0.1348E+02
     25.973  0.2279E+00  0.2279E+00  0.1352E+02  0.1352E+02
     26.159  0.2187E+00  0.2187E+00  0.1356E+02  0.1356E+02
     26.346  0.2208E+00  0.2208E+00  0.1360E+02  0.1360E+02
     26.533  0.2354E+00  0.2354E+00  0.1365E+02  0.1365E+02
     26.719  0.2594E+00  0.2594E+00  0.1369E+02  0.1369E+02
     26.906  0.2977E+00  0.2977E+00  0.1374E+02  0.1374E+02
     27.093  0.3157E+00  0.3157E+00  0.1380E+02  0.1380E+02
     27.280  0.3164E+00  0.3164E+00  0.1386E+02  0.1386E+02
     27.466  0.2872E+00  0.2872E+00  0.1392E+02  0.1392E+02
     27.653  0.2441E+00  0.2441E+00  0.1397E+02  0.1397E+02
     27.840  0.2175E+00  0.2175E+00  0.1401E+02  0.1401E+02
     28.026  0.1852E+00  0.1852E+00  0.1405E+02  0.1405E+02
     28.213  0.2110E+00  0.2110E+00  0.1409E+02  0.1409E+02
     28.400  0.2203E+00  0.2203E+00  0.1413E+02  0.1413E+02
     28.586  0.2610E+00  0.2610E+00  0.1417E+02  0.1417E+02
     28.773  0.3076E+00  0.3076E+00  0.1423E+02  0.1423E+02
     28.960  0.3367E+00  0.3367E+00  0.1429E+02  0.1429E+02
     29.146  0.3731E+00  0.3731E+00  0.1435E+02  0.1435E+02
     29.333  0.3928E+00  0.3928E+00  0.1442E+02  0.1442E+02
     29.520  0.3907E+00  0.3907E+00  0.1450E+02  0.1450E+02
     29.706  0.3408E+00  0.3408E+00  0.1457E+02  0.1457E+02
     29.893  0.3570E+00  0.3570E+00  0.1463E+02  0.1463E+02
     30.080  0.3482E+00  0.3482E+00  0.1470E+02  0.1470E+02
     30.266  0.3293E+00  0.3293E+00  0.1476E+02  0.1476E+02
     30.453  0.3166E+00  0.3166E+00  0.1482E+02  0.1482E+02
     30.640  0.3223E+00  0.3223E+00  0.1488E+02  0.1488E+02
     30.827  0.3243E+00  0.3243E+00  0.1494E+02  0.1494E+02
     31.013  0.3166E+00  0.3166E+00  0.1500E+02  0.1500E+02
     31.200  0.2703E+00  0.2703E+00  0.1505E+02  0.1505E+02
     31.387  0.2543E+00  0.2543E+00  0.1510E+02  0.1510E+02
     31.573  0.2324E+00  0.2324E+00  0.1515E+02  0.1515E+02
     31.760  0.2213E+00  0.2213E+00  0.1519E+02  0.1519E+02
     31.947  0.2134E+00  0.2134E+00  0.1523E+02  0.1523E+02
     32.133  0.2061E+00  0.2061E+00  0.1527E+02  0.1527E+02
     32.320  0.1968E+00  0.1968E+00  0.1531E+02  0.1531E+02
     32.507  0.1882E+00  0.1882E+00  0.1534E+02  0.1534E+02
     32.693  0.1805E+00  0.1805E+00  0.1538E+02  0.1538E+02
     32.880  0.1704E+00  0.1704E+00  0.1541E+02  0.1541E+02
     33.067  0.1621E+00  0.1620E+00  0.1544E+02  0.1544E+02
     33.253  0.1562E+00  0.1562E+00  0.1547E+02  0.1547E+02
     33.440  0.1536E+00  0.1536E+00  0.1550E+02  0.1550E+02
     33.627  0.1556E+00  0.1556E+00  0.1553E+02  0.1553E+02
     33.813  0.1956E+00  0.1956E+00  0.1556E+02  0.1556E+02
     34.000  0.2440E+00  0.2440E+00  0.1560E+02  0.1560E+02
     34.187  0.1433E+00  0.1433E+00  0.1564E+02  0.1564E+02
     34.374  0.1029E+00  0.1029E+00  0.1566E+02  0.1566E+02
     34.560  0.2543E+00  0.2543E+00  0.1569E+02  0.1569E+02
     34.747  0.4065E+00  0.4065E+00  0.1575E+02  0.1575E+02
     34.934  0.2893E+00  0.2893E+00  0.1582E+02  0.1582E+02
     35.120  0.2283E+00  0.2284E+00  0.1587E+02  0.1587E+02
     35.307  0.2111E+00  0.2114E+00  0.1591E+02  0.1591E+02
     35.494  0.2086E+00  0.2087E+00  0.1594E+02  0.1594E+02
     35.680  0.1249E+00  0.1254E+00  0.1598E+02  0.1598E+02
     35.867  0.2700E-01  0.2663E-01  0.1599E+02  0.1599E+02
     36.054  0.8443E-02  0.8189E-02  0.1600E+02  0.1600E+02
     36.240  0.6536E-02  0.6536E-02  0.1600E+02  0.1600E+02
     36.427  0.4966E-02  0.4966E-02  0.1600E+02  0.1600E+02
     36.614  0.3349E-02  0.3349E-02  0.1600E+02  0.1600E+02
     36.800  0.1990E-02  0.1990E-02  0.1600E+02  0.1600E+02
     36.987  0.9825E-03  0.9824E-03  0.1600E+02  0.1600E+02
     37.174  0.3270E-03  0.3269E-03  0.1600E+02  0.1600E+02
     37.360  0.2326E-04  0.2322E-04  0.1600E+02  0.1600E+02
     37.547  0.0000E+00  0.0000E+00  0.1600E+02  0.1600E+02
     37.734  0.0000E+00  0.0000E+00  0.1600E+02  0.1600E+02
     37.920  0.0000E+00  0.0000E+00  0.1600E+02  0.1600E+02
     38.107  0.0000E+00  0.0000E+00  0.1600E+02  0.1600E+02
     38.294  0.0000E+00  0.0000E+00  0.1600E+02  0.1600E+02
     38.481  0.0000E+00  0.0000E+00  0.1600E+02  0.1600E+02
     38.667  0.0000E+00  0.0000E+00  0.1600E+02  0.1600E+02
     38.854  0.0000E+00  0.0000E+00  0.1600E+02  0.1600E+02
     39.041  0.0000E+00  0.0000E+00  0.1600E+02  0.1600E+02
     39.227  0.0000E+00  0.0000E+00  0.1600E+02  0.1600E+02
     39.414  0.0000E+00  0.0000E+00  0.1600E+02  0.1600E+02
     39.601  0.0000E+00  0.0000E+00  0.1600E+02  0.1600E+02
     39.787  0.0000E+00  0.0000E+00  0.1600E+02  0.1600E+02
     39.974  0.0000E+00  0.0000E+00  0.1600E+02  0.1600E+02
     39.97400774    -16.03105023  301      5.73205443      1.00000000
    -16.031  0.0000E+00  0.0000E+00  0.0000E+00  0.0000E+00  0.0000E+00  0.0000E+00  0.0000E+00  0.0000E+00  0.0000E+00  0.0000E+00  0.0000E+00  0.0000E+00  0.0000E+00  0.0000E+00  0.0000E+00  0.0000E+00  0.0000E+00  0.0000E+00
    -15.844  0.0000E+00  0.0000E+00  0.0000E+00  0.0000E+00  0.0000E+00  0.0000E+00  0.0000E+00  0.0000E+00  0.0000E+00  0.0000E+00  0.0000E+00  0.0000E+00  0.0000E+00  0.0000E+00  0.0000E+00  0.0000E+00  0.0000E+00  0.0000E+00
    -15.658  0.0000E+00  0.0000E+00  0.0000E+00  0.0000E+00  0.0000E+00  0.0000E+00  0.0000E+00  0.0000E+00  0.0000E+00  0.0000E+00  0.0000E+00  0.0000E+00  0.0000E+00  0.0000E+00  0.0000E+00  0.0000E+00  0.0000E+00  0.0000E+00
    -15.471  0.0000E+00  0.0000E+00  0.0000E+00  0.0000E+00  0.0000E+00  0.0000E+00  0.0000E+00  0.0000E+00  0.0000E+00  0.0000E+00  0.0000E+00  0.0000E+00  0.0000E+00  0.0000E+00  0.0000E+00  0.0000E+00  0.0000E+00  0.0000E+00
    -15.284  0.0000E+00  0.0000E+00  0.0000E+00  0.0000E+00  0.0000E+00  0.0000E+00  0.0000E+00  0.0000E+00  0.0000E+00  0.0000E+00  0.0000E+00  0.0000E+00  0.0000E+00  0.0000E+00  0.0000E+00  0.0000E+00  0.0000E+00  0.0000E+00
    -15.098  0.0000E+00  0.0000E+00  0.0000E+00  0.0000E+00  0.0000E+00  0.0000E+00  0.0000E+00  0.0000E+00  0.0000E+00  0.0000E+00  0.0000E+00  0.0000E+00  0.0000E+00  0.0000E+00  0.0000E+00  0.0000E+00  0.0000E+00  0.0000E+00
    -14.911  0.0000E+00  0.0000E+00  0.0000E+00  0.0000E+00  0.0000E+00  0.0000E+00  0.0000E+00  0.0000E+00  0.0000E+00  0.0000E+00  0.0000E+00  0.0000E+00  0.0000E+00  0.0000E+00  0.0000E+00  0.0000E+00  0.0000E+00  0.0000E+00
    -14.724  0.0000E+00  0.0000E+00  0.0000E+00  0.0000E+00  0.0000E+00  0.0000E+00  0.0000E+00  0.0000E+00  0.0000E+00  0.0000E+00  0.0000E+00  0.0000E+00  0.0000E+00  0.0000E+00  0.0000E+00  0.0000E+00  0.0000E+00  0.0000E+00
    -14.538  0.0000E+00  0.0000E+00  0.0000E+00  0.0000E+00  0.0000E+00  0.0000E+00  0.0000E+00  0.0000E+00  0.0000E+00  0.0000E+00  0.0000E+00  0.0000E+00  0.0000E+00  0.0000E+00  0.0000E+00  0.0000E+00  0.0000E+00  0.0000E+00
    -14.351  0.0000E+00  0.0000E+00  0.0000E+00  0.0000E+00  0.0000E+00  0.0000E+00  0.0000E+00  0.0000E+00  0.0000E+00  0.0000E+00  0.0000E+00  0.0000E+00  0.0000E+00  0.0000E+00  0.0000E+00  0.0000E+00  0.0000E+00  0.0000E+00
    -14.164  0.0000E+00  0.0000E+00  0.0000E+00  0.0000E+00  0.0000E+00  0.0000E+00  0.0000E+00  0.0000E+00  0.0000E+00  0.0000E+00  0.0000E+00  0.0000E+00  0.0000E+00  0.0000E+00  0.0000E+00  0.0000E+00  0.0000E+00  0.0000E+00
    -13.978  0.0000E+00  0.0000E+00  0.0000E+00  0.0000E+00  0.0000E+00  0.0000E+00  0.0000E+00  0.0000E+00  0.0000E+00  0.0000E+00  0.0000E+00  0.0000E+00  0.0000E+00  0.0000E+00  0.0000E+00  0.0000E+00  0.0000E+00  0.0000E+00
    -13.791  0.0000E+00  0.0000E+00  0.0000E+00  0.0000E+00  0.0000E+00  0.0000E+00  0.0000E+00  0.0000E+00  0.0000E+00  0.0000E+00  0.0000E+00  0.0000E+00  0.0000E+00  0.0000E+00  0.0000E+00  0.0000E+00  0.0000E+00  0.0000E+00
    -13.604  0.0000E+00  0.0000E+00  0.0000E+00  0.0000E+00  0.0000E+00  0.0000E+00  0.0000E+00  0.0000E+00  0.0000E+00  0.0000E+00  0.0000E+00  0.0000E+00  0.0000E+00  0.0000E+00  0.0000E+00  0.0000E+00  0.0000E+00  0.0000E+00
    -13.417  0.4962E-02  0.4963E-02  0.4510E-04  0.4511E-04  0.4510E-04  0.4511E-04  0.4510E-04  0.4511E-04  0.1560E-07  0.1561E-07  0.1560E-07  0.1561E-07  0.1142E-05  0.1142E-05  0.1560E-07  0.1561E-07  0.1142E-05  0.1142E-05
    -13.231  0.1263E-01  0.1263E-01  0.4200E-03  0.4201E-03  0.4200E-03  0.4201E-03  0.4200E-03  0.4201E-03  0.4040E-06  0.4041E-06  0.4040E-06  0.4041E-06  0.3188E-04  0.3189E-04  0.4040E-06  0.4041E-06  0.3188E-04  0.3189E-04
    -13.044  0.1287E-01  0.1287E-01  0.9142E-03  0.9142E-03  0.9142E-03  0.9142E-03  0.9142E-03  0.9142E-03  0.1311E-05  0.1311E-05  0.1311E-05  0.1311E-05  0.1439E-03  0.1439E-03  0.1311E-05  0.1311E-05  0.1439E-03  0.1439E-03
    -12.857  0.1405E-01  0.1405E-01  0.1683E-02  0.1683E-02  0.1683E-02  0.1683E-02  0.1683E-02  0.1683E-02  0.2963E-05  0.2964E-05  0.2963E-05  0.2964E-05  0.4290E-03  0.4290E-03  0.2963E-05  0.2964E-05  0.4290E-03  0.4290E-03
    -12.671  0.1479E-01  0.1479E-01  0.2866E-02  0.2866E-02  0.2866E-02  0.2866E-02  0.2866E-02  0.2866E-02  0.5464E-05  0.5464E-05  0.5464E-05  0.5464E-05  0.1104E-02  0.1104E-02  0.5464E-05  0.5464E-05  0.1104E-02  0.1104E-02
    -12.484  0.1541E-01  0.1541E-01  0.4940E-02  0.4940E-02  0.4940E-02  0.4940E-02  0.4940E-02  0.4940E-02  0.8796E-05  0.8796E-05  0.8796E-05  0.8796E-05  0.2924E-02  0.2924E-02  0.8796E-05  0.8796E-05  0.2924E-02  0.2924E-02
    -12.297  0.1677E-01  0.1677E-01  0.1110E-01  0.1110E-01  0.1110E-01  0.1110E-01  0.1110E-01  0.1110E-01  0.1561E-04  0.1561E-04  0.1561E-04  0.1561E-04  0.9484E-02  0.9485E-02  0.1561E-04  0.1561E-04  0.9484E-02  0.9485E-02
    -12.111  0.1418E-01  0.1418E-01  0.3004E-01  0.3004E-01  0.3004E-01  0.3004E-01  0.3004E-01  0.3004E-01  0.2341E-04  0.2341E-04  0.2341E-04  0.2341E-04  0.6340E-01  0.6341E-01  0.2341E-04  0.2341E-04  0.6340E-01  0.6341E-01
    -11.924  0.5390E-03  0.5390E-03  0.2247E-02  0.2247E-02  0.2247E-02  0.2247E-02  0.2247E-02  0.2247E-02  0.1093E-05  0.1093E-05  0.1093E-05  0.1093E-05  0.7399E-02  0.7399E-02  0.1093E-05  0.1093E-05  0.7399E-02  0.7399E-02
    -11.737  0.0000E+00  0.0000E+00  0.0000E+00  0.0000E+00  0.0000E+00  0.0000E+00  0.0000E+00  0.0000E+00  0.0000E+00  0.0000E+00  0.0000E+00  0.0000E+00  0.0000E+00  0.0000E+00  0.0000E+00  0.0000E+00  0.0000E+00  0.0000E+00
    -11.551  0.0000E+00  0.0000E+00  0.0000E+00  0.0000E+00  0.0000E+00  0.0000E+00  0.0000E+00  0.0000E+00  0.0000E+00  0.0000E+00  0.0000E+00  0.0000E+00  0.0000E+00  0.0000E+00  0.0000E+00  0.0000E+00  0.0000E+00  0.0000E+00
    -11.364  0.0000E+00  0.0000E+00  0.0000E+00  0.0000E+00  0.0000E+00  0.0000E+00  0.0000E+00  0.0000E+00  0.0000E+00  0.0000E+00  0.0000E+00  0.0000E+00  0.0000E+00  0.0000E+00  0.0000E+00  0.0000E+00  0.0000E+00  0.0000E+00
    -11.177  0.0000E+00  0.0000E+00  0.0000E+00  0.0000E+00  0.0000E+00  0.0000E+00  0.0000E+00  0.0000E+00  0.0000E+00  0.0000E+00  0.0000E+00  0.0000E+00  0.0000E+00  0.0000E+00  0.0000E+00  0.0000E+00  0.0000E+00  0.0000E+00
    -10.991  0.0000E+00  0.0000E+00  0.0000E+00  0.0000E+00  0.0000E+00  0.0000E+00  0.0000E+00  0.0000E+00  0.0000E+00  0.0000E+00  0.0000E+00  0.0000E+00  0.0000E+00  0.0000E+00  0.0000E+00  0.0000E+00  0.0000E+00  0.0000E+00
    -10.804  0.0000E+00  0.0000E+00  0.0000E+00  0.0000E+00  0.0000E+00  0.0000E+00  0.0000E+00  0.0000E+00  0.0000E+00  0.0000E+00  0.0000E+00  0.0000E+00  0.0000E+00  0.0000E+00  0.0000E+00  0.0000E+00  0.0000E+00  0.0000E+00
    -10.617  0.0000E+00  0.0000E+00  0.0000E+00  0.0000E+00  0.0000E+00  0.0000E+00  0.0000E+00  0.0000E+00  0.0000E+00  0.0000E+00  0.0000E+00  0.0000E+00  0.0000E+00  0.0000E+00  0.0000E+00  0.0000E+00  0.0000E+00  0.0000E+00
    -10.431  0.0000E+00  0.0000E+00  0.0000E+00  0.0000E+00  0.0000E+00  0.0000E+00  0.0000E+00  0.0000E+00  0.0000E+00  0.0000E+00  0.0000E+00  0.0000E+00  0.0000E+00  0.0000E+00  0.0000E+00  0.0000E+00  0.0000E+00  0.0000E+00
    -10.244  0.0000E+00  0.0000E+00  0.0000E+00  0.0000E+00  0.0000E+00  0.0000E+00  0.0000E+00  0.0000E+00  0.0000E+00  0.0000E+00  0.0000E+00  0.0000E+00  0.0000E+00  0.0000E+00  0.0000E+00  0.0000E+00  0.0000E+00  0.0000E+00
    -10.057  0.0000E+00  0.0000E+00  0.0000E+00  0.0000E+00  0.0000E+00  0.0000E+00  0.0000E+00  0.0000E+00  0.0000E+00  0.0000E+00  0.0000E+00  0.0000E+00  0.0000E+00  0.0000E+00  0.0000E+00  0.0000E+00  0.0000E+00  0.0000E+00
     -9.870  0.0000E+00  0.0000E+00  0.0000E+00  0.0000E+00  0.0000E+00  0.0000E+00  0.0000E+00  0.0000E+00  0.0000E+00  0.0000E+00  0.0000E+00  0.0000E+00  0.0000E+00  0.0000E+00  0.0000E+00  0.0000E+00  0.0000E+00  0.0000E+00
     -9.684  0.0000E+00  0.0000E+00  0.0000E+00  0.0000E+00  0.0000E+00  0.0000E+00  0.0000E+00  0.0000E+00  0.0000E+00  0.0000E+00  0.0000E+00  0.0000E+00  0.0000E+00  0.0000E+00  0.0000E+00  0.0000E+00  0.0000E+00  0.0000E+00
     -9.497  0.0000E+00  0.0000E+00  0.0000E+00  0.0000E+00  0.0000E+00  0.0000E+00  0.0000E+00  0.0000E+00  0.0000E+00  0.0000E+00  0.0000E+00  0.0000E+00  0.0000E+00  0.0000E+00  0.0000E+00  0.0000E+00  0.0000E+00  0.0000E+00
     -9.310  0.0000E+00  0.0000E+00  0.0000E+00  0.0000E+00  0.0000E+00  0.0000E+00  0.0000E+00  0.0000E+00  0.0000E+00  0.0000E+00  0.0000E+00  0.0000E+00  0.0000E+00  0.0000E+00  0.0000E+00  0.0000E+00  0.0000E+00  0.0000E+00
     -9.124  0.0000E+00  0.0000E+00  0.0000E+00  0.0000E+00  0.0000E+00  0.0000E+00  0.0000E+00  0.0000E+00  0.0000E+00  0.0000E+00  0.0000E+00  0.0000E+00  0.0000E+00  0.0000E+00  0.0000E+00  0.0000E+00  0.0000E+00  0.0000E+00
     -8.937  0.0000E+00  0.0000E+00  0.0000E+00  0.0000E+00  0.0000E+00  0.0000E+00  0.0000E+00  0.0000E+00  0.0000E+00  0.0000E+00  0.0000E+00  0.0000E+00  0.0000E+00  0.0000E+00  0.0000E+00  0.0000E+00  0.0000E+00  0.0000E+00
     -8.750  0.0000E+00  0.0000E+00  0.0000E+00  0.0000E+00  0.0000E+00  0.0000E+00  0.0000E+00  0.0000E+00  0.0000E+00  0.0000E+00  0.0000E+00  0.0000E+00  0.0000E+00  0.0000E+00  0.0000E+00  0.0000E+00  0.0000E+00  0.0000E+00
     -8.564  0.0000E+00  0.0000E+00  0.0000E+00  0.0000E+00  0.0000E+00  0.0000E+00  0.0000E+00  0.0000E+00  0.0000E+00  0.0000E+00  0.0000E+00  0.0000E+00  0.0000E+00  0.0000E+00  0.0000E+00  0.0000E+00  0.0000E+00  0.0000E+00
     -8.377  0.0000E+00  0.0000E+00  0.0000E+00  0.0000E+00  0.0000E+00  0.0000E+00  0.0000E+00  0.0000E+00  0.0000E+00  0.0000E+00  0.0000E+00  0.0000E+00  0.0000E+00  0.0000E+00  0.0000E+00  0.0000E+00  0.0000E+00  0.0000E+00
     -8.190  0.0000E+00  0.0000E+00  0.0000E+00  0.0000E+00  0.0000E+00  0.0000E+00  0.0000E+00  0.0000E+00  0.0000E+00  0.0000E+00  0.0000E+00  0.0000E+00  0.0000E+00  0.0000E+00  0.0000E+00  0.0000E+00  0.0000E+00  0.0000E+00
     -8.004  0.0000E+00  0.0000E+00  0.0000E+00  0.0000E+00  0.0000E+00  0.0000E+00  0.0000E+00  0.0000E+00  0.0000E+00  0.0000E+00  0.0000E+00  0.0000E+00  0.0000E+00  0.0000E+00  0.0000E+00  0.0000E+00  0.0000E+00  0.0000E+00
     -7.817  0.0000E+00  0.0000E+00  0.0000E+00  0.0000E+00  0.0000E+00  0.0000E+00  0.0000E+00  0.0000E+00  0.0000E+00  0.0000E+00  0.0000E+00  0.0000E+00  0.0000E+00  0.0000E+00  0.0000E+00  0.0000E+00  0.0000E+00  0.0000E+00
     -7.630  0.0000E+00  0.0000E+00  0.0000E+00  0.0000E+00  0.0000E+00  0.0000E+00  0.0000E+00  0.0000E+00  0.0000E+00  0.0000E+00  0.0000E+00  0.0000E+00  0.0000E+00  0.0000E+00  0.0000E+00  0.0000E+00  0.0000E+00  0.0000E+00
     -7.444  0.0000E+00  0.0000E+00  0.0000E+00  0.0000E+00  0.0000E+00  0.0000E+00  0.0000E+00  0.0000E+00  0.0000E+00  0.0000E+00  0.0000E+00  0.0000E+00  0.0000E+00  0.0000E+00  0.0000E+00  0.0000E+00  0.0000E+00  0.0000E+00
     -7.257  0.0000E+00  0.0000E+00  0.0000E+00  0.0000E+00  0.0000E+00  0.0000E+00  0.0000E+00  0.0000E+00  0.0000E+00  0.0000E+00  0.0000E+00  0.0000E+00  0.0000E+00  0.0000E+00  0.0000E+00  0.0000E+00  0.0000E+00  0.0000E+00
     -7.070  0.0000E+00  0.0000E+00  0.0000E+00  0.0000E+00  0.0000E+00  0.0000E+00  0.0000E+00  0.0000E+00  0.0000E+00  0.0000E+00  0.0000E+00  0.0000E+00  0.0000E+00  0.0000E+00  0.0000E+00  0.0000E+00  0.0000E+00  0.0000E+00
     -6.884  0.0000E+00  0.0000E+00  0.0000E+00  0.0000E+00  0.0000E+00  0.0000E+00  0.0000E+00  0.0000E+00  0.0000E+00  0.0000E+00  0.0000E+00  0.0000E+00  0.0000E+00  0.0000E+00  0.0000E+00  0.0000E+00  0.0000E+00  0.0000E+00
     -6.697  0.0000E+00  0.0000E+00  0.0000E+00  0.0000E+00  0.0000E+00  0.0000E+00  0.0000E+00  0.0000E+00  0.0000E+00  0.0000E+00  0.0000E+00  0.0000E+00  0.0000E+00  0.0000E+00  0.0000E+00  0.0000E+00  0.0000E+00  0.0000E+00