   2   2   0   0
  0.2542822E+02  0.4158662E-09  0.4158662E-09  0.4158662E-09  0.0000000E+00
  1.000000000000000E-004
  CAR 
 unknown system                          
     13.36762146     -9.30936716  301      3.02124540      1.00000000
     -9.309  0.0000E+00  0.0000E+00
     -9.234  0.0000E+00  0.0000E+00
     -9.158  0.0000E+00  0.0000E+00
     -9.083  0.0000E+00  0.0000E+00
     -9.007  0.0000E+00  0.0000E+00
     -8.931  0.0000E+00  0.0000E+00
     -8.856  0.0000E+00  0.0000E+00
     -8.780  0.0000E+00  0.0000E+00
     -8.705  0.0000E+00  0.0000E+00
     -8.629  0.0000E+00  0.0000E+00
     -8.553  0.0000E+00  0.0000E+00
     -8.478  0.0000E+00  0.0000E+00
     -8.402  0.0000E+00  0.0000E+00
     -8.327  0.0000E+00  0.0000E+00
     -8.251  0.9682E-01  0.1273E-02
     -8.176  0.2044E+00  0.1306E-01
     -8.100  0.2853E+00  0.3190E-01
     -8.024  0.3572E+00  0.5610E-01
     -7.949  0.4154E+00  0.8520E-01
     -7.873  0.4796E+00  0.1191E+00
     -7.798  0.5418E+00  0.1577E+00
     -7.722  0.6087E+00  0.2011E+00
     -7.646  0.6795E+00  0.2498E+00
     -7.571  0.7575E+00  0.3040E+00
     -7.495  0.8477E+00  0.3646E+00
     -7.420  0.9485E+00  0.4325E+00
     -7.344  0.1080E+01  0.5089E+00
     -7.268  0.1241E+01  0.5964E+00
     -7.193  0.1478E+01  0.6982E+00
     -7.117  0.1949E+01  0.8248E+00
     -7.042  0.2266E+01  0.9910E+00
     -6.966  0.2263E+01  0.1161E+01
     -6.890  0.2326E+01  0.1335E+01
     -6.815  0.2431E+01  0.1513E+01
     -6.739  0.2654E+01  0.1704E+01
     -6.664  0.4543E+01  0.1932E+01
     -6.588  0.0000E+00  0.2000E+01
     -6.513  0.0000E+00  0.2000E+01
     -6.437  0.0000E+00  0.2000E+01
     -6.361  0.0000E+00  0.2000E+01
     -6.286  0.0000E+00  0.2000E+01
     -6.210  0.0000E+00  0.2000E+01
     -6.135  0.0000E+00  0.2000E+01
     -6.059  0.0000E+00  0.2000E+01
     -5.983  0.0000E+00  0.2000E+01
     -5.908  0.0000E+00  0.2000E+01
     -5.832  0.0000E+00  0.2000E+01
     -5.757  0.0000E+00  0.2000E+01
     -5.681  0.0000E+00  0.2000E+01
     -5.605  0.0000E+00  0.2000E+01
     -5.530  0.0000E+00  0.2000E+01
     -5.454  0.0000E+00  0.2000E+01
     -5.379  0.0000E+00  0.2000E+01
     -5.303  0.0000E+00  0.2000E+01
     -5.228  0.0000E+00  0.2000E+01
     -5.152  0.0000E+00  0.2000E+01
     -5.076  0.0000E+00  0.2000E+01
     -5.001  0.0000E+00  0.2000E+01
     -4.925  0.0000E+00  0.2000E+01
     -4.850  0.0000E+00  0.2000E+01
     -4.774  0.0000E+00  0.2000E+01
     -4.698  0.0000E+00  0.2000E+01
     -4.623  0.0000E+00  0.2000E+01
     -4.547  0.0000E+00  0.2000E+01
     -4.472  0.0000E+00  0.2000E+01
     -4.396  0.0000E+00  0.2000E+01
     -4.320  0.0000E+00  0.2000E+01
     -4.245  0.0000E+00  0.2000E+01
     -4.169  0.0000E+00  0.2000E+01
     -4.094  0.0000E+00  0.2000E+01
     -4.018  0.0000E+00  0.2000E+01
     -3.942  0.0000E+00  0.2000E+01
     -3.867  0.0000E+00  0.2000E+01
     -3.791  0.0000E+00  0.2000E+01
     -3.716  0.0000E+00  0.2000E+01
     -3.640  0.0000E+00  0.2000E+01
     -3.565  0.0000E+00  0.2000E+01
     -3.489  0.0000E+00  0.2000E+01
     -3.413  0.0000E+00  0.2000E+01
     -3.338  0.0000E+00  0.2000E+01
     -3.262  0.0000E+00  0.2000E+01
     -3.187  0.0000E+00  0.2000E+01
     -3.111  0.0000E+00  0.2000E+01
     -3.035  0.0000E+00  0.2000E+01
     -2.960  0.0000E+00  0.2000E+01
     -2.884  0.0000E+00  0.2000E+01
     -2.809  0.0000E+00  0.2000E+01
     -2.733  0.0000E+00  0.2000E+01
     -2.657  0.0000E+00  0.2000E+01
     -2.582  0.0000E+00  0.2000E+01
     -2.506  0.0000E+00  0.2000E+01
     -2.431  0.0000E+00  0.2000E+01
     -2.355  0.0000E+00  0.2000E+01
     -2.280  0.0000E+00  0.2000E+01
     -2.204  0.0000E+00  0.2000E+01
     -2.128  0.0000E+00  0.2000E+01
     -2.053  0.6604E+00  0.2019E+01
     -1.977  0.1334E+01  0.2093E+01
     -1.902  0.2315E+01  0.2226E+01
     -1.826  0.6027E+01  0.2512E+01
     -1.750  0.2549E+01  0.2823E+01
     -1.675  0.1695E+01  0.2975E+01
     -1.599  0.1267E+01  0.3086E+01
     -1.524  0.1065E+01  0.3174E+01
     -1.448  0.8789E+00  0.3247E+01
     -1.372  0.7813E+00  0.3310E+01
     -1.297  0.6975E+00  0.3366E+01
     -1.221  0.6111E+00  0.3415E+01
     -1.146  0.5543E+00  0.3459E+01
     -1.070  0.5113E+00  0.3499E+01
     -0.994  0.4663E+00  0.3536E+01
     -0.919  0.4186E+00  0.3570E+01
     -0.843  0.3887E+00  0.3600E+01
     -0.768  0.3646E+00  0.3628E+01
     -0.692  0.3398E+00  0.3655E+01
     -0.617  0.3149E+00  0.3680E+01
     -0.541  0.2878E+00  0.3703E+01
     -0.465  0.2679E+00  0.3723E+01
     -0.390  0.2537E+00  0.3743E+01
     -0.314  0.2392E+00  0.3762E+01
     -0.239  0.2232E+00  0.3779E+01
     -0.163  0.2072E+00  0.3795E+01
     -0.087  0.2122E+00  0.3811E+01
     -0.012  0.8195E+00  0.3851E+01
      0.064  0.1149E+01  0.3924E+01
      0.139  0.1597E+01  0.4037E+01
      0.215  0.1467E+01  0.4155E+01
      0.291  0.1324E+01  0.4259E+01
      0.366  0.1258E+01  0.4356E+01
      0.442  0.1285E+01  0.4451E+01
      0.517  0.1186E+01  0.4543E+01
      0.593  0.1219E+01  0.4634E+01
      0.669  0.1282E+01  0.4728E+01
      0.744  0.1406E+01  0.4829E+01
      0.820  0.1427E+01  0.4935E+01
      0.895  0.1482E+01  0.5046E+01
      0.971  0.1668E+01  0.5164E+01
      1.046  0.2042E+01  0.5301E+01
      1.122  0.1978E+01  0.5455E+01
      1.198  0.1980E+01  0.5605E+01
      1.273  0.1933E+01  0.5753E+01
      1.349  0.1927E+01  0.5898E+01
      1.424  0.1905E+01  0.6043E+01
      1.500  0.1863E+01  0.6186E+01
      1.576  0.1852E+01  0.6326E+01
      1.651  0.1833E+01  0.6465E+01
      1.727  0.1816E+01  0.6603E+01
      1.802  0.1804E+01  0.6740E+01
      1.878  0.1770E+01  0.6875E+01
      1.954  0.1754E+01  0.7008E+01
      2.029  0.1772E+01  0.7141E+01
      2.105  0.1767E+01  0.7275E+01
      2.180  0.1750E+01  0.7407E+01
      2.256  0.1367E+01  0.7529E+01
      2.331  0.1124E+01  0.7622E+01
      2.407  0.9606E+00  0.7701E+01
      2.483  0.8253E+00  0.7769E+01
      2.558  0.7123E+00  0.7827E+01
      2.634  0.6152E+00  0.7877E+01
      2.709  0.5106E+00  0.7919E+01
      2.785  0.4357E+00  0.7954E+01
      2.861  0.2996E+00  0.7982E+01
      2.936  0.1410E+00  0.7998E+01
      3.012  0.0000E+00  0.8000E+01
      3.087  0.0000E+00  0.8000E+01
      3.163  0.0000E+00  0.8000E+01
      3.239  0.0000E+00  0.8000E+01
      3.314  0.0000E+00  0.8000E+01
      3.390  0.0000E+00  0.8000E+01
      3.465  0.0000E+00  0.8000E+01
      3.541  0.0000E+00  0.8000E+01
      3.617  0.0000E+00  0.8000E+01
      3.692  0.0000E+00  0.8000E+01
      3.768  0.0000E+00  0.8000E+01
      3.843  0.0000E+00  0.8000E+01
      3.919  0.0000E+00  0.8000E+01
      3.994  0.0000E+00  0.8000E+01
      4.070  0.0000E+00  0.8000E+01
      4.146  0.0000E+00  0.8000E+01
      4.221  0.1392E-03  0.8000E+01
      4.297  0.9934E-03  0.8000E+01
      4.372  0.2625E-02  0.8000E+01
      4.448  0.5035E-02  0.8000E+01
      4.524  0.8146E-02  0.8001E+01
      4.599  0.1196E-01  0.8002E+01
      4.675  0.8288E-01  0.8005E+01
      4.750  0.1515E+00  0.8014E+01
      4.826  0.2473E+00  0.8029E+01
      4.902  0.3613E+00  0.8052E+01
      4.977  0.4490E+00  0.8083E+01
      5.053  0.5505E+00  0.8120E+01
      5.128  0.6496E+00  0.8165E+01
      5.204  0.7628E+00  0.8219E+01
      5.279  0.9158E+00  0.8282E+01
      5.355  0.1084E+01  0.8358E+01
      5.431  0.1170E+01  0.8443E+01
      5.506  0.1298E+01  0.8536E+01
      5.582  0.1446E+01  0.8639E+01
      5.657  0.1615E+01  0.8755E+01
      5.733  0.2069E+01  0.8896E+01
      5.809  0.2081E+01  0.9054E+01
      5.884  0.1950E+01  0.9206E+01
      5.960  0.1892E+01  0.9350E+01
      6.035  0.1887E+01  0.9493E+01
      6.111  0.1538E+01  0.9619E+01
      6.187  0.1421E+01  0.9731E+01
      6.262  0.1255E+01  0.9833E+01
      6.338  0.1098E+01  0.9920E+01
      6.413  0.1066E+01  0.1000E+02
      6.489  0.1221E+01  0.1008E+02
      6.565  0.1241E+01  0.1017E+02
      6.640  0.9421E+00  0.1025E+02
      6.716  0.8503E+00  0.1032E+02
      6.791  0.8317E+00  0.1039E+02
      6.867  0.8644E+00  0.1045E+02
      6.942  0.8809E+00  0.1052E+02
      7.018  0.9145E+00  0.1058E+02
      7.094  0.9087E+00  0.1065E+02
      7.169  0.1066E+01  0.1072E+02
      7.245  0.1985E+01  0.1084E+02
      7.320  0.2997E+01  0.1104E+02
      7.396  0.2457E+01  0.1124E+02
      7.472  0.1999E+01  0.1141E+02
      7.547  0.1789E+01  0.1156E+02
      7.623  0.1692E+01  0.1168E+02
      7.698  0.1476E+01  0.1180E+02
      7.774  0.1471E+01  0.1191E+02
      7.850  0.1447E+01  0.1202E+02
      7.925  0.1299E+01  0.1212E+02
      8.001  0.1178E+01  0.1222E+02
      8.076  0.1266E+01  0.1231E+02
      8.152  0.1465E+01  0.1241E+02
      8.228  0.1690E+01  0.1253E+02
      8.303  0.1878E+01  0.1267E+02
      8.379  0.2126E+01  0.1282E+02
      8.454  0.1945E+01  0.1298E+02
      8.530  0.1820E+01  0.1312E+02
      8.605  0.1829E+01  0.1326E+02
      8.681  0.1555E+01  0.1339E+02
      8.757  0.1370E+01  0.1350E+02
      8.832  0.1335E+01  0.1360E+02
      8.908  0.1340E+01  0.1370E+02
      8.983  0.1307E+01  0.1380E+02
      9.059  0.1372E+01  0.1390E+02
      9.135  0.1335E+01  0.1401E+02
      9.210  0.1256E+01  0.1410E+02
      9.286  0.1005E+01  0.1419E+02
      9.361  0.9267E+00  0.1426E+02
      9.437  0.9465E+00  0.1433E+02
      9.513  0.9893E+00  0.1441E+02
      9.588  0.1032E+01  0.1448E+02
      9.664  0.1055E+01  0.1456E+02
      9.739  0.1035E+01  0.1464E+02
      9.815  0.1051E+01  0.1472E+02
      9.890  0.1122E+01  0.1480E+02
      9.966  0.1181E+01  0.1489E+02
     10.042  0.1232E+01  0.1498E+02
     10.117  0.1275E+01  0.1507E+02
     10.193  0.1178E+01  0.1517E+02
     10.268  0.1134E+01  0.1525E+02
     10.344  0.1147E+01  0.1534E+02
     10.420  0.8755E+00  0.1541E+02
     10.495  0.8579E+00  0.1548E+02
     10.571  0.8193E+00  0.1554E+02
     10.646  0.4722E+00  0.1561E+02
     10.722  0.4431E+00  0.1564E+02
     10.798  0.4180E+00  0.1567E+02
     10.873  0.3921E+00  0.1570E+02
     10.949  0.3647E+00  0.1573E+02
     11.024  0.3414E+00  0.1576E+02
     11.100  0.3387E+00  0.1579E+02
     11.176  0.3290E+00  0.1581E+02
     11.251  0.2936E+00  0.1583E+02
     11.327  0.2612E+00  0.1586E+02
     11.402  0.2346E+00  0.1587E+02
     11.478  0.2137E+00  0.1589E+02
     11.553  0.2009E+00  0.1591E+02
     11.629  0.1861E+00  0.1592E+02
     11.705  0.1695E+00  0.1593E+02
     11.780  0.1605E+00  0.1595E+02
     11.856  0.1499E+00  0.1596E+02
     11.931  0.1311E+00  0.1597E+02
     12.007  0.1050E+00  0.1598E+02
     12.083  0.8130E-01  0.1599E+02
     12.158  0.6175E-01  0.1599E+02
     12.234  0.4632E-01  0.1599E+02
     12.309  0.4895E-01  0.1600E+02
     12.385  0.0000E+00  0.1600E+02
     12.461  0.0000E+00  0.1600E+02
     12.536  0.0000E+00  0.1600E+02
     12.612  0.0000E+00  0.1600E+02
     12.687  0.0000E+00  0.1600E+02
     12.763  0.0000E+00  0.1600E+02
     12.838  0.0000E+00  0.1600E+02
     12.914  0.0000E+00  0.1600E+02
     12.990  0.0000E+00  0.1600E+02
     13.065  0.0000E+00  0.1600E+02
     13.141  0.0000E+00  0.1600E+02
     13.216  0.0000E+00  0.1600E+02
     13.292  0.0000E+00  0.1600E+02
     13.368  0.0000E+00  0.1600E+02
