    2    2    1    1
  0.2542822E+02  0.4158662E-09  0.4158662E-09  0.4158662E-09  0.0000000E+00
  1.000000000000000E-004
  CAR 
 unknown system                          
      8    220      8
 
  0.0000000E+00  0.0000000E+00  0.0000000E+00  0.1457938E-03
    1       -8.278595   1.000000
    2        2.970340   1.000000
    3        2.970340   1.000000
    4        2.970341   1.000000
    5        4.176005   0.000000
    6        7.061535   0.000000
    7        7.061535   0.000000
    8        7.061535   0.000000
 
  0.5263158E-01  0.0000000E+00  0.0000000E+00  0.1166351E-02
    1       -8.254988   1.000000
    2        2.560302   1.000000
    3        2.942364   1.000000
    4        2.942364   1.000000
    5        4.512077   0.000000
    6        7.080856   0.000000
    7        7.112372   0.000000
    8        7.112372   0.000000
 
  0.1052632E+00  0.0000000E+00  0.0000000E+00  0.1166351E-02
    1       -8.185044   1.000000
    2        1.828150   1.000000
    3        2.865270   1.000000
    4        2.865270   1.000000
    5        4.972132   0.000000
    6        7.217078   0.000000
    7        7.249321   0.000000
    8        7.249321   0.000000
 
  0.1578947E+00  0.0000000E+00  0.0000000E+00  0.1166351E-02
    1       -8.071775   1.000000
    2        1.054443   1.000000
    3        2.755619   1.000000
    4        2.755619   1.000000
    5        5.195985   0.000000
    6        7.428634   0.000000
    7        7.428634   0.000000
    8        7.608453   0.000000
 
  0.2105263E+00  0.0000000E+00  0.0000000E+00  0.1166351E-02
    1       -7.920663   1.000000
    2        0.302525   1.000000
    3        2.632204   1.000000
    4        2.632204   1.000000
    5        5.190386   0.000000
    6        7.588641   0.000000
    7        7.588641   0.000000
    8        8.236399   0.000000
 
  0.2631579E+00  0.0000000E+00  0.0000000E+00  0.1166351E-02
    1       -7.740778   1.000000
    2       -0.396590   1.000000
    3        2.510993   1.000000
    4        2.510994   1.000000
    5        5.081677   0.000000
    6        7.676352   0.000000
    7        7.676352   0.000000
    8        8.970268   0.000000
 
  0.3157895E+00  0.0000000E+00  0.0000000E+00  0.1166351E-02
    1       -7.546164   1.000000
    2       -1.016863   1.000000
    3        2.403615   1.000000
    4        2.403615   1.000000
    5        4.951548   0.000000
    6        7.682499   0.000000
    7        7.682499   0.000000
    8        9.683922   0.000000
 
  0.3684211E+00  0.0000000E+00  0.0000000E+00  0.1166351E-02
    1       -7.357700   1.000000
    2       -1.529984   1.000000
    3        2.317787   1.000000
    4        2.317787   1.000000
    5        4.837107   0.000000
    6        7.639819   0.000000
    7        7.639819   0.000000
    8       10.209102   0.000000
 
  0.4210526E+00  0.0000000E+00  0.0000000E+00  0.1166351E-02
    1       -7.203600   1.000000
    2       -1.902905   1.000000
    3        2.258329   1.000000
    4        2.258329   1.000000
    5        4.754875   0.000000
    6        7.588671   0.000000
    7        7.588671   0.000000
    8       10.429295   0.000000
 
  0.4736842E+00  0.0000000E+00  0.0000000E+00  0.1166351E-02
    1       -7.115313   1.000000
    2       -2.101291   1.000000
    3        2.227983   1.000000
    4        2.227983   1.000000
    5        4.712311   0.000000
    6        7.556698   0.000000
    7        7.556698   0.000000
    8       10.477531   0.000000
 
  0.5263158E-01  0.5263158E-01  0.0000000E+00  0.8747631E-03
    1       -8.247101   1.000000
    2        2.531614   1.000000
    3        2.880495   1.000000
    4        2.880495   1.000000
    5        4.631237   0.000000
    6        6.935886   0.000000
    7        7.201571   0.000000
    8        7.201571   0.000000
 
  0.1052632E+00  0.5263158E-01  0.0000000E+00  0.3499052E-02
    1       -8.192560   1.000000
    2        1.975712   1.000000
    3        2.775597   1.000000
    4        2.826540   1.000000
    5        5.047814   0.000000
    6        6.871734   0.000000
    7        7.374318   0.000000
    8        7.384434   0.000000
 
  0.1578947E+00  0.5263158E-01  0.0000000E+00  0.3499052E-02
    1       -8.093647   1.000000
    2        1.256230   1.000000
    3        2.647459   1.000000
    4        2.748681   1.000000
    5        5.349024   0.000000
    6        6.961929   0.000000
    7        7.586493   0.000000
    8        7.690934   0.000000
 
  0.2105263E+00  0.5263158E-01  0.0000000E+00  0.3499052E-02
    1       -7.954913   1.000000
    2        0.520370   1.000000
    3        2.515230   1.000000
    4        2.632304   1.000000
    5        5.408333   0.000000
    6        7.187003   0.000000
    7        7.777350   0.000000
    8        8.136309   0.000000
 
  0.2631579E+00  0.5263158E-01  0.0000000E+00  0.3499052E-02
    1       -7.784139   1.000000
    2       -0.182386   1.000000
    3        2.393847   1.000000
    4        2.496552   1.000000
    5        5.324378   0.000000
    6        7.389945   0.000000
    7        7.889244   0.000000
    8        8.689066   0.000000
 
  0.3157895E+00  0.5263158E-01  0.0000000E+00  0.3499052E-02
    1       -7.593479   1.000000
    2       -0.820690   1.000000
    3        2.293620   1.000000
    4        2.359664   1.000000
    5        5.199205   0.000000
    6        7.482469   0.000000
    7        7.902561   0.000000
    8        9.294779   0.000000
 
  0.3684211E+00  0.5263158E-01  0.0000000E+00  0.3499052E-02
    1       -7.401334   1.000000
    2       -1.365237   1.000000
    3        2.221004   1.000000
    4        2.235110   1.000000
    5        5.080613   0.000000
    6        7.489888   0.000000
    7        7.845345   0.000000
    8        9.884184   0.000000
 
  0.4210526E+00  0.5263158E-01  0.0000000E+00  0.3499052E-02
    1       -7.233437   1.000000
    2       -1.783540   1.000000
    3        2.132097   1.000000
    4        2.179562   1.000000
    5        4.989163   0.000000
    6        7.469426   0.000000
    7        7.761890   0.000000
    8       10.326939   0.000000
 
  0.4736842E+00  0.5263158E-01  0.0000000E+00  0.3499052E-02
    1       -7.120851   1.000000
    2       -2.040462   1.000000
    3        2.056720   1.000000
    4        2.170723   1.000000
    5        4.934099   0.000000
    6        7.461385   0.000000
    7        7.686380   0.000000
    8       10.526800   0.000000
 
 -0.4736842E+00  0.5263158E-01  0.0000000E+00  0.3499052E-02
    1       -7.090434   1.000000
    2       -2.106991   1.000000
    3        2.012974   1.000000
    4        2.194253   1.000000
    5        4.919394   0.000000
    6        7.484981   0.000000
    7        7.637626   0.000000
    8       10.570519   0.000000
 
 -0.4210526E+00  0.5263158E-01  0.0000000E+00  0.3499052E-02
    1       -7.150478   1.000000
    2       -1.974359   1.000000
    3        2.003306   1.000000
    4        2.248534   1.000000
    5        4.945960   0.000000
    6        7.543837   0.000000
    7        7.621080   0.000000
    8       10.512884   0.000000
 
 -0.3684211E+00  0.5263158E-01  0.0000000E+00  0.3499052E-02
    1       -7.285061   1.000000
    2       -1.659570   1.000000
    3        2.028867   1.000000
    4        2.330533   1.000000
    5        5.012034   0.000000
    6        7.627947   0.000000
    7        7.629594   0.000000
    8       10.272329   0.000000
 
 -0.3157895E+00  0.5263158E-01  0.0000000E+00  0.3499052E-02
    1       -7.464379   1.000000
    2       -1.195312   1.000000
    3        2.089487   1.000000
    4        2.435536   1.000000
    5        5.112112   0.000000
    6        7.641687   0.000000
    7        7.710365   0.000000
    8        9.772525   0.000000
 
 -0.2631579E+00  0.5263158E-01  0.0000000E+00  0.3499052E-02
    1       -7.658513   1.000000
    2       -0.616629   1.000000
    3        2.183404   1.000000
    4        2.556631   1.000000
    5        5.233529   0.000000
    6        7.621857   0.000000
    7        7.739244   0.000000
    8        9.135838   0.000000
 
 -0.2105263E+00  0.5263158E-01  0.0000000E+00  0.3499052E-02
    1       -7.844216   1.000000
    2        0.044719   1.000000
    3        2.306804   1.000000
    4        2.683838   1.000000
    5        5.347366   0.000000
    6        7.536733   0.000000
    7        7.636535   0.000000
    8        8.523021   0.000000
 
 -0.1578947E+00  0.5263158E-01  0.0000000E+00  0.3499052E-02
    1       -8.005368   1.000000
    2        0.758042   1.000000
    3        2.453405   1.000000
    4        2.803310   1.000000
    5        5.387118   0.000000
    6        7.369170   0.000000
    7        7.390237   0.000000
    8        8.038729   0.000000
 
 -0.1052632E+00  0.5263158E-01  0.0000000E+00  0.3499052E-02
    1       -8.131460   1.000000
    2        1.484409   1.000000
    3        2.615083   1.000000
    4        2.897505   1.000000
    5        5.235588   0.000000
    6        7.111621   0.000000
    7        7.232832   0.000000
    8        7.663683   0.000000
 
 -0.5263158E-01  0.5263158E-01  0.0000000E+00  0.1749526E-02
    1       -8.215907   1.000000
    2        2.146475   1.000000
    3        2.787403   1.000000
    4        2.948044   1.000000
    5        4.859392   0.000000
    6        7.037647   0.000000
    7        7.126333   0.000000
    8        7.348906   0.000000
 
  0.1052632E+00  0.1052632E+00  0.0000000E+00  0.8747631E-03
    1       -8.153697   1.000000
    2        1.799359   1.000000
    3        2.646682   1.000000
    4        2.646683   1.000000
    5        5.390210   0.000000
    6        6.621466   0.000000
    7        7.584789   0.000000
    8        7.584789   0.000000
 
  0.1578947E+00  0.1052632E+00  0.0000000E+00  0.3499052E-02
    1       -8.070042   1.000000
    2        1.287686   1.000000
    3        2.500660   1.000000
    4        2.535268   1.000000
    5        5.727313   0.000000
    6        6.518261   0.000000
    7        7.837205   0.000000
    8        7.870642   0.000000
 
  0.2105263E+00  0.1052632E+00  0.0000000E+00  0.3499052E-02
    1       -7.945371   1.000000
    2        0.646076   1.000000
    3        2.357077   1.000000
    4        2.415012   1.000000
    5        5.852367   0.000000
    6        6.644434   0.000000
    7        8.072559   0.000000
    8        8.193514   0.000000
 
  0.2631579E+00  0.1052632E+00  0.0000000E+00  0.3499052E-02
    1       -7.786323   1.000000
    2       -0.012494   1.000000
    3        2.230472   1.000000
    4        2.260217   1.000000
    5        5.784507   0.000000
    6        6.936720   0.000000
    7        8.228439   0.000000
    8        8.445939   0.000000
 
  0.3157895E+00  0.1052632E+00  0.0000000E+00  0.3499052E-02
    1       -7.603414   1.000000
    2       -0.635772   1.000000
    3        2.088387   1.000000
    4        2.130597   1.000000
    5        5.662807   0.000000
    6        7.188993   0.000000
    7        8.271305   0.000000
    8        8.709461   0.000000
 
  0.3684211E+00  0.1052632E+00  0.0000000E+00  0.3499052E-02
    1       -7.412715   1.000000
    2       -1.187040   1.000000
    3        1.920042   1.000000
    4        2.063418   1.000000
    5        5.543863   0.000000
    6        7.298774   0.000000
    7        8.219372   0.000000
    8        9.142895   0.000000
 
  0.4210526E+00  0.1052632E+00  0.0000000E+00  0.3499052E-02
    1       -7.237179   1.000000
    2       -1.631530   1.000000
    3        1.770336   1.000000
    4        2.032056   1.000000
    5        5.448781   0.000000
    6        7.316201   0.000000
    7        8.118849   0.000000
    8        9.718056   0.000000
 
  0.4736842E+00  0.1052632E+00  0.0000000E+00  0.3499052E-02
    1       -7.106024   1.000000
    2       -1.933024   1.000000
    3        1.649472   1.000000
    4        2.037421   1.000000
    5        5.387280   0.000000
    6        7.319466   0.000000
    7        8.010625   0.000000
    8       10.289660   0.000000
 
 -0.4736842E+00  0.1052632E+00  0.0000000E+00  0.3499052E-02
    1       -7.048027   1.000000
    2       -2.058964   1.000000
    3        1.564286   1.000000
    4        2.078587   1.000000
    5        5.363807   0.000000
    6        7.348147   0.000000
    7        7.919671   0.000000
    8       10.645402   0.000000
 
 -0.4210526E+00  0.1052632E+00  0.0000000E+00  0.3499052E-02
    1       -7.078304   1.000000
    2       -1.992959   1.000000
    3        1.519573   1.000000
    4        2.152944   1.000000
    5        5.379531   0.000000
    6        7.414961   0.000000
    7        7.856443   0.000000
    8       10.645839   0.000000
 
 -0.3684211E+00  0.1052632E+00  0.0000000E+00  0.3499052E-02
    1       -7.188734   1.000000
    2       -1.744252   1.000000
    3        1.518855   1.000000
    4        2.256090   1.000000
    5        5.432841   0.000000
    6        7.515732   0.000000
    7        7.818401   0.000000
    8       10.295380   0.000000
 
 -0.3157895E+00  0.1052632E+00  0.0000000E+00  0.3499052E-02
    1       -7.353336   1.000000
    2       -1.342729   1.000000
    3        1.564930   1.000000
    4        2.381486   1.000000
    5        5.518543   0.000000
    6        7.627043   0.000000
    7        7.788763   0.000000
    8        9.717760   0.000000
 
 -0.2631579E+00  0.1052632E+00  0.0000000E+00  0.3499052E-02
    1       -7.541954   1.000000
    2       -0.826315   1.000000
    3        1.660443   1.000000
    4        2.519885   1.000000
    5        5.624658   0.000000
    6        7.687651   0.000000
    7        7.736108   0.000000
    8        9.114303   0.000000
 
 -0.2105263E+00  0.1052632E+00  0.0000000E+00  0.3499052E-02
    1       -7.729371   1.000000
    2       -0.234400   1.000000
    3        1.808780   1.000000
    4        2.658504   1.000000
    5        5.722761   0.000000
    6        7.577233   0.000000
    7        7.629020   0.000000
    8        8.662255   0.000000
 
 -0.1578947E+00  0.1052632E+00  0.0000000E+00  0.3499052E-02
    1       -7.897444   1.000000
    2        0.389124   1.000000
    3        2.015710   1.000000
    4        2.780556   1.000000
    5        5.743563   0.000000
    6        7.292796   0.000000
    7        7.472660   0.000000
    8        8.380663   0.000000
 
 -0.1052632E+00  0.1052632E+00  0.0000000E+00  0.1749526E-02
    1       -8.034053   1.000000
    2        0.986376   1.000000
    3        2.289188   1.000000
    4        2.866299   1.000000
    5        5.574180   0.000000
    6        7.099514   0.000000
    7        7.319880   0.000000
    8        8.069493   0.000000
 
  0.1578947E+00  0.1578947E+00  0.0000000E+00  0.8747631E-03
    1       -8.001935   1.000000
    2        1.052999   1.000000
    3        2.339360   1.000000
    4        2.339360   1.000000
    5        6.053578   0.000000
    6        6.256407   0.000000
    7        8.137618   0.000000
    8        8.137618   0.000000
 
  0.2105263E+00  0.1578947E+00  0.0000000E+00  0.3499052E-02
    1       -7.892403   1.000000
    2        0.596843   1.000000
    3        2.183823   1.000000
    4        2.186299   1.000000
    5        6.055856   0.000000
    6        6.360029   0.000000
    7        8.409480   0.000000
    8        8.430822   0.000000
 
  0.2631579E+00  0.1578947E+00  0.0000000E+00  0.3499052E-02
    1       -7.747096   1.000000
    2        0.046879   1.000000
    3        2.008816   1.000000
    4        2.048772   1.000000
    5        5.992010   0.000000
    6        6.595361   0.000000
    7        8.452493   0.000000
    8        8.650704   0.000000
 
  0.3157895E+00  0.1578947E+00  0.0000000E+00  0.3499052E-02
    1       -7.575157   1.000000
    2       -0.514095   1.000000
    3        1.799267   1.000000
    4        1.943983   1.000000
    5        5.907423   0.000000
    6        6.924271   0.000000
    7        8.386577   0.000000
    8        8.747700   0.000000
 
  0.3684211E+00  0.1578947E+00  0.0000000E+00  0.3499052E-02
    1       -7.390607   1.000000
    2       -1.035592   1.000000
    3        1.581441   1.000000
    4        1.875455   1.000000
    5        5.814264   0.000000
    6        7.242062   0.000000
    7        8.463391   0.000000
    8        8.724012   0.000000
 
  0.4210526E+00  0.1578947E+00  0.0000000E+00  0.3499052E-02
    1       -7.213658   1.000000
    2       -1.477142   1.000000
    3        1.378509   1.000000
    4        1.846337   1.000000
    5        5.737967   0.000000
    6        7.389997   0.000000
    7        8.624456   0.000000
    8        8.853395   0.000000
 
  0.4736842E+00  0.1578947E+00  0.0000000E+00  0.3499052E-02
    1       -7.070872   1.000000
    2       -1.800250   1.000000
    3        1.206433   1.000000
    4        1.857539   1.000000
    5        5.694201   0.000000
    6        7.414734   0.000000
    7        8.497014   0.000000
    8        9.481616   0.000000
 
 -0.4736842E+00  0.1578947E+00  0.0000000E+00  0.3499052E-02
    1       -6.990701   1.000000
    2       -1.969757   1.000000
    3        1.075766   1.000000
    4        1.908062   1.000000
    5        5.689785   0.000000
    6        7.423903   0.000000
    7        8.373562   0.000000
    8       10.166625   0.000000
 
 -0.4210526E+00  0.1578947E+00  0.0000000E+00  0.3499052E-02
    1       -6.992663   1.000000
    2       -1.963580   1.000000
    3        0.994102   1.000000
    4        1.995013   1.000000
    5        5.725381   0.000000
    6        7.461037   0.000000
    7        8.269257   0.000000
    8       10.582428   0.000000
 
 -0.3684211E+00  0.1578947E+00  0.0000000E+00  0.3499052E-02
    1       -7.076172   1.000000
    2       -1.783735   1.000000
    3        0.968011   1.000000
    4        2.113388   1.000000
    5        5.796884   0.000000
    6        7.536424   0.000000
    7        8.184616   0.000000
    8       10.274061   0.000000
 
 -0.3157895E+00  0.1578947E+00  0.0000000E+00  0.3499052E-02
    1       -7.220953   1.000000
    2       -1.456795   1.000000
    3        1.004755   1.000000
    4        2.255581   1.000000
    5        5.895086   0.000000
    6        7.638799   0.000000
    7        8.104692   0.000000
    8        9.626869   0.000000
 
 -0.2631579E+00  0.1578947E+00  0.0000000E+00  0.3499052E-02
    1       -7.398521   1.000000
    2       -1.024607   1.000000
    3        1.114273   1.000000
    4        2.410657   1.000000
    5        6.001673   0.000000
    6        7.715674   0.000000
    7        7.999068   0.000000
    8        8.995759   0.000000
 
 -0.2105263E+00  0.1578947E+00  0.0000000E+00  0.3499052E-02
    1       -7.582664   1.000000
    2       -0.537165   1.000000
    3        1.311234   1.000000
    4        2.563455   1.000000
    5        6.074616   0.000000
    6        7.624713   0.000000
    7        7.839987   0.000000
    8        8.610884   0.000000
 
 -0.1578947E+00  0.1578947E+00  0.0000000E+00  0.1749526E-02
    1       -7.753553   1.000000
    2       -0.049735   1.000000
    3        1.612482   1.000000
    4        2.694227   1.000000
    5        6.017219   0.000000
    6        7.382398   0.000000
    7        7.643527   0.000000
    8        8.510493   0.000000
 
  0.2105263E+00  0.2105263E+00  0.0000000E+00  0.8747631E-03
    1       -7.798428   1.000000
    2        0.336505   1.000000
    3        2.016940   1.000000
    4        2.016940   1.000000
    5        5.800998   0.000000
    6        6.478253   0.000000
    7        8.797344   0.000000
    8        8.797346   0.000000
 
  0.2631579E+00  0.2105263E+00  0.0000000E+00  0.3499052E-02
    1       -7.668284   1.000000
    2       -0.065562   1.000000
    3        1.841620   1.000000
    4        1.871842   1.000000
    5        5.697473   0.000000
    6        6.507519   0.000000
    7        8.898836   0.000000
    8        9.104143   0.000000
 
  0.3157895E+00  0.2105263E+00  0.0000000E+00  0.3499052E-02
    1       -7.510004   1.000000
    2       -0.521461   1.000000
    3        1.612235   1.000000
    4        1.758765   1.000000
    5        5.702852   0.000000
    6        6.611103   0.000000
    7        8.743777   0.000000
    8        9.285076   0.000000
 
  0.3684211E+00  0.2105263E+00  0.0000000E+00  0.3499052E-02
    1       -7.335870   1.000000
    2       -0.971419   1.000000
    3        1.346357   1.000000
    4        1.684057   1.000000
    5        5.693922   0.000000
    6        6.923438   0.000000
    7        8.589113   0.000000
    8        9.318395   0.000000
 
  0.4210526E+00  0.2105263E+00  0.0000000E+00  0.3499052E-02
    1       -7.163629   1.000000
    2       -1.371421   1.000000
    3        1.081025   1.000000
    4        1.651168   1.000000
    5        5.662063   0.000000
    6        7.386250   0.000000
    7        8.523519   0.000000
    8        9.241379   0.000000
 
  0.4736842E+00  0.2105263E+00  0.0000000E+00  0.3499052E-02
    1       -7.016889   1.000000
    2       -1.682217   1.000000
    3        0.845111   1.000000
    4        1.661298   1.000000
    5        5.648004   0.000000
    6        7.762978   0.000000
    7        8.724386   0.000000
    8        9.109562   0.000000
 
 -0.4736842E+00  0.2105263E+00  0.0000000E+00  0.3499052E-02
    1       -6.922131   1.000000
    2       -1.868127   1.000000
    3        0.657126   1.000000
    4        1.713676   1.000000
    5        5.673622   0.000000
    6        7.876347   0.000000
    7        8.963527   0.000000
    8        9.315180   0.000000
 
 -0.4210526E+00  0.2105263E+00  0.0000000E+00  0.3499052E-02
    1       -6.900510   1.000000
    2       -1.904482   1.000000
    3        0.529841   1.000000
    4        1.805575   1.000000
    5        5.744850   0.000000
    6        7.898724   0.000000
    7        8.823367   0.000000
    8       10.022314   0.000000
 
 -0.3684211E+00  0.2105263E+00  0.0000000E+00  0.3499052E-02
    1       -6.957175   1.000000
    2       -1.788770   1.000000
    3        0.474825   1.000000
    4        1.931996   1.000000
    5        5.857682   0.000000
    6        7.928997   0.000000
    7        8.690588   0.000000
    8       10.175468   0.000000
 
 -0.3157895E+00  0.2105263E+00  0.0000000E+00  0.3499052E-02
    1       -7.078385   1.000000
    2       -1.545580   1.000000
    3        0.506326   1.000000
    4        2.085104   1.000000
    5        5.998373   0.000000
    6        7.985296   0.000000
    7        8.547324   0.000000
    8        9.544934   0.000000
 
 -0.2631579E+00  0.2105263E+00  0.0000000E+00  0.3499052E-02
    1       -7.239270   1.000000
    2       -1.221080   1.000000
    3        0.644167   1.000000
    4        2.253276   1.000000
    5        6.136658   0.000000
    6        8.033545   0.000000
    7        8.359458   0.000000
    8        8.880662   0.000000
 
 -0.2105263E+00  0.2105263E+00  0.0000000E+00  0.1749526E-02
    1       -7.414301   1.000000
    2       -0.870481   1.000000
    3        0.910547   1.000000
    4        2.420008   1.000000
    5        6.204062   0.000000
    6        7.883617   0.000000
    7        8.109342   0.000000
    8        8.561134   0.000000
 
  0.2631579E+00  0.2631579E+00  0.0000000E+00  0.8747631E-03
    1       -7.554073   1.000000
    2       -0.333318   1.000000
    3        1.716252   1.000000
    4        1.716252   1.000000
    5        5.431619   0.000000
    6        6.368397   0.000000
    7        9.522241   0.000000
    8        9.522282   0.000000
 
  0.3157895E+00  0.2631579E+00  0.0000000E+00  0.3499052E-02
    1       -7.411575   1.000000
    2       -0.680784   1.000000
    3        1.533895   1.000000
    4        1.593047   1.000000
    5        5.354795   0.000000
    6        6.267910   0.000000
    7        9.528383   0.000000
    8        9.824800   0.000000
 
  0.3684211E+00  0.2631579E+00  0.0000000E+00  0.3499052E-02
    1       -7.251695   1.000000
    2       -1.042158   1.000000
    3        1.265969   1.000000
    4        1.509148   1.000000
    5        5.391735   0.000000
    6        6.352341   0.000000
    7        9.365936   0.000000
    8        9.955894   0.000000
 
  0.4210526E+00  0.2631579E+00  0.0000000E+00  0.3499052E-02
    1       -7.090124   1.000000
    2       -1.372412   1.000000
    3        0.953518   1.000000
    4        1.468460   1.000000
    5        5.415977   0.000000
    6        6.713463   0.000000
    7        9.211061   0.000000
    8        9.931636   0.000000
 
  0.4736842E+00  0.2631579E+00  0.0000000E+00  0.3499052E-02
    1       -6.947550   1.000000
    2       -1.636158   1.000000
    3        0.648579   1.000000
    4        1.472602   1.000000
    5        5.429285   0.000000
    6        7.285994   0.000000
    7        9.097375   0.000000
    8        9.813615   0.000000
 
 -0.4736842E+00  0.2631579E+00  0.0000000E+00  0.3499052E-02
    1       -6.847538   1.000000
    2       -1.803120   1.000000
    3        0.389156   1.000000
    4        1.521195   1.000000
    5        5.472218   0.000000
    6        7.937415   0.000000
    7        9.081499   0.000000
    8        9.654467   0.000000
 
 -0.4210526E+00  0.2631579E+00  0.0000000E+00  0.3499052E-02
    1       -6.810277   1.000000
    2       -1.852871   1.000000
    3        0.201483   1.000000
    4        1.611895   1.000000
    5        5.561668   0.000000
    6        8.413012   0.000000
    7        9.355444   0.000000
    8        9.480059   0.000000
 
 -0.3684211E+00  0.2631579E+00  0.0000000E+00  0.3499052E-02
    1       -6.843906   1.000000
    2       -1.785252   1.000000
    3        0.108163   1.000000
    4        1.740090   1.000000
    5        5.698112   0.000000
    6        8.559405   0.000000
    7        9.289261   0.000000
    8        9.862979   0.000000
 
 -0.3157895E+00  0.2631579E+00  0.0000000E+00  0.3499052E-02
    1       -6.940340   1.000000
    2       -1.627245   1.000000
    3        0.134950   1.000000
    4        1.898237   1.000000
    5        5.869340   0.000000
    6        8.602993   0.000000
    7        9.053781   0.000000
    8        9.498005   0.000000
 
 -0.2631579E+00  0.2631579E+00  0.0000000E+00  0.1749526E-02
    1       -7.079794   1.000000
    2       -1.425645   1.000000
    3        0.309612   1.000000
    4        2.074873   1.000000
    5        6.042659   0.000000
    6        8.520847   0.000000
    7        8.737784   0.000000
    8        8.914786   0.000000
 
  0.3157895E+00  0.3157895E+00  0.0000000E+00  0.8747631E-03
    1       -7.286288   1.000000
    2       -0.939630   1.000000
    3        1.458953   1.000000
    4        1.458953   1.000000
    5        5.114291   0.000000
    6        6.012521   0.000000
    7       10.284369   0.000000
    8       10.284501   0.000000
 
  0.3684211E+00  0.3157895E+00  0.0000000E+00  0.3499052E-02
    1       -7.144041   1.000000
    2       -1.226893   1.000000
    3        1.281424   1.000000
    4        1.364179   1.000000
    5        5.068847   0.000000
    6        5.907877   0.000000
    7       10.298806   0.000000
    8       10.570125   0.000000
 
  0.4210526E+00  0.3157895E+00  0.0000000E+00  0.3499052E-02
    1       -6.998865   1.000000
    2       -1.490973   1.000000
    3        0.992327   1.000000
    4        1.313212   1.000000
    5        5.129148   0.000000
    6        6.051781   0.000000
    7       10.148970   0.000000
    8       10.647779   0.000000
 
  0.4736842E+00  0.3157895E+00  0.0000000E+00  0.3499052E-02
    1       -6.868804   1.000000
    2       -1.697186   1.000000
    3        0.653180   1.000000
    4        1.308156   1.000000
    5        5.180711   0.000000
    6        6.493312   0.000000
    7       10.000061   0.000000
    8       10.571246   0.000000
 
 -0.4736842E+00  0.3157895E+00  0.0000000E+00  0.3499052E-02
    1       -6.774036   1.000000
    2       -1.821964   1.000000
    3        0.330021   1.000000
    4        1.349095   1.000000
    5        5.239836   0.000000
    6        7.144417   0.000000
    7        9.879020   0.000000
    8       10.409158   0.000000
 
 -0.4210526E+00  0.3157895E+00  0.0000000E+00  0.3499052E-02
    1       -6.731868   1.000000
    2       -1.855204   1.000000
    3        0.073833   1.000000
    4        1.434172   1.000000
    5        5.338698   0.000000
    6        7.904783   0.000000
    7        9.809159   0.000000
    8       10.194530   0.000000
 
 -0.3684211E+00  0.3157895E+00  0.0000000E+00  0.3499052E-02
    1       -6.750325   1.000000
    2       -1.808519   1.000000
    3       -0.071358   1.000000
    4        1.559316   1.000000
    5        5.485499   0.000000
    6        8.644527   0.000000
    7        9.832905   0.000000
    8        9.916908   0.000000
 
 -0.3157895E+00  0.3157895E+00  0.0000000E+00  0.1749526E-02
    1       -6.824731   1.000000
    2       -1.718677   1.000000
    3       -0.061242   1.000000
    4        1.717602   1.000000
    5        5.672071   0.000000
    6        9.017511   0.000000
    7        9.536504   0.000000
    8        9.674527   0.000000
 
  0.3684211E+00  0.3684211E+00  0.0000000E+00  0.8747631E-03
    1       -7.022110   1.000000
    2       -1.456901   1.000000
    3        1.257786   1.000000
    4        1.257786   1.000000
    5        4.863397   0.000000
    6        5.652828   0.000000
    7       11.057732   0.000000
    8       11.057896   0.000000
 
  0.4210526E+00  0.3684211E+00  0.0000000E+00  0.3499052E-02
    1       -6.898608   1.000000
    2       -1.671507   1.000000
    3        1.094952   1.000000
    4        1.195148   1.000000
    5        4.852495   0.000000
    6        5.600872   0.000000
    7       11.108445   0.000000
    8       11.311759   0.000000
 
  0.4736842E+00  0.3684211E+00  0.0000000E+00  0.3499052E-02
    1       -6.789298   1.000000
    2       -1.831411   1.000000
    3        0.804175   1.000000
    4        1.178914   1.000000
    5        4.939529   0.000000
    6        5.828135   0.000000
    7       10.974152   0.000000
    8       11.326053   0.000000
 