       N       E                     dE             d eps       ncg     rms          rms(c)
DAV:   1     0.139374656379E+02    0.13937E+02   -0.29525E+03  3520   0.733E+02
DAV:   2    -0.885874440230E+01   -0.22796E+02   -0.22552E+02  4600   0.867E+01
DAV:   3    -0.951882680272E+01   -0.66008E+00   -0.66008E+00  4472   0.197E+01
DAV:   4    -0.952194237631E+01   -0.31156E-02   -0.31156E-02  5640   0.149E+00
DAV:   5    -0.952194931679E+01   -0.69405E-05   -0.69405E-05  4552   0.595E-02    0.255E+00
RMM:   6    -0.934346287918E+01    0.17849E+00   -0.21562E-01  3536   0.238E+00    0.140E+00
RMM:   7    -0.931883995315E+01    0.24623E-01   -0.10160E-01  3719   0.174E+00    0.478E-01
RMM:   8    -0.931925177364E+01   -0.41182E-03   -0.58884E-03  3767   0.618E-01    0.461E-02
RMM:   9    -0.931953331595E+01   -0.28154E-03   -0.35087E-04  4120   0.139E-01    0.231E-02
RMM:  10    -0.931957902235E+01   -0.45706E-04   -0.79749E-05  3921   0.661E-02    0.426E-03
RMM:  11    -0.931958271563E+01   -0.36933E-05   -0.11385E-05  4190   0.220E-02    0.439E-03
RMM:  12    -0.931958118410E+01    0.15315E-05   -0.27754E-06  3893   0.885E-03    0.305E-04
RMM:  13    -0.931958131123E+01   -0.12713E-06   -0.93837E-08  2318   0.255E-03
   1 F= -.93195813E+01 E0= -.93195813E+01  d E =0.000000E+00
