   3   3   0   0
  0.2517472E+02  0.4744608E-09  0.4744608E-09  0.4744608E-09  0.5000000E-15
  1.000000000000000E-004
  CAR
 unknown system
     13.66095465    -32.74279776  301      9.26425987      1.00000000
    -32.743  0.0000E+00  0.0000E+00
    -32.588  0.0000E+00  0.0000E+00
    -32.433  0.0000E+00  0.0000E+00
    -32.279  0.0000E+00  0.0000E+00
    -32.124  0.0000E+00  0.0000E+00
    -31.969  0.0000E+00  0.0000E+00
    -31.815  0.0000E+00  0.0000E+00
    -31.660  0.0000E+00  0.0000E+00
    -31.505  0.0000E+00  0.0000E+00
    -31.351  0.0000E+00  0.0000E+00
    -31.196  0.0000E+00  0.0000E+00
    -31.041  0.0000E+00  0.0000E+00
    -30.887  0.0000E+00  0.0000E+00
    -30.732  0.0000E+00  0.0000E+00
    -30.577  0.1293E+02  0.2000E+01
    -30.423  0.0000E+00  0.2000E+01
    -30.268  0.0000E+00  0.2000E+01
    -30.113  0.0000E+00  0.2000E+01
    -29.959  0.0000E+00  0.2000E+01
    -29.804  0.0000E+00  0.2000E+01
    -29.649  0.0000E+00  0.2000E+01
    -29.495  0.0000E+00  0.2000E+01
    -29.340  0.0000E+00  0.2000E+01
    -29.185  0.0000E+00  0.2000E+01
    -29.030  0.0000E+00  0.2000E+01
    -28.876  0.0000E+00  0.2000E+01
    -28.721  0.0000E+00  0.2000E+01
    -28.566  0.0000E+00  0.2000E+01
    -28.412  0.0000E+00  0.2000E+01
    -28.257  0.0000E+00  0.2000E+01
    -28.102  0.0000E+00  0.2000E+01
    -27.948  0.0000E+00  0.2000E+01
    -27.793  0.0000E+00  0.2000E+01
    -27.638  0.0000E+00  0.2000E+01
    -27.484  0.0000E+00  0.2000E+01
    -27.329  0.0000E+00  0.2000E+01
    -27.174  0.0000E+00  0.2000E+01
    -27.020  0.0000E+00  0.2000E+01
    -26.865  0.0000E+00  0.2000E+01
    -26.710  0.0000E+00  0.2000E+01
    -26.556  0.0000E+00  0.2000E+01
    -26.401  0.0000E+00  0.2000E+01
    -26.246  0.0000E+00  0.2000E+01
    -26.092  0.0000E+00  0.2000E+01
    -25.937  0.0000E+00  0.2000E+01
    -25.782  0.0000E+00  0.2000E+01
    -25.628  0.0000E+00  0.2000E+01
    -25.473  0.0000E+00  0.2000E+01
    -25.318  0.0000E+00  0.2000E+01
    -25.164  0.0000E+00  0.2000E+01
    -25.009  0.0000E+00  0.2000E+01
    -24.854  0.0000E+00  0.2000E+01
    -24.699  0.0000E+00  0.2000E+01
    -24.545  0.0000E+00  0.2000E+01
    -24.390  0.0000E+00  0.2000E+01
    -24.235  0.0000E+00  0.2000E+01
    -24.081  0.0000E+00  0.2000E+01
    -23.926  0.0000E+00  0.2000E+01
    -23.771  0.0000E+00  0.2000E+01
    -23.617  0.0000E+00  0.2000E+01
    -23.462  0.0000E+00  0.2000E+01
    -23.307  0.0000E+00  0.2000E+01
    -23.153  0.0000E+00  0.2000E+01
    -22.998  0.0000E+00  0.2000E+01
    -22.843  0.0000E+00  0.2000E+01
    -22.689  0.0000E+00  0.2000E+01
    -22.534  0.0000E+00  0.2000E+01
    -22.379  0.0000E+00  0.2000E+01
    -22.225  0.0000E+00  0.2000E+01
    -22.070  0.0000E+00  0.2000E+01
    -21.915  0.0000E+00  0.2000E+01
    -21.761  0.0000E+00  0.2000E+01
    -21.606  0.0000E+00  0.2000E+01
    -21.451  0.0000E+00  0.2000E+01
    -21.297  0.0000E+00  0.2000E+01
    -21.142  0.0000E+00  0.2000E+01
    -20.987  0.0000E+00  0.2000E+01
    -20.833  0.0000E+00  0.2000E+01
    -20.678  0.0000E+00  0.2000E+01
    -20.523  0.0000E+00  0.2000E+01
    -20.368  0.0000E+00  0.2000E+01
    -20.214  0.0000E+00  0.2000E+01
    -20.059  0.0000E+00  0.2000E+01
    -19.904  0.0000E+00  0.2000E+01
    -19.750  0.0000E+00  0.2000E+01
    -19.595  0.0000E+00  0.2000E+01
    -19.440  0.0000E+00  0.2000E+01
    -19.286  0.0000E+00  0.2000E+01
    -19.131  0.0000E+00  0.2000E+01
    -18.976  0.0000E+00  0.2000E+01
    -18.822  0.0000E+00  0.2000E+01
    -18.667  0.0000E+00  0.2000E+01
    -18.512  0.0000E+00  0.2000E+01
    -18.358  0.0000E+00  0.2000E+01
    -18.203  0.0000E+00  0.2000E+01
    -18.048  0.0000E+00  0.2000E+01
    -17.894  0.0000E+00  0.2000E+01
    -17.739  0.0000E+00  0.2000E+01
    -17.584  0.0000E+00  0.2000E+01
    -17.430  0.0000E+00  0.2000E+01
    -17.275  0.0000E+00  0.2000E+01
    -17.120  0.0000E+00  0.2000E+01
    -16.966  0.0000E+00  0.2000E+01
    -16.811  0.0000E+00  0.2000E+01
    -16.656  0.0000E+00  0.2000E+01
    -16.501  0.0000E+00  0.2000E+01
    -16.347  0.0000E+00  0.2000E+01
    -16.192  0.0000E+00  0.2000E+01
    -16.037  0.0000E+00  0.2000E+01
    -15.883  0.0000E+00  0.2000E+01
    -15.728  0.0000E+00  0.2000E+01
    -15.573  0.0000E+00  0.2000E+01
    -15.419  0.0000E+00  0.2000E+01
    -15.264  0.0000E+00  0.2000E+01
    -15.109  0.0000E+00  0.2000E+01
    -14.955  0.0000E+00  0.2000E+01
    -14.800  0.0000E+00  0.2000E+01
    -14.645  0.0000E+00  0.2000E+01
    -14.491  0.0000E+00  0.2000E+01
    -14.336  0.0000E+00  0.2000E+01
    -14.181  0.0000E+00  0.2000E+01
    -14.027  0.0000E+00  0.2000E+01
    -13.872  0.1690E-01  0.2003E+01
    -13.717  0.1949E+02  0.1200E+02
    -13.563  0.0000E+00  0.1200E+02
    -13.408  0.0000E+00  0.1200E+02
    -13.253  0.0000E+00  0.1200E+02
    -13.099  0.0000E+00  0.1200E+02
    -12.944  0.0000E+00  0.1200E+02
    -12.789  0.0000E+00  0.1200E+02
    -12.635  0.0000E+00  0.1200E+02
    -12.480  0.0000E+00  0.1200E+02
    -12.325  0.0000E+00  0.1200E+02
    -12.170  0.0000E+00  0.1200E+02
    -12.016  0.0000E+00  0.1200E+02
    -11.861  0.0000E+00  0.1200E+02
    -11.706  0.0000E+00  0.1200E+02
    -11.552  0.0000E+00  0.1200E+02
    -11.397  0.0000E+00  0.1200E+02
    -11.242  0.0000E+00  0.1200E+02
    -11.088  0.0000E+00  0.1200E+02
    -10.933  0.0000E+00  0.1200E+02
    -10.778  0.0000E+00  0.1200E+02
    -10.624  0.0000E+00  0.1200E+02
    -10.469  0.0000E+00  0.1200E+02
    -10.314  0.0000E+00  0.1200E+02
    -10.160  0.0000E+00  0.1200E+02
    -10.005  0.0000E+00  0.1200E+02
     -9.850  0.0000E+00  0.1200E+02
     -9.696  0.0000E+00  0.1200E+02
     -9.541  0.0000E+00  0.1200E+02
     -9.386  0.0000E+00  0.1200E+02
     -9.232  0.0000E+00  0.1200E+02
     -9.077  0.4195E-06  0.1200E+02
     -8.922  0.7965E+01  0.1338E+02
     -8.768  0.6272E+01  0.1484E+02
     -8.613  0.5579E+01  0.1800E+02
     -8.458  0.0000E+00  0.1800E+02
     -8.303  0.0000E+00  0.1800E+02
     -8.149  0.0000E+00  0.1800E+02
     -7.994  0.0000E+00  0.1800E+02
     -7.839  0.0000E+00  0.1800E+02
     -7.685  0.0000E+00  0.1800E+02
     -7.530  0.0000E+00  0.1800E+02
     -7.375  0.0000E+00  0.1800E+02
     -7.221  0.0000E+00  0.1800E+02
     -7.066  0.0000E+00  0.1800E+02
     -6.911  0.0000E+00  0.1800E+02
     -6.757  0.0000E+00  0.1800E+02
     -6.602  0.0000E+00  0.1800E+02
     -6.447  0.0000E+00  0.1800E+02
     -6.293  0.0000E+00  0.1800E+02
     -6.138  0.0000E+00  0.1800E+02
     -5.983  0.0000E+00  0.1800E+02
     -5.829  0.0000E+00  0.1800E+02
     -5.674  0.0000E+00  0.1800E+02
     -5.519  0.0000E+00  0.1800E+02
     -5.365  0.0000E+00  0.1800E+02
     -5.210  0.0000E+00  0.1800E+02
     -5.055  0.0000E+00  0.1800E+02
     -4.901  0.0000E+00  0.1800E+02
     -4.746  0.0000E+00  0.1800E+02
     -4.591  0.0000E+00  0.1800E+02
     -4.437  0.0000E+00  0.1800E+02
     -4.282  0.0000E+00  0.1800E+02
     -4.127  0.0000E+00  0.1800E+02
     -3.972  0.0000E+00  0.1800E+02
     -3.818  0.0000E+00  0.1800E+02
     -3.663  0.0000E+00  0.1800E+02
     -3.508  0.0000E+00  0.1800E+02
     -3.354  0.2870E-04  0.1800E+02
     -3.199  0.8239E-01  0.1801E+02
     -3.044  0.1866E+00  0.1805E+02
     -2.890  0.2825E+00  0.1810E+02
     -2.735  0.7093E-01  0.1816E+02
     -2.580  0.1018E+01  0.1840E+02
     -2.426  0.2484E+01  0.1904E+02
     -2.271  0.1809E+01  0.1973E+02
     -2.116  0.7070E+00  0.1997E+02
     -1.962  0.0000E+00  0.2000E+02
     -1.807  0.0000E+00  0.2000E+02
     -1.652  0.0000E+00  0.2000E+02
     -1.498  0.0000E+00  0.2000E+02
     -1.343  0.0000E+00  0.2000E+02
     -1.188  0.0000E+00  0.2000E+02
     -1.034  0.0000E+00  0.2000E+02
     -0.879  0.0000E+00  0.2000E+02
     -0.724  0.0000E+00  0.2000E+02
     -0.570  0.0000E+00  0.2000E+02
     -0.415  0.0000E+00  0.2000E+02
     -0.260  0.0000E+00  0.2000E+02
     -0.105  0.0000E+00  0.2000E+02
      0.049  0.0000E+00  0.2000E+02
      0.204  0.0000E+00  0.2000E+02
      0.359  0.0000E+00  0.2000E+02
      0.513  0.0000E+00  0.2000E+02
      0.668  0.0000E+00  0.2000E+02
      0.823  0.0000E+00  0.2000E+02
      0.977  0.0000E+00  0.2000E+02
      1.132  0.0000E+00  0.2000E+02
      1.287  0.0000E+00  0.2000E+02
      1.441  0.0000E+00  0.2000E+02
      1.596  0.0000E+00  0.2000E+02
      1.751  0.0000E+00  0.2000E+02
      1.905  0.0000E+00  0.2000E+02
      2.060  0.0000E+00  0.2000E+02
      2.215  0.0000E+00  0.2000E+02
      2.369  0.0000E+00  0.2000E+02
      2.524  0.0000E+00  0.2000E+02
      2.679  0.0000E+00  0.2000E+02
      2.833  0.0000E+00  0.2000E+02
      2.988  0.1881E+00  0.2003E+02
      3.143  0.4212E+00  0.2014E+02
      3.297  0.2113E+01  0.2070E+02
      3.452  0.1472E+01  0.2107E+02
      3.607  0.6234E+00  0.2123E+02
      3.761  0.4237E+00  0.2150E+02
      3.916  0.2356E+01  0.2192E+02
      4.071  0.3291E+01  0.2305E+02
      4.226  0.2900E+01  0.2393E+02
      4.380  0.2625E+01  0.2480E+02
      4.535  0.2338E+01  0.2554E+02
      4.690  0.9321E+00  0.2591E+02
      4.844  0.1492E+00  0.2607E+02
      4.999  0.5401E+01  0.2697E+02
      5.154  0.3248E+01  0.2841E+02
      5.308  0.4395E+01  0.2974E+02
      5.463  0.8397E+00  0.3029E+02
      5.618  0.1507E+01  0.3076E+02
      5.772  0.1904E+01  0.3130E+02
      5.927  0.8789E+00  0.3158E+02
      6.082  0.1024E+01  0.3182E+02
      6.236  0.6501E+00  0.3200E+02
      6.391  0.7571E+00  0.3216E+02
      6.546  0.3623E+00  0.3247E+02
      6.700  0.9065E+00  0.3268E+02
      6.855  0.1843E+01  0.3305E+02
      7.010  0.2840E+00  0.3317E+02
      7.164  0.9364E+00  0.3351E+02
      7.319  0.4939E+00  0.3367E+02
      7.474  0.5435E+01  0.3469E+02
      7.628  0.2580E+01  0.3563E+02
      7.783  0.5654E+00  0.3593E+02
      7.938  0.1499E-02  0.3597E+02
      8.093  0.1766E-01  0.3600E+02
      8.247  0.0000E+00  0.3600E+02
      8.402  0.3588E-02  0.3600E+02
      8.557  0.3504E-03  0.3601E+02
      8.711  0.3532E-01  0.3603E+02
      8.866  0.1802E-01  0.3606E+02
      9.021  0.8202E+00  0.3631E+02
      9.175  0.1396E+01  0.3664E+02
      9.330  0.1860E+01  0.3725E+02
      9.485  0.1495E+01  0.3767E+02
      9.639  0.1261E+01  0.3803E+02
      9.794  0.3673E+00  0.3816E+02
      9.949  0.2639E+00  0.3830E+02
     10.103  0.6890E+00  0.3845E+02
     10.258  0.9230E+00  0.3879E+02
     10.413  0.2311E+01  0.3937E+02
     10.567  0.2203E+01  0.4009E+02
     10.722  0.1791E+01  0.4062E+02
     10.877  0.1568E+01  0.4110E+02
     11.031  0.4999E+01  0.4223E+02
     11.186  0.4139E+01  0.4334E+02
     11.341  0.9569E+01  0.4587E+02
     11.495  0.4954E+01  0.4696E+02
     11.650  0.0000E+00  0.4800E+02
     11.805  0.0000E+00  0.4800E+02
     11.959  0.0000E+00  0.4800E+02
     12.114  0.0000E+00  0.4800E+02
     12.269  0.0000E+00  0.4800E+02
     12.424  0.0000E+00  0.4800E+02
     12.578  0.0000E+00  0.4800E+02
     12.733  0.0000E+00  0.4800E+02
     12.888  0.0000E+00  0.4800E+02
     13.042  0.0000E+00  0.4800E+02
     13.197  0.0000E+00  0.4800E+02
     13.352  0.0000E+00  0.4800E+02
     13.506  0.0000E+00  0.4800E+02
     13.661  0.0000E+00  0.4800E+02
