    3    3    1    1
  0.2517472E+02  0.4744608E-09  0.4744608E-09  0.4744608E-09  0.5000000E-15
  1.000000000000000E-004
  CAR
 unknown system
     37     84     24

  0.0000000E+00  0.0000000E+00  0.0000000E+00  0.4551661E-03
    1      -30.633536   1.000000
    2      -13.837167   1.000000
    3      -13.837167   1.000000
    4      -13.799264   1.000000
    5      -13.799264   1.000000
    6      -13.799264   1.000000
    7       -8.719263   1.000000
    8       -8.719263   1.000000
    9       -8.719263   1.000000
   10       -3.335480   1.000000
   11        4.692289   1.000000
   12        4.692289   1.000000
   13        4.692289   1.000000
   14        4.843244   1.000000
   15        4.843244   1.000000
   16        7.607368   1.000000
   17        8.058247   1.000000
   18        8.058247   1.000000
   19        8.058247   1.000000
   20        9.472424   0.000000
   21        9.472424   0.000000
   22        9.472424   0.000000
   23       10.361441   0.000000
   24       11.428813   0.000000

  0.7692308E-01 -0.1267059E-18 -0.1374788E-17  0.3641329E-02
    1      -30.633070   1.000000
    2      -13.838157   1.000000
    3      -13.838157   1.000000
    4      -13.799481   1.000000
    5      -13.799082   1.000000
    6      -13.799082   1.000000
    7       -8.742283   1.000000
    8       -8.716141   1.000000
    9       -8.716141   1.000000
   10       -3.261338   1.000000
   11        4.526370   1.000000
   12        4.526370   1.000000
   13        4.559611   1.000000
   14        4.999615   1.000000
   15        4.999615   1.000000
   16        7.099904   1.000000
   17        7.973654   1.000000
   18        7.973654   1.000000
   19        8.411982   1.000000
   20        9.574635   0.000000
   21        9.574635   0.000000
   22        9.595515   0.000000
   23       10.613921   0.000000
   24       11.435388   0.000000

  0.1538462E+00  0.2320877E-17 -0.5323865E-17  0.3641329E-02
    1      -30.631774   1.000000
    2      -13.840886   1.000000
    3      -13.840886   1.000000
    4      -13.800126   1.000000
    5      -13.798545   1.000000
    6      -13.798545   1.000000
    7       -8.803024   1.000000
    8       -8.707497   1.000000
    9       -8.707497   1.000000
   10       -3.057040   1.000000
   11        4.218060   1.000000
   12        4.331471   1.000000
   13        4.331471   1.000000
   14        5.153764   1.000000
   15        5.153764   1.000000
   16        6.471389   1.000000
   17        7.801866   1.000000
   18        7.801866   1.000000
   19        8.573761   1.000000
   20        9.816661   0.000000
   21        9.816661   0.000000
   22       10.142387   0.000000
   23       11.076629   0.000000
   24       11.445207   0.000000

  0.2307692E+00  0.2883075E-16 -0.1005563E-16  0.3641329E-02
    1      -30.629947   1.000000
    2      -13.844754   1.000000
    3      -13.844754   1.000000
    4      -13.801151   1.000000
    5      -13.797747   1.000000
    6      -13.797747   1.000000
    7       -8.881853   1.000000
    8       -8.695366   1.000000
    9       -8.695366   1.000000
   10       -2.771216   1.000000
   11        3.788118   1.000000
   12        4.185296   1.000000
   13        4.185296   1.000000
   14        5.205833   1.000000
   15        5.205833   1.000000
   16        5.956843   1.000000
   17        7.661520   1.000000
   18        7.661520   1.000000
   19        8.631026   1.000000
   20       10.110582   0.000000
   21       10.110582   0.000000
   22       10.836018   0.000000
   23       11.432352   0.000000
   24       11.434317   0.000000

  0.3076923E+00  0.4641754E-17 -0.1064773E-16  0.3641329E-02
    1      -30.628009   1.000000
    2      -13.848874   1.000000
    3      -13.848874   1.000000
    4      -13.802407   1.000000
    5      -13.796873   1.000000
    6      -13.796873   1.000000
    7       -8.957920   1.000000
    8       -8.682555   1.000000
    9       -8.682555   1.000000
   10       -2.469938   1.000000
   11        3.382877   1.000000
   12        4.100286   1.000000
   13        4.100286   1.000000
   14        5.147877   1.000000
   15        5.147877   1.000000
   16        5.588424   1.000000
   17        7.599376   1.000000
   18        7.599376   1.000000
   19        8.735784   1.000000
   20       10.400454   0.000000
   21       10.400454   0.000000
   22       11.318984   0.000000
   23       11.399799   0.000000
   24       11.399884   0.000000

  0.3846154E+00 -0.6005759E-17 -0.1501710E-17  0.3641329E-02
    1      -30.626404   1.000000
    2      -13.852292   1.000000
    3      -13.852292   1.000000
    4      -13.803576   1.000000
    5      -13.796123   1.000000
    6      -13.796122   1.000000
    7       -9.015750   1.000000
    8       -8.671988   1.000000
    9       -8.671988   1.000000
   10       -2.221827   1.000000
   11        3.079783   1.000000
   12        4.070528   1.000000
   13        4.070528   1.000000
   14        5.033142   1.000000
   15        5.033142   1.000000
   16        5.361850   1.000000
   17        7.593884   1.000000
   18        7.593884   1.000000
   19        8.902576   1.000000
   20       10.633934   0.000000
   21       10.633934   0.000000
   22       11.367058   0.000000
   23       11.367060   0.000000
   24       11.444820   0.000000

  0.4615385E+00  0.5307197E-16 -0.1552173E-16  0.3641329E-02
    1      -30.625498   1.000000
    2      -13.854218   1.000000
    3      -13.854217   1.000000
    4      -13.804282   1.000000
    5      -13.795689   1.000000
    6      -13.795689   1.000000
    7       -9.046502   1.000000
    8       -8.666043   1.000000
    9       -8.666043   1.000000
   10       -2.082569   1.000000
   11        2.920389   1.000000
   12        4.071155   1.000000
   13        4.071155   1.000000
   14        4.943588   1.000000
   15        4.943588   1.000000
   16        5.257458   1.000000
   17        7.603597   1.000000
   18        7.603597   1.000000
   19        9.062472   1.000000
   20       10.763588   0.000000
   21       10.763588   0.000000
   22       11.279825   0.000000
   23       11.344839   0.000000
   24       11.344848   0.000000

  0.7692308E-01  0.7692308E-01 -0.1781721E-17  0.2730997E-02
    1      -30.632915   1.000000
    2      -13.839944   1.000000
    3      -13.836819   1.000000
    4      -13.799712   1.000000
    5      -13.798938   1.000000
    6      -13.798938   1.000000
    7       -8.737247   1.000000
    8       -8.721477   1.000000
    9       -8.721477   1.000000
   10       -3.238637   1.000000
   11        4.249773   1.000000
   12        4.704956   1.000000
   13        4.704956   1.000000
   14        4.860366   1.000000
   15        5.046921   1.000000
   16        7.083007   1.000000
   17        7.846773   1.000000
   18        7.846773   1.000000
   19        8.671059   1.000000
   20        9.283608   0.003108
   21        9.750400   0.000000
   22        9.750400   0.000000
   23       10.659360   0.000000
   24       11.405673   0.000000

  0.1538462E+00  0.7692308E-01 -0.6952065E-17  0.1092399E-01
    1      -30.631903   1.000000
    2      -13.843018   1.000000
    3      -13.837500   1.000000
    4      -13.800256   1.000000
    5      -13.798537   1.000000
    6      -13.798432   1.000000
    7       -8.782215   1.000000
    8       -8.720347   1.000000
    9       -8.712316   1.000000
   10       -3.083896   1.000000
   11        3.953821   1.000000
   12        4.565199   1.000000
   13        4.575017   1.000000
   14        4.996135   1.000000
   15        5.164064   1.000000
   16        6.656296   1.000000
   17        7.672673   1.000000
   18        7.675885   1.000000
   19        8.937843   1.000000
   20        9.323066   0.000000
   21       10.005754   0.000000
   22       10.128650   0.000000
   23       10.998515   0.000000
   24       11.381675   0.000000

  0.2307692E+00  0.7692308E-01 -0.1056484E-16  0.1092399E-01
    1      -30.630262   1.000000
    2      -13.846672   1.000000
    3      -13.840079   1.000000
    4      -13.801040   1.000000
    5      -13.797989   1.000000
    6      -13.797645   1.000000
    7       -8.854123   1.000000
    8       -8.713052   1.000000
    9       -8.698521   1.000000
   10       -2.835917   1.000000
   11        3.665665   1.000000
   12        4.302279   1.000000
   13        4.424141   1.000000
   14        5.085723   1.000000
   15        5.261492   1.000000
   16        6.165420   1.000000
   17        7.509181   1.000000
   18        7.557783   1.000000
   19        8.932904   1.000000
   20        9.710187   0.000000
   21       10.268047   0.000000
   22       10.683984   0.000000
   23       11.362090   0.000000
   24       11.363402   0.000000

  0.3076923E+00  0.7692308E-01 -0.8918950E-17  0.1092399E-01
    1      -30.628372   1.000000
    2      -13.850085   1.000000
    3      -13.843947   1.000000
    4      -13.802041   1.000000
    5      -13.797326   1.000000
    6      -13.796750   1.000000
    7       -8.929575   1.000000
    8       -8.701313   1.000000
    9       -8.686343   1.000000
   10       -2.554710   1.000000
   11        3.389200   1.000000
   12        4.096031   1.000000
   13        4.311585   1.000000
   14        5.063653   1.000000
   15        5.263439   1.000000
   16        5.754469   1.000000
   17        7.426130   1.000000
   18        7.523744   1.000000
   19        8.909833   1.000000
   20       10.145189   0.000000
   21       10.508018   0.000000
   22       11.167595   0.000000
   23       11.349196   0.000000
   24       11.440438   0.000000

  0.3846154E+00  0.7692308E-01 -0.1812669E-16  0.1092399E-01
    1      -30.626665   1.000000
    2      -13.852491   1.000000
    3      -13.848184   1.000000
    4      -13.803072   1.000000
    5      -13.796655   1.000000
    6      -13.795971   1.000000
    7       -8.991718   1.000000
    8       -8.687817   1.000000
    9       -8.678562   1.000000
   10       -2.305607   1.000000
   11        3.155783   1.000000
   12        4.005797   1.000000
   13        4.228369   1.000000
   14        4.984669   1.000000
   15        5.179177   1.000000
   16        5.465758   1.000000
   17        7.416811   1.000000
   18        7.540811   1.000000
   19        8.974080   1.000000
   20       10.487263   0.000000
   21       10.698582   0.000000
   22       11.305741   0.000000
   23       11.336324   0.000000
   24       11.492631   0.000000

  0.4615385E+00  0.7692308E-01 -0.2319476E-16  0.1092399E-01
    1      -30.625531   1.000000
    2      -13.853350   1.000000
    3      -13.851803   1.000000
    4      -13.803826   1.000000
    5      -13.796144   1.000000
    6      -13.795520   1.000000
    7       -9.030100   1.000000
    8       -8.676815   1.000000
    9       -8.675611   1.000000
   10       -2.142868   1.000000
   11        3.008337   1.000000
   12        4.017292   1.000000
   13        4.145731   1.000000
   14        4.941202   1.000000
   15        5.059658   1.000000
   16        5.306346   1.000000
   17        7.436659   1.000000
   18        7.561944   1.000000
   19        9.103416   1.000000
   20       10.658898   0.000000
   21       10.806167   0.000000
   22       11.273148   0.000000
   23       11.323039   0.000000
   24       11.451928   0.000000

 -0.4615385E+00  0.7692308E-01  0.3112829E-16  0.1092399E-01
    1      -30.625230   1.000000
    2      -13.853985   1.000000
    3      -13.852457   1.000000
    4      -13.804013   1.000000
    5      -13.795928   1.000000
    6      -13.795502   1.000000
    7       -9.039824   1.000000
    8       -8.681336   1.000000
    9       -8.667443   1.000000
   10       -2.098494   1.000000
   11        2.969109   1.000000
   12        4.051016   1.000000
   13        4.092294   1.000000
   14        4.965414   1.000000
   15        4.988300   1.000000
   16        5.270004   1.000000
   17        7.441146   1.000000
   18        7.566241   1.000000
   19        9.169042   1.000000
   20       10.688465   0.000000
   21       10.799757   0.000000
   22       11.273351   0.000000
   23       11.319632   0.000000
   24       11.401111   0.000000

 -0.3846154E+00  0.7692308E-01  0.1710828E-16  0.1092399E-01
    1      -30.625829   1.000000
    2      -13.854246   1.000000
    3      -13.850008   1.000000
    4      -13.803553   1.000000
    5      -13.796083   1.000000
    6      -13.795920   1.000000
    7       -9.019942   1.000000
    8       -8.690933   1.000000
    9       -8.665172   1.000000
   10       -2.180911   1.000000
   11        3.046246   1.000000
   12        3.971876   1.000000
   13        4.190810   1.000000
   14        4.945143   1.000000
   15        5.107644   1.000000
   16        5.348845   1.000000
   17        7.405690   1.000000
   18        7.562539   1.000000
   19        9.084355   1.000000
   20       10.660753   0.000000
   21       10.719886   0.000000
   22       11.291926   0.000000
   23       11.334589   0.000000
   24       11.480567   0.000000

 -0.3076923E+00  0.7692308E-01 -0.1501278E-17  0.1092399E-01
    1      -30.627192   1.000000
    2      -13.852545   1.000000
    3      -13.846532   1.000000
    4      -13.802613   1.000000
    5      -13.796654   1.000000
    6      -13.796576   1.000000
    7       -8.972924   1.000000
    8       -8.703264   1.000000
    9       -8.669350   1.000000
   10       -2.375507   1.000000
   11        3.241758   1.000000
   12        3.943928   1.000000
   13        4.296942   1.000000
   14        4.996669   1.000000
   15        5.240164   1.000000
   16        5.547470   1.000000
   17        7.336522   1.000000
   18        7.581460   1.000000
   19        8.976316   1.000000
   20       10.406588   0.000000
   21       10.611618   0.000000
   22       11.284727   0.000000
   23       11.359067   0.000000
   24       11.481822   0.000000

 -0.2307692E+00  0.7692308E-01 -0.6569348E-17  0.1092399E-01
    1      -30.629008   1.000000
    2      -13.849276   1.000000
    3      -13.842823   1.000000
    4      -13.801519   1.000000
    5      -13.797516   1.000000
    6      -13.797278   1.000000
    7       -8.905702   1.000000
    8       -8.715281   1.000000
    9       -8.679075   1.000000
   10       -2.642430   1.000000
   11        3.540399   1.000000
   12        3.987785   1.000000
   13        4.427983   1.000000
   14        5.050179   1.000000
   15        5.318397   1.000000
   16        5.875000   1.000000
   17        7.282853   1.000000
   18        7.660654   1.000000
   19        8.933600   1.000000
   20       10.091971   0.000000
   21       10.331165   0.000000
   22       11.050177   0.000000
   23       11.383597   0.000000
   24       11.431437   0.000000

 -0.1538462E+00  0.7692308E-01  0.7052645E-17  0.1092399E-01
    1      -30.630862   1.000000
    2      -13.845176   1.000000
    3      -13.839758   1.000000
    4      -13.800562   1.000000
    5      -13.798309   1.000000
    6      -13.798025   1.000000
    7       -8.831466   1.000000
    8       -8.723608   1.000000
    9       -8.692148   1.000000
   10       -2.921315   1.000000
   11        3.897514   1.000000
   12        4.108326   1.000000
   13        4.595870   1.000000
   14        5.022109   1.000000
   15        5.296739   1.000000
   16        6.312887   1.000000
   17        7.335394   1.000000
   18        7.807129   1.000000
   19        8.934176   1.000000
   20        9.789403   0.000000
   21        9.892068   0.000000
   22       10.586462   0.000000
   23       11.257166   0.000000
   24       11.424016   0.000000

 -0.7692308E-01  0.7692308E-01 -0.2534118E-18  0.5461994E-02
    1      -30.632327   1.000000
    2      -13.841172   1.000000
    3      -13.838074   1.000000
    4      -13.799870   1.000000
    5      -13.798857   1.000000
    6      -13.798660   1.000000
    7       -8.770549   1.000000
    8       -8.724124   1.000000
    9       -8.705541   1.000000
   10       -3.145950   1.000000
   11        4.250360   1.000000
   12        4.296370   1.000000
   13        4.716023   1.000000
   14        4.937974   1.000000
   15        5.177396   1.000000
   16        6.767804   1.000000
   17        7.596493   1.000000
   18        7.952173   1.000000
   19        8.773397   1.000000
   20        9.546747   0.000000
   21        9.585629   0.000000
   22       10.091848   0.000000
   23       10.886656   0.000000
   24       11.421176   0.000000

  0.1538462E+00  0.1538462E+00 -0.3563442E-17  0.2730997E-02
    1      -30.631219   1.000000
    2      -13.845621   1.000000
    3      -13.835843   1.000000
    4      -13.800979   1.000000
    5      -13.797974   1.000000
    6      -13.797974   1.000000
    7       -8.783533   1.000000
    8       -8.727739   1.000000
    9       -8.727739   1.000000
   10       -2.996347   1.000000
   11        3.643012   1.000000
   12        4.725452   1.000000
   13        4.725452   1.000000
   14        4.908752   1.000000
   15        5.084389   1.000000
   16        6.634804   1.000000
   17        7.522043   1.000000
   18        7.522043   1.000000
   19        8.900828   1.000000
   20        9.471711   0.000000
   21       10.247768   0.000000
   22       10.247768   0.000000
   23       11.117626   0.000000
   24       11.324707   0.000000

  0.2307692E+00  0.1538462E+00  0.3140045E-17  0.1092399E-01
    1      -30.629882   1.000000
    2      -13.848076   1.000000
    3      -13.836335   1.000000
    4      -13.801777   1.000000
    5      -13.797393   1.000000
    6      -13.797216   1.000000
    7       -8.833179   1.000000
    8       -8.728034   1.000000
    9       -8.720531   1.000000
   10       -2.820860   1.000000
   11        3.399727   1.000000
   12        4.564259   1.000000
   13        4.639742   1.000000
   14        4.989218   1.000000
   15        5.146150   1.000000
   16        6.379095   1.000000
   17        7.331292   1.000000
   18        7.426296   1.000000
   19        9.029878   1.000000
   20        9.620785   0.000000
   21       10.470570   0.000000
   22       10.612635   0.000000
   23       11.278566   0.000000
   24       11.350493   0.000000

  0.3076923E+00  0.1538462E+00 -0.1356783E-16  0.1092399E-01
    1      -30.628195   1.000000
    2      -13.849840   1.000000
    3      -13.838892   1.000000
    4      -13.802473   1.000000
    5      -13.796973   1.000000
    6      -13.796317   1.000000
    7       -8.898774   1.000000
    8       -8.721229   1.000000
    9       -8.709718   1.000000
   10       -2.605808   1.000000
   11        3.248186   1.000000
   12        4.299321   1.000000
   13        4.523726   1.000000
   14        5.009023   1.000000
   15        5.226329   1.000000
   16        6.031568   1.000000
   17        7.158857   1.000000
   18        7.416304   1.000000
   19        9.126856   1.000000
   20        9.947703   0.000000
   21       10.656305   0.000000
   22       11.021442   0.000000
   23       11.258579   0.000000
   24       11.467934   0.000000

  0.3846154E+00  0.1538462E+00 -0.1606161E-16  0.1092399E-01
    1      -30.626548   1.000000
    2      -13.850524   1.000000
    3      -13.842863   1.000000
    4      -13.803001   1.000000
    5      -13.796745   1.000000
    6      -13.795509   1.000000
    7       -8.957073   1.000000
    8       -8.708909   1.000000
    9       -8.705219   1.000000
   10       -2.404511   1.000000
   11        3.185756   1.000000
   12        4.098872   1.000000
   13        4.402112   1.000000
   14        4.978641   1.000000
   15        5.233931   1.000000
   16        5.698813   1.000000
   17        7.091516   1.000000
   18        7.451816   1.000000
   19        9.125053   1.000000
   20       10.371285   0.000000
   21       10.801829   0.000000
   22       11.227046   0.000000
   23       11.265133   0.000000
   24       11.511052   0.000000

  0.4615385E+00  0.1538462E+00 -0.2112968E-16  0.1092399E-01
    1      -30.625317   1.000000
    2      -13.850006   1.000000
    3      -13.847300   1.000000
    4      -13.803280   1.000000
    5      -13.796662   1.000000
    6      -13.795028   1.000000
    7       -8.996403   1.000000
    8       -8.708667   1.000000
    9       -8.693864   1.000000
   10       -2.257945   1.000000
   11        3.175386   1.000000
   12        4.019019   1.000000
   13        4.252922   1.000000
   14        4.984360   1.000000
   15        5.173690   1.000000
   16        5.461157   1.000000
   17        7.087441   1.000000
   18        7.477923   1.000000
   19        9.190403   1.000000
   20       10.564914   0.000000
   21       10.892438   0.000000
   22       11.247541   0.000000
   23       11.275988   0.000000
   24       11.525777   0.000000

 -0.4615385E+00  0.1538462E+00  0.3319338E-16  0.1092399E-01
    1      -30.624782   1.000000
    2      -13.851175   1.000000
    3      -13.848428   1.000000
    4      -13.803216   1.000000
    5      -13.796686   1.000000
    6      -13.794994   1.000000
    7       -9.011504   1.000000
    8       -8.718724   1.000000
    9       -8.679467   1.000000
   10       -2.187757   1.000000
   11        3.169264   1.000000
   12        4.064377   1.000000
   13        4.088495   1.000000
   14        5.062414   1.000000
   15        5.074857   1.000000
   16        5.370302   1.000000
   17        7.083109   1.000000
   18        7.475766   1.000000
   19        9.303628   0.000000
   20       10.513755   0.000000
   21       10.898066   0.000000
   22       11.280122   0.000000
   23       11.305536   0.000000
   24       11.480380   0.000000

 -0.3846154E+00  0.1538462E+00  0.1022141E-16  0.1092399E-01
    1      -30.625067   1.000000
    2      -13.853632   1.000000
    3      -13.846125   1.000000
    4      -13.802789   1.000000
    5      -13.796797   1.000000
    6      -13.795395   1.000000
    7       -9.001637   1.000000
    8       -8.732033   1.000000
    9       -8.668976   1.000000
   10       -2.203284   1.000000
   11        3.161962   1.000000
   12        3.948638   1.000000
   13        4.196866   1.000000
   14        4.988878   1.000000
   15        5.190260   1.000000
   16        5.431424   1.000000
   17        7.029419   1.000000
   18        7.463501   1.000000
   19        9.341945   0.000000
   20       10.557378   0.000000
   21       10.780024   0.000000
   22       11.291630   0.000000
   23       11.319938   0.000000
   24       11.494917   0.000000

 -0.3076923E+00  0.1538462E+00 -0.8388142E-17  0.1092399E-01
    1      -30.626106   1.000000
    2      -13.854154   1.000000
    3      -13.843584   1.000000
    4      -13.802163   1.000000
    5      -13.796977   1.000000
    6      -13.796115   1.000000
    7       -8.969591   1.000000
    8       -8.743963   1.000000
    9       -8.664818   1.000000
   10       -2.307809   1.000000
   11        3.197221   1.000000
   12        3.867146   1.000000
   13        4.373642   1.000000
   14        4.949020   1.000000
   15        5.320056   1.000000
   16        5.620413   1.000000
   17        6.917578   1.000000
   18        7.478873   1.000000
   19        9.323801   0.000000
   20       10.541176   0.000000
   21       10.619179   0.000000
   22       11.285812   0.000000
   23       11.313807   0.000000
   24       11.537065   0.000000

 -0.2307692E+00  0.1538462E+00 -0.4504266E-17  0.1092399E-01
    1      -30.627661   1.000000
    2      -13.852628   1.000000
    3      -13.841329   1.000000
    4      -13.801557   1.000000
    5      -13.797211   1.000000
    6      -13.796964   1.000000
    7       -8.922244   1.000000
    8       -8.749212   1.000000
    9       -8.668008   1.000000
   10       -2.490170   1.000000
   11        3.327605   1.000000
   12        3.863865   1.000000
   13        4.562650   1.000000
   14        4.935205   1.000000
   15        5.397421   1.000000
   16        5.904859   1.000000
   17        6.808257   1.000000
   18        7.557029   1.000000
   19        9.327432   0.000000
   20       10.238777   0.000000
   21       10.450369   0.000000
   22       11.200260   0.000000
   23       11.340186   0.000000
   24       11.524329   0.000000

 -0.1538462E+00  0.1538462E+00  0.4641754E-17  0.5461994E-02
    1      -30.629380   1.000000
    2      -13.849406   1.000000
    3      -13.839929   1.000000
    4      -13.801052   1.000000
    5      -13.797749   1.000000
    6      -13.797542   1.000000
    7       -8.871780   1.000000
    8       -8.742502   1.000000
    9       -8.677873   1.000000
   10       -2.713544   1.000000
   11        3.571207   1.000000
   12        3.945984   1.000000
   13        4.709204   1.000000
   14        4.912600   1.000000
   15        5.388001   1.000000
   16        6.173471   1.000000
   17        6.892862   1.000000
   18        7.692149   1.000000
   19        9.279667   0.014669
   20        9.955925   0.000000
   21       10.084355   0.000000
   22       10.972704   0.000000
   23       11.369726   0.000000
   24       11.435180   0.000000

  0.2307692E+00  0.2307692E+00 -0.5345163E-17  0.2730997E-02
    1      -30.628891   1.000000
    2      -13.848613   1.000000
    3      -13.834459   1.000000
    4      -13.802823   1.000000
    5      -13.796505   1.000000
    6      -13.796505   1.000000
    7       -8.841614   1.000000
    8       -8.736903   1.000000
    9       -8.736903   1.000000
   10       -2.738209   1.000000
   11        3.219133   1.000000
   12        4.714194   1.000000
   13        4.714194   1.000000
   14        4.951053   1.000000
   15        4.979472   1.000000
   16        6.371721   1.000000
   17        7.348885   1.000000
   18        7.348885   1.000000
   19        8.785647   1.000000
   20        9.936622   0.000000
   21       10.648299   0.000000
   22       10.648299   0.000000
   23       11.194352   0.000000
   24       11.437252   0.000000

  0.3076923E+00  0.2307692E+00 -0.1183905E-16  0.1092399E-01
    1      -30.627519   1.000000
    2      -13.848129   1.000000
    3      -13.834913   1.000000
    4      -13.803654   1.000000
    5      -13.795860   1.000000
    6      -13.795624   1.000000
    7       -8.883087   1.000000
    8       -8.737710   1.000000
    9       -8.735836   1.000000
   10       -2.619034   1.000000
   11        3.165610   1.000000
   12        4.508104   1.000000
   13        4.648797   1.000000
   14        5.014173   1.000000
   15        5.015669   1.000000
   16        6.202900   1.000000
   17        7.193336   1.000000
   18        7.356169   1.000000
   19        8.941483   1.000000
   20       10.085081   0.000000
   21       10.785716   0.000000
   22       10.896888   0.000000
   23       11.145323   0.000000
   24       11.495368   0.000000

  0.3846154E+00  0.2307692E+00 -0.1657081E-16  0.1092399E-01
    1      -30.626080   1.000000
    2      -13.846770   1.000000
    3      -13.837570   1.000000
    4      -13.804033   1.000000
    5      -13.795709   1.000000
    6      -13.794814   1.000000
    7       -8.928142   1.000000
    8       -8.736506   1.000000
    9       -8.730346   1.000000
   10       -2.497234   1.000000
   11        3.236800   1.000000
   12        4.256309   1.000000
   13        4.528648   1.000000
   14        5.024202   1.000000
   15        5.118612   1.000000
   16        5.951241   1.000000
   17        6.973957   1.000000
   18        7.403536   1.000000
   19        9.116250   1.000000
   20       10.347340   0.000000
   21       10.892290   0.000000
   22       11.138522   0.000000
   23       11.161226   0.000000
   24       11.522323   0.000000

  0.4615385E+00  0.2307692E+00 -0.9999084E-17  0.1092399E-01
    1      -30.624906   1.000000
    2      -13.844876   1.000000
    3      -13.841738   1.000000
    4      -13.803831   1.000000
    5      -13.796080   1.000000
    6      -13.794310   1.000000
    7       -8.959313   1.000000
    8       -8.747025   1.000000
    9       -8.716486   1.000000
   10       -2.395422   1.000000
   11        3.379342   1.000000
   12        4.092992   1.000000
   13        4.361337   1.000000
   14        5.058341   1.000000
   15        5.160665   1.000000
   16        5.695926   1.000000
   17        6.827406   1.000000
   18        7.424944   1.000000
   19        9.201325   1.000000
   20       10.543925   0.000000
   21       10.970261   0.000000
   22       11.209399   0.000000
   23       11.214434   0.000000
   24       11.541388   0.000000

 -0.4615385E+00  0.2307692E+00  0.2104437E-16  0.1092399E-01
    1      -30.624264   1.000000
    2      -13.846440   1.000000
    3      -13.842950   1.000000
    4      -13.803044   1.000000
    5      -13.796850   1.000000
    6      -13.794252   1.000000
    7       -8.970923   1.000000
    8       -8.765667   1.000000
    9       -8.699234   1.000000
   10       -2.322658   1.000000
   11        3.479219   1.000000
   12        4.050132   1.000000
   13        4.171130   1.000000
   14        5.122665   1.000000
   15        5.141753   1.000000
   16        5.558180   1.000000
   17        6.735212   1.000000
   18        7.402091   1.000000
   19        9.330073   0.000000
   20       10.459756   0.000000
   21       11.001548   0.000000
   22       11.249033   0.000000
   23       11.271637   0.000000
   24       11.517763   0.000000

 -0.3846154E+00  0.2307692E+00 -0.1927594E-17  0.1092399E-01
    1      -30.624297   1.000000
    2      -13.850621   1.000000
    3      -13.841438   1.000000
    4      -13.801905   1.000000
    5      -13.797720   1.000000
    6      -13.794642   1.000000
    7       -8.964800   1.000000
    8       -8.785127   1.000000
    9       -8.682460   1.000000
   10       -2.284629   1.000000
   11        3.440448   1.000000
   12        3.997913   1.000000
   13        4.126509   1.000000
   14        5.047879   1.000000
   15        5.256434   1.000000
   16        5.600005   1.000000
   17        6.647572   1.000000
   18        7.365744   1.000000
   19        9.489983   0.000000
   20       10.376004   0.000000
   21       10.938240   0.000000
   22       11.259791   0.000000