       N       E                     dE             d eps       ncg     rms          rms(c)
DAV:   1     0.445985814630E+03    0.44599E+03   -0.20806E+04  4032   0.205E+03
DAV:   2     0.451092084450E+02   -0.40088E+03   -0.39241E+03  4152   0.502E+02
DAV:   3    -0.185879767946E+02   -0.63697E+02   -0.62951E+02  5560   0.170E+02
DAV:   4    -0.226697950805E+02   -0.40818E+01   -0.40665E+01  7376   0.433E+01
DAV:   5    -0.227704586825E+02   -0.10066E+00   -0.10063E+00  5456   0.545E+00    0.366E+01
DAV:   6    -0.219248247722E+02    0.84563E+00   -0.15839E+00  5064   0.837E+00    0.222E+01
DAV:   7    -0.217926305330E+02    0.13219E+00   -0.20772E+00  6088   0.813E+00    0.622E+00
DAV:   8    -0.217522338138E+02    0.40397E-01   -0.32715E-01  5336   0.296E+00    0.383E+00
DAV:   9    -0.217451677189E+02    0.70661E-02   -0.15786E-01  6008   0.211E+00    0.328E+00
DAV:  10    -0.217403341015E+02    0.48336E-02   -0.27385E-02  5240   0.958E-01    0.681E-01
DAV:  11    -0.217404851193E+02   -0.15102E-03   -0.16418E-03  5808   0.237E-01    0.428E-01
DAV:  12    -0.217404110156E+02    0.74104E-04   -0.33149E-04  5680   0.105E-01    0.119E-01
DAV:  13    -0.217404108702E+02    0.14537E-06   -0.97608E-05  6416   0.530E-02    0.344E-02
DAV:  14    -0.217404101787E+02    0.69148E-06   -0.50757E-06  5168   0.142E-02    0.215E-02
DAV:  15    -0.217404099023E+02    0.27643E-06   -0.10987E-06  6424   0.620E-03    0.159E-03
DAV:  16    -0.217404098830E+02    0.19275E-07   -0.75685E-08  3368   0.168E-03
   1 F= -.21740410E+02 E0= -.21740279E+02  d E =-.261822E-03
