 vasp.6.0.8 29Jun18 (build Jun 13 2019 12:54:44) complex

 executed on      IFC18_CrayMPICH date 2021.12.05  13:55:56
 running   64 mpi-ranks, with    1 threads/rank
 distrk:  each k-point on   16 cores,    4 groups
 distr:  one band on NCORES_PER_BAND=   4 cores,    4 groups


--------------------------------------------------------------------------------------------------------


 INCAR:
 POTCAR:    PAW_PBE Th 07Sep2000
 POTCAR:    PAW_PBE Bi_d 06Sep2000
 POTCAR:    PAW_PBE Pt 04Feb2005
 POTCAR:    PAW_PBE Th 07Sep2000
   VRHFIN =Th:  [Xe,5d,4f]
   LEXCH  = PE
   EATOM  =   984.7553 eV,   72.3775 Ry

   TITEL  = PAW_PBE Th 07Sep2000
   LULTRA =        F    use ultrasoft PP ?
   IUNSCR =        1    unscreen: 0-lin 1-nonlin 2-no
   RPACOR =    2.200    partial core radius
   POMASS =  232.039; ZVAL   =   12.000    mass and valenz
   RCORE  =    2.800    outmost cutoff radius
   RWIGS  =    3.000; RWIGS  =    1.588    wigner-seitz radius (au A)
   ENMAX  =  247.306; ENMIN  =  185.480 eV
   RCLOC  =    2.211    cutoff for local pot
   LCOR   =        T    correct aug charges
   LPAW   =        T    paw PP
   EAUG   =  535.431
   DEXC   =    0.000
   RMAX   =    2.862    core radius for proj-oper
   RAUG   =    1.300    factor for augmentation sphere
   RDEP   =    2.926    radius for radial grids
   RDEPT  =    2.250    core radius for aug-charge

   Atomic configuration
   18 entries
     n  l   j            E        occ.
     1  0  0.50   -109990.1879   2.0000
     2  0  0.50    -20388.0147   2.0000
     2  1  1.50    -17049.6156   6.0000
     3  0  0.50     -5106.5436   2.0000
     3  1  1.50     -4175.1262   6.0000
     3  2  2.50     -3342.8437  10.0000
     4  0  0.50     -1280.8211   2.0000
     4  1  1.50      -976.4859   6.0000
     4  2  2.50      -661.8358  10.0000
     4  3  3.50      -324.9124  14.0000
     5  0  0.50      -278.7726   2.0000
     5  1  1.50      -186.2212   6.0000
     5  2  2.50       -86.9031  10.0000
     6  0  0.50       -43.3059   2.0000
     7  0  0.50        -4.0783   2.0000
     6  1  1.50       -21.4071   6.0000
     6  2  1.50        -2.3664   1.0000
     5  3  2.50        -1.2804   1.0000
   Description
     l       E           TYP  RCUT    TYP  RCUT
     0    -43.3059201     23  2.800
     0     -4.0782900     23  2.800
     1    -21.4071032     23  2.500
     1    -22.7676858     23  2.500
     2     -2.3664170     23  2.500
     2      3.0546543     23  2.500
     3     -1.2803910     23  2.800
     3      0.1360583     23  2.800
  local pseudopotential read in
  partial core-charges read in
  partial kinetic energy density read in
  atomic valenz-charges read in
  non local Contribution for L=           0  read in
    real space projection operators read in
  non local Contribution for L=           0  read in
    real space projection operators read in
  non local Contribution for L=           1  read in
    real space projection operators read in
  non local Contribution for L=           1  read in
    real space projection operators read in
  non local Contribution for L=           2  read in
    real space projection operators read in
  non local Contribution for L=           2  read in
    real space projection operators read in
  non local Contribution for L=           3  read in
    real space projection operators read in
  non local Contribution for L=           3  read in
    real space projection operators read in
    PAW grid and wavefunctions read in

   number of l-projection  operators is LMAX  =           8
   number of lm-projection operators is LMMAX =          32

 POTCAR:    PAW_PBE Bi_d 06Sep2000
   VRHFIN =Bi:
   LEXCH  = PE
   EATOM  =  1959.2045 eV,  143.9975 Ry

   TITEL  = PAW_PBE Bi_d 06Sep2000
   LULTRA =        F    use ultrasoft PP ?
   IUNSCR =        1    unscreen: 0-lin 1-nonlin 2-no
   RPACOR =    2.200    partial core radius
   POMASS =  208.980; ZVAL   =   15.000    mass and valenz
   RCORE  =    2.500    outmost cutoff radius
   RWIGS  =    3.090; RWIGS  =    1.635    wigner-seitz radius (au A)
   ENMAX  =  242.839; ENMIN  =  182.129 eV
   ICORE  =        3    local potential
   LCOR   =        T    correct aug charges
   LPAW   =        T    paw PP
   EAUG   =  442.899
   DEXC   =    0.000
   RMAX   =    2.551    core radius for proj-oper
   RAUG   =    1.300    factor for augmentation sphere
   RDEP   =    2.650    radius for radial grids
   RDEPT  =    2.039    core radius for aug-charge

   Atomic configuration
   16 entries
     n  l   j            E        occ.
     1  0  0.50    -90639.6581   2.0000
     2  0  0.50    -16282.4666   2.0000
     2  1  1.50    -13922.8286   6.0000
     3  0  0.50     -3930.4763   2.0000
     3  1  1.50     -3256.7013   6.0000
     3  2  2.50     -2581.6168  10.0000
     4  0  0.50      -902.2614   2.0000
     4  1  1.50      -681.5915   6.0000
     4  2  2.50      -429.8249  10.0000
     4  3  3.50      -152.6004  14.0000
     5  0  0.50      -157.7156   2.0000
     5  1  1.50       -95.8054   6.0000
     5  2  2.50       -27.0806  10.0000
     6  0  0.50       -14.4732   2.0000
     6  1  1.50        -4.5702   3.0000
     5  3  2.50        -2.7212   0.0000
   Description
     l       E           TYP  RCUT    TYP  RCUT
     2    -27.0805982     23  2.500
     2     -1.3605826     23  2.500
     0    -14.4732271     23  2.500
     0      6.8029130     23  2.500
     1     -4.5701651     23  2.500
     1     13.6058260     23  2.500
     3     -1.3605826      7  2.500
  local pseudopotential read in
  partial core-charges read in
  partial kinetic energy density read in
  atomic valenz-charges read in
  non local Contribution for L=           2  read in
    real space projection operators read in
  non local Contribution for L=           2  read in
    real space projection operators read in
  non local Contribution for L=           0  read in
    real space projection operators read in
  non local Contribution for L=           0  read in
    real space projection operators read in
  non local Contribution for L=           1  read in
    real space projection operators read in
  non local Contribution for L=           1  read in
    real space projection operators read in
    PAW grid and wavefunctions read in

   number of l-projection  operators is LMAX  =           6
   number of lm-projection operators is LMMAX =          18

 POTCAR:    PAW_PBE Pt 04Feb2005
   VRHFIN =Pt: s1d9
   LEXCH  = PE
   EATOM  =   729.1176 eV,   53.5886 Ry

   TITEL  = PAW_PBE Pt 04Feb2005
   LULTRA =        F    use ultrasoft PP ?
   IUNSCR =        1    unscreen: 0-lin 1-nonlin 2-no
   RPACOR =    2.330    partial core radius
   POMASS =  195.080; ZVAL   =   10.000    mass and valenz
   RCORE  =    2.600    outmost cutoff radius
   RWIGS  =    2.750; RWIGS  =    1.455    wigner-seitz radius (au A)
   ENMAX  =  230.283; ENMIN  =  172.712 eV
   ICORE  =        3    local potential
   LCOR   =        T    correct aug charges
   LPAW   =        T    paw PP
   EAUG   =  358.966
   DEXC   =    0.000
   RMAX   =    2.658    core radius for proj-oper
   RAUG   =    1.300    factor for augmentation sphere
   RDEP   =    2.761    radius for radial grids
   RDEPT  =    2.203    core radius for aug-charge

   Atomic configuration
   16 entries
     n  l   j            E        occ.
     1  0  0.50    -78401.1885   2.0000
     2  0  0.50    -13770.7750   2.0000
     2  1  1.50    -11931.0468   6.0000
     3  0  0.50     -3234.7234   2.0000
     3  1  1.50     -2699.2216   6.0000
     3  2  2.50     -2119.5714  10.0000
     4  0  0.50      -695.1528   2.0000
     4  1  1.50      -519.6034   6.0000
     4  2  2.50      -306.6786  10.0000
     4  3  3.50       -70.1041  14.0000
     5  0  0.50      -101.7747   2.0000
     5  1  1.50       -55.9873   6.0000
     5  2  2.50        -6.1423   9.0000
     6  0  0.50        -5.6573   1.0000
     6  1  1.50        -6.8029   0.0000
     5  3  2.50        -1.3606   0.0000
   Description
     l       E           TYP  RCUT    TYP  RCUT
     2     -6.1423404     23  2.500
     2     -7.5029230     23  2.500
     0     -5.6573207     23  2.500
     0      0.7416693     23  2.500
     1     -2.7211652     23  2.600
     1     20.4087390     23  2.600
     3     -1.3605826     23  2.500
  local pseudopotential read in
  partial core-charges read in
  partial kinetic energy density read in
  atomic valenz-charges read in
  non local Contribution for L=           2  read in
    real space projection operators read in
  non local Contribution for L=           2  read in
    real space projection operators read in
  non local Contribution for L=           0  read in
    real space projection operators read in
  non local Contribution for L=           0  read in
    real space projection operators read in
  non local Contribution for L=           1  read in
    real space projection operators read in
  non local Contribution for L=           1  read in
    real space projection operators read in
    PAW grid and wavefunctions read in

   number of l-projection  operators is LMAX  =           6
   number of lm-projection operators is LMMAX =          18

 WARNING: PSMAXN for non-local potential too small
          PSMAXN should be >   13.5545592237991       NTYP=           1

 -----------------------------------------------------------------------------
|                                                                             |
|  ADVICE TO THIS USER RUNNING 'VASP/VAMP'   (HEAR YOUR MASTER'S VOICE ...):  |
|                                                                             |
|      You enforced a specific xc-type in the INCAR file,                     |
|      a different type was found on the POTCAR file                          |
|          I HOPE YOU KNOW, WHAT YOU ARE  DOING                               |
|                                                                             |
 -----------------------------------------------------------------------------

  PAW_PBE Th 07Sep2000                  :
 energy of atom  1       EATOM= -984.7553
 kinetic energy error for atom=    0.0005 (will be added to EATOM!!)
  PAW_PBE Bi_d 06Sep2000                :
 energy of atom  2       EATOM=-1959.2045
 kinetic energy error for atom=    0.0012 (will be added to EATOM!!)
  PAW_PBE Pt 04Feb2005                  :
 energy of atom  3       EATOM= -729.1176
 kinetic energy error for atom=    0.0010 (will be added to EATOM!!)


 POSCAR: Th1 Bi1 Pt1
  positions in direct lattice
  No initial velocities read in
 exchange correlation table for  LEXCH =       14
   RHO(1)=    0.500       N(1)  =     2000
   RHO(2)=  100.500       N(2)  =     4000



--------------------------------------------------------------------------------------------------------


 ion  position               nearest neighbor table
   1  0.250  0.250  0.250-   3 2.91   3 2.91   3 2.91   3 2.91   2 3.35   2 3.35   2 3.35   2 3.35
                             2 3.35   2 3.35
   2  0.750  0.750  0.750-   3 2.91   3 2.91   3 2.91   3 2.91   1 3.35   1 3.35   1 3.35   1 3.35
                             1 3.35   1 3.35
   3  0.000  0.000  0.000-   2 2.91   2 2.91   2 2.91   1 2.91   2 2.91   1 2.91   1 2.91   1 2.91


  LATTYP: Found a face centered cubic cell.
 ALAT       =     6.7098886014

  Lattice vectors:

 A1 = (   0.0000000000,   3.3549443007,   3.3549443007)
 A2 = (   3.3549443007,   0.0000000000,   3.3549443007)
 A3 = (   3.3549443007,   3.3549443007,   0.0000000000)


Analysis of symmetry for initial positions (statically):
=====================================================================
 Subroutine PRICEL returns:
 Original cell was already a primitive cell.


 Routine SETGRP: Setting up the symmetry group for a
 face centered cubic supercell.


 Subroutine GETGRP returns: Found 24 space group operations
 (whereof 24 operations were pure point group operations)
 out of a pool of 48 trial point group operations.


The static configuration has the point symmetry T_d .


Analysis of symmetry for dynamics (positions and initial velocities):
=====================================================================
 Subroutine PRICEL returns:
 Original cell was already a primitive cell.


 Routine SETGRP: Setting up the symmetry group for a
 face centered cubic supercell.


 Subroutine GETGRP returns: Found 24 space group operations
 (whereof 24 operations were pure point group operations)
 out of a pool of 48 trial point group operations.


The dynamic configuration has the point symmetry T_d .


 Subroutine INISYM returns: Found 24 space group operations
 (whereof 24 operations are pure point group operations),
 and found     1 'primitive' translations


----------------------------------------------------------------------------------------

                                     Primitive cell

  volume of cell :      75.5242

  direct lattice vectors                    reciprocal lattice vectors
     0.000000000  3.354944301  3.354944301    -0.149033771  0.149033771  0.149033771
     3.354944301  0.000000000  3.354944301     0.149033771 -0.149033771  0.149033771
     3.354944301  3.354944301  0.000000000     0.149033771  0.149033771 -0.149033771

  length of vectors
     4.744607731  4.744607731  4.744607731     0.258134063  0.258134063  0.258134063

  position of ions in fractional coordinates (direct lattice)
     0.250000000  0.250000000  0.250000000
     0.750000000  0.750000000  0.750000000
     0.000000000  0.000000000  0.000000000

  ion indices of the primitive-cell ions
   primitive index   ion index
                 1           1
                 2           2
                 3           3

----------------------------------------------------------------------------------------



 KPOINTS: KPOINTS

Automatic generation of k-mesh.
Space group operators:
 irot       det(A)        alpha          n_x          n_y          n_z        tau_x        tau_y        tau_z
    1     1.000000     0.000000     1.000000     0.000000     0.000000     0.000000     0.000000     0.000000
    2     1.000000   120.000000    -0.577350    -0.577350    -0.577350     0.000000     0.000000     0.000000
    3     1.000000   120.000000     0.577350     0.577350     0.577350     0.000000     0.000000     0.000000
    4    -1.000000    90.000000     0.000000     0.000000    -1.000000     0.000000     0.000000     0.000000
    5    -1.000000   180.000000    -0.000000     0.707107     0.707107     0.000000     0.000000     0.000000
    6    -1.000000    90.000000     0.000000     1.000000    -0.000000     0.000000     0.000000     0.000000
    7     1.000000   180.000000     0.000000     0.000000     1.000000     0.000000     0.000000     0.000000
    8     1.000000   120.000000    -0.577350     0.577350     0.577350     0.000000     0.000000     0.000000
    9     1.000000   120.000000    -0.577350     0.577350    -0.577350     0.000000     0.000000     0.000000
   10    -1.000000    90.000000     0.000000     0.000000     1.000000     0.000000     0.000000     0.000000
   11    -1.000000    90.000000    -1.000000    -0.000000     0.000000     0.000000     0.000000     0.000000
   12    -1.000000   180.000000     0.707107     0.000000     0.707107     0.000000     0.000000     0.000000
   13     1.000000   120.000000     0.577350    -0.577350     0.577350     0.000000     0.000000     0.000000
   14     1.000000   120.000000    -0.577350    -0.577350     0.577350     0.000000     0.000000     0.000000
   15     1.000000   180.000000     1.000000     0.000000     0.000000     0.000000     0.000000     0.000000
   16    -1.000000    90.000000     0.000000    -1.000000     0.000000     0.000000     0.000000     0.000000
   17    -1.000000   180.000000     0.707107     0.707107     0.000000     0.000000     0.000000     0.000000
   18    -1.000000    90.000000     1.000000     0.000000    -0.000000     0.000000     0.000000     0.000000
   19     1.000000   120.000000     0.577350    -0.577350    -0.577350     0.000000     0.000000     0.000000
   20     1.000000   180.000000     0.000000    -1.000000    -0.000000     0.000000     0.000000     0.000000
   21     1.000000   120.000000     0.577350     0.577350    -0.577350     0.000000     0.000000     0.000000
   22    -1.000000   180.000000    -0.000000    -0.707107     0.707107     0.000000     0.000000     0.000000
   23    -1.000000   180.000000     0.707107    -0.707107    -0.000000     0.000000     0.000000     0.000000
   24    -1.000000   180.000000     0.707107     0.000000    -0.707107     0.000000     0.000000     0.000000

 Subroutine IBZKPT returns following result:
 ===========================================

 Found     84 irreducible k-points:

 Following reciprocal coordinates:
            Coordinates               Weight
  0.000000  0.000000  0.000000      1.000000
  0.076923 -0.000000 -0.000000      8.000000
  0.153846  0.000000 -0.000000      8.000000
  0.230769  0.000000 -0.000000      8.000000
  0.307692  0.000000 -0.000000      8.000000
  0.384615 -0.000000 -0.000000      8.000000
  0.461538  0.000000 -0.000000      8.000000
  0.076923  0.076923 -0.000000      6.000000
  0.153846  0.076923 -0.000000     24.000000
  0.230769  0.076923 -0.000000     24.000000
  0.307692  0.076923 -0.000000     24.000000
  0.384615  0.076923 -0.000000     24.000000
  0.461538  0.076923 -0.000000     24.000000
 -0.461538  0.076923  0.000000     24.000000
 -0.384615  0.076923  0.000000     24.000000
 -0.307692  0.076923 -0.000000     24.000000
 -0.230769  0.076923 -0.000000     24.000000
 -0.153846  0.076923  0.000000     24.000000
 -0.076923  0.076923 -0.000000     12.000000
  0.153846  0.153846 -0.000000      6.000000
  0.230769  0.153846  0.000000     24.000000
  0.307692  0.153846 -0.000000     24.000000
  0.384615  0.153846 -0.000000     24.000000
  0.461538  0.153846 -0.000000     24.000000
 -0.461538  0.153846  0.000000     24.000000
 -0.384615  0.153846  0.000000     24.000000
 -0.307692  0.153846 -0.000000     24.000000
 -0.230769  0.153846 -0.000000     24.000000
 -0.153846  0.153846  0.000000     12.000000
  0.230769  0.230769 -0.000000      6.000000
  0.307692  0.230769 -0.000000     24.000000
  0.384615  0.230769 -0.000000     24.000000
  0.461538  0.230769 -0.000000     24.000000
 -0.461538  0.230769  0.000000     24.000000
 -0.384615  0.230769 -0.000000     24.000000
 -0.307692  0.230769  0.000000     24.000000
 -0.230769  0.230769  0.000000     12.000000
  0.307692  0.307692 -0.000000      6.000000
  0.384615  0.307692 -0.000000     24.000000
  0.461538  0.307692 -0.000000     24.000000
 -0.461538  0.307692  0.000000     24.000000
 -0.384615  0.307692  0.000000     24.000000
 -0.307692  0.307692  0.000000     12.000000
  0.384615  0.384615 -0.000000      6.000000
  0.461538  0.384615 -0.000000     24.000000
 -0.461538  0.384615 -0.000000     24.000000
 -0.384615  0.384615 -0.000000     12.000000
  0.461538  0.461538 -0.000000      6.000000
 -0.461538  0.461538  0.000000     12.000000
  0.230769  0.153846  0.076923     24.000000
  0.307692  0.153846  0.076923     48.000000
  0.384615  0.153846  0.076923     48.000000
  0.461538  0.153846  0.076923     48.000000
 -0.461538  0.153846  0.076923     48.000000
  0.307692  0.230769  0.076923     24.000000
  0.384615  0.230769  0.076923     48.000000
  0.461538  0.230769  0.076923     48.000000
 -0.461538  0.230769  0.076923     48.000000
 -0.384615  0.230769  0.076923     48.000000
 -0.307692  0.230769  0.076923     48.000000
 -0.230769  0.230769  0.076923     48.000000
 -0.153846  0.230769  0.076923     24.000000
  0.384615  0.307692  0.076923     24.000000
  0.461538  0.307692  0.076923     48.000000
 -0.461538  0.307692  0.076923     48.000000
 -0.384615  0.307692  0.076923     48.000000
 -0.307692  0.307692  0.076923     48.000000
 -0.230769  0.307692  0.076923     24.000000
  0.461538  0.384615  0.076923     24.000000
 -0.461538  0.384615  0.076923     48.000000
 -0.384615  0.384615  0.076923     48.000000
 -0.307692  0.384615  0.076923     24.000000
 -0.461538  0.461538  0.076923     24.000000
 -0.384615  0.461538  0.076923     24.000000
  0.461538  0.307692  0.153846     24.000000
 -0.461538  0.307692  0.153846     48.000000
 -0.384615  0.307692  0.153846     48.000000
 -0.461538  0.384615  0.153846     24.000000
 -0.384615  0.384615  0.153846     48.000000
 -0.307692  0.384615  0.153846     48.000000
 -0.230769  0.384615  0.153846     24.000000
 -0.384615  0.461538  0.153846     24.000000
 -0.307692  0.461538  0.153846     24.000000
 -0.307692  0.461538  0.230769     24.000000

 Following cartesian coordinates:
            Coordinates               Weight
  0.000000  0.000000  0.000000      1.000000
 -0.011230  0.011230  0.011230      8.000000
 -0.022460  0.022460  0.022460      8.000000
 -0.033690  0.033690  0.033690      8.000000
 -0.044920  0.044920  0.044920      8.000000
 -0.056151  0.056151  0.056151      8.000000
 -0.067381  0.067381  0.067381      8.000000
 -0.000000 -0.000000  0.022460      6.000000
 -0.011230  0.011230  0.033690     24.000000
 -0.022460  0.022460  0.044920     24.000000
 -0.033690  0.033690  0.056151     24.000000
 -0.044920  0.044920  0.067381     24.000000
 -0.056151  0.056151  0.078611     24.000000
  0.078611 -0.078611 -0.056151     24.000000
  0.067381 -0.067381 -0.044920     24.000000
  0.056151 -0.056151 -0.033690     24.000000
  0.044920 -0.044920 -0.022460     24.000000
  0.033690 -0.033690 -0.011230     24.000000
  0.022460 -0.022460  0.000000     12.000000
  0.000000 -0.000000  0.044920      6.000000
 -0.011230  0.011230  0.056151     24.000000
 -0.022460  0.022460  0.067381     24.000000
 -0.033690  0.033690  0.078611     24.000000
 -0.044920  0.044920  0.089841     24.000000
  0.089841 -0.089841 -0.044920     24.000000
  0.078611 -0.078611 -0.033690     24.000000
  0.067381 -0.067381 -0.022460     24.000000
  0.056151 -0.056151 -0.011230     24.000000
  0.044920 -0.044920  0.000000     12.000000
 -0.000000  0.000000  0.067381      6.000000
 -0.011230  0.011230  0.078611     24.000000
 -0.022460  0.022460  0.089841     24.000000
 -0.033690  0.033690  0.101071     24.000000
  0.101071 -0.101071 -0.033690     24.000000
  0.089841 -0.089841 -0.022460     24.000000
  0.078611 -0.078611 -0.011230     24.000000
  0.067381 -0.067381 -0.000000     12.000000
  0.000000 -0.000000  0.089841      6.000000
 -0.011230  0.011230  0.101071     24.000000
 -0.022460  0.022460  0.112301     24.000000
  0.112301 -0.112301 -0.022460     24.000000
  0.101071 -0.101071 -0.011230     24.000000
  0.089841 -0.089841  0.000000     12.000000
 -0.000000 -0.000000  0.112301      6.000000
 -0.011230  0.011230  0.123531     24.000000
  0.123531 -0.123531 -0.011230     24.000000
  0.112301 -0.112301  0.000000     12.000000
  0.000000 -0.000000  0.134761      6.000000
  0.134761 -0.134761 -0.000000     12.000000
  0.000000  0.022460  0.044920     24.000000
 -0.011230  0.033690  0.056151     48.000000
 -0.022460  0.044920  0.067381     48.000000
 -0.033690  0.056151  0.078611     48.000000
  0.101071 -0.078611 -0.056151     48.000000
  0.000000  0.022460  0.067381     24.000000
 -0.011230  0.033690  0.078611     48.000000
 -0.022460  0.044920  0.089841     48.000000
  0.112301 -0.089841 -0.044920     48.000000
  0.101071 -0.078611 -0.033690     48.000000
  0.089841 -0.067381 -0.022460     48.000000
  0.078611 -0.056151 -0.011230     48.000000
  0.067381 -0.044920 -0.000000     24.000000
  0.000000  0.022460  0.089841     24.000000
 -0.011230  0.033690  0.101071     48.000000
  0.123531 -0.101071 -0.033690     48.000000
  0.112301 -0.089841 -0.022460     48.000000
  0.101071 -0.078611 -0.011230     48.000000
  0.089841 -0.067381 -0.000000     24.000000
  0.000000  0.022460  0.112301     24.000000
  0.134761 -0.112301 -0.022460     48.000000
  0.123531 -0.101071 -0.011230     48.000000
  0.112301 -0.089841  0.000000     24.000000
  0.145991 -0.123531 -0.011230     24.000000
  0.134761 -0.112301 -0.000000     24.000000
  0.000000  0.044920  0.089841     24.000000
  0.134761 -0.089841 -0.044920     48.000000
  0.123531 -0.078611 -0.033690     48.000000
  0.145991 -0.101071 -0.033690     24.000000
  0.134761 -0.089841 -0.022460     48.000000
  0.123531 -0.078611 -0.011230     48.000000
  0.112301 -0.067381 -0.000000     24.000000
  0.145991 -0.101071 -0.011230     24.000000
  0.134761 -0.089841  0.000000     24.000000
  0.145991 -0.078611 -0.011230     24.000000



--------------------------------------------------------------------------------------------------------




 Dimension of arrays:
   k-points           NKPTS =     84   k-points in BZ     NKDIM =     84   number of bands    NBANDS=     24
   number of dos      NEDOS =    301   number of ions     NIONS =      3
   non local maximal  LDIM  =      8   non local SUM 2l+1 LMDIM =     32
   total plane-waves  NPLWV =  74088
   max r-space proj   IRMAX =      1   max aug-charges    IRDMAX= 475469
   dimension x,y,z NGX =    42 NGY =   42 NGZ =   42
   dimension x,y,z NGXF=    84 NGYF=   84 NGZF=   84
   support grid    NGXF=   168 NGYF=  168 NGZF=  168
   ions per type =               1   1   1
   NGX,Y,Z   is equivalent  to a cutoff of  14.72, 14.72, 14.72 a.u.
   NGXF,Y,Z  is equivalent  to a cutoff of  29.43, 29.43, 29.43 a.u.

 SYSTEM =  unknown system
 POSCAR =  Th1 Bi1 Pt1

 Startparameter for this run:
   NWRITE =      2    write-flag & timer
   PREC   = acc       normal or accurate (medium, high low for compatibility)
   ISTART =      0    job   : 0-new  1-cont  2-samecut
   ICHARG =      2    charge: 1-file 2-atom 10-const
   ISPIN  =      1    spin polarized calculation?
   LNONCOLLINEAR =      F non collinear calculations
   LSORBIT =      F    spin-orbit coupling
   INIWAV =      1    electr: 0-lowe 1-rand  2-diag
   LASPH  =      F    aspherical Exc in radial PAW
   METAGGA=      F    non-selfconsistent MetaGGA calc.

 Electronic Relaxation 1
   ENCUT  =  700.0 eV  51.45 Ry    7.17 a.u.  10.24 10.24 10.24*2*pi/ulx,y,z
   ENINI  =  700.0     initial cutoff
   ENAUG  =  535.4 eV  augmentation charge cutoff
   NELM   =     60;   NELMIN=  5; NELMDL= -5     # of ELM steps
   EDIFF  = 0.1E-06   stopping-criterion for ELM
   LREAL  =      F    real-space projection
   NLSPLINE    = F    spline interpolate recip. space projectors
   LCOMPAT=      F    compatible to vasp.4.4
   GGA_COMPAT  = T    GGA compatible to vasp.4.4-vasp.4.6
   LMAXPAW     = -100 max onsite density
   LMAXMIX     =    2 max onsite mixed and CHGCAR
   VOSKOWN=      0    Vosko Wilk Nusair interpolation
   ROPT   =    0.00000   0.00000   0.00000
 Ionic relaxation
   EDIFFG = 0.1E-05   stopping-criterion for IOM
   NSW    =      0    number of steps for IOM
   NBLOCK =      1;   KBLOCK =      1    inner block; outer block
   IBRION =     -1    ionic relax: 0-MD 1-quasi-New 2-CG
   NFREE  =      0    steps in history (QN), initial steepest desc. (CG)
   ISIF   =      3    stress and relaxation
   IWAVPR =     10    prediction:  0-non 1-charg 2-wave 3-comb
   ISYM   =      2    0-nonsym 1-usesym 2-fastsym
   LCORR  =      T    Harris-Foulkes like correction to forces

   POTIM  = 0.5000    time-step for ionic-motion
   TEIN   =    0.0    initial temperature
   TEBEG  =    0.0;   TEEND  =   0.0 temperature during run
   SMASS  =  -3.00    Nose mass-parameter (am)
   estimated Nose-frequenzy (Omega)   =  0.10E-29 period in steps = 0.13E+47 mass=  -0.514E-27a.u.
   SCALEE = 1.0000    scale energy and forces
   NPACO  =    256;   APACO  = 16.0  distance and # of slots for P.C.
   PSTRESS=    0.0 pullay stress

  Mass of Ions in am
   POMASS = 232.04208.98195.08
  Ionic Valenz
   ZVAL   =  12.00 15.00 10.00
  Atomic Wigner-Seitz radii
   RWIGS  =  -1.00 -1.00 -1.00
  virtual crystal weights
   VCA    =   1.00  1.00  1.00
   NELECT =      37.0000    total number of electrons
   NUPDOWN=      -1.0000    fix difference up-down

 DOS related values:
   EMIN   =  10.00;   EMAX   =-10.00  energy-range for DOS
   EFERMI =   0.00
   ISMEAR =     0;   SIGMA  =   0.01  broadening in eV -4-tet -1-fermi 0-gaus

 Electronic relaxation 2 (details)
   IALGO  =     38    algorithm
   LDIAG  =      T    sub-space diagonalisation (order eigenvalues)
   LSUBROT=      F    optimize rotation matrix (better conditioning)
   TURBO    =      0    0=normal 1=particle mesh
   IRESTART =      0    0=no restart 2=restart with 2 vectors
   NREBOOT  =      0    no. of reboots
   NMIN     =      0    reboot dimension
   EREF     =   0.00    reference energy to select bands
   IMIX   =      4    mixing-type and parameters
     AMIX     =   0.40;   BMIX     =  1.00
     AMIX_MAG =   1.60;   BMIX_MAG =  1.00
     AMIN     =   0.10
     WC   =   100.;   INIMIX=   1;  MIXPRE=   1;  MAXMIX= -45

 Intra band minimization:
   WEIMIN = 0.0000     energy-eigenvalue tresh-hold
   EBREAK =  0.10E-08  absolut break condition
   DEPER  =   0.30     relativ break condition

   TIME   =   0.40     timestep for ELM

  volume/ion in A,a.u.               =      25.17       169.89
  Fermi-wavevector in a.u.,A,eV,Ry     =   1.290566  2.438815 22.661314  1.665560
  Thomas-Fermi vector in A             =   2.422389

 Write flags
   LWAVE        =      F    write WAVECAR
   LDOWNSAMPLE  =      F    k-point downsampling of WAVECAR
   LCHARG       =      F    write CHGCAR
   LVTOT        =      F    write LOCPOT, total local potential
   LVHAR        =      F    write LOCPOT, Hartree potential only
   LELF         =      F    write electronic localiz. function (ELF)
   LORBIT       =      0    0 simple, 1 ext, 2 COOP (PROOUT), +10 PAW based schemes


 Dipole corrections
   LMONO  =      F    monopole corrections only (constant potential shift)
   LDIPOL =      F    correct potential (dipole corrections)
   IDIPOL =      0    1-x, 2-y, 3-z, 4-all directions
   EPSILON=  1.0000000 bulk dielectric constant

 Exchange correlation treatment:
   GGA     =    PS    GGA type
   LEXCH   =    14    internal setting for exchange type
   VOSKOWN=      0    Vosko Wilk Nusair interpolation
   LHFCALC =     F    Hartree Fock is set to
   LHFONE  =     F    Hartree Fock one center treatment
   AEXX    =    0.0000 exact exchange contribution

 Linear response parameters
   LEPSILON=     F    determine dielectric tensor
   LRPA    =     F    only Hartree local field effects (RPA)
   LNABLA  =     F    use nabla operator in PAW spheres
   LVEL    =     F    velocity operator in full k-point grid
   LINTERFAST=   F  fast interpolation
   KINTER  =     0    interpolate to denser k-point grid
   CSHIFT  =0.1000    complex shift for real part using Kramers Kronig
   OMEGAMAX=  -1.0    maximum frequency
   DEG_THRESHOLD= 0.2000000E-02 threshold for treating states as degnerate
   RTIME   =   -0.100 relaxation time in fs
  (WPLASMAI=    0.000 imaginary part of plasma frequency in eV, 0.658/RTIME)
   DFIELD  = 0.0000000 0.0000000 0.0000000 field for delta impulse in time

 Orbital magnetization related:
   ORBITALMAG=     F  switch on orbital magnetization
   LCHIMAG   =     F  perturbation theory with respect to B field
   DQ        =  0.001000  dq finite difference perturbation B field
   LLRAUG    =     F  two centre corrections for induced B field



--------------------------------------------------------------------------------------------------------


 Static calculation
 charge density and potential will be updated during run
 non-spin polarized calculation
 Variant of blocked Davidson
 Davidson routine will perform the subspace rotation
 perform sub-space diagonalisation
    after iterative eigenvector-optimisation
 modified Broyden-mixing scheme, WC =      100.0
 initial mixing is a Kerker type mixing with AMIX =  0.4000 and BMIX =      1.0000
 Hartree-type preconditioning will be used
 using additional bands            5
 reciprocal scheme for non local part
 use partial core corrections
 calculate Harris-corrections to forces
   (improved forces if not selfconsistent)
 use gradient corrections
 use of overlap-Matrix (Vanderbilt PP)
 Gauss-broadening in eV      SIGMA  =   0.01


--------------------------------------------------------------------------------------------------------


  energy-cutoff  :      700.00
  volume of cell :       75.52
      direct lattice vectors                 reciprocal lattice vectors
     0.000000000  3.354944301  3.354944301    -0.149033771  0.149033771  0.149033771
     3.354944301  0.000000000  3.354944301     0.149033771 -0.149033771  0.149033771
     3.354944301  3.354944301  0.000000000     0.149033771  0.149033771 -0.149033771

  length of vectors
     4.744607731  4.744607731  4.744607731     0.258134063  0.258134063  0.258134063



 k-points in units of 2pi/SCALE and weight: KPOINTS
   0.00000000  0.00000000  0.00000000       0.000
  -0.01123011  0.01123011  0.01123011       0.004
  -0.02246022  0.02246022  0.02246022       0.004
  -0.03369033  0.03369033  0.03369033       0.004
  -0.04492043  0.04492043  0.04492043       0.004
  -0.05615054  0.05615054  0.05615054       0.004
  -0.06738065  0.06738065  0.06738065       0.004
  -0.00000000 -0.00000000  0.02246022       0.003
  -0.01123011  0.01123011  0.03369033       0.011
  -0.02246022  0.02246022  0.04492043       0.011
  -0.03369033  0.03369033  0.05615054       0.011
  -0.04492043  0.04492043  0.06738065       0.011
  -0.05615054  0.05615054  0.07861076       0.011
   0.07861076 -0.07861076 -0.05615054       0.011
   0.06738065 -0.06738065 -0.04492043       0.011
   0.05615054 -0.05615054 -0.03369033       0.011
   0.04492043 -0.04492043 -0.02246022       0.011
   0.03369033 -0.03369033 -0.01123011       0.011
   0.02246022 -0.02246022  0.00000000       0.005
   0.00000000 -0.00000000  0.04492043       0.003
  -0.01123011  0.01123011  0.05615054       0.011
  -0.02246022  0.02246022  0.06738065       0.011
  -0.03369033  0.03369033  0.07861076       0.011
  -0.04492043  0.04492043  0.08984087       0.011
   0.08984087 -0.08984087 -0.04492043       0.011
   0.07861076 -0.07861076 -0.03369033       0.011
   0.06738065 -0.06738065 -0.02246022       0.011
   0.05615054 -0.05615054 -0.01123011       0.011
   0.04492043 -0.04492043  0.00000000       0.005
  -0.00000000  0.00000000  0.06738065       0.003
  -0.01123011  0.01123011  0.07861076       0.011
  -0.02246022  0.02246022  0.08984087       0.011
  -0.03369033  0.03369033  0.10107098       0.011
   0.10107098 -0.10107098 -0.03369033       0.011
   0.08984087 -0.08984087 -0.02246022       0.011
   0.07861076 -0.07861076 -0.01123011       0.011
   0.06738065 -0.06738065 -0.00000000       0.005
   0.00000000 -0.00000000  0.08984087       0.003
  -0.01123011  0.01123011  0.10107098       0.011
  -0.02246022  0.02246022  0.11230109       0.011
   0.11230109 -0.11230109 -0.02246022       0.011
   0.10107098 -0.10107098 -0.01123011       0.011
   0.08984087 -0.08984087  0.00000000       0.005
  -0.00000000 -0.00000000  0.11230109       0.003
  -0.01123011  0.01123011  0.12353119       0.011
   0.12353119 -0.12353119 -0.01123011       0.011
   0.11230109 -0.11230109  0.00000000       0.005
   0.00000000 -0.00000000  0.13476130       0.003
   0.13476130 -0.13476130 -0.00000000       0.005
   0.00000000  0.02246022  0.04492043       0.011
  -0.01123011  0.03369033  0.05615054       0.022
  -0.02246022  0.04492043  0.06738065       0.022
  -0.03369033  0.05615054  0.07861076       0.022
   0.10107098 -0.07861076 -0.05615054       0.022
   0.00000000  0.02246022  0.06738065       0.011
  -0.01123011  0.03369033  0.07861076       0.022
  -0.02246022  0.04492043  0.08984087       0.022
   0.11230109 -0.08984087 -0.04492043       0.022
   0.10107098 -0.07861076 -0.03369033       0.022
   0.08984087 -0.06738065 -0.02246022       0.022
   0.07861076 -0.05615054 -0.01123011       0.022
   0.06738065 -0.04492043 -0.00000000       0.011
   0.00000000  0.02246022  0.08984087       0.011
  -0.01123011  0.03369033  0.10107098       0.022
   0.12353119 -0.10107098 -0.03369033       0.022
   0.11230109 -0.08984087 -0.02246022       0.022
   0.10107098 -0.07861076 -0.01123011       0.022
   0.08984087 -0.06738065 -0.00000000       0.011
   0.00000000  0.02246022  0.11230109       0.011
   0.13476130 -0.11230109 -0.02246022       0.022
   0.12353119 -0.10107098 -0.01123011       0.022
   0.11230109 -0.08984087  0.00000000       0.011
   0.14599141 -0.12353119 -0.01123011       0.011
   0.13476130 -0.11230109 -0.00000000       0.011
   0.00000000  0.04492043  0.08984087       0.011
   0.13476130 -0.08984087 -0.04492043       0.022
   0.12353119 -0.07861076 -0.03369033       0.022
   0.14599141 -0.10107098 -0.03369033       0.011
   0.13476130 -0.08984087 -0.02246022       0.022
   0.12353119 -0.07861076 -0.01123011       0.022
   0.11230109 -0.06738065 -0.00000000       0.011
   0.14599141 -0.10107098 -0.01123011       0.011
   0.13476130 -0.08984087  0.00000000       0.011
   0.14599141 -0.07861076 -0.01123011       0.011

 k-points in reciprocal lattice and weights: KPOINTS
   0.00000000  0.00000000  0.00000000       0.000
   0.07692308 -0.00000000 -0.00000000       0.004
   0.15384615  0.00000000 -0.00000000       0.004
   0.23076923  0.00000000 -0.00000000       0.004
   0.30769231  0.00000000 -0.00000000       0.004
   0.38461538 -0.00000000 -0.00000000       0.004
   0.46153846  0.00000000 -0.00000000       0.004
   0.07692308  0.07692308 -0.00000000       0.003
   0.15384615  0.07692308 -0.00000000       0.011
   0.23076923  0.07692308 -0.00000000       0.011
   0.30769231  0.07692308 -0.00000000       0.011
   0.38461538  0.07692308 -0.00000000       0.011
   0.46153846  0.07692308 -0.00000000       0.011
  -0.46153846  0.07692308  0.00000000       0.011
  -0.38461538  0.07692308  0.00000000       0.011
  -0.30769231  0.07692308 -0.00000000       0.011
  -0.23076923  0.07692308 -0.00000000       0.011
  -0.15384615  0.07692308  0.00000000       0.011
  -0.07692308  0.07692308 -0.00000000       0.005
   0.15384615  0.15384615 -0.00000000       0.003
   0.23076923  0.15384615  0.00000000       0.011
   0.30769231  0.15384615 -0.00000000       0.011
   0.38461538  0.15384615 -0.00000000       0.011
   0.46153846  0.15384615 -0.00000000       0.011
  -0.46153846  0.15384615  0.00000000       0.011
  -0.38461538  0.15384615  0.00000000       0.011
  -0.30769231  0.15384615 -0.00000000       0.011
  -0.23076923  0.15384615 -0.00000000       0.011
  -0.15384615  0.15384615  0.00000000       0.005
   0.23076923  0.23076923 -0.00000000       0.003
   0.30769231  0.23076923 -0.00000000       0.011
   0.38461538  0.23076923 -0.00000000       0.011
   0.46153846  0.23076923 -0.00000000       0.011
  -0.46153846  0.23076923  0.00000000       0.011
  -0.38461538  0.23076923 -0.00000000       0.011
  -0.30769231  0.23076923  0.00000000       0.011
  -0.23076923  0.23076923  0.00000000       0.005
   0.30769231  0.30769231 -0.00000000       0.003
   0.38461538  0.30769231 -0.00000000       0.011
   0.46153846  0.30769231 -0.00000000       0.011
  -0.46153846  0.30769231  0.00000000       0.011
  -0.38461538  0.30769231  0.00000000       0.011
  -0.30769231  0.30769231  0.00000000       0.005
   0.38461538  0.38461538 -0.00000000       0.003
   0.46153846  0.38461538 -0.00000000       0.011
  -0.46153846  0.38461538 -0.00000000       0.011
  -0.38461538  0.38461538 -0.00000000       0.005
   0.46153846  0.46153846 -0.00000000       0.003
  -0.46153846  0.46153846  0.00000000       0.005
   0.23076923  0.15384615  0.07692308       0.011
   0.30769231  0.15384615  0.07692308       0.022
   0.38461538  0.15384615  0.07692308       0.022
   0.46153846  0.15384615  0.07692308       0.022
  -0.46153846  0.15384615  0.07692308       0.022
   0.30769231  0.23076923  0.07692308       0.011
   0.38461538  0.23076923  0.07692308       0.022
   0.46153846  0.23076923  0.07692308       0.022
  -0.46153846  0.23076923  0.07692308       0.022
  -0.38461538  0.23076923  0.07692308       0.022
  -0.30769231  0.23076923  0.07692308       0.022
  -0.23076923  0.23076923  0.07692308       0.022
  -0.15384615  0.23076923  0.07692308       0.011
   0.38461538  0.30769231  0.07692308       0.011
   0.46153846  0.30769231  0.07692308       0.022
  -0.46153846  0.30769231  0.07692308       0.022
  -0.38461538  0.30769231  0.07692308       0.022
  -0.30769231  0.30769231  0.07692308       0.022
  -0.23076923  0.30769231  0.07692308       0.011
   0.46153846  0.38461538  0.07692308       0.011
  -0.46153846  0.38461538  0.07692308       0.022
  -0.38461538  0.38461538  0.07692308       0.022
  -0.30769231  0.38461538  0.07692308       0.011
  -0.46153846  0.46153846  0.07692308       0.011
  -0.38461538  0.46153846  0.07692308       0.011
   0.46153846  0.30769231  0.15384615       0.011
  -0.46153846  0.30769231  0.15384615       0.022
  -0.38461538  0.30769231  0.15384615       0.022
  -0.46153846  0.38461538  0.15384615       0.011
  -0.38461538  0.38461538  0.15384615       0.022
  -0.30769231  0.38461538  0.15384615       0.022
  -0.23076923  0.38461538  0.15384615       0.011
  -0.38461538  0.46153846  0.15384615       0.011
  -0.30769231  0.46153846  0.15384615       0.011
  -0.30769231  0.46153846  0.23076923       0.011

 position of ions in fractional coordinates (direct lattice)
   0.25000000  0.25000000  0.25000000
   0.75000000  0.75000000  0.75000000
   0.00000000  0.00000000  0.00000000

 position of ions in cartesian coordinates  (Angst):
   1.67747215  1.67747215  1.67747215
   5.03241645  5.03241645  5.03241645
   0.00000000  0.00000000  0.00000000



--------------------------------------------------------------------------------------------------------


 k-point  1 :   0.0000 0.0000 0.0000  plane waves:    3143
 k-point  2 :   0.0769-0.0000-0.0000  plane waves:    3173
 k-point  3 :   0.1538 0.0000-0.0000  plane waves:    3170
 k-point  4 :   0.2308 0.0000-0.0000  plane waves:    3179
 k-point  5 :   0.3077 0.0000-0.0000  plane waves:    3179
 k-point  6 :   0.3846-0.0000-0.0000  plane waves:    3169
 k-point  7 :   0.4615 0.0000-0.0000  plane waves:    3175
 k-point  8 :   0.0769 0.0769-0.0000  plane waves:    3175
 k-point  9 :   0.1538 0.0769-0.0000  plane waves:    3183
 k-point 10 :   0.2308 0.0769-0.0000  plane waves:    3185
 k-point 11 :   0.3077 0.0769-0.0000  plane waves:    3185
 k-point 12 :   0.3846 0.0769-0.0000  plane waves:    3173
 k-point 13 :   0.4615 0.0769-0.0000  plane waves:    3179
 k-point 14 :  -0.4615 0.0769 0.0000  plane waves:    3165
 k-point 15 :  -0.3846 0.0769 0.0000  plane waves:    3180
 k-point 16 :  -0.3077 0.0769-0.0000  plane waves:    3174
 k-point 17 :  -0.2308 0.0769-0.0000  plane waves:    3180
 k-point 18 :  -0.1538 0.0769 0.0000  plane waves:    3178
 k-point 19 :  -0.0769 0.0769-0.0000  plane waves:    3181
 k-point 20 :   0.1538 0.1538-0.0000  plane waves:    3175
 k-point 21 :   0.2308 0.1538 0.0000  plane waves:    3183
 k-point 22 :   0.3077 0.1538-0.0000  plane waves:    3190
 k-point 23 :   0.3846 0.1538-0.0000  plane waves:    3171
 k-point 24 :   0.4615 0.1538-0.0000  plane waves:    3187
 k-point 25 :  -0.4615 0.1538 0.0000  plane waves:    3180
 k-point 26 :  -0.3846 0.1538 0.0000  plane waves:    3173
 k-point 27 :  -0.3077 0.1538-0.0000  plane waves:    3168
 k-point 28 :  -0.2308 0.1538-0.0000  plane waves:    3158
 k-point 29 :  -0.1538 0.1538 0.0000  plane waves:    3180
 k-point 30 :   0.2308 0.2308-0.0000  plane waves:    3191
 k-point 31 :   0.3077 0.2308-0.0000  plane waves:    3163
 k-point 32 :   0.3846 0.2308-0.0000  plane waves:    3173
 k-point 33 :   0.4615 0.2308-0.0000  plane waves:    3173
 k-point 34 :  -0.4615 0.2308 0.0000  plane waves:    3172
 k-point 35 :  -0.3846 0.2308-0.0000  plane waves:    3176
 k-point 36 :  -0.3077 0.2308 0.0000  plane waves:    3165
 k-point 37 :  -0.2308 0.2308 0.0000  plane waves:    3152
 k-point 38 :   0.3077 0.3077-0.0000  plane waves:    3158
 k-point 39 :   0.3846 0.3077-0.0000  plane waves:    3175
 k-point 40 :   0.4615 0.3077-0.0000  plane waves:    3179
 k-point 41 :  -0.4615 0.3077 0.0000  plane waves:    3181
 k-point 42 :  -0.3846 0.3077 0.0000  plane waves:    3176
 k-point 43 :  -0.3077 0.3077 0.0000  plane waves:    3182
 k-point 44 :   0.3846 0.3846-0.0000  plane waves:    3186
 k-point 45 :   0.4615 0.3846-0.0000  plane waves:    3176
 k-point 46 :  -0.4615 0.3846-0.0000  plane waves:    3188
 k-point 47 :  -0.3846 0.3846-0.0000  plane waves:    3196
 k-point 48 :   0.4615 0.4615-0.0000  plane waves:    3214
 k-point 49 :  -0.4615 0.4615 0.0000  plane waves:    3198
 k-point 50 :   0.2308 0.1538 0.0769  plane waves:    3177
 k-point 51 :   0.3077 0.1538 0.0769  plane waves:    3181
 k-point 52 :   0.3846 0.1538 0.0769  plane waves:    3170
 k-point 53 :   0.4615 0.1538 0.0769  plane waves:    3178
 k-point 54 :  -0.4615 0.1538 0.0769  plane waves:    3171
 k-point 55 :   0.3077 0.2308 0.0769  plane waves:    3185
 k-point 56 :   0.3846 0.2308 0.0769  plane waves:    3171
 k-point 57 :   0.4615 0.2308 0.0769  plane waves:    3168
 k-point 58 :  -0.4615 0.2308 0.0769  plane waves:    3176
 k-point 59 :  -0.3846 0.2308 0.0769  plane waves:    3175
 k-point 60 :  -0.3077 0.2308 0.0769  plane waves:    3169
 k-point 61 :  -0.2308 0.2308 0.0769  plane waves:    3167
 k-point 62 :  -0.1538 0.2308 0.0769  plane waves:    3168
 k-point 63 :   0.3846 0.3077 0.0769  plane waves:    3165
 k-point 64 :   0.4615 0.3077 0.0769  plane waves:    3172
 k-point 65 :  -0.4615 0.3077 0.0769  plane waves:    3172
 k-point 66 :  -0.3846 0.3077 0.0769  plane waves:    3168
 k-point 67 :  -0.3077 0.3077 0.0769  plane waves:    3181
 k-point 68 :  -0.2308 0.3077 0.0769  plane waves:    3175
 k-point 69 :   0.4615 0.3846 0.0769  plane waves:    3174
 k-point 70 :  -0.4615 0.3846 0.0769  plane waves:    3184
 k-point 71 :  -0.3846 0.3846 0.0769  plane waves:    3179
 k-point 72 :  -0.3077 0.3846 0.0769  plane waves:    3182
 k-point 73 :  -0.4615 0.4615 0.0769  plane waves:    3199
 k-point 74 :  -0.3846 0.4615 0.0769  plane waves:    3182
 k-point 75 :   0.4615 0.3077 0.1538  plane waves:    3166
 k-point 76 :  -0.4615 0.3077 0.1538  plane waves:    3171
 k-point 77 :  -0.3846 0.3077 0.1538  plane waves:    3174
 k-point 78 :  -0.4615 0.3846 0.1538  plane waves:    3163
 k-point 79 :  -0.3846 0.3846 0.1538  plane waves:    3175
 k-point 80 :  -0.3077 0.3846 0.1538  plane waves:    3177
 k-point 81 :  -0.2308 0.3846 0.1538  plane waves:    3169
 k-point 82 :  -0.3846 0.4615 0.1538  plane waves:    3173
 k-point 83 :  -0.3077 0.4615 0.1538  plane waves:    3180
 k-point 84 :  -0.3077 0.4615 0.2308  plane waves:    3179

 maximum and minimum number of plane-waves per node :       812      781

 maximum number of plane-waves:      3214
 maximum index in each direction:
   IXMAX=   10   IYMAX=   10   IZMAX=   10
   IXMIN=  -10   IYMIN=  -10   IZMIN=  -10


 parallel 3D FFT for wavefunctions:
    minimum data exchange during FFTs selected (reduces bandwidth)
 parallel 3D FFT for charge:
    minimum data exchange during FFTs selected (reduces bandwidth)


 total amount of memory used by VASP MPI-rank0    99099. kBytes
=======================================================================

   base      :      30000. kBytes
   nonl-proj :      52422. kBytes
   fftplans  :       6281. kBytes
   grid      :       3541. kBytes
   one-center:         49. kBytes
   wavefun   :       6806. kBytes

     INWAV:  cpu time    0.0003: real time    0.0005
 Broyden mixing: mesh for mixing (old mesh)
   NGX = 21   NGY = 21   NGZ = 21
  (NGX  = 84   NGY  = 84   NGZ  = 84)
  gives a total of   9261 points

 initial charge density was supplied:
 charge density of overlapping atoms calculated
 number of electron      37.0000000 magnetization
 keeping initial charge density in first step


--------------------------------------------------------------------------------------------------------


 Maximum index for augmentation-charges        32232 (set IRDMAX)


--------------------------------------------------------------------------------------------------------


 First call to EWALD:  gamma=   0.419
 Maximum number of real-space cells 3x 3x 3
 Maximum number of reciprocal cells 3x 3x 3

    FEWALD:  cpu time    0.0053: real time    0.0056


--------------------------------------- Iteration      1(   1)  ---------------------------------------


    POTLOK:  cpu time    0.0529: real time    0.1207
    SETDIJ:  cpu time    0.0926: real time    0.0956
     EDDAV:  cpu time    1.5214: real time    1.5597
       DOS:  cpu time    0.0041: real time    0.0048
    --------------------------------------------
      LOOP:  cpu time    1.6713: real time    1.7812

 eigenvalue-minimisations  :  4032
 total energy-change (2. order) : 0.4459858E+03  (-0.2080576E+04)
 number of electron      37.0000000 magnetization
 augmentation part       37.0000000 magnetization

 Free energy of the ion-electron system (eV)
  ---------------------------------------------------
  alpha Z        PSCENC =       227.49755299
  Ewald energy   TEWEN  =     -3192.95325594
  -Hartree energ DENC   =      -728.87541300
  -exchange      EXHF   =         0.00000000
  -V(xc)+E(xc)   XCENC  =        68.99000820
  PAW double counting   =      3147.30828992    -3070.62761383
  entropy T*S    EENTRO =        -0.00003081
  eigenvalues    EBANDS =       319.97285447
  atomic energy  EATOM  =      3674.67342263
  Solvation  Ediel_sol  =         0.00000000
  ---------------------------------------------------
  free energy    TOTEN  =       445.98581463 eV

  energy without entropy =      445.98584544  energy(sigma->0) =      445.98583004


--------------------------------------------------------------------------------------------------------




--------------------------------------- Iteration      1(   2)  ---------------------------------------


     EDDAV:  cpu time    1.5355: real time    1.5727
       DOS:  cpu time    0.0030: real time    0.0039
    --------------------------------------------
      LOOP:  cpu time    1.5386: real time    1.5787

 eigenvalue-minimisations  :  4152
 total energy-change (2. order) :-0.4008766E+03  (-0.3924110E+03)
 number of electron      37.0000000 magnetization
 augmentation part       37.0000000 magnetization

 Free energy of the ion-electron system (eV)
  ---------------------------------------------------
  alpha Z        PSCENC =       227.49755299
  Ewald energy   TEWEN  =     -3192.95325594
  -Hartree energ DENC   =      -728.87541300
  -exchange      EXHF   =         0.00000000
  -V(xc)+E(xc)   XCENC  =        68.99000820
  PAW double counting   =      3147.30828992    -3070.62761383
  entropy T*S    EENTRO =        -0.00015268
  eigenvalues    EBANDS =       -80.90362985
  atomic energy  EATOM  =      3674.67342263
  Solvation  Ediel_sol  =         0.00000000
  ---------------------------------------------------
  free energy    TOTEN  =        45.10920845 eV

  energy without entropy =       45.10936112  energy(sigma->0) =       45.10928478


--------------------------------------------------------------------------------------------------------




--------------------------------------- Iteration      1(   3)  ---------------------------------------


     EDDAV:  cpu time    1.9168: real time    1.9475
       DOS:  cpu time    0.0029: real time    0.0031
    --------------------------------------------
      LOOP:  cpu time    1.9197: real time    1.9507

 eigenvalue-minimisations  :  5560
 total energy-change (2. order) :-0.6369719E+02  (-0.6295117E+02)
 number of electron      37.0000000 magnetization
 augmentation part       37.0000000 magnetization

 Free energy of the ion-electron system (eV)
  ---------------------------------------------------
  alpha Z        PSCENC =       227.49755299
  Ewald energy   TEWEN  =     -3192.95325594
  -Hartree energ DENC   =      -728.87541300
  -exchange      EXHF   =         0.00000000
  -V(xc)+E(xc)   XCENC  =        68.99000820
  PAW double counting   =      3147.30828992    -3070.62761383
  entropy T*S    EENTRO =        -0.00006909
  eigenvalues    EBANDS =      -144.60089868
  atomic energy  EATOM  =      3674.67342263
  Solvation  Ediel_sol  =         0.00000000
  ---------------------------------------------------
  free energy    TOTEN  =       -18.58797679 eV

  energy without entropy =      -18.58790770  energy(sigma->0) =      -18.58794225


--------------------------------------------------------------------------------------------------------




--------------------------------------- Iteration      1(   4)  ---------------------------------------


     EDDAV:  cpu time    2.3710: real time    2.4012
       DOS:  cpu time    0.0030: real time    0.0033
    --------------------------------------------
      LOOP:  cpu time    2.3740: real time    2.4037

 eigenvalue-minimisations  :  7376
 total energy-change (2. order) :-0.4081818E+01  (-0.4066454E+01)
 number of electron      37.0000000 magnetization
 augmentation part       37.0000000 magnetization

 Free energy of the ion-electron system (eV)
  ---------------------------------------------------
  alpha Z        PSCENC =       227.49755299
  Ewald energy   TEWEN  =     -3192.95325594
  -Hartree energ DENC   =      -728.87541300
  -exchange      EXHF   =         0.00000000
  -V(xc)+E(xc)   XCENC  =        68.99000820
  PAW double counting   =      3147.30828992    -3070.62761383
  entropy T*S    EENTRO =        -0.00026033
  eigenvalues    EBANDS =      -148.68252573
  atomic energy  EATOM  =      3674.67342263
  Solvation  Ediel_sol  =         0.00000000
  ---------------------------------------------------
  free energy    TOTEN  =       -22.66979508 eV

  energy without entropy =      -22.66953475  energy(sigma->0) =      -22.66966492


--------------------------------------------------------------------------------------------------------




--------------------------------------- Iteration      1(   5)  ---------------------------------------


     EDDAV:  cpu time    1.8604: real time    1.8967
       DOS:  cpu time    0.0032: real time    0.0034
    CHARGE:  cpu time    0.3560: real time    0.3564
    MIXING:  cpu time    0.0061: real time    0.0067
    --------------------------------------------
      LOOP:  cpu time    2.2258: real time    2.2657

 eigenvalue-minimisations  :  5456
 total energy-change (2. order) :-0.1006636E+00  (-0.1006262E+00)
 number of electron      37.0000000 magnetization
 augmentation part        5.9627565 magnetization

 Broyden mixing:
  rms(total) = 0.36637E+01    rms(broyden)= 0.36637E+01
  rms(prec ) = 0.39425E+01
  weight for this iteration     100.00

 Free energy of the ion-electron system (eV)
  ---------------------------------------------------
  alpha Z        PSCENC =       227.49755299
  Ewald energy   TEWEN  =     -3192.95325594
  -Hartree energ DENC   =      -728.87541300
  -exchange      EXHF   =         0.00000000
  -V(xc)+E(xc)   XCENC  =        68.99000820
  PAW double counting   =      3147.30828992    -3070.62761383
  entropy T*S    EENTRO =        -0.00025266
  eigenvalues    EBANDS =      -148.78319699
  atomic energy  EATOM  =      3674.67342263
  Solvation  Ediel_sol  =         0.00000000
  ---------------------------------------------------
  free energy    TOTEN  =       -22.77045868 eV

  energy without entropy =      -22.77020602  energy(sigma->0) =      -22.77033235


--------------------------------------------------------------------------------------------------------




--------------------------------------- Iteration      1(   6)  ---------------------------------------


    POTLOK:  cpu time    0.0379: real time    0.1752
    SETDIJ:  cpu time    0.0886: real time    0.0887
     EDDAV:  cpu time    1.7726: real time    1.7729
       DOS:  cpu time    0.0029: real time    0.0031
    CHARGE:  cpu time    0.3245: real time    0.3247
    MIXING:  cpu time    0.0052: real time    0.0055
    --------------------------------------------
      LOOP:  cpu time    2.2318: real time    2.3682

 eigenvalue-minimisations  :  5064
 total energy-change (2. order) : 0.8456339E+00  (-0.1583882E+00)
 number of electron      37.0000000 magnetization
 augmentation part        6.0378566 magnetization

 Broyden mixing:
  rms(total) = 0.22152E+01    rms(broyden)= 0.22152E+01
  rms(prec ) = 0.23154E+01
  weight for this iteration     100.00

 eigenvalues of (default mixing * dielectric matrix)
  average eigenvalue GAMMA=   2.4787
  2.4787

 Free energy of the ion-electron system (eV)
  ---------------------------------------------------
  alpha Z        PSCENC =       227.49755299
  Ewald energy   TEWEN  =     -3192.95325594
  -Hartree energ DENC   =      -713.11270019
  -exchange      EXHF   =         0.00000000
  -V(xc)+E(xc)   XCENC  =        68.52925925
  PAW double counting   =      3512.79310360    -3440.92196722
  entropy T*S    EENTRO =        -0.00016505
  eigenvalues    EBANDS =      -158.43007485
  atomic energy  EATOM  =      3674.67342263
  Solvation  Ediel_sol  =         0.00000000
  ---------------------------------------------------
  free energy    TOTEN  =       -21.92482477 eV

  energy without entropy =      -21.92465972  energy(sigma->0) =      -21.92474224


--------------------------------------------------------------------------------------------------------




--------------------------------------- Iteration      1(   7)  ---------------------------------------


    POTLOK:  cpu time    0.0498: real time    0.0734
    SETDIJ:  cpu time    0.0935: real time    0.0936
     EDDAV:  cpu time    2.0351: real time    2.0355
       DOS:  cpu time    0.0030: real time    0.0037
    CHARGE:  cpu time    0.2976: real time    0.2977
    MIXING:  cpu time    0.0059: real time    0.0060
    --------------------------------------------
      LOOP:  cpu time    2.4849: real time    2.5124

 eigenvalue-minimisations  :  6088
 total energy-change (2. order) : 0.1321942E+00  (-0.2077197E+00)
 number of electron      37.0000000 magnetization
 augmentation part        5.9778617 magnetization

 Broyden mixing:
  rms(total) = 0.62152E+00    rms(broyden)= 0.62152E+00
  rms(prec ) = 0.72775E+00
  weight for this iteration     100.00

 eigenvalues of (default mixing * dielectric matrix)
  average eigenvalue GAMMA=   2.0919
  1.0731  3.1107

 Free energy of the ion-electron system (eV)
  ---------------------------------------------------
  alpha Z        PSCENC =       227.49755299
  Ewald energy   TEWEN  =     -3192.95325594
  -Hartree energ DENC   =      -700.48399696
  -exchange      EXHF   =         0.00000000
  -V(xc)+E(xc)   XCENC  =        68.31843876
  PAW double counting   =      4009.83198657    -3943.37346557
  entropy T*S    EENTRO =        -0.00022059
  eigenvalues    EBANDS =      -165.30309243
  atomic energy  EATOM  =      3674.67342263
  Solvation  Ediel_sol  =         0.00000000
  ---------------------------------------------------
  free energy    TOTEN  =       -21.79263053 eV

  energy without entropy =      -21.79240994  energy(sigma->0) =      -21.79252024


--------------------------------------------------------------------------------------------------------




--------------------------------------- Iteration      1(   8)  ---------------------------------------


    POTLOK:  cpu time    0.0471: real time    0.0737
    SETDIJ:  cpu time    0.0929: real time    0.0930
     EDDAV:  cpu time    1.8351: real time    1.8354
       DOS:  cpu time    0.0027: real time    0.0029
    CHARGE:  cpu time    0.3037: real time    0.3039
    MIXING:  cpu time    0.0054: real time    0.0055
    --------------------------------------------
      LOOP:  cpu time    2.2870: real time    2.3123

 eigenvalue-minimisations  :  5336
 total energy-change (2. order) : 0.4039672E-01  (-0.3271467E-01)
 number of electron      37.0000000 magnetization
 augmentation part        5.9437359 magnetization

 Broyden mixing:
  rms(total) = 0.38267E+00    rms(broyden)= 0.38267E+00
  rms(prec ) = 0.42502E+00
  weight for this iteration     100.00

 eigenvalues of (default mixing * dielectric matrix)
  average eigenvalue GAMMA=   1.9277
  3.5585  1.4959  0.7288

 Free energy of the ion-electron system (eV)
  ---------------------------------------------------
  alpha Z        PSCENC =       227.49755299
  Ewald energy   TEWEN  =     -3192.95325594
  -Hartree energ DENC   =      -700.22101115
  -exchange      EXHF   =         0.00000000
  -V(xc)+E(xc)   XCENC  =        68.31820019
  PAW double counting   =      4056.66078394    -3990.41451713
  entropy T*S    EENTRO =        -0.00024198
  eigenvalues    EBANDS =      -165.31316738
  atomic energy  EATOM  =      3674.67342263
  Solvation  Ediel_sol  =         0.00000000
  ---------------------------------------------------
  free energy    TOTEN  =       -21.75223381 eV

  energy without entropy =      -21.75199184  energy(sigma->0) =      -21.75211282


--------------------------------------------------------------------------------------------------------




--------------------------------------- Iteration      1(   9)  ---------------------------------------


    POTLOK:  cpu time    0.0370: real time    0.0760
    SETDIJ:  cpu time    0.0953: real time    0.0954
     EDDAV:  cpu time    2.0109: real time    2.0111
       DOS:  cpu time    0.0029: real time    0.0034
    CHARGE:  cpu time    0.2978: real time    0.2979
    MIXING:  cpu time    0.0047: real time    0.0048
    --------------------------------------------
      LOOP:  cpu time    2.4486: real time    2.4907

 eigenvalue-minimisations  :  6008
 total energy-change (2. order) : 0.7066095E-02  (-0.1578585E-01)
 number of electron      37.0000000 magnetization
 augmentation part        5.9423558 magnetization

 Broyden mixing:
  rms(total) = 0.32836E+00    rms(broyden)= 0.32836E+00
  rms(prec ) = 0.33880E+00
  weight for this iteration     100.00

 eigenvalues of (default mixing * dielectric matrix)
  average eigenvalue GAMMA=   1.4284
  2.4230  1.2948  1.2948  0.7007

 Free energy of the ion-electron system (eV)
  ---------------------------------------------------
  alpha Z        PSCENC =       227.49755299
  Ewald energy   TEWEN  =     -3192.95325594
  -Hartree energ DENC   =      -702.46453024
  -exchange      EXHF   =         0.00000000
  -V(xc)+E(xc)   XCENC  =        68.34644393
  PAW double counting   =      4131.11474987    -4064.76181544
  entropy T*S    EENTRO =        -0.00026774
  eigenvalues    EBANDS =      -163.19746780
  atomic energy  EATOM  =      3674.67342263
  Solvation  Ediel_sol  =         0.00000000
  ---------------------------------------------------
  free energy    TOTEN  =       -21.74516772 eV

  energy without entropy =      -21.74489998  energy(sigma->0) =      -21.74503385


--------------------------------------------------------------------------------------------------------




--------------------------------------- Iteration      1(  10)  ---------------------------------------


    POTLOK:  cpu time    0.0370: real time    0.0867
    SETDIJ:  cpu time    0.0931: real time    0.0932
     EDDAV:  cpu time    1.7905: real time    1.7918
       DOS:  cpu time    0.0031: real time    0.0033
    CHARGE:  cpu time    0.3043: real time    0.3045
    MIXING:  cpu time    0.0045: real time    0.0062
    --------------------------------------------
      LOOP:  cpu time    2.2324: real time    2.2840

 eigenvalue-minimisations  :  5240
 total energy-change (2. order) : 0.4833617E-02  (-0.2738475E-02)
 number of electron      37.0000000 magnetization
 augmentation part        5.9457905 magnetization

 Broyden mixing:
  rms(total) = 0.68108E-01    rms(broyden)= 0.68108E-01
  rms(prec ) = 0.69931E-01
  weight for this iteration     100.00

 eigenvalues of (default mixing * dielectric matrix)
  average eigenvalue GAMMA=   1.4294
  2.3410  1.6301  1.6301  0.8462  0.6994

 Free energy of the ion-electron system (eV)
  ---------------------------------------------------
  alpha Z        PSCENC =       227.49755299
  Ewald energy   TEWEN  =     -3192.95325594
  -Hartree energ DENC   =      -702.67055049
  -exchange      EXHF   =         0.00000000
  -V(xc)+E(xc)   XCENC  =        68.33740818
  PAW double counting   =      4062.42310636    -3995.65682483
  entropy T*S    EENTRO =        -0.00026020
  eigenvalues    EBANDS =      -163.39093282
  atomic energy  EATOM  =      3674.67342263
  Solvation  Ediel_sol  =         0.00000000
  ---------------------------------------------------
  free energy    TOTEN  =       -21.74033410 eV

  energy without entropy =      -21.74007390  energy(sigma->0) =      -21.74020400


--------------------------------------------------------------------------------------------------------




--------------------------------------- Iteration      1(  11)  ---------------------------------------


    POTLOK:  cpu time    0.0427: real time    0.0713
    SETDIJ:  cpu time    0.0936: real time    0.0938
     EDDAV:  cpu time    1.9620: real time    1.9623
       DOS:  cpu time    0.0031: real time    0.0033
    CHARGE:  cpu time    0.2985: real time    0.2986
    MIXING:  cpu time    0.0046: real time    0.0048
    --------------------------------------------
      LOOP:  cpu time    2.4045: real time    2.4335

 eigenvalue-minimisations  :  5808
 total energy-change (2. order) :-0.1510178E-03  (-0.1641769E-03)
 number of electron      37.0000000 magnetization
 augmentation part        5.9462021 magnetization

 Broyden mixing:
  rms(total) = 0.42830E-01    rms(broyden)= 0.42830E-01
  rms(prec ) = 0.45243E-01
  weight for this iteration     100.00

 eigenvalues of (default mixing * dielectric matrix)
  average eigenvalue GAMMA=   1.3896
  2.5820  1.9784  1.2775  0.6688  0.9156  0.9156

 Free energy of the ion-electron system (eV)
  ---------------------------------------------------
  alpha Z        PSCENC =       227.49755299
  Ewald energy   TEWEN  =     -3192.95325594
  -Hartree energ DENC   =      -702.76141389
  -exchange      EXHF   =         0.00000000
  -V(xc)+E(xc)   XCENC  =        68.33051371
  PAW double counting   =      4071.63226894    -4004.82181685
  entropy T*S    EENTRO =        -0.00026148
  eigenvalues    EBANDS =      -163.33749525
  atomic energy  EATOM  =      3674.67342263
  Solvation  Ediel_sol  =         0.00000000
  ---------------------------------------------------
  free energy    TOTEN  =       -21.74048512 eV

  energy without entropy =      -21.74022364  energy(sigma->0) =      -21.74035438


--------------------------------------------------------------------------------------------------------




--------------------------------------- Iteration      1(  12)  ---------------------------------------


    POTLOK:  cpu time    0.0572: real time    0.0852
    SETDIJ:  cpu time    0.0946: real time    0.0947
     EDDAV:  cpu time    1.9763: real time    1.9766
       DOS:  cpu time    0.0030: real time    0.0032
    CHARGE:  cpu time    0.3042: real time    0.3043
    MIXING:  cpu time    0.0057: real time    0.0058
    --------------------------------------------
      LOOP:  cpu time    2.4411: real time    2.4690

 eigenvalue-minimisations  :  5680
 total energy-change (2. order) : 0.7410372E-04  (-0.3314891E-04)
 number of electron      37.0000000 magnetization
 augmentation part        5.9468807 magnetization

 Broyden mixing:
  rms(total) = 0.11946E-01    rms(broyden)= 0.11946E-01
  rms(prec ) = 0.12760E-01
  weight for this iteration     100.00

 eigenvalues of (default mixing * dielectric matrix)
  average eigenvalue GAMMA=   1.4398
  2.5640  2.2747  1.3384  0.6773  1.1345  1.0448  1.0448

 Free energy of the ion-electron system (eV)
  ---------------------------------------------------
  alpha Z        PSCENC =       227.49755299
  Ewald energy   TEWEN  =     -3192.95325594
  -Hartree energ DENC   =      -702.75562260
  -exchange      EXHF   =         0.00000000
  -V(xc)+E(xc)   XCENC  =        68.32831242
  PAW double counting   =      4075.81230714    -4008.97843177
  entropy T*S    EENTRO =        -0.00026218
  eigenvalues    EBANDS =      -163.36443372
  atomic energy  EATOM  =      3674.67342263
  Solvation  Ediel_sol  =         0.00000000
  ---------------------------------------------------
  free energy    TOTEN  =       -21.74041102 eV

  energy without entropy =      -21.74014883  energy(sigma->0) =      -21.74027992


--------------------------------------------------------------------------------------------------------




--------------------------------------- Iteration      1(  13)  ---------------------------------------


    POTLOK:  cpu time    0.0350: real time    0.1136
    SETDIJ:  cpu time    0.0945: real time    0.0948
     EDDAV:  cpu time    2.1055: real time    2.1058
       DOS:  cpu time    0.0031: real time    0.0032
    CHARGE:  cpu time    0.2969: real time    0.2970
    MIXING:  cpu time    0.0053: real time    0.0054
    --------------------------------------------
      LOOP:  cpu time    2.5402: real time    2.6206

 eigenvalue-minimisations  :  6416
 total energy-change (2. order) : 0.1453745E-06  (-0.9760783E-05)
 number of electron      37.0000000 magnetization
 augmentation part        5.9478879 magnetization

 Broyden mixing:
  rms(total) = 0.34379E-02    rms(broyden)= 0.34379E-02
  rms(prec ) = 0.37459E-02
  weight for this iteration     100.00

 eigenvalues of (default mixing * dielectric matrix)
  average eigenvalue GAMMA=   1.3977
  2.6213  2.0309  1.5485  1.4225  0.6812  0.9247  0.9761  0.9761

 Free energy of the ion-electron system (eV)
  ---------------------------------------------------
  alpha Z        PSCENC =       227.49755299
  Ewald energy   TEWEN  =     -3192.95325594
  -Hartree energ DENC   =      -702.75218693
  -exchange      EXHF   =         0.00000000
  -V(xc)+E(xc)   XCENC  =        68.32576525
  PAW double counting   =      4077.66866956    -4010.80049865
  entropy T*S    EENTRO =        -0.00026206
  eigenvalues    EBANDS =      -163.39961772
  atomic energy  EATOM  =      3674.67342263
  Solvation  Ediel_sol  =         0.00000000
  ---------------------------------------------------
  free energy    TOTEN  =       -21.74041087 eV

  energy without entropy =      -21.74014881  energy(sigma->0) =      -21.74027984


--------------------------------------------------------------------------------------------------------




--------------------------------------- Iteration      1(  14)  ---------------------------------------


    POTLOK:  cpu time    0.0460: real time    0.0642
    SETDIJ:  cpu time    0.0961: real time    0.0962
     EDDAV:  cpu time    1.7872: real time    1.7875
       DOS:  cpu time    0.0033: real time    0.0035
    CHARGE:  cpu time    0.3051: real time    0.3052
    MIXING:  cpu time    0.0051: real time    0.0052
    --------------------------------------------
      LOOP:  cpu time    2.2429: real time    2.2656

 eigenvalue-minimisations  :  5168
 total energy-change (2. order) : 0.6914829E-06  (-0.5075710E-06)
 number of electron      37.0000000 magnetization
 augmentation part        5.9480589 magnetization

 Broyden mixing:
  rms(total) = 0.21475E-02    rms(broyden)= 0.21475E-02
  rms(prec ) = 0.22639E-02
  weight for this iteration     100.00

 eigenvalues of (default mixing * dielectric matrix)
  average eigenvalue GAMMA=   1.4687
  2.6162  1.9595  1.9018  1.9018  0.6792  1.0733  1.0733  1.0065  1.0065

 Free energy of the ion-electron system (eV)
  ---------------------------------------------------
  alpha Z        PSCENC =       227.49755299
  Ewald energy   TEWEN  =     -3192.95325594
  -Hartree energ DENC   =      -702.75031718
  -exchange      EXHF   =         0.00000000
  -V(xc)+E(xc)   XCENC  =        68.32600984
  PAW double counting   =      4077.55000445    -4010.68252561
  entropy T*S    EENTRO =        -0.00026193
  eigenvalues    EBANDS =      -163.40103945
  atomic energy  EATOM  =      3674.67342263
  Solvation  Ediel_sol  =         0.00000000
  ---------------------------------------------------
  free energy    TOTEN  =       -21.74041018 eV

  energy without entropy =      -21.74014825  energy(sigma->0) =      -21.74027922


--------------------------------------------------------------------------------------------------------




--------------------------------------- Iteration      1(  15)  ---------------------------------------


    POTLOK:  cpu time    0.0362: real time    0.0704
    SETDIJ:  cpu time    0.0959: real time    0.0960
     EDDAV:  cpu time    2.1322: real time    2.1325
       DOS:  cpu time    0.0030: real time    0.0034
    CHARGE:  cpu time    0.2987: real time    0.2989
    MIXING:  cpu time    0.0055: real time    0.0056
    --------------------------------------------
      LOOP:  cpu time    2.5715: real time    2.6029

 eigenvalue-minimisations  :  6424
 total energy-change (2. order) : 0.2764286E-06  (-0.1098686E-06)
 number of electron      37.0000000 magnetization
 augmentation part        5.9479129 magnetization

 Broyden mixing:
  rms(total) = 0.15929E-03    rms(broyden)= 0.15910E-03
  rms(prec ) = 0.19404E-03
  weight for this iteration     100.00

 eigenvalues of (default mixing * dielectric matrix)
  average eigenvalue GAMMA=   1.4366
  2.6438  2.3254  2.1289  1.4824  1.0606  1.0606  0.6791  0.9353  0.9353  1.1147

 Free energy of the ion-electron system (eV)
  ---------------------------------------------------
  alpha Z        PSCENC =       227.49755299
  Ewald energy   TEWEN  =     -3192.95325594
  -Hartree energ DENC   =      -702.75184598
  -exchange      EXHF   =         0.00000000
  -V(xc)+E(xc)   XCENC  =        68.32633835
  PAW double counting   =      4077.36165442    -4010.49382349
  entropy T*S    EENTRO =        -0.00026184
  eigenvalues    EBANDS =      -163.40019105
  atomic energy  EATOM  =      3674.67342263
  Solvation  Ediel_sol  =         0.00000000
  ---------------------------------------------------
  free energy    TOTEN  =       -21.74040990 eV

  energy without entropy =      -21.74014806  energy(sigma->0) =      -21.74027898


--------------------------------------------------------------------------------------------------------




--------------------------------------- Iteration      1(  16)  ---------------------------------------


    POTLOK:  cpu time    0.0381: real time    0.0738
    SETDIJ:  cpu time    0.0963: real time    0.0964
     EDDAV:  cpu time    1.3612: real time    1.3652
       DOS:  cpu time    0.0030: real time    0.0032
    --------------------------------------------
      LOOP:  cpu time    1.4986: real time    1.5367

 eigenvalue-minimisations  :  3368
 total energy-change (2. order) : 0.1927538E-07  (-0.7568548E-08)
 number of electron      37.0000000 magnetization
 augmentation part        5.9479129 magnetization

 Free energy of the ion-electron system (eV)
  ---------------------------------------------------
  alpha Z        PSCENC =       227.49755299
  Ewald energy   TEWEN  =     -3192.95325594
  -Hartree energ DENC   =      -702.75164401
  -exchange      EXHF   =         0.00000000
  -V(xc)+E(xc)   XCENC  =        68.32633018
  PAW double counting   =      4077.35275977    -4010.48475666
  entropy T*S    EENTRO =        -0.00026182
  eigenvalues    EBANDS =      -163.40055703
  atomic energy  EATOM  =      3674.67342263
  Solvation  Ediel_sol  =         0.00000000
  ---------------------------------------------------
  free energy    TOTEN  =       -21.74040988 eV

  energy without entropy =      -21.74014806  energy(sigma->0) =      -21.74027897


--------------------------------------------------------------------------------------------------------




 average (electrostatic) potential at core
  the test charge radii are     1.1985  1.0856  1.2059
  (the norm of the test charge is              1.0000)
       1 -56.1715       2-101.6703       3 -65.2225



 E-fermi :   9.2643     XC(G=0): -11.3418     alpha+bet :-14.8963


 k-point     1 :       0.0000    0.0000    0.0000
  band No.  band energies     occupation
      1     -30.6335      2.00000
      2     -13.8372      2.00000
      3     -13.8372      2.00000
      4     -13.7993      2.00000
      5     -13.7993      2.00000
      6     -13.7993      2.00000
      7      -8.7193      2.00000
      8      -8.7193      2.00000
      9      -8.7193      2.00000
     10      -3.3355      2.00000
     11       4.6923      2.00000
     12       4.6923      2.00000
     13       4.6923      2.00000
     14       4.8432      2.00000
     15       4.8432      2.00000
     16       7.6074      2.00000
     17       8.0582      2.00000
     18       8.0582      2.00000
     19       8.0582      2.00000
     20       9.4724      0.00000
     21       9.4724      0.00000
     22       9.4724      0.00000
     23      10.3614      0.00000
     24      11.4288      0.00000

 k-point     2 :       0.0769   -0.0000   -0.0000
  band No.  band energies     occupation
      1     -30.6331      2.00000
      2     -13.8382      2.00000
      3     -13.8382      2.00000
      4     -13.7995      2.00000
      5     -13.7991      2.00000
      6     -13.7991      2.00000
      7      -8.7423      2.00000
      8      -8.7161      2.00000
      9      -8.7161      2.00000
     10      -3.2613      2.00000
     11       4.5264      2.00000
     12       4.5264      2.00000
     13       4.5596      2.00000
     14       4.9996      2.00000
     15       4.9996      2.00000
     16       7.0999      2.00000
     17       7.9737      2.00000
     18       7.9737      2.00000
     19       8.4120      2.00000
     20       9.5746      0.00000
     21       9.5746      0.00000
     22       9.5955      0.00000
     23      10.6139      0.00000
     24      11.4354      0.00000

 k-point     3 :       0.1538    0.0000   -0.0000
  band No.  band energies     occupation
      1     -30.6318      2.00000
      2     -13.8409      2.00000
      3     -13.8409      2.00000
      4     -13.8001      2.00000
      5     -13.7985      2.00000
      6     -13.7985      2.00000
      7      -8.8030      2.00000
      8      -8.7075      2.00000
      9      -8.7075      2.00000
     10      -3.0570      2.00000
     11       4.2181      2.00000
     12       4.3315      2.00000
     13       4.3315      2.00000
     14       5.1538      2.00000
     15       5.1538      2.00000
     16       6.4714      2.00000
     17       7.8019      2.00000
     18       7.8019      2.00000
     19       8.5738      2.00000
     20       9.8167      0.00000
     21       9.8167      0.00000
     22      10.1424      0.00000
     23      11.0766      0.00000
     24      11.4452      0.00000

 k-point     4 :       0.2308    0.0000   -0.0000
  band No.  band energies     occupation
      1     -30.6299      2.00000
      2     -13.8448      2.00000
      3     -13.8448      2.00000
      4     -13.8012      2.00000
      5     -13.7977      2.00000
      6     -13.7977      2.00000
      7      -8.8819      2.00000
      8      -8.6954      2.00000
      9      -8.6954      2.00000
     10      -2.7712      2.00000
     11       3.7881      2.00000
     12       4.1853      2.00000
     13       4.1853      2.00000
     14       5.2058      2.00000
     15       5.2058      2.00000
     16       5.9568      2.00000
     17       7.6615      2.00000
     18       7.6615      2.00000
     19       8.6310      2.00000
     20      10.1106      0.00000
     21      10.1106      0.00000
     22      10.8360      0.00000
     23      11.4324      0.00000
     24      11.4343      0.00000

 k-point     5 :       0.3077    0.0000   -0.0000
  band No.  band energies     occupation
      1     -30.6280      2.00000
      2     -13.8489      2.00000
      3     -13.8489      2.00000
      4     -13.8024      2.00000
      5     -13.7969      2.00000
      6     -13.7969      2.00000
      7      -8.9579      2.00000
      8      -8.6826      2.00000
      9      -8.6826      2.00000
     10      -2.4699      2.00000
     11       3.3829      2.00000
[...]
  212              fftbas_plan_mpi                       0.081253                     12   6
  213                dfftw_execute                         0.036144                   36   7
  214                map_backward                          0.004606                   12   7
  215                  map_gather                            0.001296                  6   8
  216                  m_alltoallv_z                         0.001918                  6   8
  217                  map_scatter                           0.001101                  6   8
  218                map_forward                           0.037219                   12   7
  219                  map_gather                            0.019405                  6   8
  220                  m_alltoallv_z                         0.006299                  6   8
  221                  map_scatter                           0.011204                  6   8
  222            M_sumb_d                              0.011834                        6   5
  223          M_sumb_d                              0.000028                          1   4
  224        setdij_                               1.594478                           20   3
  225          fft3d_mpi                             0.291725                         40   4
  226            fftbas_plan_mpi                       0.266796                       40   5
  227              dfftw_execute                         0.120433                    120   6
  228              map_backward                          0.014776                     40   6
  229                map_gather                            0.004453                   20   7
  230                m_alltoallv_z                         0.005599                   20   7
  231                map_scatter                           0.003748                   20   7
  232              map_forward                           0.121315                     40   6
  233                map_gather                            0.060353                   20   7
  234                m_alltoallv_z                         0.021399                   20   7
  235                map_scatter                           0.038568                   20   7
  236          M_sumb_d                              0.032196                         20   4
  237        set_dd_magatom                        0.000004                            1   3
  238        set_dd_paw                            0.006429                            1   3
  239          set_rsgf_all                          0.000003                          1   4
  240          M_sumb_d                              0.006265                          8   4
  241        strkin                                0.001141                            1   3
  242          M_sumb_d                              0.000513                          1   4
  243        strelo                                0.003172                            1   3
  244          M_sumb_d                              0.000298                          2   4
  245        strenl                                1.107969                            1   3
  246          spher                                 0.824795                         19   4
  247          phase                                 0.012978                        189   4
  248          proj1                                 0.246172                       1134   4
  249            crexp_mul_wave                        0.033008                     3402   5
  250            M_sumb_d                              0.069444                     1134   5
  251          M_sumb_d                              0.001162                          1   4
  252        M_sumb_d                              0.000256                            6   3
  253        fft3d_mpi                             0.017708                           11   3
  254          fftbas_plan_mpi                       0.016402                         11   4
  255            dfftw_execute                         0.006190                       33   5
  256            map_forward                           0.003619                       10   5
  257              map_gather                            0.000645                      5   6
  258              m_alltoallv_z                         0.001632                      5   6
  259              map_scatter                           0.001111                      5   6
  260            map_backward                          0.004280                       12   5
  261              map_gather                            0.001167                      6   6
  262              m_alltoallv_z                         0.001769                      6   6
  263              map_scatter                           0.001058                      6   6
  264        ggaall_grid                           0.001980                            1   3
  265        forhar                                0.007421                            2   3
  266          M_sumb_d                              0.000103                          2   4
  267        strehar                               0.003101                            1   3
  268          M_sumb_d                              0.000140                          1   4
  269        chggra                                0.007324                            1   3
  270          fft3d_mpi                             0.004720                          3   4
  271            fftbas_plan_mpi                       0.004364                        3   5
  272              dfftw_execute                         0.001722                      9   6
  273              map_backward                          0.000681                      2   6
  274                map_gather                            0.000198                    1   7
  275                m_alltoallv_z                         0.000250                    1   7
  276                map_scatter                           0.000180                    1   7
  277              map_forward                           0.001293                      4   6
  278                map_gather                            0.000273                    2   7
  279                m_alltoallv_z                         0.000527                    2   7
  280                map_scatter                           0.000397                    2   7
  281          M_sumb_d                              0.000123                          3   4
  282        brmix                                 0.005775                            1   3
  283          M_sumb_d                              0.000284                          6   4
  284          brpre                                 0.000049                          1   4
  285          setg0                                 0.001767                          1   4
  286          broyd                                 0.002400                          1   4
  287            M_sumb_d                              0.000552                       18   5
  288            brget                                 0.000350                       64   5
  289            brsav                                 0.000081                       16   5
  290          M_bcast_z                             0.000167                          1   4
  291          M_bcast_d                             0.000067                          1   4
  292        M_bcast_d                             0.000280                            2   3
  293      potlok                                0.031541                              1   2
  294        fft3d_mpi                             0.021319                           13   3
  295          fftbas_plan_mpi                       0.019515                         13   4
  296            dfftw_execute                         0.007443                       39   5
  297            map_forward                           0.004559                       14   5
  298              map_gather                            0.000879                      8   6
  299              m_alltoallv_z                         0.001831                      8   6
  300              map_scatter                           0.001489                      8   6
  301            map_backward                          0.004763                       12   5
  302              map_gather                            0.001780                      6   6
  303              m_alltoallv_z                         0.001539                      6   6
  304              map_scatter                           0.001149                      6   6
  305        ggaall_grid                           0.001991                            1   3
  306        M_sumb_d                              0.000231                            6   3
  307        M_bcast_d                             0.000108                            1   3
  308      potlok_metagga                        0.000003                              1   2
  309      set_dd_magatom                        0.000004                              1   2
  310      set_dd_paw                            0.000480                              1   2
  311        set_rsgf_all                          0.000004                            1   3
  312        M_sumb_d                              0.000287                            8   3
  313      densta                                0.002406                              1   2
  314        M_sumb_d                              0.000901                           41   3
  315      lprj_proall                           0.000008                              1   2

 Flat profile
 ============

             routine name                   CPU           calls
 ---------------------------------------------------------------
 total_time                             19.036660           1
 dfftw_execute                           5.976118       49428
 eddav                                   5.091021          16
 fftbas_plan_mpi                         3.601292       16478
 M_sumb_d                                2.701411       45892
 setdij_                                 2.638518          40
 set_charge                              2.242200          12
 m_alltoallv_z                           1.686146       16501
 elmin                                   1.513937           1
 pdssyex_zheevx                          1.508384         336
 M_alltoall_d                            1.186717       54894
 spher                                   0.958738          20
 proj1                                   0.952451        6708
 orth1                                   0.915618       11217
 vhamil                                  0.895539        7464
 gemm                                    0.858773       22392
 fftwav_mpi                              0.738015        8724
 map_forward                             0.728208       17726
 map_gather                              0.671387       16501
 map_scatter                             0.666603       16501
 M_bcast_z                               0.551403        6283
 vnlac0                                  0.500587        7464
 redis_pw                                0.460056       21090
 hamiltmu                                0.411702        3732
 redis_proj                              0.405865       26559
 w1_copy                                 0.324972       22392
 fft3d_mpi                               0.283530       16476
 map_backward                            0.266253       15226
 work_mul_crexp                          0.264694       22392
 fftext_mpi                              0.247686        7464
 eccp                                    0.206917        2016
 crexp_mul_wave                          0.206621       20124
 kinhamil                                0.154742        7464
 overl                                   0.147107       12933
 M_bcast_d                               0.122185        3764
 potlok                                  0.103885          13
 pw_charge                               0.096455        1260
 overl1                                  0.090413        7464
 apply_precond                           0.077070        5448
 setup_precond                           0.069310        2016
 force_and_stress                        0.066677           1
 lincom                                  0.063786         357
 crpa_reader                             0.062969           1
 w1_projall                              0.059995        2724
 fornl                                   0.048659           1
 phase                                   0.038916         568
 soft_charge                             0.032914          12
 truncate_high_frequency_w1              0.032266        9480
 ggaall_grid                             0.028266          14
 densta                                  0.025329          17
 strenl                                  0.022862           1
 setg0                                   0.017253          13
 brmix                                   0.016213          12
 broyd                                   0.009245          12
 forhar                                  0.007318           2
 depsum                                  0.005283          12
 forloc                                  0.003515           1
 strehar                                 0.002961           1
 strelo                                  0.002874           1
 set_dd_paw                              0.002520          14
 chggra                                  0.002481           1
 brget                                   0.002301         432
 orthch                                  0.002108           1
 choleski                                0.001826          21
 proj                                    0.001543          21
 brsav                                   0.001271         128
 brgrid                                  0.001115           1
 brpre                                   0.000931          12
 strkin                                  0.000628           1
 fordep                                  0.000133           1
 vectorpot                               0.000078          13
 set_rsgf_all                            0.000061          14
 potlok_metagga                          0.000054          13
 set_dd_magatom                          0.000051          14
 set_kineden                             0.000041          11
 rotate_active_occupied_orbital          0.000015           1
 lprj_proall                             0.000008           1
 redis_pw_over_bands                     0.000003           1
 ---------------------------------------------------------------
  summed up times    60.1236579418182

 Accumulative profile
 ====================

             routine name                   CPU           calls
 ---------------------------------------------------------------
 total_time                             60.123658           1
 elmin                                  36.456425           1
 eddav                                  29.965191          16
 fft3d_mpi                              13.847157       16476
 fftbas_plan_mpi                        13.596007       16478
 hamiltmu                                9.506064        3732
 fftwav_mpi                              7.856985        8724
 kinhamil                                6.023487        7464
 dfftw_execute                           5.976118       49428
 fftext_mpi                              5.868745        7464
 set_charge                              3.684972          12
 force_and_stress                        3.681651           1
 setdij_                                 3.320654          40
 M_sumb_d                                2.701411       45892
 map_forward                             2.478374       17726
 vnlac0                                  2.084923        7464
 m_alltoallv_z                           1.686146       16501
 proj1                                   1.613219        6708
 map_backward                            1.540223       15226
 pdssyex_zheevx                          1.508384         336
 w1_projall                              1.400087        2724
 soft_charge                             1.230971          12
 M_alltoall_d                            1.186717       54894
 redis_pw                                1.124005       21090
 strenl                                  1.107969           1
 spher                                   0.958738          20
 redis_proj                              0.928634       26559
 orth1                                   0.915618       11217
 vhamil                                  0.895539        7464
 gemm                                    0.858773       22392
 map_gather                              0.671387       16501
 map_scatter                             0.666603       16501
 M_bcast_z                               0.551403        6283
 fordep                                  0.487222           1
 potlok                                  0.403699          13
 w1_copy                                 0.324972       22392
 eccp                                    0.321502        2016
 work_mul_crexp                          0.264694       22392
 crexp_mul_wave                          0.206621       20124
 overl                                   0.147107       12933
 set_dd_paw                              0.142321          14
 M_bcast_d                               0.122185        3764
 setup_precond                           0.119054        2016
 pw_charge                               0.096455        1260
 overl1                                  0.090413        7464
 apply_precond                           0.077070        5448
 fornl                                   0.064908           1
 lincom                                  0.063786         357
 crpa_reader                             0.062969           1
 brmix                                   0.061917          12
 densta                                  0.039028          17
 phase                                   0.038916         568
 orthch                                  0.032689           1
 truncate_high_frequency_w1              0.032266        9480
 proj                                    0.028498          21
 ggaall_grid                             0.028266          14
 broyd                                   0.017306          12
 setg0                                   0.017253          13
 depsum                                  0.009353          12
 forhar                                  0.007421           2
 chggra                                  0.007324           1
 forloc                                  0.003587           1
 strelo                                  0.003172           1
 strehar                                 0.003101           1
 brget                                   0.002301         432
 choleski                                0.001826          21
 brsav                                   0.001271         128
 strkin                                  0.001141           1
 brgrid                                  0.001115           1
 brpre                                   0.000931          12
 vectorpot                               0.000078          13
 set_rsgf_all                            0.000061          14
 potlok_metagga                          0.000054          13
 set_dd_magatom                          0.000051          14
 set_kineden                             0.000041          11
 rotate_active_occupied_orbital          0.000015           1
 lprj_proall                             0.000008           1
 redis_pw_over_bands                     0.000003           1
 ---------------------------------------------------------------

Profiling took   1.304374  1.564217  0.005845  0.004371 seconds
Profiling took   1.279583 seconds
