<?xml version="1.0" encoding="ISO-8859-1"?>
<modeling>
 <generator>
  <i name="program" type="string">vasp </i>
  <i name="version" type="string">6.0.8  </i>
  <i name="subversion" type="string">29Jun18 (build Jun 13 2019 12:54:44) complex                          parallel </i>
  <i name="platform" type="string">IFC18_CrayMPICH </i>
  <i name="date" type="string">2021 12 05 </i>
  <i name="time" type="string">13:55:56 </i>
 </generator>
 <incar>
  <i type="int" name="KPAR">     4</i>
  <i type="int" name="NPAR">     4</i>
  <i type="int" name="ISTART">     0</i>
  <i type="string" name="PREC"> ACC</i>
  <i type="string" name="ALGO"> Normal</i>
  <i type="logical" name="ADDGRID"> T  </i>
  <i type="int" name="ISPIN">     1</i>
  <i type="int" name="NELMIN">     5</i>
  <i type="int" name="IBRION">    -1</i>
  <i name="EDIFF">      0.00000010</i>
  <i type="int" name="NSW">     0</i>
  <i type="int" name="ISIF">     3</i>
  <i name="ENCUT">    700.00000000</i>
  <i type="logical" name="LREAL"> F  </i>
  <i type="int" name="ISMEAR">     0</i>
  <i name="SIGMA">      0.01000000</i>
  <i type="logical" name="LWAVE"> F  </i>
  <i type="logical" name="LCHARG"> F  </i>
  <i type="logical" name="LVTOT"> F  </i>
  <i type="string" name="ALGO"> Normal</i>
  <i type="string" name="GGA"> PS</i>
  <i name="EDIFF">      0.00000010</i>
  <i type="int" name="ISPIN">     1</i>
 </incar>
 <structure name="primitive_cell" >
  <crystal>
   <varray name="basis" >
    <v>       0.00000000       3.35494430       3.35494430 </v>
    <v>       3.35494430       0.00000000       3.35494430 </v>
    <v>       3.35494430       3.35494430       0.00000000 </v>
   </varray>
   <i name="volume">     75.52416610 </i>
   <varray name="rec_basis" >
    <v>      -0.14903377       0.14903377       0.14903377 </v>
    <v>       0.14903377      -0.14903377       0.14903377 </v>
    <v>       0.14903377       0.14903377      -0.14903377 </v>
   </varray>
  </crystal>
  <varray name="positions" >
   <v>       0.25000000       0.25000000       0.25000000 </v>
   <v>       0.75000000       0.75000000       0.75000000 </v>
   <v>       0.00000000       0.00000000       0.00000000 </v>
  </varray>
 </structure>
 <varray name="primitive_index" >
  <v type="int" >        1 </v>
  <v type="int" >        2 </v>
  <v type="int" >        3 </v>
 </varray>
 <kpoints>
  <generation param="Gamma">
   <v type="int" name="divisions">      13       13       13 </v>
   <v name="usershift">      0.00000000       0.00000000       0.00000000 </v>
   <v name="genvec1">      0.07692308      -0.00000000       0.00000000 </v>
   <v name="genvec2">     -0.00000000       0.07692308      -0.00000000 </v>
   <v name="genvec3">      0.00000000       0.00000000       0.07692308 </v>
   <v name="shift">      0.00000000       0.00000000       0.00000000 </v>
  </generation>
  <varray name="kpointlist" >
   <v>       0.00000000       0.00000000       0.00000000 </v>
   <v>       0.07692308      -0.00000000      -0.00000000 </v>
   <v>       0.15384615       0.00000000      -0.00000000 </v>
   <v>       0.23076923       0.00000000      -0.00000000 </v>
   <v>       0.30769231       0.00000000      -0.00000000 </v>
   <v>       0.38461538      -0.00000000      -0.00000000 </v>
   <v>       0.46153846       0.00000000      -0.00000000 </v>
   <v>       0.07692308       0.07692308      -0.00000000 </v>
   <v>       0.15384615       0.07692308      -0.00000000 </v>
   <v>       0.23076923       0.07692308      -0.00000000 </v>
   <v>       0.30769231       0.07692308      -0.00000000 </v>
   <v>       0.38461538       0.07692308      -0.00000000 </v>
   <v>       0.46153846       0.07692308      -0.00000000 </v>
   <v>      -0.46153846       0.07692308       0.00000000 </v>
   <v>      -0.38461538       0.07692308       0.00000000 </v>
   <v>      -0.30769231       0.07692308      -0.00000000 </v>
   <v>      -0.23076923       0.07692308      -0.00000000 </v>
   <v>      -0.15384615       0.07692308       0.00000000 </v>
   <v>      -0.07692308       0.07692308      -0.00000000 </v>
   <v>       0.15384615       0.15384615      -0.00000000 </v>
   <v>       0.23076923       0.15384615       0.00000000 </v>
   <v>       0.30769231       0.15384615      -0.00000000 </v>
   <v>       0.38461538       0.15384615      -0.00000000 </v>
   <v>       0.46153846       0.15384615      -0.00000000 </v>
   <v>      -0.46153846       0.15384615       0.00000000 </v>
   <v>      -0.38461538       0.15384615       0.00000000 </v>
   <v>      -0.30769231       0.15384615      -0.00000000 </v>
   <v>      -0.23076923       0.15384615      -0.00000000 </v>
   <v>      -0.15384615       0.15384615       0.00000000 </v>
   <v>       0.23076923       0.23076923      -0.00000000 </v>
   <v>       0.30769231       0.23076923      -0.00000000 </v>
   <v>       0.38461538       0.23076923      -0.00000000 </v>
   <v>       0.46153846       0.23076923      -0.00000000 </v>
   <v>      -0.46153846       0.23076923       0.00000000 </v>
   <v>      -0.38461538       0.23076923      -0.00000000 </v>
   <v>      -0.30769231       0.23076923       0.00000000 </v>
   <v>      -0.23076923       0.23076923       0.00000000 </v>
   <v>       0.30769231       0.30769231      -0.00000000 </v>
   <v>       0.38461538       0.30769231      -0.00000000 </v>
   <v>       0.46153846       0.30769231      -0.00000000 </v>
   <v>      -0.46153846       0.30769231       0.00000000 </v>
   <v>      -0.38461538       0.30769231       0.00000000 </v>
   <v>      -0.30769231       0.30769231       0.00000000 </v>
   <v>       0.38461538       0.38461538      -0.00000000 </v>
   <v>       0.46153846       0.38461538      -0.00000000 </v>
   <v>      -0.46153846       0.38461538      -0.00000000 </v>
   <v>      -0.38461538       0.38461538      -0.00000000 </v>
   <v>       0.46153846       0.46153846      -0.00000000 </v>
   <v>      -0.46153846       0.46153846       0.00000000 </v>
   <v>       0.23076923       0.15384615       0.07692308 </v>
   <v>       0.30769231       0.15384615       0.07692308 </v>
   <v>       0.38461538       0.15384615       0.07692308 </v>
   <v>       0.46153846       0.15384615       0.07692308 </v>
   <v>      -0.46153846       0.15384615       0.07692308 </v>
   <v>       0.30769231       0.23076923       0.07692308 </v>
   <v>       0.38461538       0.23076923       0.07692308 </v>
   <v>       0.46153846       0.23076923       0.07692308 </v>
   <v>      -0.46153846       0.23076923       0.07692308 </v>
   <v>      -0.38461538       0.23076923       0.07692308 </v>
   <v>      -0.30769231       0.23076923       0.07692308 </v>
   <v>      -0.23076923       0.23076923       0.07692308 </v>
   <v>      -0.15384615       0.23076923       0.07692308 </v>
   <v>       0.38461538       0.30769231       0.07692308 </v>
   <v>       0.46153846       0.30769231       0.07692308 </v>
   <v>      -0.46153846       0.30769231       0.07692308 </v>
   <v>      -0.38461538       0.30769231       0.07692308 </v>
   <v>      -0.30769231       0.30769231       0.07692308 </v>
   <v>      -0.23076923       0.30769231       0.07692308 </v>
   <v>       0.46153846       0.38461538       0.07692308 </v>
   <v>      -0.46153846       0.38461538       0.07692308 </v>
   <v>      -0.38461538       0.38461538       0.07692308 </v>
   <v>      -0.30769231       0.38461538       0.07692308 </v>
   <v>      -0.46153846       0.46153846       0.07692308 </v>
   <v>      -0.38461538       0.46153846       0.07692308 </v>
   <v>       0.46153846       0.30769231       0.15384615 </v>
   <v>      -0.46153846       0.30769231       0.15384615 </v>
   <v>      -0.38461538       0.30769231       0.15384615 </v>
   <v>      -0.46153846       0.38461538       0.15384615 </v>
   <v>      -0.38461538       0.38461538       0.15384615 </v>
   <v>      -0.30769231       0.38461538       0.15384615 </v>
   <v>      -0.23076923       0.38461538       0.15384615 </v>
   <v>      -0.38461538       0.46153846       0.15384615 </v>
   <v>      -0.30769231       0.46153846       0.15384615 </v>
   <v>      -0.30769231       0.46153846       0.23076923 </v>
  </varray>
  <varray name="weights" >
   <v>       0.00045517 </v>
   <v>       0.00364133 </v>
   <v>       0.00364133 </v>
   <v>       0.00364133 </v>
   <v>       0.00364133 </v>
   <v>       0.00364133 </v>
   <v>       0.00364133 </v>
   <v>       0.00273100 </v>
   <v>       0.01092399 </v>
   <v>       0.01092399 </v>
   <v>       0.01092399 </v>
   <v>       0.01092399 </v>
   <v>       0.01092399 </v>
   <v>       0.01092399 </v>
   <v>       0.01092399 </v>
   <v>       0.01092399 </v>
   <v>       0.01092399 </v>
   <v>       0.01092399 </v>
   <v>       0.00546199 </v>
   <v>       0.00273100 </v>
   <v>       0.01092399 </v>
   <v>       0.01092399 </v>
   <v>       0.01092399 </v>
   <v>       0.01092399 </v>
   <v>       0.01092399 </v>
   <v>       0.01092399 </v>
   <v>       0.01092399 </v>
   <v>       0.01092399 </v>
   <v>       0.00546199 </v>
   <v>       0.00273100 </v>
   <v>       0.01092399 </v>
   <v>       0.01092399 </v>
   <v>       0.01092399 </v>
   <v>       0.01092399 </v>
   <v>       0.01092399 </v>
   <v>       0.01092399 </v>
   <v>       0.00546199 </v>
   <v>       0.00273100 </v>
   <v>       0.01092399 </v>
   <v>       0.01092399 </v>
   <v>       0.01092399 </v>
   <v>       0.01092399 </v>
   <v>       0.00546199 </v>
   <v>       0.00273100 </v>
   <v>       0.01092399 </v>
   <v>       0.01092399 </v>
   <v>       0.00546199 </v>
   <v>       0.00273100 </v>
   <v>       0.00546199 </v>
   <v>       0.01092399 </v>
   <v>       0.02184797 </v>
   <v>       0.02184797 </v>
   <v>       0.02184797 </v>
   <v>       0.02184797 </v>
   <v>       0.01092399 </v>
   <v>       0.02184797 </v>
   <v>       0.02184797 </v>
   <v>       0.02184797 </v>
   <v>       0.02184797 </v>
   <v>       0.02184797 </v>
   <v>       0.02184797 </v>
   <v>       0.01092399 </v>
   <v>       0.01092399 </v>
   <v>       0.02184797 </v>
   <v>       0.02184797 </v>
   <v>       0.02184797 </v>
   <v>       0.02184797 </v>
   <v>       0.01092399 </v>
   <v>       0.01092399 </v>
   <v>       0.02184797 </v>
   <v>       0.02184797 </v>
   <v>       0.01092399 </v>
   <v>       0.01092399 </v>
   <v>       0.01092399 </v>
   <v>       0.01092399 </v>
   <v>       0.02184797 </v>
   <v>       0.02184797 </v>
   <v>       0.01092399 </v>
   <v>       0.02184797 </v>
   <v>       0.02184797 </v>
   <v>       0.01092399 </v>
   <v>       0.01092399 </v>
   <v>       0.01092399 </v>
   <v>       0.01092399 </v>
  </varray>
 </kpoints>
 <parameters>
  <separator name="general" >
   <i type="string" name="SYSTEM">unknown system</i>
   <i type="logical" name="LCOMPAT"> F  </i>
  </separator>
  <separator name="electronic" >
   <i type="string" name="PREC">acc</i>
   <i name="ENMAX">    700.00000000</i>
   <i name="ENAUG">    535.43100000</i>
   <i name="EDIFF">      0.00000010</i>
   <i type="int" name="IALGO">    38</i>
   <i type="int" name="IWAVPR">    10</i>
   <i type="int" name="NBANDS">    24</i>
   <i type="int" name="NBANDSLOW">    -1</i>
   <i type="int" name="NBANDSHIGH">    -1</i>
   <i name="NELECT">     37.00000000</i>
   <i type="int" name="TURBO">     0</i>
   <i type="int" name="IRESTART">     0</i>
   <i type="int" name="NREBOOT">     0</i>
   <i type="int" name="NMIN">     0</i>
   <i name="EREF">      0.00000000</i>
   <separator name="electronic smearing" >
    <i type="int" name="ISMEAR">     0</i>
    <i name="SIGMA">      0.01000000</i>
    <i name="KSPACING">      0.50000000</i>
    <i type="logical" name="KGAMMA"> T  </i>
    <i type="logical" name="KBLOWUP"> T  </i>
   </separator>
   <separator name="electronic projectors" >
    <i type="logical" name="LREAL"> F  </i>
    <v name="ROPT">      0.00000000      0.00000000      0.00000000</v>
    <i type="int" name="LMAXPAW">  -100</i>
    <i type="int" name="LMAXMIX">     2</i>
    <i type="logical" name="NLSPLINE"> F  </i>
   </separator>
   <separator name="electronic startup" >
    <i type="int" name="ISTART">     0</i>
    <i type="int" name="ICHARG">     2</i>
    <i type="int" name="INIWAV">     1</i>
   </separator>
   <separator name="electronic spin" >
    <i type="int" name="ISPIN">     1</i>
    <i type="logical" name="LNONCOLLINEAR"> F  </i>
    <v name="MAGMOM">      1.00000000      1.00000000      1.00000000</v>
    <i name="NUPDOWN">     -1.00000000</i>
    <i type="logical" name="LSORBIT"> F  </i>
    <v name="SAXIS">      0.00000000      0.00000000      1.00000000</v>
    <i type="logical" name="LSPIRAL"> F  </i>
    <v name="QSPIRAL">      0.00000000      0.00000000      0.00000000</v>
    <i type="logical" name="LZEROZ"> F  </i>
   </separator>
   <separator name="electronic exchange-correlation" >
    <i type="logical" name="LASPH"> F  </i>
    <i type="logical" name="LMETAGGA"> F  </i>
   </separator>
   <separator name="electronic convergence" >
    <i type="int" name="NELM">    60</i>
    <i type="int" name="NELMDL">    -5</i>
    <i type="int" name="NELMIN">     5</i>
    <i name="ENINI">    700.00000000</i>
    <separator name="electronic convergence detail" >
     <i type="logical" name="LDIAG"> T  </i>
     <i type="logical" name="LSUBROT"> F  </i>
     <i name="WEIMIN">      0.00000000</i>
     <i name="EBREAK">      0.00000000</i>
     <i name="DEPER">      0.30000000</i>
     <i type="int" name="NRMM">     4</i>
     <i name="TIME">      0.40000000</i>
    </separator>
   </separator>
   <separator name="electronic mixer" >
    <i name="AMIX">      0.40000000</i>
    <i name="BMIX">      1.00000000</i>
    <i name="AMIN">      0.10000000</i>
    <i name="AMIX_MAG">      1.60000000</i>
    <i name="BMIX_MAG">      1.00000000</i>
    <separator name="electronic mixer details" >
     <i type="int" name="IMIX">     4</i>
     <i type="logical" name="MIXFIRST"> F  </i>
     <i type="int" name="MAXMIX">   -45</i>
     <i name="WC">    100.00000000</i>
     <i type="int" name="INIMIX">     1</i>
     <i type="int" name="MIXPRE">     1</i>
     <i type="int" name="MREMOVE">     5</i>
    </separator>
   </separator>
   <separator name="electronic dipolcorrection" >
    <i type="logical" name="LDIPOL"> F  </i>
    <i type="logical" name="LMONO"> F  </i>
    <i type="int" name="IDIPOL">     0</i>
    <i name="EPSILON">      1.00000000</i>
    <v name="DIPOL">   -100.00000000   -100.00000000   -100.00000000</v>
    <i name="EFIELD">      0.00000000</i>
   </separator>
  </separator>
  <separator name="grids" >
   <i type="int" name="NGX">    42</i>
   <i type="int" name="NGY">    42</i>
   <i type="int" name="NGZ">    42</i>
   <i type="int" name="NGXF">    84</i>
   <i type="int" name="NGYF">    84</i>
   <i type="int" name="NGZF">    84</i>
   <i type="logical" name="ADDGRID"> T  </i>
  </separator>
  <separator name="ionic" >
   <i type="int" name="NSW">     0</i>
   <i type="int" name="IBRION">    -1</i>
   <i type="int" name="MDALGO">     0</i>
   <i type="int" name="ISIF">     3</i>
   <i name="PSTRESS">      0.00000000</i>
   <i name="EDIFFG">      0.00000100</i>
   <i type="int" name="NFREE">     0</i>
   <i name="POTIM">      0.50000000</i>
   <i name="SMASS">     -3.00000000</i>
   <i name="SCALEE">      1.00000000</i>
  </separator>
  <separator name="ionic md" >
   <i name="TEBEG">      0.00010000</i>
   <i name="TEEND">      0.00010000</i>
   <i type="int" name="NBLOCK">     1</i>
   <i type="int" name="KBLOCK">     1</i>
   <i type="int" name="NPACO">   256</i>
   <i name="APACO">     16.00000000</i>
  </separator>
  <separator name="symmetry" >
   <i type="int" name="ISYM">     2</i>
   <i name="SYMPREC">      0.00001000</i>
  </separator>
  <separator name="dos" >
   <i type="int" name="LORBIT">     0</i>
   <v name="RWIGS">     -1.00000000     -1.00000000     -1.00000000</v>
   <i type="int" name="NEDOS">   301</i>
   <i name="EMIN">     10.00000000</i>
   <i name="EMAX">    -10.00000000</i>
   <i name="EFERMI">      0.00000000</i>
  </separator>
  <separator name="writing" >
   <i type="int" name="NWRITE">     2</i>
   <i type="logical" name="LWAVE"> F  </i>
   <i type="logical" name="LDOWNSAMPLE"> F  </i>
   <i type="logical" name="LCHARG"> F  </i>
   <i type="logical" name="LPARD"> F  </i>
   <i type="logical" name="LVTOT"> F  </i>
   <i type="logical" name="LVHAR"> F  </i>
   <i type="logical" name="LELF"> F  </i>
   <i type="logical" name="LOPTICS"> F  </i>
   <v name="STM">      0.00000000      0.00000000      0.00000000      0.00000000      0.00000000      0.00000000      0.00000000</v>
  </separator>
  <separator name="performance" >
   <i type="int" name="NPAR">     4</i>
   <i type="int" name="NSIM">     4</i>
   <i type="int" name="NBLK">    -1</i>
   <i type="logical" name="LPLANE"> T  </i>
   <i type="logical" name="LSCALAPACK"> T  </i>
   <i type="logical" name="LSCAAWARE"> F  </i>
   <i type="logical" name="LSCALU"> F  </i>
   <i type="logical" name="LASYNC"> F  </i>
   <i type="logical" name="LORBITALREAL"> F  </i>
  </separator>
  <separator name="miscellaneous" >
   <i type="int" name="IDIOT">     3</i>
   <i type="int" name="PHON_NSTRUCT">    -1</i>
   <i type="logical" name="LMUSIC"> F  </i>
   <v name="POMASS">    232.03900000    208.98000000    195.08000000</v>
   <v name="DARWINR">      0.00000000      0.00000000      0.00000000</v>
   <v name="DARWINV">      1.00000000      1.00000000      1.00000000</v>
   <i type="logical" name="LCORR"> T  </i>
  </separator>
  <i type="logical" name="GGA_COMPAT"> T  </i>
  <i type="logical" name="LBERRY"> F  </i>
  <i type="int" name="ICORELEVEL">     0</i>
  <i type="logical" name="LDAU"> F  </i>
  <i type="int" name="I_CONSTRAINED_M">     0</i>
  <separator name="electronic exchange-correlation" >
   <i type="string" name="GGA">PS</i>
   <i type="int" name="VOSKOWN">     0</i>
   <i type="logical" name="LHFCALC"> F  </i>
   <i type="string" name="PRECFOCK"></i>
   <i type="logical" name="LSYMGRAD"> F  </i>
   <i type="logical" name="LHFONE"> F  </i>
   <i type="logical" name="LRHFCALC"> F  </i>
   <i type="logical" name="LTHOMAS"> F  </i>
   <i type="logical" name="LMODELHF"> F  </i>
   <i type="logical" name="LFOCKACE"> F  </i>
   <i name="ENCUT4O">     -1.00000000</i>
   <i type="int" name="EXXOEP">     0</i>
   <i type="int" name="FOURORBIT">     0</i>
   <i name="AEXX">      0.00000000</i>
   <i name="HFALPHA">      0.00000000</i>
   <i name="MCALPHA">      0.00000000</i>
   <i name="ALDAX">      1.00000000</i>
   <i name="AGGAX">      1.00000000</i>
   <i name="ALDAC">      1.00000000</i>
   <i name="AGGAC">      1.00000000</i>
   <i type="int" name="NKREDX">     1</i>
   <i type="int" name="NKREDY">     1</i>
   <i type="int" name="NKREDZ">     1</i>
   <i type="logical" name="SHIFTRED"> F  </i>
   <i type="logical" name="ODDONLY"> F  </i>
   <i type="logical" name="EVENONLY"> F  </i>
   <i type="int" name="LMAXFOCK">     0</i>
   <i type="int" name="NMAXFOCKAE">     0</i>
   <i type="logical" name="LFOCKAEDFT"> F  </i>
   <i name="HFSCREEN">      0.00000000</i>
   <i name="HFSCREENC">      0.00000000</i>
   <i type="int" name="NBANDSGWLOW">     0</i>
  </separator>
  <separator name="vdW DFT" >
   <i type="logical" name="LUSE_VDW"> F  </i>
   <i name="Zab_VDW">     -0.84910000</i>
   <i name="PARAM1">      0.12340000</i>
   <i name="PARAM2">      1.00000000</i>
   <i name="PARAM3">      0.00000000</i>
  </separator>
  <separator name="model GW" >
   <i type="int" name="MODEL_GW">     0</i>
   <i name="MODEL_EPS0">     15.10483322</i>
   <i name="MODEL_ALPHA">      1.00000000</i>
  </separator>
  <separator name="linear response parameters" >
   <i type="logical" name="LEPSILON"> F  </i>
   <i type="logical" name="LRPA"> F  </i>
   <i type="logical" name="LNABLA"> F  </i>
   <i type="logical" name="LVEL"> F  </i>
   <i type="int" name="KINTER">     0</i>
   <i name="CSHIFT">      0.10000000</i>
   <i name="OMEGAMAX">     -1.00000000</i>
   <i name="DEG_THRESHOLD">      0.00200000</i>
   <i name="RTIME">     -0.10000000</i>
   <i name="WPLASMAI">      0.00000000</i>
   <v name="DFIELD">      0.00000000      0.00000000      0.00000000</v>
   <v name="WPLASMA">      0.00000000      0.00000000      0.00000000      0.00000000      0.00000000      0.00000000      0.00000000      0.00000000      0.00000000</v>
  </separator>
  <separator name="orbital magnetization" >
   <i type="logical" name="NUCIND"> F  </i>
   <v name="MAGPOS">      0.00000000      0.00000000      0.00000000</v>
   <i type="logical" name="LNICSALL"> T  </i>
   <i type="logical" name="ORBITALMAG"> F  </i>
   <i type="logical" name="LMAGBLOCH"> F  </i>
   <i type="logical" name="LCHIMAG"> F  </i>
   <i type="logical" name="LGAUGE"> T  </i>
   <i type="int" name="MAGATOM">     0</i>
   <v name="MAGDIPOL">      0.00000000      0.00000000      0.00000000</v>
   <v name="AVECCONST">      0.00000000      0.00000000      0.00000000</v>
  </separator>
  <separator name="response functions" >
   <i type="logical" name="LFINITE_TEMPERATURE"> F  </i>
   <i type="logical" name="LADDER"> F  </i>
   <i type="logical" name="LRPAFORCE"> F  </i>
   <i type="logical" name="LFXC"> F  </i>
   <i type="logical" name="LHARTREE"> T  </i>
   <i type="int" name="IBSE">     0</i>
   <v type="int" name="KPOINT">    -1     0     0     0</v>
   <i type="logical" name="LTCTC"> F  </i>
   <i type="logical" name="LTCTE"> F  </i>
   <i type="logical" name="LTETE"> F  </i>
   <i type="logical" name="LTRIPLET"> F  </i>
   <i type="logical" name="LFXCEPS"> F  </i>
   <i type="logical" name="LFXHEG"> F  </i>
   <i type="int" name="NATURALO">     2</i>
   <i type="logical" name="L2ORDER"> F  </i>
   <i type="logical" name="LDMP1"> F  </i>
   <i type="logical" name="LMP2LT"> F  </i>
   <i type="logical" name="LSMP2LT"> F  </i>
   <i type="logical" name="LUSEW"> F  </i>
   <i name="ENCUTGW">     -2.00000000</i>
   <i name="ENCUTGWSOFT">     -2.00000000</i>
   <i name="ENCUTLF">     -1.00000000</i>
   <i type="int" name="LMAXMP2">    -1</i>
   <i name="SCISSOR">      0.00000000</i>
   <i type="int" name="NOMEGA">     0</i>
   <i type="int" name="NOMEGAR">     0</i>
   <i type="int" name="NBANDSGW">    -1</i>
   <i type="int" name="NBANDSO">    -1</i>
   <i type="int" name="NBANDSV">    -1</i>
   <i type="int" name="NELM">     1</i>
   <i type="int" name="NELMHF">     1</i>
   <i type="int" name="DIM">     3</i>
   <i type="int" name="IESPILON">     4</i>
   <i type="int" name="ANTIRES">     0</i>
   <i name="OMEGAMAX">    -30.00000000</i>
   <i name="OMEGAMIN">    -30.00000000</i>
   <i name="OMEGATL">   -200.00000000</i>
   <i type="int" name="OMEGAGRID">   145</i>
   <i name="CSHIFT">     -0.10000000</i>
   <i type="logical" name="LSELFENERGY"> F  </i>
   <i type="logical" name="LSPECTRAL"> F  </i>
   <i type="logical" name="LSPECTRALGW"> F  </i>
   <i type="logical" name="LSINGLES"> F  </i>
   <i type="logical" name="LFERMIGW"> F  </i>
   <i type="logical" name="ODDONLYGW"> F  </i>
   <i type="logical" name="EVENONLYGW"> F  </i>
   <i type="int" name="NKREDLFX">     1</i>
   <i type="int" name="NKREDLFY">     1</i>
   <i type="int" name="NKREDLFZ">     1</i>
   <i type="int" name="MAXMEM">  2800</i>
   <i type="int" name="TELESCOPE">     0</i>
   <i type="int" name="NTAUPAR">     1</i>
   <i type="int" name="NOMEGAPAR">    -1</i>
   <i name="LAMBDA">      1.00000000</i>
  </separator>
  <separator name="External order field" >
   <i name="OFIELD_KAPPA">      0.00000000</i>
   <v name="OFIELD_K">      0.00000000      0.00000000      0.00000000</v>
   <i name="OFIELD_Q6_NEAR">      0.00000000</i>
   <i name="OFIELD_Q6_FAR">      0.00000000</i>
   <i name="OFIELD_A">      0.00000000</i>
  </separator>
 </parameters>
 <atominfo>
  <atoms>       3 </atoms>
  <types>       3 </types>
  <array name="atoms" >
   <dimension dim="1">ion</dimension>
   <field type="string">element</field>
   <field type="int">atomtype</field>
   <set>
    <rc><c>Th</c><c>   1</c></rc>
    <rc><c>Bi</c><c>   2</c></rc>
    <rc><c>Pt</c><c>   3</c></rc>
   </set>
  </array>
  <array name="atomtypes" >
   <dimension dim="1">type</dimension>
   <field type="int">atomspertype</field>
   <field type="string">element</field>
   <field>mass</field>
   <field>valence</field>
   <field type="string">pseudopotential</field>
   <set>
    <rc><c>   1</c><c>Th</c><c>    232.03900000</c><c>     12.00000000</c><c>  PAW_PBE Th 07Sep2000                  </c></rc>
    <rc><c>   1</c><c>Bi</c><c>    208.98000000</c><c>     15.00000000</c><c>  PAW_PBE Bi_d 06Sep2000                </c></rc>
    <rc><c>   1</c><c>Pt</c><c>    195.08000000</c><c>     10.00000000</c><c>  PAW_PBE Pt 04Feb2005                  </c></rc>
   </set>
  </array>
 </atominfo>
 <structure name="initialpos" >
  <crystal>
   <varray name="basis" >
    <v>       0.00000000       3.35494430       3.35494430 </v>
    <v>       3.35494430       0.00000000       3.35494430 </v>
    <v>       3.35494430       3.35494430       0.00000000 </v>
   </varray>
   <i name="volume">     75.52416610 </i>
   <varray name="rec_basis" >
    <v>      -0.14903377       0.14903377       0.14903377 </v>
    <v>       0.14903377      -0.14903377       0.14903377 </v>
    <v>       0.14903377       0.14903377      -0.14903377 </v>
   </varray>
  </crystal>
  <varray name="positions" >
   <v>       0.25000000       0.25000000       0.25000000 </v>
   <v>       0.75000000       0.75000000       0.75000000 </v>
   <v>       0.00000000       0.00000000       0.00000000 </v>
  </varray>
 </structure>
 <calculation>
  <scstep>
   <time name="dav">    1.52    1.56</time>
   <time name="total">    1.67    1.78</time>
   <energy>
    <i name="alphaZ">    227.49755299 </i>
    <i name="ewald">  -3192.95325594 </i>
    <i name="hartreedc">   -728.87541300 </i>
    <i name="XCdc">     68.99000820 </i>
    <i name="pawpsdc">   3147.30828992 </i>
    <i name="pawaedc">  -3070.62761383 </i>
    <i name="eentropy">     -0.00003081 </i>
    <i name="bandstr">    319.97285447 </i>
    <i name="atom">   3674.67342263 </i>
    <i name="e_fr_energy">    445.98581463 </i>
    <i name="e_wo_entrp">    445.98584544 </i>
    <i name="e_0_energy">    445.98583004 </i>
   </energy>
  </scstep>
  <scstep>
   <time name="dav">    1.54    1.57</time>
   <time name="total">    1.54    1.58</time>
   <energy>
    <i name="e_fr_energy">     45.10920845 </i>
    <i name="e_wo_entrp">     45.10936112 </i>
    <i name="e_0_energy">     45.10928478 </i>
   </energy>
  </scstep>
  <scstep>
   <time name="dav">    1.92    1.95</time>
   <time name="total">    1.92    1.95</time>
   <energy>
    <i name="e_fr_energy">    -18.58797679 </i>
    <i name="e_wo_entrp">    -18.58790770 </i>
    <i name="e_0_energy">    -18.58794225 </i>
   </energy>
  </scstep>
  <scstep>
   <time name="dav">    2.37    2.40</time>
   <time name="total">    2.37    2.40</time>
   <energy>
    <i name="e_fr_energy">    -22.66979508 </i>
    <i name="e_wo_entrp">    -22.66953475 </i>
    <i name="e_0_energy">    -22.66966492 </i>
   </energy>
  </scstep>
  <scstep>
   <time name="dav">    1.86    1.90</time>
   <time name="total">    2.23    2.27</time>
   <energy>
    <i name="e_fr_energy">    -22.77045868 </i>
    <i name="e_wo_entrp">    -22.77020602 </i>
    <i name="e_0_energy">    -22.77033235 </i>
   </energy>
  </scstep>
  <scstep>
   <time name="dav">    1.77    1.77</time>
   <time name="total">    2.23    2.37</time>
   <energy>
    <i name="e_fr_energy">    -21.92482477 </i>
    <i name="e_wo_entrp">    -21.92465972 </i>
    <i name="e_0_energy">    -21.92474224 </i>
   </energy>
  </scstep>
  <scstep>
   <time name="dav">    2.04    2.04</time>
   <time name="total">    2.48    2.51</time>
   <energy>
    <i name="e_fr_energy">    -21.79263053 </i>
    <i name="e_wo_entrp">    -21.79240994 </i>
    <i name="e_0_energy">    -21.79252024 </i>
   </energy>
  </scstep>
  <scstep>
   <time name="dav">    1.84    1.84</time>
   <time name="total">    2.29    2.31</time>
   <energy>
    <i name="e_fr_energy">    -21.75223381 </i>
    <i name="e_wo_entrp">    -21.75199184 </i>
    <i name="e_0_energy">    -21.75211282 </i>
   </energy>
  </scstep>
  <scstep>
   <time name="dav">    2.01    2.01</time>
   <time name="total">    2.45    2.49</time>
   <energy>
    <i name="e_fr_energy">    -21.74516772 </i>
    <i name="e_wo_entrp">    -21.74489998 </i>
    <i name="e_0_energy">    -21.74503385 </i>
   </energy>
  </scstep>
  <scstep>
   <time name="dav">    1.79    1.79</time>
   <time name="total">    2.23    2.28</time>
   <energy>
    <i name="e_fr_energy">    -21.74033410 </i>
    <i name="e_wo_entrp">    -21.74007390 </i>
    <i name="e_0_energy">    -21.74020400 </i>
   </energy>
  </scstep>
  <scstep>
   <time name="dav">    1.96    1.96</time>
   <time name="total">    2.40    2.43</time>
   <energy>
    <i name="e_fr_energy">    -21.74048512 </i>
    <i name="e_wo_entrp">    -21.74022364 </i>
    <i name="e_0_energy">    -21.74035438 </i>
   </energy>
  </scstep>
  <scstep>
   <time name="dav">    1.98    1.98</time>
   <time name="total">    2.44    2.47</time>
   <energy>
    <i name="e_fr_energy">    -21.74041102 </i>
    <i name="e_wo_entrp">    -21.74014883 </i>
    <i name="e_0_energy">    -21.74027992 </i>
   </energy>
  </scstep>
  <scstep>
   <time name="dav">    2.11    2.11</time>
   <time name="total">    2.54    2.62</time>
   <energy>
    <i name="e_fr_energy">    -21.74041087 </i>
    <i name="e_wo_entrp">    -21.74014881 </i>
    <i name="e_0_energy">    -21.74027984 </i>
   </energy>
  </scstep>
  <scstep>
   <time name="dav">    1.79    1.79</time>
   <time name="total">    2.24    2.27</time>
   <energy>
    <i name="e_fr_energy">    -21.74041018 </i>
    <i name="e_wo_entrp">    -21.74014825 </i>
    <i name="e_0_energy">    -21.74027922 </i>
   </energy>
  </scstep>
  <scstep>
   <time name="dav">    2.13    2.13</time>
   <time name="total">    2.57    2.60</time>
   <energy>
    <i name="e_fr_energy">    -21.74040990 </i>
    <i name="e_wo_entrp">    -21.74014806 </i>
    <i name="e_0_energy">    -21.74027898 </i>
   </energy>
  </scstep>
  <scstep>
   <time name="dav">    1.36    1.37</time>
   <time name="total">    1.50    1.54</time>
   <energy>
    <i name="alphaZ">    227.49755299 </i>
    <i name="ewald">  -3192.95325594 </i>
    <i name="hartreedc">   -702.75164401 </i>
    <i name="XCdc">     68.32633018 </i>
    <i name="pawpsdc">   4077.35275977 </i>
    <i name="pawaedc">  -4010.48475666 </i>
    <i name="eentropy">     -0.00026182 </i>
    <i name="bandstr">   -163.40055703 </i>
    <i name="atom">   3674.67342263 </i>
    <i name="e_fr_energy">    -21.74040988 </i>
    <i name="e_wo_entrp">    -21.74014806 </i>
    <i name="e_0_energy">    -21.74027897 </i>
   </energy>
  </scstep>
  <structure>
   <crystal>
    <varray name="basis" >
     <v>       0.00000000       3.35494430       3.35494430 </v>
     <v>       3.35494430       0.00000000       3.35494430 </v>
     <v>       3.35494430       3.35494430       0.00000000 </v>
    </varray>
    <i name="volume">     75.52416610 </i>
    <varray name="rec_basis" >
     <v>      -0.14903377       0.14903377       0.14903377 </v>
     <v>       0.14903377      -0.14903377       0.14903377 </v>
     <v>       0.14903377       0.14903377      -0.14903377 </v>
    </varray>
   </crystal>
   <varray name="positions" >
    <v>       0.25000000       0.25000000       0.25000000 </v>
    <v>       0.75000000       0.75000000       0.75000000 </v>
    <v>       0.00000000       0.00000000       0.00000000 </v>
   </varray>
  </structure>
  <varray name="forces" >
   <v>      -0.00000000      -0.00000000      -0.00000000 </v>
   <v>      -0.00000000      -0.00000000      -0.00000000 </v>
   <v>       0.00000000       0.00000000       0.00000000 </v>
  </varray>
  <varray name="stress" >
   <v>      76.12180918      -0.00000000       0.00000000 </v>
   <v>       0.00000000      76.12180918       0.00000000 </v>
   <v>      -0.00000000      -0.00000000      76.12180918 </v>
  </varray>
  <energy>
   <i name="e_fr_energy">    -21.74040988 </i>
   <i name="e_wo_entrp">    -21.74027897 </i>
   <i name="e_0_energy">     -0.00026182 </i>
  </energy>
  <time name="totalsc">   39.04   40.32</time>
  <eigenvalues>
   <array>
    <dimension dim="1">band</dimension>
    <dimension dim="2">kpoint</dimension>
    <dimension dim="3">spin</dimension>
    <field>eigene</field>
    <field>occ</field>
    <set>
     <set comment="spin 1">
      <set comment="kpoint 1">
       <r>  -30.6335    1.0000 </r>
       <r>  -13.8372    1.0000 </r>
       <r>  -13.8372    1.0000 </r>
       <r>  -13.7993    1.0000 </r>
       <r>  -13.7993    1.0000 </r>
       <r>  -13.7993    1.0000 </r>
       <r>   -8.7193    1.0000 </r>
       <r>   -8.7193    1.0000 </r>
       <r>   -8.7193    1.0000 </r>
       <r>   -3.3355    1.0000 </r>
       <r>    4.6923    1.0000 </r>
       <r>    4.6923    1.0000 </r>
       <r>    4.6923    1.0000 </r>
       <r>    4.8432    1.0000 </r>
       <r>    4.8432    1.0000 </r>
       <r>    7.6074    1.0000 </r>
       <r>    8.0582    1.0000 </r>
       <r>    8.0582    1.0000 </r>
       <r>    8.0582    1.0000 </r>
       <r>    9.4724    0.0000 </r>
       <r>    9.4724    0.0000 </r>
       <r>    9.4724    0.0000 </r>
       <r>   10.3614    0.0000 </r>
       <r>   11.4288    0.0000 </r>
      </set>
      <set comment="kpoint 2">
       <r>  -30.6331    1.0000 </r>
       <r>  -13.8382    1.0000 </r>
       <r>  -13.8382    1.0000 </r>
       <r>  -13.7995    1.0000 </r>
       <r>  -13.7991    1.0000 </r>
       <r>  -13.7991    1.0000 </r>
       <r>   -8.7423    1.0000 </r>
       <r>   -8.7161    1.0000 </r>
       <r>   -8.7161    1.0000 </r>
       <r>   -3.2613    1.0000 </r>
       <r>    4.5264    1.0000 </r>
       <r>    4.5264    1.0000 </r>
       <r>    4.5596    1.0000 </r>
       <r>    4.9996    1.0000 </r>
       <r>    4.9996    1.0000 </r>
       <r>    7.0999    1.0000 </r>
       <r>    7.9737    1.0000 </r>
       <r>    7.9737    1.0000 </r>
       <r>    8.4120    1.0000 </r>
       <r>    9.5746    0.0000 </r>
       <r>    9.5746    0.0000 </r>
       <r>    9.5955    0.0000 </r>
       <r>   10.6139    0.0000 </r>
       <r>   11.4354    0.0000 </r>
      </set>
      <set comment="kpoint 3">
       <r>  -30.6318    1.0000 </r>
       <r>  -13.8409    1.0000 </r>
       <r>  -13.8409    1.0000 </r>
       <r>  -13.8001    1.0000 </r>
       <r>  -13.7985    1.0000 </r>
       <r>  -13.7985    1.0000 </r>
       <r>   -8.8030    1.0000 </r>
       <r>   -8.7075    1.0000 </r>
       <r>   -8.7075    1.0000 </r>
       <r>   -3.0570    1.0000 </r>
       <r>    4.2181    1.0000 </r>
       <r>    4.3315    1.0000 </r>
       <r>    4.3315    1.0000 </r>
       <r>    5.1538    1.0000 </r>
       <r>    5.1538    1.0000 </r>
       <r>    6.4714    1.0000 </r>
       <r>    7.8019    1.0000 </r>
       <r>    7.8019    1.0000 </r>
       <r>    8.5738    1.0000 </r>
       <r>    9.8167    0.0000 </r>
       <r>    9.8167    0.0000 </r>
       <r>   10.1424    0.0000 </r>
       <r>   11.0766    0.0000 </r>
       <r>   11.4452    0.0000 </r>
      </set>
      <set comment="kpoint 4">
       <r>  -30.6299    1.0000 </r>
       <r>  -13.8448    1.0000 </r>
       <r>  -13.8448    1.0000 </r>
       <r>  -13.8012    1.0000 </r>
       <r>  -13.7977    1.0000 </r>
       <r>  -13.7977    1.0000 </r>
       <r>   -8.8819    1.0000 </r>
       <r>   -8.6954    1.0000 </r>
       <r>   -8.6954    1.0000 </r>
       <r>   -2.7712    1.0000 </r>
       <r>    3.7881    1.0000 </r>
       <r>    4.1853    1.0000 </r>
       <r>    4.1853    1.0000 </r>
       <r>    5.2058    1.0000 </r>
       <r>    5.2058    1.0000 </r>
       <r>    5.9568    1.0000 </r>
       <r>    7.6615    1.0000 </r>
       <r>    7.6615    1.0000 </r>
       <r>    8.6310    1.0000 </r>
       <r>   10.1106    0.0000 </r>
       <r>   10.1106    0.0000 </r>
       <r>   10.8360    0.0000 </r>
       <r>   11.4324    0.0000 </r>
       <r>   11.4343    0.0000 </r>
      </set>
      <set comment="kpoint 5">
       <r>  -30.6280    1.0000 </r>
       <r>  -13.8489    1.0000 </r>
       <r>  -13.8489    1.0000 </r>
       <r>  -13.8024    1.0000 </r>
       <r>  -13.7969    1.0000 </r>
       <r>  -13.7969    1.0000 </r>
       <r>   -8.9579    1.0000 </r>
       <r>   -8.6826    1.0000 </r>
       <r>   -8.6826    1.0000 </r>
       <r>   -2.4699    1.0000 </r>
       <r>    3.3829    1.0000 </r>
       <r>    4.1003    1.0000 </r>
       <r>    4.1003    1.0000 </r>
       <r>    5.1479    1.0000 </r>
       <r>    5.1479    1.0000 </r>
       <r>    5.5884    1.0000 </r>
       <r>    7.5994    1.0000 </r>
       <r>    7.5994    1.0000 </r>
       <r>    8.7358    1.0000 </r>
       <r>   10.4005    0.0000 </r>
       <r>   10.4005    0.0000 </r>
       <r>   11.3190    0.0000 </r>
       <r>   11.3998    0.0000 </r>
       <r>   11.3999    0.0000 </r>
      </set>
      <set comment="kpoint 6">
       <r>  -30.6264    1.0000 </r>
       <r>  -13.8523    1.0000 </r>
       <r>  -13.8523    1.0000 </r>
       <r>  -13.8036    1.0000 </r>
       <r>  -13.7961    1.0000 </r>
       <r>  -13.7961    1.0000 </r>
       <r>   -9.0157    1.0000 </r>
       <r>   -8.6720    1.0000 </r>
       <r>   -8.6720    1.0000 </r>
       <r>   -2.2218    1.0000 </r>
       <r>    3.0798    1.0000 </r>
       <r>    4.0705    1.0000 </r>
       <r>    4.0705    1.0000 </r>
       <r>    5.0331    1.0000 </r>
       <r>    5.0331    1.0000 </r>
       <r>    5.3619    1.0000 </r>
       <r>    7.5939    1.0000 </r>
       <r>    7.5939    1.0000 </r>
       <r>    8.9026    1.0000 </r>
       <r>   10.6339    0.0000 </r>
       <r>   10.6339    0.0000 </r>
       <r>   11.3671    0.0000 </r>
       <r>   11.3671    0.0000 </r>
       <r>   11.4448    0.0000 </r>
      </set>
      <set comment="kpoint 7">
       <r>  -30.6255    1.0000 </r>
       <r>  -13.8542    1.0000 </r>
       <r>  -13.8542    1.0000 </r>
       <r>  -13.8043    1.0000 </r>
       <r>  -13.7957    1.0000 </r>
       <r>  -13.7957    1.0000 </r>
       <r>   -9.0465    1.0000 </r>
       <r>   -8.6660    1.0000 </r>
       <r>   -8.6660    1.0000 </r>
       <r>   -2.0826    1.0000 </r>
       <r>    2.9204    1.0000 </r>
       <r>    4.0712    1.0000 </r>
       <r>    4.0712    1.0000 </r>
       <r>    4.9436    1.0000 </r>
       <r>    4.9436    1.0000 </r>
       <r>    5.2575    1.0000 </r>
       <r>    7.6036    1.0000 </r>
       <r>    7.6036    1.0000 </r>
       <r>    9.0625    1.0000 </r>
       <r>   10.7636    0.0000 </r>
       <r>   10.7636    0.0000 </r>
       <r>   11.2798    0.0000 </r>
       <r>   11.3448    0.0000 </r>
       <r>   11.3448    0.0000 </r>
      </set>
      <set comment="kpoint 8">
       <r>  -30.6329    1.0000 </r>
       <r>  -13.8399    1.0000 </r>
       <r>  -13.8368    1.0000 </r>
       <r>  -13.7997    1.0000 </r>
       <r>  -13.7989    1.0000 </r>
       <r>  -13.7989    1.0000 </r>
       <r>   -8.7372    1.0000 </r>
       <r>   -8.7215    1.0000 </r>
       <r>   -8.7215    1.0000 </r>
       <r>   -3.2386    1.0000 </r>
       <r>    4.2498    1.0000 </r>
       <r>    4.7050    1.0000 </r>
       <r>    4.7050    1.0000 </r>
       <r>    4.8604    1.0000 </r>
       <r>    5.0469    1.0000 </r>
       <r>    7.0830    1.0000 </r>
       <r>    7.8468    1.0000 </r>
       <r>    7.8468    1.0000 </r>
       <r>    8.6711    1.0000 </r>
       <r>    9.2836    0.0031 </r>
       <r>    9.7504    0.0000 </r>
       <r>    9.7504    0.0000 </r>
       <r>   10.6594    0.0000 </r>
       <r>   11.4057    0.0000 </r>
      </set>
      <set comment="kpoint 9">
       <r>  -30.6319    1.0000 </r>
       <r>  -13.8430    1.0000 </r>
       <r>  -13.8375    1.0000 </r>
       <r>  -13.8003    1.0000 </r>
       <r>  -13.7985    1.0000 </r>
       <r>  -13.7984    1.0000 </r>
       <r>   -8.7822    1.0000 </r>
       <r>   -8.7203    1.0000 </r>
       <r>   -8.7123    1.0000 </r>
       <r>   -3.0839    1.0000 </r>
       <r>    3.9538    1.0000 </r>
       <r>    4.5652    1.0000 </r>
       <r>    4.5750    1.0000 </r>
       <r>    4.9961    1.0000 </r>
       <r>    5.1641    1.0000 </r>
       <r>    6.6563    1.0000 </r>
       <r>    7.6727    1.0000 </r>
       <r>    7.6759    1.0000 </r>
       <r>    8.9378    1.0000 </r>
       <r>    9.3231    0.0000 </r>
       <r>   10.0058    0.0000 </r>
       <r>   10.1287    0.0000 </r>
       <r>   10.9985    0.0000 </r>
       <r>   11.3817    0.0000 </r>
      </set>
      <set comment="kpoint 10">
       <r>  -30.6303    1.0000 </r>
       <r>  -13.8467    1.0000 </r>
       <r>  -13.8401    1.0000 </r>
       <r>  -13.8010    1.0000 </r>
       <r>  -13.7980    1.0000 </r>
       <r>  -13.7976    1.0000 </r>
       <r>   -8.8541    1.0000 </r>
       <r>   -8.7131    1.0000 </r>
       <r>   -8.6985    1.0000 </r>
       <r>   -2.8359    1.0000 </r>
       <r>    3.6657    1.0000 </r>
       <r>    4.3023    1.0000 </r>
       <r>    4.4241    1.0000 </r>
       <r>    5.0857    1.0000 </r>
       <r>    5.2615    1.0000 </r>
       <r>    6.1654    1.0000 </r>
       <r>    7.5092    1.0000 </r>
       <r>    7.5578    1.0000 </r>
       <r>    8.9329    1.0000 </r>
       <r>    9.7102    0.0000 </r>
       <r>   10.2680    0.0000 </r>
       <r>   10.6840    0.0000 </r>
       <r>   11.3621    0.0000 </r>
       <r>   11.3634    0.0000 </r>
      </set>
      <set comment="kpoint 11">
       <r>  -30.6284    1.0000 </r>
       <r>  -13.8501    1.0000 </r>
       <r>  -13.8439    1.0000 </r>
       <r>  -13.8020    1.0000 </r>
       <r>  -13.7973    1.0000 </r>
       <r>  -13.7968    1.0000 </r>
       <r>   -8.9296    1.0000 </r>
       <r>   -8.7013    1.0000 </r>
       <r>   -8.6863    1.0000 </r>
       <r>   -2.5547    1.0000 </r>
       <r>    3.3892    1.0000 </r>
       <r>    4.0960    1.0000 </r>
       <r>    4.3116    1.0000 </r>
       <r>    5.0637    1.0000 </r>
       <r>    5.2634    1.0000 </r>
       <r>    5.7545    1.0000 </r>
       <r>    7.4261    1.0000 </r>
       <r>    7.5237    1.0000 </r>
       <r>    8.9098    1.0000 </r>
       <r>   10.1452    0.0000 </r>
       <r>   10.5080    0.0000 </r>
       <r>   11.1676    0.0000 </r>
       <r>   11.3492    0.0000 </r>
       <r>   11.4404    0.0000 </r>
      </set>
      <set comment="kpoint 12">
       <r>  -30.6267    1.0000 </r>
       <r>  -13.8525    1.0000 </r>
       <r>  -13.8482    1.0000 </r>
       <r>  -13.8031    1.0000 </r>
       <r>  -13.7967    1.0000 </r>
       <r>  -13.7960    1.0000 </r>
       <r>   -8.9917    1.0000 </r>
       <r>   -8.6878    1.0000 </r>
       <r>   -8.6786    1.0000 </r>
       <r>   -2.3056    1.0000 </r>
       <r>    3.1558    1.0000 </r>
       <r>    4.0058    1.0000 </r>
       <r>    4.2284    1.0000 </r>
       <r>    4.9847    1.0000 </r>
       <r>    5.1792    1.0000 </r>
       <r>    5.4658    1.0000 </r>
       <r>    7.4168    1.0000 </r>
       <r>    7.5408    1.0000 </r>
       <r>    8.9741    1.0000 </r>
       <r>   10.4873    0.0000 </r>
       <r>   10.6986    0.0000 </r>
       <r>   11.3057    0.0000 </r>
       <r>   11.3363    0.0000 </r>
       <r>   11.4926    0.0000 </r>
      </set>
      <set comment="kpoint 13">
       <r>  -30.6255    1.0000 </r>
       <r>  -13.8533    1.0000 </r>
       <r>  -13.8518    1.0000 </r>
       <r>  -13.8038    1.0000 </r>
       <r>  -13.7961    1.0000 </r>
       <r>  -13.7955    1.0000 </r>
       <r>   -9.0301    1.0000 </r>
       <r>   -8.6768    1.0000 </r>
       <r>   -8.6756    1.0000 </r>
       <r>   -2.1429    1.0000 </r>
       <r>    3.0083    1.0000 </r>
       <r>    4.0173    1.0000 </r>
       <r>    4.1457    1.0000 </r>
       <r>    4.9412    1.0000 </r>
       <r>    5.0597    1.0000 </r>
       <r>    5.3063    1.0000 </r>
       <r>    7.4367    1.0000 </r>
       <r>    7.5619    1.0000 </r>
       <r>    9.1034    1.0000 </r>
       <r>   10.6589    0.0000 </r>
       <r>   10.8062    0.0000 </r>
       <r>   11.2731    0.0000 </r>
       <r>   11.3230    0.0000 </r>
       <r>   11.4519    0.0000 </r>
      </set>
      <set comment="kpoint 14">
       <r>  -30.6252    1.0000 </r>
       <r>  -13.8540    1.0000 </r>
       <r>  -13.8525    1.0000 </r>
       <r>  -13.8040    1.0000 </r>
       <r>  -13.7959    1.0000 </r>
       <r>  -13.7955    1.0000 </r>
       <r>   -9.0398    1.0000 </r>
       <r>   -8.6813    1.0000 </r>
       <r>   -8.6674    1.0000 </r>
       <r>   -2.0985    1.0000 </r>
       <r>    2.9691    1.0000 </r>
       <r>    4.0510    1.0000 </r>
       <r>    4.0923    1.0000 </r>
       <r>    4.9654    1.0000 </r>
       <r>    4.9883    1.0000 </r>
       <r>    5.2700    1.0000 </r>
       <r>    7.4411    1.0000 </r>
       <r>    7.5662    1.0000 </r>
       <r>    9.1690    1.0000 </r>
       <r>   10.6885    0.0000 </r>
       <r>   10.7998    0.0000 </r>
       <r>   11.2734    0.0000 </r>
       <r>   11.3196    0.0000 </r>
       <r>   11.4011    0.0000 </r>
      </set>
      <set comment="kpoint 15">
       <r>  -30.6258    1.0000 </r>
       <r>  -13.8542    1.0000 </r>
       <r>  -13.8500    1.0000 </r>
       <r>  -13.8036    1.0000 </r>
       <r>  -13.7961    1.0000 </r>
       <r>  -13.7959    1.0000 </r>
       <r>   -9.0199    1.0000 </r>
       <r>   -8.6909    1.0000 </r>
       <r>   -8.6652    1.0000 </r>
       <r>   -2.1809    1.0000 </r>
       <r>    3.0462    1.0000 </r>
       <r>    3.9719    1.0000 </r>
       <r>    4.1908    1.0000 </r>
       <r>    4.9451    1.0000 </r>
       <r>    5.1076    1.0000 </r>
       <r>    5.3488    1.0000 </r>
       <r>    7.4057    1.0000 </r>
       <r>    7.5625    1.0000 </r>
       <r>    9.0844    1.0000 </r>
       <r>   10.6608    0.0000 </r>
       <r>   10.7199    0.0000 </r>
       <r>   11.2919    0.0000 </r>
       <r>   11.3346    0.0000 </r>
       <r>   11.4806    0.0000 </r>
      </set>
      <set comment="kpoint 16">
       <r>  -30.6272    1.0000 </r>
       <r>  -13.8525    1.0000 </r>
       <r>  -13.8465    1.0000 </r>
       <r>  -13.8026    1.0000 </r>
       <r>  -13.7967    1.0000 </r>
       <r>  -13.7966    1.0000 </r>
       <r>   -8.9729    1.0000 </r>
       <r>   -8.7033    1.0000 </r>
       <r>   -8.6693    1.0000 </r>
       <r>   -2.3755    1.0000 </r>
       <r>    3.2418    1.0000 </r>
       <r>    3.9439    1.0000 </r>
       <r>    4.2969    1.0000 </r>
       <r>    4.9967    1.0000 </r>
       <r>    5.2402    1.0000 </r>
       <r>    5.5475    1.0000 </r>
       <r>    7.3365    1.0000 </r>
       <r>    7.5815    1.0000 </r>
       <r>    8.9763    1.0000 </r>
       <r>   10.4066    0.0000 </r>
       <r>   10.6116    0.0000 </r>
       <r>   11.2847    0.0000 </r>
       <r>   11.3591    0.0000 </r>
       <r>   11.4818    0.0000 </r>
      </set>
      <set comment="kpoint 17">
       <r>  -30.6290    1.0000 </r>
       <r>  -13.8493    1.0000 </r>
       <r>  -13.8428    1.0000 </r>
       <r>  -13.8015    1.0000 </r>
       <r>  -13.7975    1.0000 </r>
       <r>  -13.7973    1.0000 </r>
       <r>   -8.9057    1.0000 </r>
       <r>   -8.7153    1.0000 </r>
       <r>   -8.6791    1.0000 </r>
       <r>   -2.6424    1.0000 </r>
       <r>    3.5404    1.0000 </r>
       <r>    3.9878    1.0000 </r>
       <r>    4.4280    1.0000 </r>
       <r>    5.0502    1.0000 </r>
       <r>    5.3184    1.0000 </r>
       <r>    5.8750    1.0000 </r>
       <r>    7.2829    1.0000 </r>
       <r>    7.6607    1.0000 </r>
       <r>    8.9336    1.0000 </r>
       <r>   10.0920    0.0000 </r>
       <r>   10.3312    0.0000 </r>
       <r>   11.0502    0.0000 </r>
       <r>   11.3836    0.0000 </r>
       <r>   11.4314    0.0000 </r>
      </set>
      <set comment="kpoint 18">
       <r>  -30.6309    1.0000 </r>
       <r>  -13.8452    1.0000 </r>
       <r>  -13.8398    1.0000 </r>
       <r>  -13.8006    1.0000 </r>
       <r>  -13.7983    1.0000 </r>
       <r>  -13.7980    1.0000 </r>
       <r>   -8.8315    1.0000 </r>
       <r>   -8.7236    1.0000 </r>
       <r>   -8.6921    1.0000 </r>
       <r>   -2.9213    1.0000 </r>
       <r>    3.8975    1.0000 </r>
       <r>    4.1083    1.0000 </r>
       <r>    4.5959    1.0000 </r>
       <r>    5.0221    1.0000 </r>
       <r>    5.2967    1.0000 </r>
       <r>    6.3129    1.0000 </r>
       <r>    7.3354    1.0000 </r>
       <r>    7.8071    1.0000 </r>
       <r>    8.9342    1.0000 </r>
       <r>    9.7894    0.0000 </r>
       <r>    9.8921    0.0000 </r>
       <r>   10.5865    0.0000 </r>
       <r>   11.2572    0.0000 </r>
       <r>   11.4240    0.0000 </r>
      </set>
      <set comment="kpoint 19">
       <r>  -30.6323    1.0000 </r>
       <r>  -13.8412    1.0000 </r>
       <r>  -13.8381    1.0000 </r>
       <r>  -13.7999    1.0000 </r>
       <r>  -13.7989    1.0000 </r>
       <r>  -13.7987    1.0000 </r>
       <r>   -8.7705    1.0000 </r>
       <r>   -8.7241    1.0000 </r>
       <r>   -8.7055    1.0000 </r>
       <r>   -3.1459    1.0000 </r>
       <r>    4.2504    1.0000 </r>
       <r>    4.2964    1.0000 </r>
       <r>    4.7160    1.0000 </r>
       <r>    4.9380    1.0000 </r>
       <r>    5.1774    1.0000 </r>
       <r>    6.7678    1.0000 </r>
       <r>    7.5965    1.0000 </r>
       <r>    7.9522    1.0000 </r>
       <r>    8.7734    1.0000 </r>
       <r>    9.5467    0.0000 </r>
       <r>    9.5856    0.0000 </r>
       <r>   10.0918    0.0000 </r>
       <r>   10.8867    0.0000 </r>
       <r>   11.4212    0.0000 </r>
      </set>
      <set comment="kpoint 20">
       <r>  -30.6312    1.0000 </r>
       <r>  -13.8456    1.0000 </r>
       <r>  -13.8358    1.0000 </r>
       <r>  -13.8010    1.0000 </r>
       <r>  -13.7980    1.0000 </r>
       <r>  -13.7980    1.0000 </r>
       <r>   -8.7835    1.0000 </r>
       <r>   -8.7277    1.0000 </r>
       <r>   -8.7277    1.0000 </r>
       <r>   -2.9963    1.0000 </r>
       <r>    3.6430    1.0000 </r>
       <r>    4.7255    1.0000 </r>
       <r>    4.7255    1.0000 </r>
       <r>    4.9088    1.0000 </r>
       <r>    5.0844    1.0000 </r>
       <r>    6.6348    1.0000 </r>
       <r>    7.5220    1.0000 </r>
       <r>    7.5220    1.0000 </r>
       <r>    8.9008    1.0000 </r>
       <r>    9.4717    0.0000 </r>
       <r>   10.2478    0.0000 </r>
       <r>   10.2478    0.0000 </r>
       <r>   11.1176    0.0000 </r>
       <r>   11.3247    0.0000 </r>
      </set>
      <set comment="kpoint 21">
       <r>  -30.6299    1.0000 </r>
       <r>  -13.8481    1.0000 </r>
       <r>  -13.8363    1.0000 </r>
       <r>  -13.8018    1.0000 </r>
       <r>  -13.7974    1.0000 </r>
       <r>  -13.7972    1.0000 </r>
       <r>   -8.8332    1.0000 </r>
       <r>   -8.7280    1.0000 </r>
       <r>   -8.7205    1.0000 </r>
       <r>   -2.8209    1.0000 </r>
       <r>    3.3997    1.0000 </r>
       <r>    4.5643    1.0000 </r>
       <r>    4.6397    1.0000 </r>
       <r>    4.9892    1.0000 </r>
       <r>    5.1461    1.0000 </r>
       <r>    6.3791    1.0000 </r>
       <r>    7.3313    1.0000 </r>
       <r>    7.4263    1.0000 </r>
       <r>    9.0299    1.0000 </r>
       <r>    9.6208    0.0000 </r>
       <r>   10.4706    0.0000 </r>
       <r>   10.6126    0.0000 </r>
       <r>   11.2786    0.0000 </r>
       <r>   11.3505    0.0000 </r>
      </set>
      <set comment="kpoint 22">
       <r>  -30.6282    1.0000 </r>
       <r>  -13.8498    1.0000 </r>
       <r>  -13.8389    1.0000 </r>
       <r>  -13.8025    1.0000 </r>
       <r>  -13.7970    1.0000 </r>
       <r>  -13.7963    1.0000 </r>
       <r>   -8.8988    1.0000 </r>
       <r>   -8.7212    1.0000 </r>
       <r>   -8.7097    1.0000 </r>
       <r>   -2.6058    1.0000 </r>
       <r>    3.2482    1.0000 </r>
       <r>    4.2993    1.0000 </r>
       <r>    4.5237    1.0000 </r>
       <r>    5.0090    1.0000 </r>
       <r>    5.2263    1.0000 </r>
       <r>    6.0316    1.0000 </r>
       <r>    7.1589    1.0000 </r>
       <r>    7.4163    1.0000 </r>
       <r>    9.1269    1.0000 </r>
       <r>    9.9477    0.0000 </r>
       <r>   10.6563    0.0000 </r>
       <r>   11.0214    0.0000 </r>
       <r>   11.2586    0.0000 </r>
       <r>   11.4679    0.0000 </r>
      </set>
      <set comment="kpoint 23">
       <r>  -30.6265    1.0000 </r>
       <r>  -13.8505    1.0000 </r>
       <r>  -13.8429    1.0000 </r>
       <r>  -13.8030    1.0000 </r>
       <r>  -13.7967    1.0000 </r>
       <r>  -13.7955    1.0000 </r>
       <r>   -8.9571    1.0000 </r>
       <r>   -8.7089    1.0000 </r>
       <r>   -8.7052    1.0000 </r>
       <r>   -2.4045    1.0000 </r>
       <r>    3.1858    1.0000 </r>
       <r>    4.0989    1.0000 </r>
       <r>    4.4021    1.0000 </r>
       <r>    4.9786    1.0000 </r>
       <r>    5.2339    1.0000 </r>
       <r>    5.6988    1.0000 </r>
       <r>    7.0915    1.0000 </r>
       <r>    7.4518    1.0000 </r>
       <r>    9.1251    1.0000 </r>
       <r>   10.3713    0.0000 </r>
       <r>   10.8018    0.0000 </r>
       <r>   11.2270    0.0000 </r>
       <r>   11.2651    0.0000 </r>
       <r>   11.5111    0.0000 </r>
      </set>
      <set comment="kpoint 24">
       <r>  -30.6253    1.0000 </r>
       <r>  -13.8500    1.0000 </r>
       <r>  -13.8473    1.0000 </r>
       <r>  -13.8033    1.0000 </r>
       <r>  -13.7967    1.0000 </r>
       <r>  -13.7950    1.0000 </r>
       <r>   -8.9964    1.0000 </r>
       <r>   -8.7087    1.0000 </r>
       <r>   -8.6939    1.0000 </r>
       <r>   -2.2579    1.0000 </r>
       <r>    3.1754    1.0000 </r>
       <r>    4.0190    1.0000 </r>
       <r>    4.2529    1.0000 </r>
       <r>    4.9844    1.0000 </r>
       <r>    5.1737    1.0000 </r>
       <r>    5.4612    1.0000 </r>
       <r>    7.0874    1.0000 </r>
       <r>    7.4779    1.0000 </r>
       <r>    9.1904    1.0000 </r>
       <r>   10.5649    0.0000 </r>
       <r>   10.8924    0.0000 </r>
       <r>   11.2475    0.0000 </r>
       <r>   11.2760    0.0000 </r>
       <r>   11.5258    0.0000 </r>
      </set>
      <set comment="kpoint 25">
       <r>  -30.6248    1.0000 </r>
       <r>  -13.8512    1.0000 </r>
       <r>  -13.8484    1.0000 </r>
       <r>  -13.8032    1.0000 </r>
       <r>  -13.7967    1.0000 </r>
       <r>  -13.7950    1.0000 </r>
       <r>   -9.0115    1.0000 </r>
       <r>   -8.7187    1.0000 </r>
       <r>   -8.6795    1.0000 </r>
       <r>   -2.1878    1.0000 </r>
       <r>    3.1693    1.0000 </r>
       <r>    4.0644    1.0000 </r>
       <r>    4.0885    1.0000 </r>
       <r>    5.0624    1.0000 </r>
       <r>    5.0749    1.0000 </r>
       <r>    5.3703    1.0000 </r>
       <r>    7.0831    1.0000 </r>
       <r>    7.4758    1.0000 </r>
       <r>    9.3036    0.0000 </r>
       <r>   10.5138    0.0000 </r>
       <r>   10.8981    0.0000 </r>
       <r>   11.2801    0.0000 </r>
       <r>   11.3055    0.0000 </r>
       <r>   11.4804    0.0000 </r>
      </set>
      <set comment="kpoint 26">
       <r>  -30.6251    1.0000 </r>
       <r>  -13.8536    1.0000 </r>
       <r>  -13.8461    1.0000 </r>
       <r>  -13.8028    1.0000 </r>
       <r>  -13.7968    1.0000 </r>
       <r>  -13.7954    1.0000 </r>
       <r>   -9.0016    1.0000 </r>
       <r>   -8.7320    1.0000 </r>
       <r>   -8.6690    1.0000 </r>
       <r>   -2.2033    1.0000 </r>
       <r>    3.1620    1.0000 </r>
       <r>    3.9486    1.0000 </r>
       <r>    4.1969    1.0000 </r>
       <r>    4.9889    1.0000 </r>
       <r>    5.1903    1.0000 </r>
       <r>    5.4314    1.0000 </r>
       <r>    7.0294    1.0000 </r>
       <r>    7.4635    1.0000 </r>
       <r>    9.3419    0.0000 </r>
       <r>   10.5574    0.0000 </r>
       <r>   10.7800    0.0000 </r>
       <r>   11.2916    0.0000 </r>
       <r>   11.3199    0.0000 </r>
       <r>   11.4949    0.0000 </r>
      </set>
      <set comment="kpoint 27">
       <r>  -30.6261    1.0000 </r>
       <r>  -13.8542    1.0000 </r>
       <r>  -13.8436    1.0000 </r>
       <r>  -13.8022    1.0000 </r>
       <r>  -13.7970    1.0000 </r>
       <r>  -13.7961    1.0000 </r>
       <r>   -8.9696    1.0000 </r>
       <r>   -8.7440    1.0000 </r>
       <r>   -8.6648    1.0000 </r>
       <r>   -2.3078    1.0000 </r>
       <r>    3.1972    1.0000 </r>
       <r>    3.8671    1.0000 </r>
       <r>    4.3736    1.0000 </r>
       <r>    4.9490    1.0000 </r>
       <r>    5.3201    1.0000 </r>
       <r>    5.6204    1.0000 </r>
       <r>    6.9176    1.0000 </r>
       <r>    7.4789    1.0000 </r>
       <r>    9.3238    0.0000 </r>
       <r>   10.5412    0.0000 </r>
       <r>   10.6192    0.0000 </r>
       <r>   11.2858    0.0000 </r>
       <r>   11.3138    0.0000 </r>
       <r>   11.5371    0.0000 </r>
      </set>
      <set comment="kpoint 28">
       <r>  -30.6277    1.0000 </r>
       <r>  -13.8526    1.0000 </r>
       <r>  -13.8413    1.0000 </r>
       <r>  -13.8016    1.0000 </r>
       <r>  -13.7972    1.0000 </r>
       <r>  -13.7970    1.0000 </r>
       <r>   -8.9222    1.0000 </r>
       <r>   -8.7492    1.0000 </r>
       <r>   -8.6680    1.0000 </r>
       <r>   -2.4902    1.0000 </r>
       <r>    3.3276    1.0000 </r>
       <r>    3.8639    1.0000 </r>
       <r>    4.5627    1.0000 </r>
       <r>    4.9352    1.0000 </r>
       <r>    5.3974    1.0000 </r>
       <r>    5.9049    1.0000 </r>
       <r>    6.8083    1.0000 </r>
       <r>    7.5570    1.0000 </r>
       <r>    9.3274    0.0000 </r>
       <r>   10.2388    0.0000 </r>
       <r>   10.4504    0.0000 </r>
       <r>   11.2003    0.0000 </r>
       <r>   11.3402    0.0000 </r>
       <r>   11.5243    0.0000 </r>
      </set>
      <set comment="kpoint 29">
       <r>  -30.6294    1.0000 </r>
       <r>  -13.8494    1.0000 </r>
       <r>  -13.8399    1.0000 </r>
       <r>  -13.8011    1.0000 </r>
       <r>  -13.7977    1.0000 </r>
       <r>  -13.7975    1.0000 </r>
       <r>   -8.8718    1.0000 </r>
       <r>   -8.7425    1.0000 </r>
       <r>   -8.6779    1.0000 </r>
       <r>   -2.7135    1.0000 </r>
       <r>    3.5712    1.0000 </r>
       <r>    3.9460    1.0000 </r>
       <r>    4.7092    1.0000 </r>
       <r>    4.9126    1.0000 </r>
       <r>    5.3880    1.0000 </r>
       <r>    6.1735    1.0000 </r>
       <r>    6.8929    1.0000 </r>
       <r>    7.6921    1.0000 </r>
       <r>    9.2797    0.0147 </r>
       <r>    9.9559    0.0000 </r>
       <r>   10.0844    0.0000 </r>
       <r>   10.9727    0.0000 </r>
       <r>   11.3697    0.0000 </r>
       <r>   11.4352    0.0000 </r>
      </set>
      <set comment="kpoint 30">
       <r>  -30.6289    1.0000 </r>
       <r>  -13.8486    1.0000 </r>
       <r>  -13.8345    1.0000 </r>
       <r>  -13.8028    1.0000 </r>
       <r>  -13.7965    1.0000 </r>
       <r>  -13.7965    1.0000 </r>
       <r>   -8.8416    1.0000 </r>
       <r>   -8.7369    1.0000 </r>
       <r>   -8.7369    1.0000 </r>
       <r>   -2.7382    1.0000 </r>
       <r>    3.2191    1.0000 </r>
       <r>    4.7142    1.0000 </r>
       <r>    4.7142    1.0000 </r>
       <r>    4.9511    1.0000 </r>
       <r>    4.9795    1.0000 </r>
       <r>    6.3717    1.0000 </r>
       <r>    7.3489    1.0000 </r>
       <r>    7.3489    1.0000 </r>
       <r>    8.7856    1.0000 </r>
       <r>    9.9366    0.0000 </r>
       <r>   10.6483    0.0000 </r>
       <r>   10.6483    0.0000 </r>
       <r>   11.1944    0.0000 </r>
       <r>   11.4373    0.0000 </r>
      </set>
      <set comment="kpoint 31">
       <r>  -30.6275    1.0000 </r>
       <r>  -13.8481    1.0000 </r>
       <r>  -13.8349    1.0000 </r>
       <r>  -13.8037    1.0000 </r>
       <r>  -13.7959    1.0000 </r>
       <r>  -13.7956    1.0000 </r>
       <r>   -8.8831    1.0000 </r>
       <r>   -8.7377    1.0000 </r>
       <r>   -8.7358    1.0000 </r>
       <r>   -2.6190    1.0000 </r>
       <r>    3.1656    1.0000 </r>
       <r>    4.5081    1.0000 </r>
       <r>    4.6488    1.0000 </r>
       <r>    5.0142    1.0000 </r>
       <r>    5.0157    1.0000 </r>
       <r>    6.2029    1.0000 </r>
       <r>    7.1933    1.0000 </r>
       <r>    7.3562    1.0000 </r>
       <r>    8.9415    1.0000 </r>
       <r>   10.0851    0.0000 </r>
       <r>   10.7857    0.0000 </r>
       <r>   10.8969    0.0000 </r>
       <r>   11.1453    0.0000 </r>
       <r>   11.4954    0.0000 </r>
      </set>
      <set comment="kpoint 32">
       <r>  -30.6261    1.0000 </r>
       <r>  -13.8468    1.0000 </r>
       <r>  -13.8376    1.0000 </r>
       <r>  -13.8040    1.0000 </r>
       <r>  -13.7957    1.0000 </r>
       <r>  -13.7948    1.0000 </r>
       <r>   -8.9281    1.0000 </r>
       <r>   -8.7365    1.0000 </r>
       <r>   -8.7303    1.0000 </r>
       <r>   -2.4972    1.0000 </r>
       <r>    3.2368    1.0000 </r>
       <r>    4.2563    1.0000 </r>
       <r>    4.5286    1.0000 </r>
       <r>    5.0242    1.0000 </r>
       <r>    5.1186    1.0000 </r>
       <r>    5.9512    1.0000 </r>
       <r>    6.9740    1.0000 </r>
       <r>    7.4035    1.0000 </r>
       <r>    9.1162    1.0000 </r>
       <r>   10.3473    0.0000 </r>
       <r>   10.8923    0.0000 </r>
       <r>   11.1385    0.0000 </r>
       <r>   11.1612    0.0000 </r>
       <r>   11.5223    0.0000 </r>
      </set>
      <set comment="kpoint 33">
       <r>  -30.6249    1.0000 </r>
       <r>  -13.8449    1.0000 </r>
       <r>  -13.8417    1.0000 </r>
       <r>  -13.8038    1.0000 </r>
       <r>  -13.7961    1.0000 </r>
       <r>  -13.7943    1.0000 </r>
       <r>   -8.9593    1.0000 </r>
       <r>   -8.7470    1.0000 </r>
       <r>   -8.7165    1.0000 </r>
       <r>   -2.3954    1.0000 </r>
       <r>    3.3793    1.0000 </r>
       <r>    4.0930    1.0000 </r>
       <r>    4.3613    1.0000 </r>
       <r>    5.0583    1.0000 </r>
       <r>    5.1607    1.0000 </r>
       <r>    5.6959    1.0000 </r>
       <r>    6.8274    1.0000 </r>
       <r>    7.4249    1.0000 </r>
       <r>    9.2013    1.0000 </r>
       <r>   10.5439    0.0000 </r>
       <r>   10.9703    0.0000 </r>
       <r>   11.2094    0.0000 </r>
       <r>   11.2144    0.0000 </r>
       <r>   11.5414    0.0000 </r>
      </set>
      <set comment="kpoint 34">
       <r>  -30.6243    1.0000 </r>
       <r>  -13.8464    1.0000 </r>
       <r>  -13.8430    1.0000 </r>
       <r>  -13.8030    1.0000 </r>
       <r>  -13.7968    1.0000 </r>
       <r>  -13.7943    1.0000 </r>
       <r>   -8.9709    1.0000 </r>
       <r>   -8.7657    1.0000 </r>
       <r>   -8.6992    1.0000 </r>
       <r>   -2.3227    1.0000 </r>
       <r>    3.4792    1.0000 </r>
       <r>    4.0501    1.0000 </r>
       <r>    4.1711    1.0000 </r>
       <r>    5.1227    1.0000 </r>
       <r>    5.1418    1.0000 </r>
       <r>    5.5582    1.0000 </r>
       <r>    6.7352    1.0000 </r>
       <r>    7.4021    1.0000 </r>
       <r>    9.3301    0.0000 </r>
       <r>   10.4598    0.0000 </r>
       <r>   11.0015    0.0000 </r>
       <r>   11.2490    0.0000 </r>
       <r>   11.2716    0.0000 </r>
       <r>   11.5178    0.0000 </r>
      </set>
      <set comment="kpoint 35">
       <r>  -30.6243    1.0000 </r>
       <r>  -13.8506    1.0000 </r>
       <r>  -13.8414    1.0000 </r>
       <r>  -13.8019    1.0000 </r>
       <r>  -13.7977    1.0000 </r>
       <r>  -13.7946    1.0000 </r>
       <r>   -8.9648    1.0000 </r>
       <r>   -8.7851    1.0000 </r>
       <r>   -8.6825    1.0000 </r>
       <r>   -2.2846    1.0000 </r>
       <r>    3.4404    1.0000 </r>
       <r>    3.9979    1.0000 </r>
       <r>    4.1265    1.0000 </r>
       <r>    5.0479    1.0000 </r>
       <r>    5.2564    1.0000 </r>
       <r>    5.6000    1.0000 </r>
       <r>    6.6476    1.0000 </r>
       <r>    7.3657    1.0000 </r>
       <r>    9.4900    0.0000 </r>
       <r>   10.3760    0.0000 </r>
       <r>   10.9382    0.0000 </r>
       <r>   11.2598    0.0000 </r>
       <r>   11.3186    0.0000 </r>
       <r>   11.4975    0.0000 </r>
      </set>
      <set comment="kpoint 36">
       <r>  -30.6250    1.0000 </r>
       <r>  -13.8534    1.0000 </r>
       <r>  -13.8406    1.0000 </r>
       <r>  -13.8011    1.0000 </r>
       <r>  -13.7981    1.0000 </r>
       <r>  -13.7954    1.0000 </r>
       <r>   -8.9491    1.0000 </r>
       <r>   -8.7938    1.0000 </r>
       <r>   -8.6700    1.0000 </r>
       <r>   -2.2935    1.0000 </r>
       <r>    3.3225    1.0000 </r>
       <r>    3.8754    1.0000 </r>
       <r>    4.2753    1.0000 </r>
       <r>    4.9922    1.0000 </r>
       <r>    5.3624    1.0000 </r>
       <r>    5.7709    1.0000 </r>
       <r>    6.5413    1.0000 </r>
       <r>    7.3645    1.0000 </r>
       <r>    9.5720    0.0000 </r>
       <r>   10.4327    0.0000 </r>
       <r>   10.7498    0.0000 </r>
       <r>   11.2779    0.0000 </r>
       <r>   11.3429    0.0000 </r>
       <r>   11.5067    0.0000 </r>
      </set>
      <set comment="kpoint 37">
       <r>  -30.6262    1.0000 </r>
       <r>  -13.8541    1.0000 </r>
       <r>  -13.8406    1.0000 </r>
       <r>  -13.8013    1.0000 </r>
       <r>  -13.7977    1.0000 </r>
       <r>  -13.7962    1.0000 </r>
       <r>   -8.9345    1.0000 </r>
       <r>   -8.7809    1.0000 </r>
       <r>   -8.6647    1.0000 </r>
       <r>   -2.3631    1.0000 </r>
       <r>    3.2563    1.0000 </r>
       <r>    3.8267    1.0000 </r>
       <r>    4.4522    1.0000 </r>
       <r>    4.9509    1.0000 </r>
       <r>    5.4162    1.0000 </r>
       <r>    5.9280    1.0000 </r>
       <r>    6.5228    1.0000 </r>
       <r>    7.4331    1.0000 </r>
       <r>    9.5380    0.0000 </r>
       <r>   10.4729    0.0000 </r>
       <r>   10.4882    0.0000 </r>
       <r>   11.3057    0.0000 </r>
       <r>   11.3079    0.0000 </r>
       <r>   11.5517    0.0000 </r>
      </set>
      <set comment="kpoint 38">
       <r>  -30.6265    1.0000 </r>
       <r>  -13.8453    1.0000 </r>
       <r>  -13.8330    1.0000 </r>
       <r>  -13.8048    1.0000 </r>
       <r>  -13.7948    1.0000 </r>
       <r>  -13.7948    1.0000 </r>
       <r>   -8.8964    1.0000 </r>
       <r>   -8.7471    1.0000 </r>
       <r>   -8.7471    1.0000 </r>
       <r>   -2.6035    1.0000 </r>
       <r>    3.2106    1.0000 </r>
       <r>    4.6522    1.0000 </r>
       <r>    4.6522    1.0000 </r>
       <r>    4.7476    1.0000 </r>
       <r>    5.0581    1.0000 </r>
       <r>    6.1402    1.0000 </r>
       <r>    7.3811    1.0000 </r>
       <r>    7.3811    1.0000 </r>
       <r>    8.7832    1.0000 </r>
       <r>   10.2828    0.0000 </r>
       <r>   10.8830    0.0000 </r>
       <r>   10.8830    0.0000 </r>
       <r>   11.0413    0.0000 </r>
       <r>   11.4982    0.0000 </r>
      </set>
      <set comment="kpoint 39">
       <r>  -30.6254    1.0000 </r>
       <r>  -13.8421    1.0000 </r>
       <r>  -13.8336    1.0000 </r>
       <r>  -13.8054    1.0000 </r>
       <r>  -13.7943    1.0000 </r>
       <r>  -13.7940    1.0000 </r>
       <r>   -8.9232    1.0000 </r>
       <r>   -8.7528    1.0000 </r>
       <r>   -8.7472    1.0000 </r>
       <r>   -2.5702    1.0000 </r>
       <r>    3.3819    1.0000 </r>
       <r>    4.4110    1.0000 </r>
       <r>    4.5798    1.0000 </r>
       <r>    4.8617    1.0000 </r>
       <r>    5.0874    1.0000 </r>
       <r>    5.9656    1.0000 </r>
       <r>    7.2603    1.0000 </r>
       <r>    7.4456    1.0000 </r>
       <r>    8.9445    1.0000 </r>
       <r>   10.4457    0.0000 </r>
       <r>   10.9549    0.0000 </r>
       <r>   11.0218    0.0000 </r>
       <r>   11.0320    0.0000 </r>
       <r>   11.5024    0.0000 </r>
      </set>
      <set comment="kpoint 40">
       <r>  -30.6244    1.0000 </r>
       <r>  -13.8391    1.0000 </r>
       <r>  -13.8364    1.0000 </r>
       <r>  -13.8053    1.0000 </r>
       <r>  -13.7945    1.0000 </r>
       <r>  -13.7935    1.0000 </r>
       <r>   -8.9408    1.0000 </r>
       <r>   -8.7689    1.0000 </r>
       <r>   -8.7382    1.0000 </r>
       <r>   -2.5241    1.0000 </r>
       <r>    3.6255    1.0000 </r>
       <r>    4.2010    1.0000 </r>
       <r>    4.4485    1.0000 </r>
       <r>    5.0007    1.0000 </r>
       <r>    5.1251    1.0000 </r>
       <r>    5.7509    1.0000 </r>
       <r>    6.9663    1.0000 </r>
       <r>    7.4648    1.0000 </r>
       <r>    9.1096    1.0000 </r>
       <r>   10.6143    0.0000 </r>
       <r>   11.0108    0.0000 </r>
       <r>   11.1131    0.0000 </r>
       <r>   11.1496    0.0000 </r>
       <r>   11.5356    0.0000 </r>
      </set>
      <set comment="kpoint 41">
       <r>  -30.6238    1.0000 </r>
       <r>  -13.8409    1.0000 </r>
       <r>  -13.8372    1.0000 </r>
       <r>  -13.8043    1.0000 </r>
       <r>  -13.7956    1.0000 </r>
       <r>  -13.7934    1.0000 </r>
       <r>   -8.9397    1.0000 </r>
       <r>   -8.7984    1.0000 </r>
       <r>   -8.7221    1.0000 </r>
       <r>   -2.4653    1.0000 </r>
       <r>    3.8224    1.0000 </r>
       <r>    4.0869    1.0000 </r>
       <r>    4.2781    1.0000 </r>
       <r>    5.0767    1.0000 </r>
       <r>    5.1941    1.0000 </r>
       <r>    5.6090    1.0000 </r>
       <r>    6.6748    1.0000 </r>
       <r>    7.4134    1.0000 </r>
       <r>    9.2365    1.0000 </r>
       <r>   10.5591    0.0000 </r>
       <r>   11.0526    0.0000 </r>
       <r>   11.1961    0.0000 </r>
       <r>   11.2192    0.0000 </r>
       <r>   11.5196    0.0000 </r>
      </set>
      <set comment="kpoint 42">
       <r>  -30.6237    1.0000 </r>
       <r>  -13.8459    1.0000 </r>
       <r>  -13.8370    1.0000 </r>
       <r>  -13.8026    1.0000 </r>
       <r>  -13.7971    1.0000 </r>
       <r>  -13.7938    1.0000 </r>
       <r>   -8.9238    1.0000 </r>
       <r>   -8.8317    1.0000 </r>
       <r>   -8.7024    1.0000 </r>
       <r>   -2.3964    1.0000 </r>
       <r>    3.8055    1.0000 </r>
       <r>    4.0745    1.0000 </r>
       <r>    4.1040    1.0000 </r>
       <r>    5.0596    1.0000 </r>
       <r>    5.2800    1.0000 </r>
       <r>    5.6736    1.0000 </r>
       <r>    6.4505    1.0000 </r>
       <r>    7.3399    1.0000 </r>
       <r>    9.4172    0.0000 </r>
       <r>   10.4119    0.0000 </r>
       <r>   11.0528    0.0000 </r>
       <r>   11.2292    0.0000 </r>
       <r>   11.2537    0.0000 </r>
       <r>   11.5197    0.0000 </r>
      </set>
      <set comment="kpoint 43">
       <r>  -30.6241    1.0000 </r>
       <r>  -13.8504    1.0000 </r>
       <r>  -13.8382    1.0000 </r>
       <r>  -13.8008    1.0000 </r>
       <r>  -13.7986    1.0000 </r>
       <r>  -13.7945    1.0000 </r>
       <r>   -8.9231    1.0000 </r>
       <r>   -8.8346    1.0000 </r>
       <r>   -8.6836    1.0000 </r>
       <r>   -2.3309    1.0000 </r>
       <r>    3.5737    1.0000 </r>
       <r>    3.9606    1.0000 </r>
       <r>    4.1513    1.0000 </r>
       <r>    5.0291    1.0000 </r>
       <r>    5.3472    1.0000 </r>
       <r>    5.8195    1.0000 </r>
       <r>    6.3538    1.0000 </r>
       <r>    7.3111    1.0000 </r>
       <r>    9.5943    0.0000 </r>
       <r>   10.3388    0.0000 </r>
       <r>   10.9495    0.0000 </r>
       <r>   11.2556    0.0000 </r>
       <r>   11.2860    0.0000 </r>
       <r>   11.5046    0.0000 </r>
      </set>
      <set comment="kpoint 44">
       <r>  -30.6246    1.0000 </r>
       <r>  -13.8375    1.0000 </r>
       <r>  -13.8318    1.0000 </r>
       <r>  -13.8065    1.0000 </r>
       <r>  -13.7933    1.0000 </r>
       <r>  -13.7933    1.0000 </r>
       <r>   -8.9380    1.0000 </r>
       <r>   -8.7558    1.0000 </r>
       <r>   -8.7558    1.0000 </r>
       <r>   -2.6135    1.0000 </r>
       <r>    3.6270    1.0000 </r>
       <r>    4.5686    1.0000 </r>
       <r>    4.5699    1.0000 </r>
       <r>    4.5699    1.0000 </r>
       <r>    5.1263    1.0000 </r>
       <r>    5.8027    1.0000 </r>
       <r>    7.5433    1.0000 </r>
       <r>    7.5433    1.0000 </r>
       <r>    8.8657    1.0000 </r>
       <r>   10.5652    0.0000 </r>
       <r>   10.9067    0.0000 </r>
       <r>   11.0053    0.0000 </r>
       <r>   11.0053    0.0000 </r>
       <r>   11.3839    0.0000 </r>
      </set>
      <set comment="kpoint 45">
       <r>  -30.6239    1.0000 </r>
       <r>  -13.8341    1.0000 </r>
       <r>  -13.8326    1.0000 </r>
       <r>  -13.8067    1.0000 </r>
       <r>  -13.7931    1.0000 </r>
       <r>  -13.7928    1.0000 </r>
       <r>   -8.9489    1.0000 </r>
       <r>   -8.7659    1.0000 </r>
       <r>   -8.7542    1.0000 </r>
       <r>   -2.6193    1.0000 </r>
       <r>    3.9196    1.0000 </r>
       <r>    4.3284    1.0000 </r>
       <r>    4.5035    1.0000 </r>
       <r>    4.7472    1.0000 </r>
       <r>    5.1562    1.0000 </r>
       <r>    5.5793    1.0000 </r>
       <r>    7.4139    1.0000 </r>
       <r>    7.5882    1.0000 </r>
       <r>    8.9878    1.0000 </r>
       <r>   10.7252    0.0000 </r>
       <r>   10.9310    0.0000 </r>
       <r>   11.0513    0.0000 </r>
       <r>   11.0852    0.0000 </r>
       <r>   11.3341    0.0000 </r>
      </set>
      <set comment="kpoint 46">
       <r>  -30.6235    1.0000 </r>
       <r>  -13.8358    1.0000 </r>
       <r>  -13.8327    1.0000 </r>
       <r>  -13.8060    1.0000 </r>
       <r>  -13.7939    1.0000 </r>
       <r>  -13.7927    1.0000 </r>
       <r>   -8.9424    1.0000 </r>
       <r>   -8.7925    1.0000 </r>
       <r>   -8.7428    1.0000 </r>
       <r>   -2.5825    1.0000 </r>
       <r>    4.0921    1.0000 </r>
       <r>    4.2159    1.0000 </r>
       <r>    4.3866    1.0000 </r>
       <r>    4.9316    1.0000 </r>
       <r>    5.2022    1.0000 </r>
       <r>    5.4088    1.0000 </r>
       <r>    7.0331    1.0000 </r>
       <r>    7.5232    1.0000 </r>
       <r>    9.1064    1.0000 </r>
       <r>   10.7263    0.0000 </r>
       <r>   11.0347    0.0000 </r>
       <r>   11.1314    0.0000 </r>
       <r>   11.1407    0.0000 </r>
       <r>   11.4661    0.0000 </r>
      </set>
      <set comment="kpoint 47">
       <r>  -30.6234    1.0000 </r>
       <r>  -13.8406    1.0000 </r>
       <r>  -13.8337    1.0000 </r>
       <r>  -13.8045    1.0000 </r>
       <r>  -13.7954    1.0000 </r>
       <r>  -13.7931    1.0000 </r>
       <r>   -8.9211    1.0000 </r>
       <r>   -8.8287    1.0000 </r>
       <r>   -8.7242    1.0000 </r>
       <r>   -2.5042    1.0000 </r>
       <r>    4.0425    1.0000 </r>
       <r>    4.1447    1.0000 </r>
       <r>    4.2431    1.0000 </r>
       <r>    5.0297    1.0000 </r>
       <r>    5.2541    1.0000 </r>
       <r>    5.4949    1.0000 </r>
       <r>    6.6402    1.0000 </r>
       <r>    7.4086    1.0000 </r>
       <r>    9.2455    0.9959 </r>
       <r>   10.5729    0.0000 </r>
       <r>   11.0727    0.0000 </r>
       <r>   11.1632    0.0000 </r>
       <r>   11.2423    0.0000 </r>
       <r>   11.4976    0.0000 </r>
      </set>
      <set comment="kpoint 48">
       <r>  -30.6235    1.0000 </r>
       <r>  -13.8311    1.0000 </r>
       <r>  -13.8309    1.0000 </r>
       <r>  -13.8074    1.0000 </r>
       <r>  -13.7923    1.0000 </r>
       <r>  -13.7923    1.0000 </r>
       <r>   -8.9604    1.0000 </r>
       <r>   -8.7609    1.0000 </r>
       <r>   -8.7609    1.0000 </r>
       <r>   -2.6648    1.0000 </r>
       <r>    4.2124    1.0000 </r>
       <r>    4.4680    1.0000 </r>
       <r>    4.5147    1.0000 </r>
       <r>    4.5147    1.0000 </r>
       <r>    5.1661    1.0000 </r>
       <r>    5.3551    1.0000 </r>
       <r>    7.6886    1.0000 </r>
       <r>    7.6886    1.0000 </r>
       <r>    8.9540    1.0000 </r>
       <r>   10.8115    0.0000 </r>
       <r>   10.8283    0.0000 </r>
       <r>   11.0621    0.0000 </r>
       <r>   11.0621    0.0000 </r>
       <r>   11.0794    0.0000 </r>
      </set>
      <set comment="kpoint 49">
       <r>  -30.6234    1.0000 </r>
       <r>  -13.8322    1.0000 </r>
       <r>  -13.8304    1.0000 </r>
       <r>  -13.8072    1.0000 </r>
       <r>  -13.7926    1.0000 </r>
       <r>  -13.7923    1.0000 </r>
       <r>   -8.9577    1.0000 </r>
       <r>   -8.7708    1.0000 </r>
       <r>   -8.7568    1.0000 </r>
       <r>   -2.6523    1.0000 </r>
       <r>    4.2599    1.0000 </r>
       <r>    4.3585    1.0000 </r>
       <r>    4.4728    1.0000 </r>
       <r>    4.7146    1.0000 </r>
       <r>    5.1828    1.0000 </r>
       <r>    5.2524    1.0000 </r>
       <r>    7.4922    1.0000 </r>
       <r>    7.6561    1.0000 </r>
       <r>    9.0104    1.0000 </r>
       <r>   10.8728    0.0000 </r>
       <r>   10.9040    0.0000 </r>
       <r>   11.0817    0.0000 </r>
       <r>   11.0859    0.0000 </r>
       <r>   11.1827    0.0000 </r>
      </set>
      <set comment="kpoint 50">
       <r>  -30.6307    1.0000 </r>
       <r>  -13.8463    1.0000 </r>
       <r>  -13.8378    1.0000 </r>
       <r>  -13.8009    1.0000 </r>
       <r>  -13.7980    1.0000 </r>
       <r>  -13.7979    1.0000 </r>
       <r>   -8.8203    1.0000 </r>
       <r>   -8.7316    1.0000 </r>
       <r>   -8.7013    1.0000 </r>
       <r>   -2.9147    1.0000 </r>
       <r>    3.6601    1.0000 </r>
       <r>    4.3400    1.0000 </r>
       <r>    4.7296    1.0000 </r>
       <r>    4.9367    1.0000 </r>
       <r>    5.2546    1.0000 </r>
       <r>    6.4311    1.0000 </r>
       <r>    7.2454    1.0000 </r>
       <r>    7.6821    1.0000 </r>
       <r>    9.2615    0.6540 </r>
       <r>    9.3367    0.0000 </r>
       <r>   10.1451    0.0000 </r>
       <r>   10.5751    0.0000 </r>
       <r>   11.2444    0.0000 </r>
       <r>   11.3473    0.0000 </r>
      </set>
      <set comment="kpoint 51">
       <r>  -30.6291    1.0000 </r>
       <r>  -13.8496    1.0000 </r>
       <r>  -13.8396    1.0000 </r>
       <r>  -13.8016    1.0000 </r>
       <r>  -13.7975    1.0000 </r>
       <r>  -13.7971    1.0000 </r>
       <r>   -8.8806    1.0000 </r>
       <r>   -8.7341    1.0000 </r>
       <r>   -8.6877    1.0000 </r>
       <r>   -2.6836    1.0000 </r>
       <r>    3.4181    1.0000 </r>
       <r>    4.1295    1.0000 </r>
       <r>    4.6160    1.0000 </r>
       <r>    4.9736    1.0000 </r>
       <r>    5.3211    1.0000 </r>
       <r>    6.1028    1.0000 </r>
       <r>    7.0445    1.0000 </r>
       <r>    7.5898    1.0000 </r>
       <r>    9.2086    1.0000 </r>
       <r>    9.8170    0.0000 </r>
       <r>   10.4084    0.0000 </r>
       <r>   10.9649    0.0000 </r>
       <r>   11.3255    0.0000 </r>
       <r>   11.4519    0.0000 </r>
      </set>
      <set comment="kpoint 52">
       <r>  -30.6273    1.0000 </r>
       <r>  -13.8520    1.0000 </r>
       <r>  -13.8426    1.0000 </r>
       <r>  -13.8023    1.0000 </r>
       <r>  -13.7970    1.0000 </r>
       <r>  -13.7963    1.0000 </r>
       <r>   -8.9429    1.0000 </r>
       <r>   -8.7275    1.0000 </r>
       <r>   -8.6783    1.0000 </r>
       <r>   -2.4497    1.0000 </r>
       <r>    3.2455    1.0000 </r>
       <r>    3.9911    1.0000 </r>
       <r>    4.4573    1.0000 </r>
       <r>    4.9688    1.0000 </r>
       <r>    5.3059    1.0000 </r>
       <r>    5.7528    1.0000 </r>
       <r>    7.0519    1.0000 </r>
       <r>    7.5208    1.0000 </r>
       <r>    9.1645    1.0000 </r>
       <r>   10.2532    0.0000 </r>
       <r>   10.6562    0.0000 </r>
       <r>   11.2083    0.0000 </r>
       <r>   11.3211    0.0000 </r>
       <r>   11.4954    0.0000 </r>
      </set>
      <set comment="kpoint 53">
       <r>  -30.6258    1.0000 </r>
       <r>  -13.8530    1.0000 </r>
[...]
       <r>    9.6887    0.0000 </r>
       <r>   10.1406    0.0000 </r>
       <r>   11.0173    0.0000 </r>
       <r>   11.1592    0.0000 </r>
       <r>   11.2990    0.0000 </r>
       <r>   11.4731    0.0000 </r>
      </set>
      <set comment="kpoint 81">
       <r>  -30.6238    1.0000 </r>
       <r>  -13.8477    1.0000 </r>
       <r>  -13.8354    1.0000 </r>
       <r>  -13.8016    1.0000 </r>
       <r>  -13.7988    1.0000 </r>
       <r>  -13.7933    1.0000 </r>
       <r>   -8.9173    1.0000 </r>
       <r>   -8.8237    1.0000 </r>
       <r>   -8.7134    1.0000 </r>
       <r>   -2.3977    1.0000 </r>
       <r>    3.7362    1.0000 </r>
       <r>    3.9283    1.0000 </r>
       <r>    4.3589    1.0000 </r>
       <r>    5.0607    1.0000 </r>
       <r>    5.2796    1.0000 </r>
       <r>    5.7710    1.0000 </r>
       <r>    6.1383    1.0000 </r>
       <r>    7.5541    1.0000 </r>
       <r>    9.7178    0.0000 </r>
       <r>   10.1267    0.0000 </r>
       <r>   10.9996    0.0000 </r>
       <r>   11.1619    0.0000 </r>
       <r>   11.3120    0.0000 </r>
       <r>   11.4663    0.0000 </r>
      </set>
      <set comment="kpoint 82">
       <r>  -30.6234    1.0000 </r>
       <r>  -13.8409    1.0000 </r>
       <r>  -13.8310    1.0000 </r>
       <r>  -13.8047    1.0000 </r>
       <r>  -13.7960    1.0000 </r>
       <r>  -13.7923    1.0000 </r>
       <r>   -8.9248    1.0000 </r>
       <r>   -8.7976    1.0000 </r>
       <r>   -8.7547    1.0000 </r>
       <r>   -2.5343    1.0000 </r>
       <r>    3.9518    1.0000 </r>
       <r>    4.2001    1.0000 </r>
       <r>    4.4912    1.0000 </r>
       <r>    4.9750    1.0000 </r>
       <r>    5.2653    1.0000 </r>
       <r>    5.4427    1.0000 </r>
       <r>    6.4006    1.0000 </r>
       <r>    7.7479    1.0000 </r>
       <r>    9.3680    0.0000 </r>
       <r>   10.5101    0.0000 </r>
       <r>   10.9217    0.0000 </r>
       <r>   11.0641    0.0000 </r>
       <r>   11.2146    0.0000 </r>
       <r>   11.4911    0.0000 </r>
      </set>
      <set comment="kpoint 83">
       <r>  -30.6233    1.0000 </r>
       <r>  -13.8437    1.0000 </r>
       <r>  -13.8310    1.0000 </r>
       <r>  -13.8033    1.0000 </r>
       <r>  -13.7977    1.0000 </r>
       <r>  -13.7923    1.0000 </r>
       <r>   -8.9052    1.0000 </r>
       <r>   -8.8234    1.0000 </r>
       <r>   -8.7485    1.0000 </r>
       <r>   -2.4940    1.0000 </r>
       <r>    3.8966    1.0000 </r>
       <r>    4.2216    1.0000 </r>
       <r>    4.4467    1.0000 </r>
       <r>    5.0220    1.0000 </r>
       <r>    5.3106    1.0000 </r>
       <r>    5.5056    1.0000 </r>
       <r>    6.0830    1.0000 </r>
       <r>    7.7325    1.0000 </r>
       <r>    9.5507    0.0000 </r>
       <r>   10.3339    0.0000 </r>
       <r>   10.9686    0.0000 </r>
       <r>   11.0737    0.0000 </r>
       <r>   11.2641    0.0000 </r>
       <r>   11.4956    0.0000 </r>
      </set>
      <set comment="kpoint 84">
       <r>  -30.6233    1.0000 </r>
       <r>  -13.8453    1.0000 </r>
       <r>  -13.8310    1.0000 </r>
       <r>  -13.8020    1.0000 </r>
       <r>  -13.7992    1.0000 </r>
       <r>  -13.7923    1.0000 </r>
       <r>   -8.8960    1.0000 </r>
       <r>   -8.8288    1.0000 </r>
       <r>   -8.7504    1.0000 </r>
       <r>   -2.4718    1.0000 </r>
       <r>    3.8599    1.0000 </r>
       <r>    4.1841    1.0000 </r>
       <r>    4.4651    1.0000 </r>
       <r>    5.0349    1.0000 </r>
       <r>    5.3428    1.0000 </r>
       <r>    5.6193    1.0000 </r>
       <r>    5.8473    1.0000 </r>
       <r>    7.7573    1.0000 </r>
       <r>    9.7965    0.0000 </r>
       <r>   10.0956    0.0000 </r>
       <r>   10.9494    0.0000 </r>
       <r>   11.0695    0.0000 </r>
       <r>   11.3041    0.0000 </r>
       <r>   11.4615    0.0000 </r>
      </set>
     </set>
    </set>
   </array>
  </eigenvalues>
  <separator name="orbital magnetization" >
   <v name="MAGDIPOLOUT">      0.00000000      0.00000000      0.00000000</v>
  </separator>
  <dos>
   <i name="efermi">      9.26425987 </i>
   <total>
    <array>
     <dimension dim="1">gridpoints</dimension>
     <dimension dim="2">spin</dimension>
     <field>energy</field>
     <field>total</field>
     <field>integrated</field>
     <set>
      <set comment="spin 1">
       <r>   -32.7428     0.0000     0.0000 </r>
       <r>   -32.5881     0.0000     0.0000 </r>
       <r>   -32.4334     0.0000     0.0000 </r>
       <r>   -32.2788     0.0000     0.0000 </r>
       <r>   -32.1241     0.0000     0.0000 </r>
       <r>   -31.9694     0.0000     0.0000 </r>
       <r>   -31.8147     0.0000     0.0000 </r>
       <r>   -31.6600     0.0000     0.0000 </r>
       <r>   -31.5054     0.0000     0.0000 </r>
       <r>   -31.3507     0.0000     0.0000 </r>
       <r>   -31.1960     0.0000     0.0000 </r>
       <r>   -31.0413     0.0000     0.0000 </r>
       <r>   -30.8866     0.0000     0.0000 </r>
       <r>   -30.7320     0.0000     0.0000 </r>
       <r>   -30.5773    12.9300     2.0000 </r>
       <r>   -30.4226     0.0000     2.0000 </r>
       <r>   -30.2679     0.0000     2.0000 </r>
       <r>   -30.1133     0.0000     2.0000 </r>
       <r>   -29.9586     0.0000     2.0000 </r>
       <r>   -29.8039     0.0000     2.0000 </r>
       <r>   -29.6492     0.0000     2.0000 </r>
       <r>   -29.4945     0.0000     2.0000 </r>
       <r>   -29.3399     0.0000     2.0000 </r>
       <r>   -29.1852     0.0000     2.0000 </r>
       <r>   -29.0305     0.0000     2.0000 </r>
       <r>   -28.8758     0.0000     2.0000 </r>
       <r>   -28.7211     0.0000     2.0000 </r>
       <r>   -28.5665     0.0000     2.0000 </r>
       <r>   -28.4118     0.0000     2.0000 </r>
       <r>   -28.2571     0.0000     2.0000 </r>
       <r>   -28.1024     0.0000     2.0000 </r>
       <r>   -27.9477     0.0000     2.0000 </r>
       <r>   -27.7931     0.0000     2.0000 </r>
       <r>   -27.6384     0.0000     2.0000 </r>
       <r>   -27.4837     0.0000     2.0000 </r>
       <r>   -27.3290     0.0000     2.0000 </r>
       <r>   -27.1743     0.0000     2.0000 </r>
       <r>   -27.0197     0.0000     2.0000 </r>
       <r>   -26.8650     0.0000     2.0000 </r>
       <r>   -26.7103     0.0000     2.0000 </r>
       <r>   -26.5556     0.0000     2.0000 </r>
       <r>   -26.4010     0.0000     2.0000 </r>
       <r>   -26.2463     0.0000     2.0000 </r>
       <r>   -26.0916     0.0000     2.0000 </r>
       <r>   -25.9369     0.0000     2.0000 </r>
       <r>   -25.7822     0.0000     2.0000 </r>
       <r>   -25.6276     0.0000     2.0000 </r>
       <r>   -25.4729     0.0000     2.0000 </r>
       <r>   -25.3182     0.0000     2.0000 </r>
       <r>   -25.1635     0.0000     2.0000 </r>
       <r>   -25.0088     0.0000     2.0000 </r>
       <r>   -24.8542     0.0000     2.0000 </r>
       <r>   -24.6995     0.0000     2.0000 </r>
       <r>   -24.5448     0.0000     2.0000 </r>
       <r>   -24.3901     0.0000     2.0000 </r>
       <r>   -24.2354     0.0000     2.0000 </r>
       <r>   -24.0808     0.0000     2.0000 </r>
       <r>   -23.9261     0.0000     2.0000 </r>
       <r>   -23.7714     0.0000     2.0000 </r>
       <r>   -23.6167     0.0000     2.0000 </r>
       <r>   -23.4620     0.0000     2.0000 </r>
       <r>   -23.3074     0.0000     2.0000 </r>
       <r>   -23.1527     0.0000     2.0000 </r>
       <r>   -22.9980     0.0000     2.0000 </r>
       <r>   -22.8433     0.0000     2.0000 </r>
       <r>   -22.6887     0.0000     2.0000 </r>
       <r>   -22.5340     0.0000     2.0000 </r>
       <r>   -22.3793     0.0000     2.0000 </r>
       <r>   -22.2246     0.0000     2.0000 </r>
       <r>   -22.0699     0.0000     2.0000 </r>
       <r>   -21.9153     0.0000     2.0000 </r>
       <r>   -21.7606     0.0000     2.0000 </r>
       <r>   -21.6059     0.0000     2.0000 </r>
       <r>   -21.4512     0.0000     2.0000 </r>
       <r>   -21.2965     0.0000     2.0000 </r>
       <r>   -21.1419     0.0000     2.0000 </r>
       <r>   -20.9872     0.0000     2.0000 </r>
       <r>   -20.8325     0.0000     2.0000 </r>
       <r>   -20.6778     0.0000     2.0000 </r>
       <r>   -20.5231     0.0000     2.0000 </r>
       <r>   -20.3685     0.0000     2.0000 </r>
       <r>   -20.2138     0.0000     2.0000 </r>
       <r>   -20.0591     0.0000     2.0000 </r>
       <r>   -19.9044     0.0000     2.0000 </r>
       <r>   -19.7497     0.0000     2.0000 </r>
       <r>   -19.5951     0.0000     2.0000 </r>
       <r>   -19.4404     0.0000     2.0000 </r>
       <r>   -19.2857     0.0000     2.0000 </r>
       <r>   -19.1310     0.0000     2.0000 </r>
       <r>   -18.9764     0.0000     2.0000 </r>
       <r>   -18.8217     0.0000     2.0000 </r>
       <r>   -18.6670     0.0000     2.0000 </r>
       <r>   -18.5123     0.0000     2.0000 </r>
       <r>   -18.3576     0.0000     2.0000 </r>
       <r>   -18.2030     0.0000     2.0000 </r>
       <r>   -18.0483     0.0000     2.0000 </r>
       <r>   -17.8936     0.0000     2.0000 </r>
       <r>   -17.7389     0.0000     2.0000 </r>
       <r>   -17.5842     0.0000     2.0000 </r>
       <r>   -17.4296     0.0000     2.0000 </r>
       <r>   -17.2749     0.0000     2.0000 </r>
       <r>   -17.1202     0.0000     2.0000 </r>
       <r>   -16.9655     0.0000     2.0000 </r>
       <r>   -16.8108     0.0000     2.0000 </r>
       <r>   -16.6562     0.0000     2.0000 </r>
       <r>   -16.5015     0.0000     2.0000 </r>
       <r>   -16.3468     0.0000     2.0000 </r>
       <r>   -16.1921     0.0000     2.0000 </r>
       <r>   -16.0374     0.0000     2.0000 </r>
       <r>   -15.8828     0.0000     2.0000 </r>
       <r>   -15.7281     0.0000     2.0000 </r>
       <r>   -15.5734     0.0000     2.0000 </r>
       <r>   -15.4187     0.0000     2.0000 </r>
       <r>   -15.2641     0.0000     2.0000 </r>
       <r>   -15.1094     0.0000     2.0000 </r>
       <r>   -14.9547     0.0000     2.0000 </r>
       <r>   -14.8000     0.0000     2.0000 </r>
       <r>   -14.6453     0.0000     2.0000 </r>
       <r>   -14.4907     0.0000     2.0000 </r>
       <r>   -14.3360     0.0000     2.0000 </r>
       <r>   -14.1813     0.0000     2.0000 </r>
       <r>   -14.0266     0.0000     2.0000 </r>
       <r>   -13.8719     0.0169     2.0026 </r>
       <r>   -13.7173    19.4921    12.0000 </r>
       <r>   -13.5626     0.0000    12.0000 </r>
       <r>   -13.4079     0.0000    12.0000 </r>
       <r>   -13.2532     0.0000    12.0000 </r>
       <r>   -13.0985     0.0000    12.0000 </r>
       <r>   -12.9439     0.0000    12.0000 </r>
       <r>   -12.7892     0.0000    12.0000 </r>
       <r>   -12.6345     0.0000    12.0000 </r>
       <r>   -12.4798     0.0000    12.0000 </r>
       <r>   -12.3251     0.0000    12.0000 </r>
       <r>   -12.1705     0.0000    12.0000 </r>
       <r>   -12.0158     0.0000    12.0000 </r>
       <r>   -11.8611     0.0000    12.0000 </r>
       <r>   -11.7064     0.0000    12.0000 </r>
       <r>   -11.5518     0.0000    12.0000 </r>
       <r>   -11.3971     0.0000    12.0000 </r>
       <r>   -11.2424     0.0000    12.0000 </r>
       <r>   -11.0877     0.0000    12.0000 </r>
       <r>   -10.9330     0.0000    12.0000 </r>
       <r>   -10.7784     0.0000    12.0000 </r>
       <r>   -10.6237     0.0000    12.0000 </r>
       <r>   -10.4690     0.0000    12.0000 </r>
       <r>   -10.3143     0.0000    12.0000 </r>
       <r>   -10.1596     0.0000    12.0000 </r>
       <r>   -10.0050     0.0000    12.0000 </r>
       <r>    -9.8503     0.0000    12.0000 </r>
       <r>    -9.6956     0.0000    12.0000 </r>
       <r>    -9.5409     0.0000    12.0000 </r>
       <r>    -9.3862     0.0000    12.0000 </r>
       <r>    -9.2316     0.0000    12.0000 </r>
       <r>    -9.0769     0.0000    12.0000 </r>
       <r>    -8.9222     7.9649    13.3777 </r>
       <r>    -8.7675     6.2715    14.8399 </r>
       <r>    -8.6128     5.5793    18.0000 </r>
       <r>    -8.4582     0.0000    18.0000 </r>
       <r>    -8.3035     0.0000    18.0000 </r>
       <r>    -8.1488     0.0000    18.0000 </r>
       <r>    -7.9941     0.0000    18.0000 </r>
       <r>    -7.8395     0.0000    18.0000 </r>
       <r>    -7.6848     0.0000    18.0000 </r>
       <r>    -7.5301     0.0000    18.0000 </r>
       <r>    -7.3754     0.0000    18.0000 </r>
       <r>    -7.2207     0.0000    18.0000 </r>
       <r>    -7.0661     0.0000    18.0000 </r>
       <r>    -6.9114     0.0000    18.0000 </r>
       <r>    -6.7567     0.0000    18.0000 </r>
       <r>    -6.6020     0.0000    18.0000 </r>
       <r>    -6.4473     0.0000    18.0000 </r>
       <r>    -6.2927     0.0000    18.0000 </r>
       <r>    -6.1380     0.0000    18.0000 </r>
       <r>    -5.9833     0.0000    18.0000 </r>
       <r>    -5.8286     0.0000    18.0000 </r>
       <r>    -5.6739     0.0000    18.0000 </r>
       <r>    -5.5193     0.0000    18.0000 </r>
       <r>    -5.3646     0.0000    18.0000 </r>
       <r>    -5.2099     0.0000    18.0000 </r>
       <r>    -5.0552     0.0000    18.0000 </r>
       <r>    -4.9005     0.0000    18.0000 </r>
       <r>    -4.7459     0.0000    18.0000 </r>
       <r>    -4.5912     0.0000    18.0000 </r>
       <r>    -4.4365     0.0000    18.0000 </r>
       <r>    -4.2818     0.0000    18.0000 </r>
       <r>    -4.1272     0.0000    18.0000 </r>
       <r>    -3.9725     0.0000    18.0000 </r>
       <r>    -3.8178     0.0000    18.0000 </r>
       <r>    -3.6631     0.0000    18.0000 </r>
       <r>    -3.5084     0.0000    18.0000 </r>
       <r>    -3.3538     0.0000    18.0000 </r>
       <r>    -3.1991     0.0824    18.0137 </r>
       <r>    -3.0444     0.1866    18.0534 </r>
       <r>    -2.8897     0.2825    18.1029 </r>
       <r>    -2.7350     0.0709    18.1575 </r>
       <r>    -2.5804     1.0179    18.3987 </r>
       <r>    -2.4257     2.4838    19.0405 </r>
       <r>    -2.2710     1.8088    19.7299 </r>
       <r>    -2.1163     0.7070    19.9710 </r>
       <r>    -1.9616     0.0000    20.0000 </r>
       <r>    -1.8070     0.0000    20.0000 </r>
       <r>    -1.6523     0.0000    20.0000 </r>
       <r>    -1.4976     0.0000    20.0000 </r>
       <r>    -1.3429     0.0000    20.0000 </r>
       <r>    -1.1882     0.0000    20.0000 </r>
       <r>    -1.0336     0.0000    20.0000 </r>
       <r>    -0.8789     0.0000    20.0000 </r>
       <r>    -0.7242     0.0000    20.0000 </r>
       <r>    -0.5695     0.0000    20.0000 </r>
       <r>    -0.4149     0.0000    20.0000 </r>
       <r>    -0.2602     0.0000    20.0000 </r>
       <r>    -0.1055     0.0000    20.0000 </r>
       <r>     0.0492     0.0000    20.0000 </r>
       <r>     0.2039     0.0000    20.0000 </r>
       <r>     0.3585     0.0000    20.0000 </r>
       <r>     0.5132     0.0000    20.0000 </r>
       <r>     0.6679     0.0000    20.0000 </r>
       <r>     0.8226     0.0000    20.0000 </r>
       <r>     0.9773     0.0000    20.0000 </r>
       <r>     1.1319     0.0000    20.0000 </r>
       <r>     1.2866     0.0000    20.0000 </r>
       <r>     1.4413     0.0000    20.0000 </r>
       <r>     1.5960     0.0000    20.0000 </r>
       <r>     1.7507     0.0000    20.0000 </r>
       <r>     1.9053     0.0000    20.0000 </r>
       <r>     2.0600     0.0000    20.0000 </r>
       <r>     2.2147     0.0000    20.0000 </r>
       <r>     2.3694     0.0000    20.0000 </r>
       <r>     2.5241     0.0000    20.0000 </r>
       <r>     2.6787     0.0000    20.0000 </r>
       <r>     2.8334     0.0000    20.0000 </r>
       <r>     2.9881     0.1881    20.0291 </r>
       <r>     3.1428     0.4212    20.1380 </r>
       <r>     3.2974     2.1129    20.6964 </r>
       <r>     3.4521     1.4720    21.0725 </r>
       <r>     3.6068     0.6234    21.2325 </r>
       <r>     3.7615     0.4237    21.4966 </r>
       <r>     3.9162     2.3563    21.9230 </r>
       <r>     4.0708     3.2911    23.0507 </r>
       <r>     4.2255     2.8997    23.9296 </r>
       <r>     4.3802     2.6250    24.8048 </r>
       <r>     4.5349     2.3376    25.5395 </r>
       <r>     4.6896     0.9321    25.9120 </r>
       <r>     4.8442     0.1492    26.0722 </r>
       <r>     4.9989     5.4014    26.9739 </r>
       <r>     5.1536     3.2479    28.4104 </r>
       <r>     5.3083     4.3945    29.7403 </r>
       <r>     5.4630     0.8397    30.2919 </r>
       <r>     5.6176     1.5072    30.7557 </r>
       <r>     5.7723     1.9037    31.3049 </r>
       <r>     5.9270     0.8789    31.5779 </r>
       <r>     6.0817     1.0241    31.8152 </r>
       <r>     6.2364     0.6501    32.0031 </r>
       <r>     6.3910     0.7571    32.1617 </r>
       <r>     6.5457     0.3623    32.4666 </r>
       <r>     6.7004     0.9065    32.6782 </r>
       <r>     6.8551     1.8428    33.0470 </r>
       <r>     7.0098     0.2840    33.1664 </r>
       <r>     7.1644     0.9364    33.5131 </r>
       <r>     7.3191     0.4939    33.6704 </r>
       <r>     7.4738     5.4350    34.6859 </r>
       <r>     7.6285     2.5804    35.6317 </r>
       <r>     7.7831     0.5654    35.9254 </r>
       <r>     7.9378     0.0015    35.9729 </r>
       <r>     8.0925     0.0177    36.0009 </r>
       <r>     8.2472     0.0000    36.0009 </r>
       <r>     8.4019     0.0036    36.0015 </r>
       <r>     8.5565     0.0004    36.0082 </r>
       <r>     8.7112     0.0353    36.0282 </r>
       <r>     8.8659     0.0180    36.0601 </r>
       <r>     9.0206     0.8202    36.3117 </r>
       <r>     9.1753     1.3961    36.6429 </r>
       <r>     9.3299     1.8604    37.2500 </r>
       <r>     9.4846     1.4954    37.6687 </r>
       <r>     9.6393     1.2611    38.0339 </r>
       <r>     9.7940     0.3673    38.1579 </r>
       <r>     9.9487     0.2639    38.2984 </r>
       <r>    10.1033     0.6890    38.4461 </r>
       <r>    10.2580     0.9230    38.7882 </r>
       <r>    10.4127     2.3112    39.3689 </r>
       <r>    10.5674     2.2026    40.0885 </r>
       <r>    10.7221     1.7909    40.6202 </r>
       <r>    10.8767     1.5685    41.0974 </r>
       <r>    11.0314     4.9993    42.2307 </r>
       <r>    11.1861     4.1392    43.3394 </r>
       <r>    11.3408     9.5691    45.8725 </r>
       <r>    11.4954     4.9537    46.9592 </r>
       <r>    11.6501     0.0000    48.0000 </r>
       <r>    11.8048     0.0000    48.0000 </r>
       <r>    11.9595     0.0000    48.0000 </r>
       <r>    12.1142     0.0000    48.0000 </r>
       <r>    12.2688     0.0000    48.0000 </r>
       <r>    12.4235     0.0000    48.0000 </r>
       <r>    12.5782     0.0000    48.0000 </r>
       <r>    12.7329     0.0000    48.0000 </r>
       <r>    12.8876     0.0000    48.0000 </r>
       <r>    13.0422     0.0000    48.0000 </r>
       <r>    13.1969     0.0000    48.0000 </r>
       <r>    13.3516     0.0000    48.0000 </r>
       <r>    13.5063     0.0000    48.0000 </r>
       <r>    13.6610     0.0000    48.0000 </r>
      </set>
     </set>
    </array>
   </total>
  </dos>
 </calculation>
 <structure name="finalpos" >
  <crystal>
   <varray name="basis" >
    <v>       0.00000000       3.35494430       3.35494430 </v>
    <v>       3.35494430       0.00000000       3.35494430 </v>
    <v>       3.35494430       3.35494430       0.00000000 </v>
   </varray>
   <i name="volume">     75.52416610 </i>
   <varray name="rec_basis" >
    <v>      -0.14903377       0.14903377       0.14903377 </v>
    <v>       0.14903377      -0.14903377       0.14903377 </v>
    <v>       0.14903377       0.14903377      -0.14903377 </v>
   </varray>
  </crystal>
  <varray name="positions" >
   <v>       0.25000000       0.25000000       0.25000000 </v>
   <v>       0.75000000       0.75000000       0.75000000 </v>
   <v>       0.00000000       0.00000000       0.00000000 </v>
  </varray>
 </structure>
</modeling>
