   3   3   0   0
  0.3106668E+02  0.5089132E-09  0.5089132E-09  0.5089132E-09  0.5000000E-15
  1.000000000000000E-004
  CAR
 unknown system
     10.59246524    -35.80936721  301      6.81175309      1.00000000
    -35.809  0.0000E+00  0.0000E+00
    -35.655  0.0000E+00  0.0000E+00
    -35.500  0.0000E+00  0.0000E+00
    -35.345  0.0000E+00  0.0000E+00
    -35.191  0.0000E+00  0.0000E+00
    -35.036  0.0000E+00  0.0000E+00
    -34.881  0.0000E+00  0.0000E+00
    -34.727  0.0000E+00  0.0000E+00
    -34.572  0.0000E+00  0.0000E+00
    -34.417  0.0000E+00  0.0000E+00
    -34.263  0.0000E+00  0.0000E+00
    -34.108  0.0000E+00  0.0000E+00
    -33.953  0.0000E+00  0.0000E+00
    -33.799  0.0000E+00  0.0000E+00
    -33.644  0.1293E+02  0.2000E+01
    -33.489  0.0000E+00  0.2000E+01
    -33.335  0.0000E+00  0.2000E+01
    -33.180  0.0000E+00  0.2000E+01
    -33.025  0.0000E+00  0.2000E+01
    -32.871  0.0000E+00  0.2000E+01
    -32.716  0.0000E+00  0.2000E+01
    -32.561  0.0000E+00  0.2000E+01
    -32.407  0.0000E+00  0.2000E+01
    -32.252  0.0000E+00  0.2000E+01
    -32.097  0.0000E+00  0.2000E+01
    -31.943  0.0000E+00  0.2000E+01
    -31.788  0.0000E+00  0.2000E+01
    -31.633  0.0000E+00  0.2000E+01
    -31.479  0.0000E+00  0.2000E+01
    -31.324  0.0000E+00  0.2000E+01
    -31.169  0.0000E+00  0.2000E+01
    -31.015  0.0000E+00  0.2000E+01
    -30.860  0.0000E+00  0.2000E+01
    -30.705  0.0000E+00  0.2000E+01
    -30.550  0.0000E+00  0.2000E+01
    -30.396  0.0000E+00  0.2000E+01
    -30.241  0.0000E+00  0.2000E+01
    -30.086  0.0000E+00  0.2000E+01
    -29.932  0.0000E+00  0.2000E+01
    -29.777  0.0000E+00  0.2000E+01
    -29.622  0.0000E+00  0.2000E+01
    -29.468  0.0000E+00  0.2000E+01
    -29.313  0.0000E+00  0.2000E+01
    -29.158  0.0000E+00  0.2000E+01
    -29.004  0.0000E+00  0.2000E+01
    -28.849  0.0000E+00  0.2000E+01
    -28.694  0.0000E+00  0.2000E+01
    -28.540  0.0000E+00  0.2000E+01
    -28.385  0.0000E+00  0.2000E+01
    -28.230  0.0000E+00  0.2000E+01
    -28.076  0.0000E+00  0.2000E+01
    -27.921  0.0000E+00  0.2000E+01
    -27.766  0.0000E+00  0.2000E+01
    -27.612  0.0000E+00  0.2000E+01
    -27.457  0.0000E+00  0.2000E+01
    -27.302  0.0000E+00  0.2000E+01
    -27.148  0.0000E+00  0.2000E+01
    -26.993  0.0000E+00  0.2000E+01
    -26.838  0.0000E+00  0.2000E+01
    -26.684  0.0000E+00  0.2000E+01
    -26.529  0.0000E+00  0.2000E+01
    -26.374  0.0000E+00  0.2000E+01
    -26.220  0.0000E+00  0.2000E+01
    -26.065  0.0000E+00  0.2000E+01
    -25.910  0.0000E+00  0.2000E+01
    -25.756  0.0000E+00  0.2000E+01
    -25.601  0.0000E+00  0.2000E+01
    -25.446  0.0000E+00  0.2000E+01
    -25.292  0.0000E+00  0.2000E+01
    -25.137  0.0000E+00  0.2000E+01
    -24.982  0.0000E+00  0.2000E+01
    -24.828  0.0000E+00  0.2000E+01
    -24.673  0.0000E+00  0.2000E+01
    -24.518  0.0000E+00  0.2000E+01
    -24.364  0.0000E+00  0.2000E+01
    -24.209  0.0000E+00  0.2000E+01
    -24.054  0.0000E+00  0.2000E+01
    -23.900  0.0000E+00  0.2000E+01
    -23.745  0.0000E+00  0.2000E+01
    -23.590  0.0000E+00  0.2000E+01
    -23.436  0.0000E+00  0.2000E+01
    -23.281  0.0000E+00  0.2000E+01
    -23.126  0.0000E+00  0.2000E+01
    -22.972  0.0000E+00  0.2000E+01
    -22.817  0.0000E+00  0.2000E+01
    -22.662  0.0000E+00  0.2000E+01
    -22.508  0.0000E+00  0.2000E+01
    -22.353  0.0000E+00  0.2000E+01
    -22.198  0.0000E+00  0.2000E+01
    -22.043  0.0000E+00  0.2000E+01
    -21.889  0.0000E+00  0.2000E+01
    -21.734  0.0000E+00  0.2000E+01
    -21.579  0.0000E+00  0.2000E+01
    -21.425  0.0000E+00  0.2000E+01
    -21.270  0.0000E+00  0.2000E+01
    -21.115  0.0000E+00  0.2000E+01
    -20.961  0.0000E+00  0.2000E+01
    -20.806  0.0000E+00  0.2000E+01
    -20.651  0.0000E+00  0.2000E+01
    -20.497  0.0000E+00  0.2000E+01
    -20.342  0.0000E+00  0.2000E+01
    -20.187  0.0000E+00  0.2000E+01
    -20.033  0.0000E+00  0.2000E+01
    -19.878  0.0000E+00  0.2000E+01
    -19.723  0.0000E+00  0.2000E+01
    -19.569  0.0000E+00  0.2000E+01
    -19.414  0.0000E+00  0.2000E+01
    -19.259  0.0000E+00  0.2000E+01
    -19.105  0.0000E+00  0.2000E+01
    -18.950  0.0000E+00  0.2000E+01
    -18.795  0.0000E+00  0.2000E+01
    -18.641  0.0000E+00  0.2000E+01
    -18.486  0.0000E+00  0.2000E+01
    -18.331  0.0000E+00  0.2000E+01
    -18.177  0.0000E+00  0.2000E+01
    -18.022  0.0000E+00  0.2000E+01
    -17.867  0.0000E+00  0.2000E+01
    -17.713  0.0000E+00  0.2000E+01
    -17.558  0.0000E+00  0.2000E+01
    -17.403  0.0000E+00  0.2000E+01
    -17.249  0.0000E+00  0.2000E+01
    -17.094  0.0000E+00  0.2000E+01
    -16.939  0.0000E+00  0.2000E+01
    -16.785  0.0000E+00  0.2000E+01
    -16.630  0.0000E+00  0.2000E+01
    -16.475  0.0000E+00  0.2000E+01
    -16.321  0.0000E+00  0.2000E+01
    -16.166  0.0000E+00  0.2000E+01
    -16.011  0.0000E+00  0.2000E+01
    -15.857  0.3879E+02  0.1200E+02
    -15.702  0.0000E+00  0.1200E+02
    -15.547  0.0000E+00  0.1200E+02
    -15.393  0.0000E+00  0.1200E+02
    -15.238  0.0000E+00  0.1200E+02
    -15.083  0.0000E+00  0.1200E+02
    -14.929  0.0000E+00  0.1200E+02
    -14.774  0.0000E+00  0.1200E+02
    -14.619  0.0000E+00  0.1200E+02
    -14.465  0.0000E+00  0.1200E+02
    -14.310  0.0000E+00  0.1200E+02
    -14.155  0.0000E+00  0.1200E+02
    -14.001  0.0000E+00  0.1200E+02
    -13.846  0.0000E+00  0.1200E+02
    -13.691  0.0000E+00  0.1200E+02
    -13.536  0.0000E+00  0.1200E+02
    -13.382  0.0000E+00  0.1200E+02
    -13.227  0.0000E+00  0.1200E+02
    -13.072  0.0000E+00  0.1200E+02
    -12.918  0.0000E+00  0.1200E+02
    -12.763  0.0000E+00  0.1200E+02
    -12.608  0.0000E+00  0.1200E+02
    -12.454  0.0000E+00  0.1200E+02
    -12.299  0.0000E+00  0.1200E+02
    -12.144  0.0000E+00  0.1200E+02
    -11.990  0.0000E+00  0.1200E+02
    -11.835  0.0000E+00  0.1200E+02
    -11.680  0.1333E-15  0.1200E+02
    -11.526  0.1991E+02  0.1527E+02
    -11.371  0.0000E+00  0.1800E+02
    -11.216  0.0000E+00  0.1800E+02
    -11.062  0.0000E+00  0.1800E+02
    -10.907  0.0000E+00  0.1800E+02
    -10.752  0.0000E+00  0.1800E+02
    -10.598  0.0000E+00  0.1800E+02
    -10.443  0.0000E+00  0.1800E+02
    -10.288  0.0000E+00  0.1800E+02
    -10.134  0.0000E+00  0.1800E+02
     -9.979  0.0000E+00  0.1800E+02
     -9.824  0.0000E+00  0.1800E+02
     -9.670  0.0000E+00  0.1800E+02
     -9.515  0.0000E+00  0.1800E+02
     -9.360  0.0000E+00  0.1800E+02
     -9.206  0.0000E+00  0.1800E+02
     -9.051  0.0000E+00  0.1800E+02
     -8.896  0.0000E+00  0.1800E+02
     -8.742  0.0000E+00  0.1800E+02
     -8.587  0.0000E+00  0.1800E+02
     -8.432  0.0000E+00  0.1800E+02
     -8.278  0.0000E+00  0.1800E+02
     -8.123  0.0000E+00  0.1800E+02
     -7.968  0.0000E+00  0.1800E+02
     -7.814  0.0000E+00  0.1800E+02
     -7.659  0.0000E+00  0.1800E+02
     -7.504  0.0000E+00  0.1800E+02
     -7.350  0.0000E+00  0.1800E+02
     -7.195  0.0000E+00  0.1800E+02
     -7.040  0.0000E+00  0.1800E+02
     -6.886  0.0000E+00  0.1800E+02
     -6.731  0.0000E+00  0.1800E+02
     -6.576  0.0000E+00  0.1800E+02
     -6.422  0.0000E+00  0.1800E+02
     -6.267  0.0000E+00  0.1800E+02
     -6.112  0.0000E+00  0.1800E+02
     -5.958  0.0000E+00  0.1800E+02
     -5.803  0.0000E+00  0.1800E+02
     -5.648  0.0000E+00  0.1800E+02
     -5.494  0.0000E+00  0.1800E+02
     -5.339  0.0000E+00  0.1800E+02
     -5.184  0.0000E+00  0.1800E+02
     -5.029  0.0000E+00  0.1800E+02
     -4.875  0.0000E+00  0.1800E+02
     -4.720  0.3941E-04  0.1800E+02
     -4.565  0.1982E+00  0.1804E+02
     -4.411  0.5804E+00  0.1815E+02
     -4.256  0.5907E+00  0.1835E+02
     -4.101  0.5272E+01  0.1965E+02
     -3.947  0.0000E+00  0.2000E+02
     -3.792  0.0000E+00  0.2000E+02
     -3.637  0.0000E+00  0.2000E+02
     -3.483  0.0000E+00  0.2000E+02
     -3.328  0.0000E+00  0.2000E+02
     -3.173  0.0000E+00  0.2000E+02
     -3.019  0.0000E+00  0.2000E+02
     -2.864  0.0000E+00  0.2000E+02
     -2.709  0.0000E+00  0.2000E+02
     -2.555  0.0000E+00  0.2000E+02
     -2.400  0.0000E+00  0.2000E+02
     -2.245  0.0000E+00  0.2000E+02
     -2.091  0.0000E+00  0.2000E+02
     -1.936  0.0000E+00  0.2000E+02
     -1.781  0.0000E+00  0.2000E+02
     -1.627  0.0000E+00  0.2000E+02
     -1.472  0.0000E+00  0.2000E+02
     -1.317  0.0000E+00  0.2000E+02
     -1.163  0.0000E+00  0.2000E+02
     -1.008  0.0000E+00  0.2000E+02
     -0.853  0.0000E+00  0.2000E+02
     -0.699  0.0000E+00  0.2000E+02
     -0.544  0.0000E+00  0.2000E+02
     -0.389  0.0000E+00  0.2000E+02
     -0.235  0.0000E+00  0.2000E+02
     -0.080  0.0000E+00  0.2000E+02
      0.075  0.0000E+00  0.2000E+02
      0.229  0.0000E+00  0.2000E+02
      0.384  0.0000E+00  0.2000E+02
      0.539  0.0000E+00  0.2000E+02
      0.693  0.0000E+00  0.2000E+02
      0.848  0.0000E+00  0.2000E+02
      1.003  0.0000E+00  0.2000E+02
      1.157  0.0000E+00  0.2000E+02
      1.312  0.0000E+00  0.2000E+02
      1.467  0.2817E-03  0.2000E+02
      1.621  0.5110E+00  0.2011E+02
      1.776  0.9124E+00  0.2040E+02
      1.931  0.1489E+01  0.2107E+02
      2.085  0.9941E+00  0.2146E+02
      2.240  0.8156E+00  0.2175E+02
      2.395  0.4944E+00  0.2195E+02
      2.549  0.1413E+00  0.2197E+02
      2.704  0.5361E+01  0.2292E+02
      2.859  0.2835E+01  0.2398E+02
      3.013  0.3658E+01  0.2507E+02
      3.168  0.3044E+01  0.2600E+02
      3.323  0.3171E+00  0.2606E+02
      3.478  0.5958E+01  0.2707E+02
      3.632  0.6586E+01  0.2936E+02
      3.787  0.3647E+01  0.3094E+02
      3.942  0.1595E+01  0.3161E+02
      4.096  0.8701E+00  0.3186E+02
      4.251  0.1040E+01  0.3212E+02
      4.406  0.1537E+01  0.3238E+02
      4.560  0.6476E+00  0.3260E+02
      4.715  0.1126E+01  0.3295E+02
      4.870  0.5710E+00  0.3317E+02
      5.024  0.1179E+01  0.3349E+02
      5.179  0.4483E+00  0.3366E+02
      5.334  0.6890E+01  0.3518E+02
      5.488  0.1009E+01  0.3574E+02
      5.643  0.6583E+00  0.3593E+02
      5.798  0.1639E+00  0.3597E+02
      5.952  0.9691E-01  0.3600E+02
      6.107  0.4662E-01  0.3602E+02
      6.262  0.4708E-01  0.3605E+02
      6.416  0.4691E+00  0.3616E+02
      6.571  0.3994E+00  0.3629E+02
      6.726  0.2017E+01  0.3671E+02
      6.880  0.2173E+01  0.3725E+02
      7.035  0.1483E+01  0.3778E+02
      7.190  0.7735E+00  0.3812E+02
      7.344  0.4453E+00  0.3828E+02
      7.499  0.5503E+00  0.3848E+02
      7.654  0.1224E+01  0.3874E+02
      7.808  0.2780E+01  0.3952E+02
      7.963  0.2562E+01  0.4055E+02
      8.118  0.3483E+01  0.4144E+02
      8.272  0.6732E+01  0.4357E+02
      8.427  0.6527E+01  0.4680E+02
      8.582  0.0000E+00  0.4800E+02
      8.736  0.0000E+00  0.4800E+02
      8.891  0.0000E+00  0.4800E+02
      9.046  0.0000E+00  0.4800E+02
      9.200  0.0000E+00  0.4800E+02
      9.355  0.0000E+00  0.4800E+02
      9.510  0.0000E+00  0.4800E+02
      9.664  0.0000E+00  0.4800E+02
      9.819  0.0000E+00  0.4800E+02
      9.974  0.0000E+00  0.4800E+02
     10.128  0.0000E+00  0.4800E+02
     10.283  0.0000E+00  0.4800E+02
     10.438  0.0000E+00  0.4800E+02
     10.592  0.0000E+00  0.4800E+02
