    3    3    1    1
  0.3106668E+02  0.5089132E-09  0.5089132E-09  0.5089132E-09  0.5000000E-15
  1.000000000000000E-004
  CAR
 unknown system
     37     84     24

  0.0000000E+00  0.0000000E+00  0.0000000E+00  0.4551661E-03
    1      -33.700193   1.000000
    2      -15.940497   1.000000
    3      -15.940497   1.000000
    4      -15.916362   1.000000
    5      -15.916361   1.000000
    6      -15.916361   1.000000
    7      -11.508310   1.000000
    8      -11.508310   1.000000
    9      -11.508310   1.000000
   10       -4.702652   1.000000
   11        3.089577   1.000000
   12        3.089577   1.000000
   13        3.089577   1.000000
   14        3.394834   1.000000
   15        3.394834   1.000000
   16        4.476090   1.000000
   17        5.960157   1.000000
   18        5.960157   1.000000
   19        5.960157   1.000000
   20        7.095463   0.000000
   21        7.095463   0.000000
   22        7.095463   0.000000
   23        7.735462   0.000000
   24        8.398768   0.000000

  0.7692308E-01  0.3421244E-17 -0.3985854E-17  0.3641329E-02
    1      -33.700075   1.000000
    2      -15.940809   1.000000
    3      -15.940809   1.000000
    4      -15.916411   1.000000
    5      -15.916280   1.000000
    6      -15.916280   1.000000
    7      -11.515608   1.000000
    8      -11.507575   1.000000
    9      -11.507575   1.000000
   10       -4.664664   1.000000
   11        2.938695   1.000000
   12        3.023510   1.000000
   13        3.023510   1.000000
   14        3.457292   1.000000
   15        3.457292   1.000000
   16        4.427826   1.000000
   17        5.883819   1.000000
   18        5.883819   1.000000
   19        5.969190   1.000000
   20        7.164121   0.000000
   21        7.176569   0.000000
   22        7.176569   0.000000
   23        7.894116   0.000000
   24        8.407581   0.000000

  0.1538462E+00  0.1327908E-17 -0.2457129E-17  0.3641329E-02
    1      -33.699750   1.000000
    2      -15.941709   1.000000
    3      -15.941709   1.000000
    4      -15.916560   1.000000
    5      -15.916064   1.000000
    6      -15.916064   1.000000
    7      -11.535473   1.000000
    8      -11.505539   1.000000
    9      -11.505539   1.000000
   10       -4.558757   1.000000
   11        2.594186   1.000000
   12        2.912475   1.000000
   13        2.912475   1.000000
   14        3.550691   1.000000
   15        3.550691   1.000000
   16        4.248105   1.000000
   17        5.720897   1.000000
   18        5.720897   1.000000
   19        6.009596   1.000000
   20        7.366039   0.000000
   21        7.366039   0.000000
   22        7.457360   0.000000
   23        8.161124   0.000000
   24        8.433775   0.000000

  0.2307692E+00 -0.1493354E-17 -0.2004773E-18  0.3641329E-02
    1      -33.699296   1.000000
    2      -15.942977   1.000000
    3      -15.942977   1.000000
    4      -15.916798   1.000000
    5      -15.915744   1.000000
    6      -15.915744   1.000000
    7      -11.562631   1.000000
    8      -11.502681   1.000000
    9      -11.502681   1.000000
   10       -4.407763   1.000000
   11        2.208021   1.000000
   12        2.821589   1.000000
   13        2.821589   1.000000
   14        3.596326   1.000000
   15        3.596326   1.000000
   16        3.990917   1.000000
   17        5.566795   1.000000
   18        5.566795   1.000000
   19        6.090490   1.000000
   20        7.589442   0.000000
   21        7.589442   0.000000
   22        7.898080   0.000000
   23        8.351334   0.000000
   24        8.439893   0.000000

  0.3076923E+00  0.2655816E-17 -0.4914258E-17  0.3641329E-02
    1      -33.698812   1.000000
    2      -15.944337   1.000000
    3      -15.944337   1.000000
    4      -15.917076   1.000000
    5      -15.915397   1.000000
    6      -15.915397   1.000000
    7      -11.590415   1.000000
    8      -11.499655   1.000000
    9      -11.499655   1.000000
   10       -4.245178   1.000000
   11        1.866470   1.000000
   12        2.767080   1.000000
   13        2.767080   1.000000
   14        3.576302   1.000000
   15        3.576302   1.000000
   16        3.757737   1.000000
   17        5.467232   1.000000
   18        5.467232   1.000000
   19        6.210429   1.000000
   20        7.795801   0.000000
   21        7.795801   0.000000
   22        8.276377   0.000000
   23        8.405974   0.000000
   24        8.407067   0.000000

  0.3846154E+00 -0.1654461E-18 -0.2657606E-17  0.3641329E-02
    1      -33.698411   1.000000
    2      -15.945472   1.000000
    3      -15.945472   1.000000
    4      -15.917327   1.000000
    5      -15.915097   1.000000
    6      -15.915097   1.000000
    7      -11.612669   1.000000
    8      -11.497155   1.000000
    9      -11.497155   1.000000
   10       -4.108490   1.000000
   11        1.616248   1.000000
   12        2.746644   1.000000
   13        2.746644   1.000000
   14        3.516251   1.000000
   15        3.516251   1.000000
   16        3.598168   1.000000
   17        5.421069   1.000000
   18        5.421069   1.000000
   19        6.357133   1.000000
   20        7.945533   0.000000
   21        7.945533   0.000000
   22        8.370610   0.000000
   23        8.370624   0.000000
   24        8.413359   0.000000

  0.4615385E+00  0.3983724E-17 -0.7371387E-17  0.3641329E-02
    1      -33.698187   1.000000
    2      -15.946110   1.000000
    3      -15.946110   1.000000
    4      -15.917477   1.000000
    5      -15.914926   1.000000
    6      -15.914926   1.000000
    7      -11.624938   1.000000
    8      -11.495748   1.000000
    9      -11.495748   1.000000
   10       -4.030509   1.000000
   11        1.484542   1.000000
   12        2.745171   1.000000
   13        2.745171   1.000000
   14        3.466028   1.000000
   15        3.466028   1.000000
   16        3.520738   1.000000
   17        5.406250   1.000000
   18        5.406250   1.000000
   19        6.477033   1.000000
   20        8.021768   0.000000
   21        8.021768   0.000000
   22        8.348396   0.000000
   23        8.348486   0.000000
   24        8.373905   0.000000

  0.7692308E-01  0.7692308E-01 -0.2443673E-17  0.2730997E-02
    1      -33.700035   1.000000
    2      -15.941409   1.000000
    3      -15.940376   1.000000
    4      -15.916501   1.000000
    5      -15.916218   1.000000
    6      -15.916218   1.000000
    7      -11.513721   1.000000
    8      -11.509511   1.000000
    9      -11.509511   1.000000
   10       -4.653000   1.000000
   11        2.767725   1.000000
   12        3.103632   1.000000
   13        3.103632   1.000000
   14        3.409696   1.000000
   15        3.472019   1.000000
   16        4.432211   1.000000
   17        5.781740   1.000000
   18        5.781740   1.000000
   19        6.155669   1.000000
   20        6.937307   0.000000
   21        7.308925   0.000000
   22        7.308925   0.000000
   23        7.922125   0.000000
   24        8.397690   0.000000

  0.1538462E+00  0.7692308E-01  0.3995044E-18  0.1092399E-01
    1      -33.699782   1.000000
    2      -15.942419   1.000000
    3      -15.940596   1.000000
    4      -15.916650   1.000000
    5      -15.916048   1.000000
    6      -15.916012   1.000000
    7      -11.528493   1.000000
    8      -11.509853   1.000000
    9      -11.507004   1.000000
   10       -4.572671   1.000000
   11        2.497494   1.000000
   12        3.012422   1.000000
   13        3.059518   1.000000
   14        3.470197   1.000000
   15        3.538530   1.000000
   16        4.329425   1.000000
   17        5.598779   1.000000
   18        5.625282   1.000000
   19        6.308101   1.000000
   20        6.950867   0.000000
   21        7.501507   0.000000
   22        7.536150   0.000000
   23        8.122206   0.000000
   24        8.397887   0.000000

  0.2307692E+00  0.7692308E-01 -0.3586350E-17  0.1092399E-01
    1      -33.699373   1.000000
    2      -15.943634   1.000000
    3      -15.941435   1.000000
    4      -15.916823   1.000000
    5      -15.915821   1.000000
    6      -15.915697   1.000000
    7      -11.553036   1.000000
    8      -11.508523   1.000000
    9      -11.503499   1.000000
   10       -4.441437   1.000000
   11        2.201861   1.000000
   12        2.854085   1.000000
   13        2.977738   1.000000
   14        3.530291   1.000000
   15        3.611289   1.000000
   16        4.110165   1.000000
   17        5.420111   1.000000
   18        5.490620   1.000000
   19        6.375609   1.000000
   20        7.225065   0.000000
   21        7.694442   0.000000
   22        7.844739   0.000000
   23        8.313824   0.000000
   24        8.395663   0.000000

  0.3076923E+00  0.7692308E-01 -0.8300130E-17  0.1092399E-01
    1      -33.698900   1.000000
    2      -15.944771   1.000000
    3      -15.942705   1.000000
    4      -15.917021   1.000000
    5      -15.915548   1.000000
    6      -15.915342   1.000000
    7      -11.580246   1.000000
    8      -11.505834   1.000000
    9      -11.500730   1.000000
   10       -4.288750   1.000000
   11        1.919697   1.000000
   12        2.742632   1.000000
   13        2.908174   1.000000
   14        3.531182   1.000000
   15        3.627017   1.000000
   16        3.865069   1.000000
   17        5.314362   1.000000
   18        5.411627   1.000000
   19        6.398906   1.000000
   20        7.582241   0.000000
   21        7.860454   0.000000
   22        8.168292   0.000000
   23        8.389353   0.000000
   24        8.414983   0.000000

  0.3846154E+00  0.7692308E-01 -0.6043479E-17  0.1092399E-01
    1      -33.698474   1.000000
    2      -15.945576   1.000000
    3      -15.944102   1.000000
    4      -15.917214   1.000000
    5      -15.915276   1.000000
    6      -15.915032   1.000000
    7      -11.603897   1.000000
    8      -11.502409   1.000000
    9      -11.499313   1.000000
   10       -4.149524   1.000000
   11        1.693740   1.000000
   12        2.697077   1.000000
   13        2.853132   1.000000
   14        3.492670   1.000000
   15        3.582962   1.000000
   16        3.673796   1.000000
   17        5.269704   1.000000
   18        5.380928   1.000000
   19        6.464087   1.000000
   20        7.842136   0.000000
   21        7.980108   0.000000
   22        8.326676   0.000000
   23        8.370281   0.000000
   24        8.435735   0.000000

  0.4615385E+00  0.7692308E-01 -0.1075726E-16  0.1092399E-01
    1      -33.698189   1.000000
    2      -15.945868   1.000000
    3      -15.945308   1.000000
    4      -15.917353   1.000000
    5      -15.915075   1.000000
    6      -15.914852   1.000000
    7      -11.619119   1.000000
    8      -11.499525   1.000000
    9      -11.499022   1.000000
   10       -4.056154   1.000000
   11        1.554179   1.000000
   12        2.708657   1.000000
   13        2.798477   1.000000
   14        3.468292   1.000000
   15        3.518459   1.000000
   16        3.557911   1.000000
   17        5.256969   1.000000
   18        5.374122   1.000000
   19        6.560375   1.000000
   20        7.963848   0.000000
   21        8.044173   0.000000
   22        8.323438   0.000000
   23        8.345184   0.000000
   24        8.427203   0.000000

 -0.4615385E+00  0.7692308E-01  0.3985514E-17  0.1092399E-01
    1      -33.698114   1.000000
    2      -15.946035   1.000000
    3      -15.945566   1.000000
    4      -15.917383   1.000000
    5      -15.914992   1.000000
    6      -15.914841   1.000000
    7      -11.623055   1.000000
    8      -11.501279   1.000000
    9      -11.496442   1.000000
   10       -4.030600   1.000000
   11        1.517521   1.000000
   12        2.737383   1.000000
   13        2.757746   1.000000
   14        3.469472   1.000000
   15        3.494460   1.000000
   16        3.525898   1.000000
   17        5.248271   1.000000
   18        5.377289   1.000000
   19        6.604013   1.000000
   20        7.992248   0.000000
   21        8.043521   0.000000
   22        8.328379   0.000000
   23        8.333387   0.000000
   24        8.403447   0.000000

 -0.3846154E+00  0.7692308E-01 -0.7282663E-18  0.1092399E-01
    1      -33.698264   1.000000
    2      -15.946123   1.000000
    3      -15.944741   1.000000
    4      -15.917288   1.000000
    5      -15.915058   1.000000
    6      -15.915005   1.000000
    7      -11.615031   1.000000
    8      -11.504129   1.000000
    9      -11.495256   1.000000
   10       -4.078985   1.000000
   11        1.589176   1.000000
   12        2.685334   1.000000
   13        2.822459   1.000000
   14        3.457461   1.000000
   15        3.562667   1.000000
   16        3.583542   1.000000
   17        5.227880   1.000000
   18        5.395457   1.000000
   19        6.545568   1.000000
   20        7.963865   0.000000
   21        7.994502   0.000000
   22        8.338318   0.000000
   23        8.343012   0.000000
   24        8.437021   0.000000

 -0.3076923E+00  0.7692308E-01  0.1528385E-17  0.1092399E-01
    1      -33.698605   1.000000
    2      -15.945562   1.000000
    3      -15.943579   1.000000
    4      -15.917100   1.000000
    5      -15.915299   1.000000
    6      -15.915253   1.000000
    7      -11.596572   1.000000
    8      -11.507375   1.000000
    9      -11.495740   1.000000
   10       -4.189979   1.000000
   11        1.764665   1.000000
   12        2.665163   1.000000
   13        2.892968   1.000000
   14        3.486158   1.000000
   15        3.634510   1.000000
   16        3.722857   1.000000
   17        5.201244   1.000000
   18        5.448260   1.000000
   19        6.458082   1.000000
   20        7.801889   0.000000
   21        7.913990   0.000000
   22        8.314630   0.000000
   23        8.364955   0.000000
   24        8.447772   0.000000

 -0.2307692E+00  0.7692308E-01 -0.3185395E-17  0.1092399E-01
    1      -33.699061   1.000000
    2      -15.944478   1.000000
    3      -15.942348   1.000000
    4      -15.916880   1.000000
    5      -15.915646   1.000000
    6      -15.915534   1.000000
    7      -11.571371   1.000000
    8      -11.510195   1.000000
    9      -11.497794   1.000000
   10       -4.337497   1.000000
   11        2.028755   1.000000
   12        2.691641   1.000000
   13        2.974770   1.000000
   14        3.510018   1.000000
   15        3.667751   1.000000
   16        3.937131   1.000000
   17        5.205404   1.000000
   18        5.555560   1.000000
   19        6.398180   1.000000
   20        7.579508   0.000000
   21        7.695407   0.000000
   22        8.088516   0.000000
   23        8.387976   0.000000
   24        8.398990   0.000000

 -0.1538462E+00  0.7692308E-01 -0.9287436E-18  0.1092399E-01
    1      -33.699523   1.000000
    2      -15.943123   1.000000
    3      -15.941338   1.000000
    4      -15.916678   1.000000
    5      -15.915968   1.000000
    6      -15.915834   1.000000
    7      -11.545042   1.000000
    8      -11.511728   1.000000
    9      -11.500950   1.000000
   10       -4.487229   1.000000
   11        2.352059   1.000000
   12        2.768442   1.000000
   13        3.067620   1.000000
   14        3.483310   1.000000
   15        3.639646   1.000000
   16        4.178714   1.000000
   17        5.309365   1.000000
   18        5.710101   1.000000
   19        6.335830   1.000000
   20        7.349661   0.000000
   21        7.350922   0.000000
   22        7.814181   0.000000
   23        8.260563   0.000000
   24        8.431610   0.000000

 -0.7692308E-01  0.7692308E-01  0.6842487E-17  0.5461994E-02
    1      -33.699889   1.000000
    2      -15.941807   1.000000
    3      -15.940785   1.000000
    4      -15.916522   1.000000
    5      -15.916196   1.000000
    6      -15.916102   1.000000
    7      -11.524610   1.000000
    8      -11.510856   1.000000
    9      -11.504482   1.000000
   10       -4.605048   1.000000
   11        2.684815   1.000000
   12        2.887650   1.000000
   13        3.115599   1.000000
   14        3.437106   1.000000
   15        3.558216   1.000000
   16        4.354228   1.000000
   17        5.568644   1.000000
   18        5.851947   1.000000
   19        6.167904   1.000000
   20        7.137551   0.000000
   21        7.190297   0.000000
   22        7.517403   0.000000
   23        8.057570   0.000000
   24        8.416970   0.000000

  0.1538462E+00  0.1538462E+00 -0.4887347E-17  0.2730997E-02
    1      -33.699609   1.000000
    2      -15.943302   1.000000
    3      -15.940051   1.000000
    4      -15.916905   1.000000
    5      -15.915816   1.000000
    6      -15.915816   1.000000
    7      -11.528664   1.000000
    8      -11.512892   1.000000
    9      -11.512892   1.000000
   10       -4.526096   1.000000
   11        2.256102   1.000000
   12        3.136353   1.000000
   13        3.136353   1.000000
   14        3.451622   1.000000
   15        3.470191   1.000000
   16        4.343938   1.000000
   17        5.489346   1.000000
   18        5.489346   1.000000
   19        6.450259   1.000000
   20        6.801559   0.925301
   21        7.673317   0.000000
   22        7.673317   0.000000
   23        8.194201   0.000000
   24        8.385015   0.000000

  0.2307692E+00  0.1538462E+00 -0.1790215E-20  0.1092399E-01
    1      -33.699273   1.000000
    2      -15.944158   1.000000
    3      -15.940209   1.000000
    4      -15.917124   1.000000
    5      -15.915563   1.000000
    6      -15.915504   1.000000
    7      -11.546098   1.000000
    8      -11.513971   1.000000
    9      -11.511294   1.000000
   10       -4.430622   1.000000
   11        2.036753   1.000000
   12        3.039413   1.000000
   13        3.111253   1.000000
   14        3.495615   1.000000
   15        3.513551   1.000000
   16        4.231138   1.000000
   17        5.292559   1.000000
   18        5.377670   1.000000
   19        6.647053   1.000000
   20        6.858142   0.000000
   21        7.826553   0.000000
   22        7.871532   0.000000
   23        8.321095   0.000000
   24        8.377330   0.000000

  0.3076923E+00  0.1538462E+00 -0.4715571E-17  0.1092399E-01
    1      -33.698849   1.000000
    2      -15.944782   1.000000
    3      -15.941041   1.000000
    4      -15.917259   1.000000
    5      -15.915364   1.000000
    6      -15.915152   1.000000
    7      -11.569921   1.000000
    8      -11.512851   1.000000
    9      -11.508929   1.000000
   10       -4.309124   1.000000
   11        1.868257   1.000000
   12        2.870891   1.000000
   13        3.050592   1.000000
   14        3.515123   1.000000
   15        3.580016   1.000000
   16        4.028058   1.000000
   17        5.096970   1.000000
   18        5.320010   1.000000
   19        6.679266   1.000000
   20        7.266532   0.000000
   21        7.947918   0.000000
   22        8.093416   0.000000
   23        8.368346   0.000000
   24        8.406736   0.000000

  0.3846154E+00  0.1538462E+00 -0.2458919E-17  0.1092399E-01
    1      -33.698435   1.000000
    2      -15.945046   1.000000
    3      -15.942347   1.000000
    4      -15.917300   1.000000
    5      -15.915241   1.000000
    6      -15.914837   1.000000
    7      -11.592114   1.000000
    8      -11.509793   1.000000
    9      -11.508731   1.000000
   10       -4.189933   1.000000
   11        1.755084   1.000000
   12        2.748353   1.000000
   13        2.977000   1.000000
   14        3.501908   1.000000
   15        3.592299   1.000000
   16        3.816085   1.000000
   17        4.993520   1.000000
   18        5.304668   1.000000
   19        6.667007   1.000000
   20        7.700795   0.000000
   21        8.036233   0.000000
   22        8.261275   0.000000
   23        8.354485   0.000000
   24        8.439506   0.000000

  0.4615385E+00  0.1538462E+00 -0.7172699E-17  0.1092399E-01
    1      -33.698127   1.000000
    2      -15.944892   1.000000
    3      -15.943816   1.000000
    4      -15.917261   1.000000
    5      -15.915195   1.000000
    6      -15.914645   1.000000
    7      -11.607763   1.000000
    8      -11.510888   1.000000
    9      -11.505498   1.000000
   10       -4.099487   1.000000
   11        1.688132   1.000000
   12        2.703843   1.000000
   13        2.883271   1.000000
   14        3.502982   1.000000
   15        3.549923   1.000000
   16        3.666788   1.000000
   17        4.954600   1.000000
   18        5.303347   1.000000
   19        6.714462   1.000000
   20        7.892019   0.000000
   21        8.090754   0.000000
   22        8.295121   0.000000
   23        8.334164   0.000000
   24        8.455882   0.000000

 -0.4615385E+00  0.1538462E+00  0.7570074E-17  0.1092399E-01
    1      -33.697993   1.000000
    2      -15.945110   1.000000
    3      -15.944357   1.000000
    4      -15.917162   1.000000
    5      -15.915208   1.000000
    6      -15.914627   1.000000
    7      -11.613954   1.000000
    8      -11.514736   1.000000
    9      -11.500939   1.000000
   10       -4.056817   1.000000
   11        1.657564   1.000000
   12        2.737122   1.000000
   13        2.775675   1.000000
   14        3.493091   1.000000
   15        3.546536   1.000000
   16        3.602151   1.000000
   17        4.932428   1.000000
   18        5.303582   1.000000
   19        6.789297   0.999253
   20        7.895278   0.000000
   21        8.100236   0.000000
   22        8.315231   0.000000
   23        8.324533   0.000000
   24        8.434091   0.000000

 -0.3846154E+00  0.1538462E+00  0.2856293E-17  0.1092399E-01
    1      -33.698065   1.000000
    2      -15.945931   1.000000
    3      -15.943556   1.000000
    4      -15.917034   1.000000
    5      -15.915259   1.000000
    6      -15.914783   1.000000
    7      -11.609865   1.000000
    8      -11.519086   1.000000
    9      -11.497151   1.000000
   10       -4.070892   1.000000
   11        1.665770   1.000000
   12        2.679637   1.000000
   13        2.828705   1.000000
   14        3.453912   1.000000
   15        3.620308   1.000000
   16        3.629915   1.000000
   17        4.891422   1.000000
   18        5.315589   1.000000
   19        6.814304   0.359154
   20        7.919117   0.000000
   21        8.036667   0.000000
   22        8.314699   0.000000
   23        8.337228   0.000000
   24        8.442328   0.000000

 -0.3076923E+00  0.1538462E+00  0.5112945E-17  0.1092399E-01
    1      -33.698327   1.000000
    2      -15.946106   1.000000
    3      -15.942664   1.000000
    4      -15.916923   1.000000
    5      -15.915338   1.000000
    6      -15.915072   1.000000
    7      -11.596765   1.000000
    8      -11.522441   1.000000
    9      -11.495003   1.000000
   10       -4.139675   1.000000
   11        1.728441   1.000000
   12        2.620109   1.000000
   13        2.951792   1.000000
   14        3.439854   1.000000
   15        3.691064   1.000000
   16        3.750237   1.000000
   17        4.827954   1.000000
   18        5.362468   1.000000
   19        6.798489   0.969659
   20        7.889412   0.000000
   21        7.921078   0.000000
   22        8.323777   0.000000
   23        8.331029   0.000000
   24        8.450652   0.000000

 -0.2307692E+00  0.1538462E+00  0.3991644E-18  0.1092399E-01
    1      -33.698719   1.000000
    2      -15.945599   1.000000
    3      -15.941886   1.000000
    4      -15.916849   1.000000
    5      -15.915449   1.000000
    6      -15.915417   1.000000
    7      -11.578059   1.000000
    8      -11.523141   1.000000
    9      -11.494996   1.000000
   10       -4.249279   1.000000
   11        1.864152   1.000000
   12        2.612691   1.000000
   13        3.073586   1.000000
   14        3.440113   1.000000
   15        3.724721   1.000000
   16        3.933009   1.000000
   17        4.797128   1.000000
   18        5.461639   1.000000
   19        6.780981   0.999993
   20        7.683351   0.000000
   21        7.751845   0.000000
   22        8.232241   0.000000
   23        8.353177   0.000000
   24        8.450417   0.000000

 -0.1538462E+00  0.1538462E+00  0.2655816E-17  0.5461994E-02
    1      -33.699151   1.000000
    2      -15.944523   1.000000
    3      -15.941401   1.000000
    4      -15.916781   1.000000
    5      -15.915734   1.000000
    6      -15.915610   1.000000
    7      -11.559158   1.000000
    8      -11.519501   1.000000
    9      -11.497142   1.000000
   10       -4.375083   1.000000
   11        2.078980   1.000000
   12        2.663346   1.000000
   13        3.142779   1.000000
   14        3.437687   1.000000
   15        3.705013   1.000000
   16        4.094106   1.000000
   17        4.934862   1.000000
   18        5.598255   1.000000
   19        6.678390   1.000000
   20        7.456689   0.000000
   21        7.477631   0.000000
   22        8.066322   0.000000
   23        8.367568   0.000000
   24        8.376169   0.000000

  0.2307692E+00  0.2307692E+00 -0.7331020E-17  0.2730997E-02
    1      -33.699021   1.000000
    2      -15.944414   1.000000
    3      -15.939593   1.000000
    4      -15.917472   1.000000
    5      -15.915204   1.000000
    6      -15.915204   1.000000
    7      -11.549684   1.000000
    8      -11.517781   1.000000
    9      -11.517781   1.000000
   10       -4.379784   1.000000
   11        1.886372   1.000000
   12        3.163602   1.000000
   13        3.163602   1.000000
   14        3.380468   1.000000
   15        3.512714   1.000000
   16        4.230492   1.000000
   17        5.285965   1.000000
   18        5.285965   1.000000
   19        6.470303   1.000000
   20        7.003114   0.000000
   21        7.938436   0.000000
   22        7.938436   0.000000
   23        8.360177   0.000000
   24        8.384213   0.000000

  0.3076923E+00  0.2307692E+00 -0.1858937E-17  0.1092399E-01
    1      -33.698671   1.000000
    2      -15.944360   1.000000
    3      -15.939744   1.000000
    4      -15.917705   1.000000
    5      -15.914927   1.000000
    6      -15.914858   1.000000
    7      -11.565575   1.000000
    8      -11.519089   1.000000
    9      -11.518494   1.000000
   10       -4.303377   1.000000
   11        1.805679   1.000000
   12        3.040295   1.000000
   13        3.142233   1.000000
   14        3.430891   1.000000
   15        3.539988   1.000000
   16        4.117985   1.000000
   17        5.112325   1.000000
   18        5.245502   1.000000
   19        6.616886   1.000000
   20        7.169366   0.000000
   21        8.022591   0.000000
   22        8.059484   0.000000
   23        8.344263   0.000000
   24        8.385485   0.000000

  0.3846154E+00  0.2307692E+00 -0.5844791E-17  0.1092399E-01
    1      -33.698305   1.000000
    2      -15.943987   1.000000
    3      -15.940607   1.000000
    4      -15.917744   1.000000
    5      -15.914815   1.000000
    6      -15.914537   1.000000
    7      -11.583190   1.000000
    8      -11.520005   1.000000
    9      -11.517607   1.000000
   10       -4.220439   1.000000
   11        1.800250   1.000000
   12        2.869592   1.000000
   13        3.078267   1.000000
   14        3.513181   1.000000
   15        3.546646   1.000000
   16        3.948957   1.000000
   17        4.881839   1.000000
   18        5.241875   1.000000
   19        6.730646   1.000000
   20        7.553552   0.000000
   21        8.085809   0.000000
   22        8.195479   0.000000
   23        8.334714   0.000000
   24        8.391369   0.000000

  0.4615385E+00  0.2307692E+00 -0.1055857E-16  0.1092399E-01
    1      -33.698008   1.000000
    2      -15.943407   1.000000
    3      -15.941985   1.000000
    4      -15.917576   1.000000
    5      -15.914901   1.000000
    6      -15.914343   1.000000
    7      -11.595940   1.000000
    8      -11.524664   1.000000
    9      -11.513678   1.000000
   10       -4.148724   1.000000
   11        1.841215   1.000000
   12        2.755806   1.000000
   13        2.976000   1.000000
   14        3.537866   1.000000
   15        3.562157   1.000000
   16        3.792069   1.000000
   17        4.721143   1.000000
   18        5.240749   1.000000
   19        6.784376   0.999946
   20        7.844601   0.000000
   21        8.133135   0.000000
   22        8.262270   0.000000
   23        8.325531   0.000000
   24        8.483291   0.000000

 -0.4615385E+00  0.2307692E+00  0.4184201E-17  0.1092399E-01
    1      -33.697847   1.000000
    2      -15.943547   1.000000
    3      -15.942752   1.000000
    4      -15.917236   1.000000
    5      -15.915148   1.000000
    6      -15.914321   1.000000
    7      -11.601030   1.000000
    8      -11.531623   1.000000
    9      -11.508191   1.000000
   10       -4.101272   1.000000
   11        1.871317   1.000000
   12        2.724360   1.000000
   13        2.849161   1.000000
   14        3.495546   1.000000
   15        3.608288   1.000000
   16        3.722076   1.000000
   17        4.629190   1.000000
   18        5.229907   1.000000
   19        6.880179   0.000000
   20        7.844314   0.000000
   21        8.159211   0.000000
   22        8.299312   0.000000
   23        8.307481   0.000000
   24        8.443479   0.000000

 -0.3846154E+00  0.2307692E+00 -0.5295792E-18  0.1092399E-01
    1      -33.697860   1.000000
    2      -15.944940   1.000000
    3      -15.942173   1.000000
    4      -15.916827   1.000000
    5      -15.915460   1.000000
    6      -15.914469   1.000000
    7      -11.598467   1.000000
    8      -11.538385   1.000000
    9      -11.502392   1.000000
   10       -4.086443   1.000000
   11        1.848108   1.000000
   12        2.726702   1.000000
   13        2.777417   1.000000
   14        3.454971   1.000000
   15        3.673471   1.000000
   16        3.738517   1.000000
   17        4.567376   1.000000
   18        5.226449   1.000000
   19        6.988411   0.000000
   20        7.812142   0.000000
   21        8.132168   0.000000
   22        8.294098   0.000000