       N       E                     dE             d eps       ncg     rms          rms(c)
DAV:   1     0.431148284624E+03    0.43115E+03   -0.20153E+04  4032   0.194E+03
DAV:   2     0.434298101396E+02   -0.38772E+03   -0.38073E+03  4312   0.476E+02
DAV:   3    -0.183574231684E+02   -0.61787E+02   -0.60994E+02  5536   0.161E+02
DAV:   4    -0.224885776823E+02   -0.41312E+01   -0.41049E+01  7232   0.429E+01
DAV:   5    -0.226221242059E+02   -0.13355E+00   -0.13351E+00  5592   0.615E+00    0.258E+01
DAV:   6    -0.215175098287E+02    0.11046E+01   -0.23053E+00  5168   0.789E+00    0.169E+01
DAV:   7    -0.214134081665E+02    0.10410E+00   -0.28784E+00  6144   0.874E+00    0.632E+00
DAV:   8    -0.213619167047E+02    0.51491E-01   -0.13879E+00  5296   0.494E+00    0.166E+00
DAV:   9    -0.213547220417E+02    0.71947E-02   -0.53596E-01  5568   0.311E+00    0.133E+00
DAV:  10    -0.213401864944E+02    0.14536E-01   -0.64129E-02  6992   0.124E+00    0.107E+00
DAV:  11    -0.213370735459E+02    0.31129E-02   -0.27887E-02  5832   0.715E-01    0.472E-01
DAV:  12    -0.213370702281E+02    0.33178E-05   -0.17875E-03  6888   0.229E-01    0.244E-02
DAV:  13    -0.213370776225E+02   -0.73944E-05   -0.54342E-05  5856   0.413E-02    0.574E-02
DAV:  14    -0.213370671610E+02    0.10462E-04   -0.35472E-05  5392   0.281E-02    0.109E-02
DAV:  15    -0.213370664533E+02    0.70768E-06   -0.17780E-05  6864   0.173E-02    0.177E-02
DAV:  16    -0.213370664444E+02    0.89085E-08   -0.17276E-06  5832   0.788E-03    0.725E-04
DAV:  17    -0.213370664883E+02   -0.43878E-07   -0.10262E-07  4016   0.193E-03
   1 F= -.21337066E+02 E0= -.21336790E+02  d E =-.553862E-03
