 vasp.6.0.8 29Jun18 (build Jun 13 2019 12:54:44) complex

 executed on      IFC18_CrayMPICH date 2021.12.05  13:50:58
 running   64 mpi-ranks, with    1 threads/rank
 distrk:  each k-point on   16 cores,    4 groups
 distr:  one band on NCORES_PER_BAND=   4 cores,    4 groups


--------------------------------------------------------------------------------------------------------


 INCAR:
 POTCAR:    PAW_PBE Th 07Sep2000
 POTCAR:    PAW_PBE Bi_d 06Sep2000
 POTCAR:    PAW_PBE Pt 04Feb2005
 POTCAR:    PAW_PBE Th 07Sep2000
   VRHFIN =Th:  [Xe,5d,4f]
   LEXCH  = PE
   EATOM  =   984.7553 eV,   72.3775 Ry

   TITEL  = PAW_PBE Th 07Sep2000
   LULTRA =        F    use ultrasoft PP ?
   IUNSCR =        1    unscreen: 0-lin 1-nonlin 2-no
   RPACOR =    2.200    partial core radius
   POMASS =  232.039; ZVAL   =   12.000    mass and valenz
   RCORE  =    2.800    outmost cutoff radius
   RWIGS  =    3.000; RWIGS  =    1.588    wigner-seitz radius (au A)
   ENMAX  =  247.306; ENMIN  =  185.480 eV
   RCLOC  =    2.211    cutoff for local pot
   LCOR   =        T    correct aug charges
   LPAW   =        T    paw PP
   EAUG   =  535.431
   DEXC   =    0.000
   RMAX   =    2.862    core radius for proj-oper
   RAUG   =    1.300    factor for augmentation sphere
   RDEP   =    2.926    radius for radial grids
   RDEPT  =    2.250    core radius for aug-charge

   Atomic configuration
   18 entries
     n  l   j            E        occ.
     1  0  0.50   -109990.1879   2.0000
     2  0  0.50    -20388.0147   2.0000
     2  1  1.50    -17049.6156   6.0000
     3  0  0.50     -5106.5436   2.0000
     3  1  1.50     -4175.1262   6.0000
     3  2  2.50     -3342.8437  10.0000
     4  0  0.50     -1280.8211   2.0000
     4  1  1.50      -976.4859   6.0000
     4  2  2.50      -661.8358  10.0000
     4  3  3.50      -324.9124  14.0000
     5  0  0.50      -278.7726   2.0000
     5  1  1.50      -186.2212   6.0000
     5  2  2.50       -86.9031  10.0000
     6  0  0.50       -43.3059   2.0000
     7  0  0.50        -4.0783   2.0000
     6  1  1.50       -21.4071   6.0000
     6  2  1.50        -2.3664   1.0000
     5  3  2.50        -1.2804   1.0000
   Description
     l       E           TYP  RCUT    TYP  RCUT
     0    -43.3059201     23  2.800
     0     -4.0782900     23  2.800
     1    -21.4071032     23  2.500
     1    -22.7676858     23  2.500
     2     -2.3664170     23  2.500
     2      3.0546543     23  2.500
     3     -1.2803910     23  2.800
     3      0.1360583     23  2.800
  local pseudopotential read in
  partial core-charges read in
  partial kinetic energy density read in
  atomic valenz-charges read in
  non local Contribution for L=           0  read in
    real space projection operators read in
  non local Contribution for L=           0  read in
    real space projection operators read in
  non local Contribution for L=           1  read in
    real space projection operators read in
  non local Contribution for L=           1  read in
    real space projection operators read in
  non local Contribution for L=           2  read in
    real space projection operators read in
  non local Contribution for L=           2  read in
    real space projection operators read in
  non local Contribution for L=           3  read in
    real space projection operators read in
  non local Contribution for L=           3  read in
    real space projection operators read in
    PAW grid and wavefunctions read in

   number of l-projection  operators is LMAX  =           8
   number of lm-projection operators is LMMAX =          32

 POTCAR:    PAW_PBE Bi_d 06Sep2000
   VRHFIN =Bi:
   LEXCH  = PE
   EATOM  =  1959.2045 eV,  143.9975 Ry

   TITEL  = PAW_PBE Bi_d 06Sep2000
   LULTRA =        F    use ultrasoft PP ?
   IUNSCR =        1    unscreen: 0-lin 1-nonlin 2-no
   RPACOR =    2.200    partial core radius
   POMASS =  208.980; ZVAL   =   15.000    mass and valenz
   RCORE  =    2.500    outmost cutoff radius
   RWIGS  =    3.090; RWIGS  =    1.635    wigner-seitz radius (au A)
   ENMAX  =  242.839; ENMIN  =  182.129 eV
   ICORE  =        3    local potential
   LCOR   =        T    correct aug charges
   LPAW   =        T    paw PP
   EAUG   =  442.899
   DEXC   =    0.000
   RMAX   =    2.551    core radius for proj-oper
   RAUG   =    1.300    factor for augmentation sphere
   RDEP   =    2.650    radius for radial grids
   RDEPT  =    2.039    core radius for aug-charge

   Atomic configuration
   16 entries
     n  l   j            E        occ.
     1  0  0.50    -90639.6581   2.0000
     2  0  0.50    -16282.4666   2.0000
     2  1  1.50    -13922.8286   6.0000
     3  0  0.50     -3930.4763   2.0000
     3  1  1.50     -3256.7013   6.0000
     3  2  2.50     -2581.6168  10.0000
     4  0  0.50      -902.2614   2.0000
     4  1  1.50      -681.5915   6.0000
     4  2  2.50      -429.8249  10.0000
     4  3  3.50      -152.6004  14.0000
     5  0  0.50      -157.7156   2.0000
     5  1  1.50       -95.8054   6.0000
     5  2  2.50       -27.0806  10.0000
     6  0  0.50       -14.4732   2.0000
     6  1  1.50        -4.5702   3.0000
     5  3  2.50        -2.7212   0.0000
   Description
     l       E           TYP  RCUT    TYP  RCUT
     2    -27.0805982     23  2.500
     2     -1.3605826     23  2.500
     0    -14.4732271     23  2.500
     0      6.8029130     23  2.500
     1     -4.5701651     23  2.500
     1     13.6058260     23  2.500
     3     -1.3605826      7  2.500
  local pseudopotential read in
  partial core-charges read in
  partial kinetic energy density read in
  atomic valenz-charges read in
  non local Contribution for L=           2  read in
    real space projection operators read in
  non local Contribution for L=           2  read in
    real space projection operators read in
  non local Contribution for L=           0  read in
    real space projection operators read in
  non local Contribution for L=           0  read in
    real space projection operators read in
  non local Contribution for L=           1  read in
    real space projection operators read in
  non local Contribution for L=           1  read in
    real space projection operators read in
    PAW grid and wavefunctions read in

   number of l-projection  operators is LMAX  =           6
   number of lm-projection operators is LMMAX =          18

 POTCAR:    PAW_PBE Pt 04Feb2005
   VRHFIN =Pt: s1d9
   LEXCH  = PE
   EATOM  =   729.1176 eV,   53.5886 Ry

   TITEL  = PAW_PBE Pt 04Feb2005
   LULTRA =        F    use ultrasoft PP ?
   IUNSCR =        1    unscreen: 0-lin 1-nonlin 2-no
   RPACOR =    2.330    partial core radius
   POMASS =  195.080; ZVAL   =   10.000    mass and valenz
   RCORE  =    2.600    outmost cutoff radius
   RWIGS  =    2.750; RWIGS  =    1.455    wigner-seitz radius (au A)
   ENMAX  =  230.283; ENMIN  =  172.712 eV
   ICORE  =        3    local potential
   LCOR   =        T    correct aug charges
   LPAW   =        T    paw PP
   EAUG   =  358.966
   DEXC   =    0.000
   RMAX   =    2.658    core radius for proj-oper
   RAUG   =    1.300    factor for augmentation sphere
   RDEP   =    2.761    radius for radial grids
   RDEPT  =    2.203    core radius for aug-charge

   Atomic configuration
   16 entries
     n  l   j            E        occ.
     1  0  0.50    -78401.1885   2.0000
     2  0  0.50    -13770.7750   2.0000
     2  1  1.50    -11931.0468   6.0000
     3  0  0.50     -3234.7234   2.0000
     3  1  1.50     -2699.2216   6.0000
     3  2  2.50     -2119.5714  10.0000
     4  0  0.50      -695.1528   2.0000
     4  1  1.50      -519.6034   6.0000
     4  2  2.50      -306.6786  10.0000
     4  3  3.50       -70.1041  14.0000
     5  0  0.50      -101.7747   2.0000
     5  1  1.50       -55.9873   6.0000
     5  2  2.50        -6.1423   9.0000
     6  0  0.50        -5.6573   1.0000
     6  1  1.50        -6.8029   0.0000
     5  3  2.50        -1.3606   0.0000
   Description
     l       E           TYP  RCUT    TYP  RCUT
     2     -6.1423404     23  2.500
     2     -7.5029230     23  2.500
     0     -5.6573207     23  2.500
     0      0.7416693     23  2.500
     1     -2.7211652     23  2.600
     1     20.4087390     23  2.600
     3     -1.3605826     23  2.500
  local pseudopotential read in
  partial core-charges read in
  partial kinetic energy density read in
  atomic valenz-charges read in
  non local Contribution for L=           2  read in
    real space projection operators read in
  non local Contribution for L=           2  read in
    real space projection operators read in
  non local Contribution for L=           0  read in
    real space projection operators read in
  non local Contribution for L=           0  read in
    real space projection operators read in
  non local Contribution for L=           1  read in
    real space projection operators read in
  non local Contribution for L=           1  read in
    real space projection operators read in
    PAW grid and wavefunctions read in

   number of l-projection  operators is LMAX  =           6
   number of lm-projection operators is LMMAX =          18

 WARNING: PSMAXN for non-local potential too small
          PSMAXN should be >   13.5545592237991       NTYP=           1

 -----------------------------------------------------------------------------
|                                                                             |
|  ADVICE TO THIS USER RUNNING 'VASP/VAMP'   (HEAR YOUR MASTER'S VOICE ...):  |
|                                                                             |
|      You enforced a specific xc-type in the INCAR file,                     |
|      a different type was found on the POTCAR file                          |
|          I HOPE YOU KNOW, WHAT YOU ARE  DOING                               |
|                                                                             |
 -----------------------------------------------------------------------------

  PAW_PBE Th 07Sep2000                  :
 energy of atom  1       EATOM= -984.7553
 kinetic energy error for atom=    0.0005 (will be added to EATOM!!)
  PAW_PBE Bi_d 06Sep2000                :
 energy of atom  2       EATOM=-1959.2045
 kinetic energy error for atom=    0.0012 (will be added to EATOM!!)
  PAW_PBE Pt 04Feb2005                  :
 energy of atom  3       EATOM= -729.1176
 kinetic energy error for atom=    0.0010 (will be added to EATOM!!)


 POSCAR: Th1 Bi1 Pt1
  positions in direct lattice
  No initial velocities read in
 exchange correlation table for  LEXCH =       14
   RHO(1)=    0.500       N(1)  =     2000
   RHO(2)=  100.500       N(2)  =     4000



--------------------------------------------------------------------------------------------------------


 ion  position               nearest neighbor table
   1  0.250  0.250  0.250-   3 3.12   3 3.12   3 3.12   3 3.12   2 3.60   2 3.60   2 3.60   2 3.60
                             2 3.60   2 3.60
   2  0.750  0.750  0.750-   3 3.12   3 3.12   3 3.12   3 3.12   1 3.60   1 3.60   1 3.60   1 3.60
                             1 3.60   1 3.60
   3  0.000  0.000  0.000-   2 3.12   2 3.12   1 3.12   2 3.12   1 3.12   1 3.12   1 3.12   2 3.12


  LATTYP: Found a face centered cubic cell.
 ALAT       =     7.1971190830

  Lattice vectors:

 A1 = (   0.0000000000,   3.5985595415,   3.5985595415)
 A2 = (   3.5985595415,   0.0000000000,   3.5985595415)
 A3 = (   3.5985595415,   3.5985595415,   0.0000000000)


Analysis of symmetry for initial positions (statically):
=====================================================================
 Subroutine PRICEL returns:
 Original cell was already a primitive cell.


 Routine SETGRP: Setting up the symmetry group for a
 face centered cubic supercell.


 Subroutine GETGRP returns: Found 24 space group operations
 (whereof 24 operations were pure point group operations)
 out of a pool of 48 trial point group operations.


The static configuration has the point symmetry T_d .


Analysis of symmetry for dynamics (positions and initial velocities):
=====================================================================
 Subroutine PRICEL returns:
 Original cell was already a primitive cell.


 Routine SETGRP: Setting up the symmetry group for a
 face centered cubic supercell.


 Subroutine GETGRP returns: Found 24 space group operations
 (whereof 24 operations were pure point group operations)
 out of a pool of 48 trial point group operations.


The dynamic configuration has the point symmetry T_d .


 Subroutine INISYM returns: Found 24 space group operations
 (whereof 24 operations are pure point group operations),
 and found     1 'primitive' translations


----------------------------------------------------------------------------------------

                                     Primitive cell

  volume of cell :      93.2000

  direct lattice vectors                    reciprocal lattice vectors
     0.000000000  3.598559541  3.598559541    -0.138944484  0.138944484  0.138944484
     3.598559541  0.000000000  3.598559541     0.138944484 -0.138944484  0.138944484
     3.598559541  3.598559541  0.000000000     0.138944484  0.138944484 -0.138944484

  length of vectors
     5.089131709  5.089131709  5.089131709     0.240658906  0.240658906  0.240658906

  position of ions in fractional coordinates (direct lattice)
     0.250000000  0.250000000  0.250000000
     0.750000000  0.750000000  0.750000000
     0.000000000  0.000000000  0.000000000

  ion indices of the primitive-cell ions
   primitive index   ion index
                 1           1
                 2           2
                 3           3

----------------------------------------------------------------------------------------



 KPOINTS: KPOINTS

Automatic generation of k-mesh.
Space group operators:
 irot       det(A)        alpha          n_x          n_y          n_z        tau_x        tau_y        tau_z
    1     1.000000     0.000000     1.000000     0.000000     0.000000     0.000000     0.000000     0.000000
    2     1.000000   120.000000    -0.577350    -0.577350    -0.577350     0.000000     0.000000     0.000000
    3     1.000000   120.000000     0.577350     0.577350     0.577350     0.000000     0.000000     0.000000
    4    -1.000000    90.000000    -0.000000    -0.000000    -1.000000     0.000000     0.000000     0.000000
    5    -1.000000   180.000000    -0.000000     0.707107     0.707107     0.000000     0.000000     0.000000
    6    -1.000000    90.000000    -0.000000     1.000000    -0.000000     0.000000     0.000000     0.000000
    7     1.000000   180.000000    -0.000000     0.000000    -1.000000     0.000000     0.000000     0.000000
    8     1.000000   120.000000    -0.577350     0.577350     0.577350     0.000000     0.000000     0.000000
    9     1.000000   120.000000    -0.577350     0.577350    -0.577350     0.000000     0.000000     0.000000
   10    -1.000000    90.000000     0.000000     0.000000     1.000000     0.000000     0.000000     0.000000
   11    -1.000000    90.000000    -1.000000     0.000000     0.000000     0.000000     0.000000     0.000000
   12    -1.000000   180.000000     0.707107     0.000000     0.707107     0.000000     0.000000     0.000000
   13     1.000000   120.000000     0.577350    -0.577350     0.577350     0.000000     0.000000     0.000000
   14     1.000000   120.000000    -0.577350    -0.577350     0.577350     0.000000     0.000000     0.000000
   15     1.000000   180.000000     1.000000     0.000000     0.000000     0.000000     0.000000     0.000000
   16    -1.000000    90.000000     0.000000    -1.000000     0.000000     0.000000     0.000000     0.000000
   17    -1.000000   180.000000     0.707107     0.707107    -0.000000     0.000000     0.000000     0.000000
   18    -1.000000    90.000000     1.000000     0.000000     0.000000     0.000000     0.000000     0.000000
   19     1.000000   120.000000     0.577350    -0.577350    -0.577350     0.000000     0.000000     0.000000
   20     1.000000   180.000000    -0.000000     1.000000     0.000000     0.000000     0.000000     0.000000
   21     1.000000   120.000000     0.577350     0.577350    -0.577350     0.000000     0.000000     0.000000
   22    -1.000000   180.000000    -0.000000    -0.707107     0.707107     0.000000     0.000000     0.000000
   23    -1.000000   180.000000     0.707107    -0.707107     0.000000     0.000000     0.000000     0.000000
   24    -1.000000   180.000000     0.707107     0.000000    -0.707107     0.000000     0.000000     0.000000

 Subroutine IBZKPT returns following result:
 ===========================================

 Found     84 irreducible k-points:

 Following reciprocal coordinates:
            Coordinates               Weight
  0.000000  0.000000  0.000000      1.000000
  0.076923  0.000000 -0.000000      8.000000
  0.153846  0.000000 -0.000000      8.000000
  0.230769 -0.000000 -0.000000      8.000000
  0.307692  0.000000 -0.000000      8.000000
  0.384615 -0.000000 -0.000000      8.000000
  0.461538  0.000000 -0.000000      8.000000
  0.076923  0.076923 -0.000000      6.000000
  0.153846  0.076923  0.000000     24.000000
  0.230769  0.076923 -0.000000     24.000000
  0.307692  0.076923 -0.000000     24.000000
  0.384615  0.076923 -0.000000     24.000000
  0.461538  0.076923 -0.000000     24.000000
 -0.461538  0.076923  0.000000     24.000000
 -0.384615  0.076923 -0.000000     24.000000
 -0.307692  0.076923  0.000000     24.000000
 -0.230769  0.076923 -0.000000     24.000000
 -0.153846  0.076923 -0.000000     24.000000
 -0.076923  0.076923  0.000000     12.000000
  0.153846  0.153846 -0.000000      6.000000
  0.230769  0.153846 -0.000000     24.000000
  0.307692  0.153846 -0.000000     24.000000
  0.384615  0.153846 -0.000000     24.000000
  0.461538  0.153846 -0.000000     24.000000
 -0.461538  0.153846  0.000000     24.000000
 -0.384615  0.153846  0.000000     24.000000
 -0.307692  0.153846  0.000000     24.000000
 -0.230769  0.153846  0.000000     24.000000
 -0.153846  0.153846  0.000000     12.000000
  0.230769  0.230769 -0.000000      6.000000
  0.307692  0.230769 -0.000000     24.000000
  0.384615  0.230769 -0.000000     24.000000
  0.461538  0.230769 -0.000000     24.000000
 -0.461538  0.230769  0.000000     24.000000
 -0.384615  0.230769 -0.000000     24.000000
 -0.307692  0.230769  0.000000     24.000000
 -0.230769  0.230769 -0.000000     12.000000
  0.307692  0.307692 -0.000000      6.000000
  0.384615  0.307692 -0.000000     24.000000
  0.461538  0.307692 -0.000000     24.000000
 -0.461538  0.307692  0.000000     24.000000
 -0.384615  0.307692  0.000000     24.000000
 -0.307692  0.307692  0.000000     12.000000
  0.384615  0.384615 -0.000000      6.000000
  0.461538  0.384615 -0.000000     24.000000
 -0.461538  0.384615  0.000000     24.000000
 -0.384615  0.384615 -0.000000     12.000000
  0.461538  0.461538 -0.000000      6.000000
 -0.461538  0.461538  0.000000     12.000000
  0.230769  0.153846  0.076923     24.000000
  0.307692  0.153846  0.076923     48.000000
  0.384615  0.153846  0.076923     48.000000
  0.461538  0.153846  0.076923     48.000000
 -0.461538  0.153846  0.076923     48.000000
  0.307692  0.230769  0.076923     24.000000
  0.384615  0.230769  0.076923     48.000000
  0.461538  0.230769  0.076923     48.000000
 -0.461538  0.230769  0.076923     48.000000
 -0.384615  0.230769  0.076923     48.000000
 -0.307692  0.230769  0.076923     48.000000
 -0.230769  0.230769  0.076923     48.000000
 -0.153846  0.230769  0.076923     24.000000
  0.384615  0.307692  0.076923     24.000000
  0.461538  0.307692  0.076923     48.000000
 -0.461538  0.307692  0.076923     48.000000
 -0.384615  0.307692  0.076923     48.000000
 -0.307692  0.307692  0.076923     48.000000
 -0.230769  0.307692  0.076923     24.000000
  0.461538  0.384615  0.076923     24.000000
 -0.461538  0.384615  0.076923     48.000000
 -0.384615  0.384615  0.076923     48.000000
 -0.307692  0.384615  0.076923     24.000000
 -0.461538  0.461538  0.076923     24.000000
 -0.384615  0.461538  0.076923     24.000000
  0.461538  0.307692  0.153846     24.000000
 -0.461538  0.307692  0.153846     48.000000
 -0.384615  0.307692  0.153846     48.000000
 -0.461538  0.384615  0.153846     24.000000
 -0.384615  0.384615  0.153846     48.000000
 -0.307692  0.384615  0.153846     48.000000
 -0.230769  0.384615  0.153846     24.000000
 -0.384615  0.461538  0.153846     24.000000
 -0.307692  0.461538  0.153846     24.000000
 -0.307692  0.461538  0.230769     24.000000

 Following cartesian coordinates:
            Coordinates               Weight
  0.000000  0.000000  0.000000      1.000000
 -0.011230  0.011230  0.011230      8.000000
 -0.022460  0.022460  0.022460      8.000000
 -0.033690  0.033690  0.033690      8.000000
 -0.044920  0.044920  0.044920      8.000000
 -0.056151  0.056151  0.056151      8.000000
 -0.067381  0.067381  0.067381      8.000000
 -0.000000  0.000000  0.022460      6.000000
 -0.011230  0.011230  0.033690     24.000000
 -0.022460  0.022460  0.044920     24.000000
 -0.033690  0.033690  0.056151     24.000000
 -0.044920  0.044920  0.067381     24.000000
 -0.056151  0.056151  0.078611     24.000000
  0.078611 -0.078611 -0.056151     24.000000
  0.067381 -0.067381 -0.044920     24.000000
  0.056151 -0.056151 -0.033690     24.000000
  0.044920 -0.044920 -0.022460     24.000000
  0.033690 -0.033690 -0.011230     24.000000
  0.022460 -0.022460 -0.000000     12.000000
 -0.000000 -0.000000  0.044920      6.000000
 -0.011230  0.011230  0.056151     24.000000
 -0.022460  0.022460  0.067381     24.000000
 -0.033690  0.033690  0.078611     24.000000
 -0.044920  0.044920  0.089841     24.000000
  0.089841 -0.089841 -0.044920     24.000000
  0.078611 -0.078611 -0.033690     24.000000
  0.067381 -0.067381 -0.022460     24.000000
  0.056151 -0.056151 -0.011230     24.000000
  0.044920 -0.044920 -0.000000     12.000000
 -0.000000 -0.000000  0.067381      6.000000
 -0.011230  0.011230  0.078611     24.000000
 -0.022460  0.022460  0.089841     24.000000
 -0.033690  0.033690  0.101071     24.000000
  0.101071 -0.101071 -0.033690     24.000000
  0.089841 -0.089841 -0.022460     24.000000
  0.078611 -0.078611 -0.011230     24.000000
  0.067381 -0.067381 -0.000000     12.000000
 -0.000000 -0.000000  0.089841      6.000000
 -0.011230  0.011230  0.101071     24.000000
 -0.022460  0.022460  0.112301     24.000000
  0.112301 -0.112301 -0.022460     24.000000
  0.101071 -0.101071 -0.011230     24.000000
  0.089841 -0.089841 -0.000000     12.000000
 -0.000000 -0.000000  0.112301      6.000000
 -0.011230  0.011230  0.123531     24.000000
  0.123531 -0.123531 -0.011230     24.000000
  0.112301 -0.112301 -0.000000     12.000000
 -0.000000 -0.000000  0.134761      6.000000
  0.134761 -0.134761 -0.000000     12.000000
  0.000000  0.022460  0.044920     24.000000
 -0.011230  0.033690  0.056151     48.000000
 -0.022460  0.044920  0.067381     48.000000
 -0.033690  0.056151  0.078611     48.000000
  0.101071 -0.078611 -0.056151     48.000000
  0.000000  0.022460  0.067381     24.000000
 -0.011230  0.033690  0.078611     48.000000
 -0.022460  0.044920  0.089841     48.000000
  0.112301 -0.089841 -0.044920     48.000000
  0.101071 -0.078611 -0.033690     48.000000
  0.089841 -0.067381 -0.022460     48.000000
  0.078611 -0.056151 -0.011230     48.000000
  0.067381 -0.044920 -0.000000     24.000000
  0.000000  0.022460  0.089841     24.000000
 -0.011230  0.033690  0.101071     48.000000
  0.123531 -0.101071 -0.033690     48.000000
  0.112301 -0.089841 -0.022460     48.000000
  0.101071 -0.078611 -0.011230     48.000000
  0.089841 -0.067381 -0.000000     24.000000
  0.000000  0.022460  0.112301     24.000000
  0.134761 -0.112301 -0.022460     48.000000
  0.123531 -0.101071 -0.011230     48.000000
  0.112301 -0.089841 -0.000000     24.000000
  0.145991 -0.123531 -0.011230     24.000000
  0.134761 -0.112301 -0.000000     24.000000
 -0.000000  0.044920  0.089841     24.000000
  0.134761 -0.089841 -0.044920     48.000000
  0.123531 -0.078611 -0.033690     48.000000
  0.145991 -0.101071 -0.033690     24.000000
  0.134761 -0.089841 -0.022460     48.000000
  0.123531 -0.078611 -0.011230     48.000000
  0.112301 -0.067381  0.000000     24.000000
  0.145991 -0.101071 -0.011230     24.000000
  0.134761 -0.089841  0.000000     24.000000
  0.145991 -0.078611 -0.011230     24.000000



--------------------------------------------------------------------------------------------------------




 Dimension of arrays:
   k-points           NKPTS =     84   k-points in BZ     NKDIM =     84   number of bands    NBANDS=     24
   number of dos      NEDOS =    301   number of ions     NIONS =      3
   non local maximal  LDIM  =      8   non local SUM 2l+1 LMDIM =     32
   total plane-waves  NPLWV = 110592
   max r-space proj   IRMAX =      1   max aug-charges    IRDMAX= 575091
   dimension x,y,z NGX =    48 NGY =   48 NGZ =   48
   dimension x,y,z NGXF=    96 NGYF=   96 NGZF=   96
   support grid    NGXF=   192 NGYF=  192 NGZF=  192
   ions per type =               1   1   1
   NGX,Y,Z   is equivalent  to a cutoff of  15.68, 15.68, 15.68 a.u.
   NGXF,Y,Z  is equivalent  to a cutoff of  31.36, 31.36, 31.36 a.u.

 SYSTEM =  unknown system
 POSCAR =  Th1 Bi1 Pt1

 Startparameter for this run:
   NWRITE =      2    write-flag & timer
   PREC   = acc       normal or accurate (medium, high low for compatibility)
   ISTART =      0    job   : 0-new  1-cont  2-samecut
   ICHARG =      2    charge: 1-file 2-atom 10-const
   ISPIN  =      1    spin polarized calculation?
   LNONCOLLINEAR =      F non collinear calculations
   LSORBIT =      F    spin-orbit coupling
   INIWAV =      1    electr: 0-lowe 1-rand  2-diag
   LASPH  =      F    aspherical Exc in radial PAW
   METAGGA=      F    non-selfconsistent MetaGGA calc.

 Electronic Relaxation 1
   ENCUT  =  700.0 eV  51.45 Ry    7.17 a.u.  10.98 10.98 10.98*2*pi/ulx,y,z
   ENINI  =  700.0     initial cutoff
   ENAUG  =  535.4 eV  augmentation charge cutoff
   NELM   =     60;   NELMIN=  5; NELMDL= -5     # of ELM steps
   EDIFF  = 0.1E-06   stopping-criterion for ELM
   LREAL  =      F    real-space projection
   NLSPLINE    = F    spline interpolate recip. space projectors
   LCOMPAT=      F    compatible to vasp.4.4
   GGA_COMPAT  = T    GGA compatible to vasp.4.4-vasp.4.6
   LMAXPAW     = -100 max onsite density
   LMAXMIX     =    2 max onsite mixed and CHGCAR
   VOSKOWN=      0    Vosko Wilk Nusair interpolation
   ROPT   =    0.00000   0.00000   0.00000
 Ionic relaxation
   EDIFFG = 0.1E-05   stopping-criterion for IOM
   NSW    =      0    number of steps for IOM
   NBLOCK =      1;   KBLOCK =      1    inner block; outer block
   IBRION =     -1    ionic relax: 0-MD 1-quasi-New 2-CG
   NFREE  =      0    steps in history (QN), initial steepest desc. (CG)
   ISIF   =      3    stress and relaxation
   IWAVPR =     10    prediction:  0-non 1-charg 2-wave 3-comb
   ISYM   =      2    0-nonsym 1-usesym 2-fastsym
   LCORR  =      T    Harris-Foulkes like correction to forces

   POTIM  = 0.5000    time-step for ionic-motion
   TEIN   =    0.0    initial temperature
   TEBEG  =    0.0;   TEEND  =   0.0 temperature during run
   SMASS  =  -3.00    Nose mass-parameter (am)
   estimated Nose-frequenzy (Omega)   =  0.10E-29 period in steps = 0.13E+47 mass=  -0.592E-27a.u.
   SCALEE = 1.0000    scale energy and forces
   NPACO  =    256;   APACO  = 16.0  distance and # of slots for P.C.
   PSTRESS=    0.0 pullay stress

  Mass of Ions in am
   POMASS = 232.04208.98195.08
  Ionic Valenz
   ZVAL   =  12.00 15.00 10.00
  Atomic Wigner-Seitz radii
   RWIGS  =  -1.00 -1.00 -1.00
  virtual crystal weights
   VCA    =   1.00  1.00  1.00
   NELECT =      37.0000    total number of electrons
   NUPDOWN=      -1.0000    fix difference up-down

 DOS related values:
   EMIN   =  10.00;   EMAX   =-10.00  energy-range for DOS
   EFERMI =   0.00
   ISMEAR =     0;   SIGMA  =   0.01  broadening in eV -4-tet -1-fermi 0-gaus

 Electronic relaxation 2 (details)
   IALGO  =     38    algorithm
   LDIAG  =      T    sub-space diagonalisation (order eigenvalues)
   LSUBROT=      F    optimize rotation matrix (better conditioning)
   TURBO    =      0    0=normal 1=particle mesh
   IRESTART =      0    0=no restart 2=restart with 2 vectors
   NREBOOT  =      0    no. of reboots
   NMIN     =      0    reboot dimension
   EREF     =   0.00    reference energy to select bands
   IMIX   =      4    mixing-type and parameters
     AMIX     =   0.40;   BMIX     =  1.00
     AMIX_MAG =   1.60;   BMIX_MAG =  1.00
     AMIN     =   0.10
     WC   =   100.;   INIMIX=   1;  MIXPRE=   1;  MAXMIX= -45

 Intra band minimization:
   WEIMIN = 0.0000     energy-eigenvalue tresh-hold
   EBREAK =  0.10E-08  absolut break condition
   DEPER  =   0.30     relativ break condition

   TIME   =   0.40     timestep for ELM

  volume/ion in A,a.u.               =      31.07       209.65
  Fermi-wavevector in a.u.,A,eV,Ry     =   1.203197  2.273713 19.696921  1.447683
  Thomas-Fermi vector in A             =   2.338957

 Write flags
   LWAVE        =      F    write WAVECAR
   LDOWNSAMPLE  =      F    k-point downsampling of WAVECAR
   LCHARG       =      F    write CHGCAR
   LVTOT        =      F    write LOCPOT, total local potential
   LVHAR        =      F    write LOCPOT, Hartree potential only
   LELF         =      F    write electronic localiz. function (ELF)
   LORBIT       =      0    0 simple, 1 ext, 2 COOP (PROOUT), +10 PAW based schemes


 Dipole corrections
   LMONO  =      F    monopole corrections only (constant potential shift)
   LDIPOL =      F    correct potential (dipole corrections)
   IDIPOL =      0    1-x, 2-y, 3-z, 4-all directions
   EPSILON=  1.0000000 bulk dielectric constant

 Exchange correlation treatment:
   GGA     =    PS    GGA type
   LEXCH   =    14    internal setting for exchange type
   VOSKOWN=      0    Vosko Wilk Nusair interpolation
   LHFCALC =     F    Hartree Fock is set to
   LHFONE  =     F    Hartree Fock one center treatment
   AEXX    =    0.0000 exact exchange contribution

 Linear response parameters
   LEPSILON=     F    determine dielectric tensor
   LRPA    =     F    only Hartree local field effects (RPA)
   LNABLA  =     F    use nabla operator in PAW spheres
   LVEL    =     F    velocity operator in full k-point grid
   LINTERFAST=   F  fast interpolation
   KINTER  =     0    interpolate to denser k-point grid
   CSHIFT  =0.1000    complex shift for real part using Kramers Kronig
   OMEGAMAX=  -1.0    maximum frequency
   DEG_THRESHOLD= 0.2000000E-02 threshold for treating states as degnerate
   RTIME   =   -0.100 relaxation time in fs
  (WPLASMAI=    0.000 imaginary part of plasma frequency in eV, 0.658/RTIME)
   DFIELD  = 0.0000000 0.0000000 0.0000000 field for delta impulse in time

 Orbital magnetization related:
   ORBITALMAG=     F  switch on orbital magnetization
   LCHIMAG   =     F  perturbation theory with respect to B field
   DQ        =  0.001000  dq finite difference perturbation B field
   LLRAUG    =     F  two centre corrections for induced B field



--------------------------------------------------------------------------------------------------------


 Static calculation
 charge density and potential will be updated during run
 non-spin polarized calculation
 Variant of blocked Davidson
 Davidson routine will perform the subspace rotation
 perform sub-space diagonalisation
    after iterative eigenvector-optimisation
 modified Broyden-mixing scheme, WC =      100.0
 initial mixing is a Kerker type mixing with AMIX =  0.4000 and BMIX =      1.0000
 Hartree-type preconditioning will be used
 using additional bands            5
 reciprocal scheme for non local part
 use partial core corrections
 calculate Harris-corrections to forces
   (improved forces if not selfconsistent)
 use gradient corrections
 use of overlap-Matrix (Vanderbilt PP)
 Gauss-broadening in eV      SIGMA  =   0.01


--------------------------------------------------------------------------------------------------------


  energy-cutoff  :      700.00
  volume of cell :       93.20
      direct lattice vectors                 reciprocal lattice vectors
     0.000000000  3.598559541  3.598559541    -0.138944484  0.138944484  0.138944484
     3.598559541  0.000000000  3.598559541     0.138944484 -0.138944484  0.138944484
     3.598559541  3.598559541  0.000000000     0.138944484  0.138944484 -0.138944484

  length of vectors
     5.089131709  5.089131709  5.089131709     0.240658906  0.240658906  0.240658906



 k-points in units of 2pi/SCALE and weight: KPOINTS
   0.00000000  0.00000000  0.00000000       0.000
  -0.01123011  0.01123011  0.01123011       0.004
  -0.02246022  0.02246022  0.02246022       0.004
  -0.03369033  0.03369033  0.03369033       0.004
  -0.04492043  0.04492043  0.04492043       0.004
  -0.05615054  0.05615054  0.05615054       0.004
  -0.06738065  0.06738065  0.06738065       0.004
  -0.00000000  0.00000000  0.02246022       0.003
  -0.01123011  0.01123011  0.03369033       0.011
  -0.02246022  0.02246022  0.04492043       0.011
  -0.03369033  0.03369033  0.05615054       0.011
  -0.04492043  0.04492043  0.06738065       0.011
  -0.05615054  0.05615054  0.07861076       0.011
   0.07861076 -0.07861076 -0.05615054       0.011
   0.06738065 -0.06738065 -0.04492043       0.011
   0.05615054 -0.05615054 -0.03369033       0.011
   0.04492043 -0.04492043 -0.02246022       0.011
   0.03369033 -0.03369033 -0.01123011       0.011
   0.02246022 -0.02246022 -0.00000000       0.005
  -0.00000000 -0.00000000  0.04492043       0.003
  -0.01123011  0.01123011  0.05615054       0.011
  -0.02246022  0.02246022  0.06738065       0.011
  -0.03369033  0.03369033  0.07861076       0.011
  -0.04492043  0.04492043  0.08984087       0.011
   0.08984087 -0.08984087 -0.04492043       0.011
   0.07861076 -0.07861076 -0.03369033       0.011
   0.06738065 -0.06738065 -0.02246022       0.011
   0.05615054 -0.05615054 -0.01123011       0.011
   0.04492043 -0.04492043 -0.00000000       0.005
  -0.00000000 -0.00000000  0.06738065       0.003
  -0.01123011  0.01123011  0.07861076       0.011
  -0.02246022  0.02246022  0.08984087       0.011
  -0.03369033  0.03369033  0.10107098       0.011
   0.10107098 -0.10107098 -0.03369033       0.011
   0.08984087 -0.08984087 -0.02246022       0.011
   0.07861076 -0.07861076 -0.01123011       0.011
   0.06738065 -0.06738065 -0.00000000       0.005
  -0.00000000 -0.00000000  0.08984087       0.003
  -0.01123011  0.01123011  0.10107098       0.011
  -0.02246022  0.02246022  0.11230109       0.011
   0.11230109 -0.11230109 -0.02246022       0.011
   0.10107098 -0.10107098 -0.01123011       0.011
   0.08984087 -0.08984087 -0.00000000       0.005
  -0.00000000 -0.00000000  0.11230109       0.003
  -0.01123011  0.01123011  0.12353119       0.011
   0.12353119 -0.12353119 -0.01123011       0.011
   0.11230109 -0.11230109 -0.00000000       0.005
  -0.00000000 -0.00000000  0.13476130       0.003
   0.13476130 -0.13476130 -0.00000000       0.005
   0.00000000  0.02246022  0.04492043       0.011
  -0.01123011  0.03369033  0.05615054       0.022
  -0.02246022  0.04492043  0.06738065       0.022
  -0.03369033  0.05615054  0.07861076       0.022
   0.10107098 -0.07861076 -0.05615054       0.022
   0.00000000  0.02246022  0.06738065       0.011
  -0.01123011  0.03369033  0.07861076       0.022
  -0.02246022  0.04492043  0.08984087       0.022
   0.11230109 -0.08984087 -0.04492043       0.022
   0.10107098 -0.07861076 -0.03369033       0.022
   0.08984087 -0.06738065 -0.02246022       0.022
   0.07861076 -0.05615054 -0.01123011       0.022
   0.06738065 -0.04492043 -0.00000000       0.011
   0.00000000  0.02246022  0.08984087       0.011
  -0.01123011  0.03369033  0.10107098       0.022
   0.12353119 -0.10107098 -0.03369033       0.022
   0.11230109 -0.08984087 -0.02246022       0.022
   0.10107098 -0.07861076 -0.01123011       0.022
   0.08984087 -0.06738065 -0.00000000       0.011
   0.00000000  0.02246022  0.11230109       0.011
   0.13476130 -0.11230109 -0.02246022       0.022
   0.12353119 -0.10107098 -0.01123011       0.022
   0.11230109 -0.08984087 -0.00000000       0.011
   0.14599141 -0.12353119 -0.01123011       0.011
   0.13476130 -0.11230109 -0.00000000       0.011
  -0.00000000  0.04492043  0.08984087       0.011
   0.13476130 -0.08984087 -0.04492043       0.022
   0.12353119 -0.07861076 -0.03369033       0.022
   0.14599141 -0.10107098 -0.03369033       0.011
   0.13476130 -0.08984087 -0.02246022       0.022
   0.12353119 -0.07861076 -0.01123011       0.022
   0.11230109 -0.06738065  0.00000000       0.011
   0.14599141 -0.10107098 -0.01123011       0.011
   0.13476130 -0.08984087  0.00000000       0.011
   0.14599141 -0.07861076 -0.01123011       0.011

 k-points in reciprocal lattice and weights: KPOINTS
   0.00000000  0.00000000  0.00000000       0.000
   0.07692308  0.00000000 -0.00000000       0.004
   0.15384615  0.00000000 -0.00000000       0.004
   0.23076923 -0.00000000 -0.00000000       0.004
   0.30769231  0.00000000 -0.00000000       0.004
   0.38461538 -0.00000000 -0.00000000       0.004
   0.46153846  0.00000000 -0.00000000       0.004
   0.07692308  0.07692308 -0.00000000       0.003
   0.15384615  0.07692308  0.00000000       0.011
   0.23076923  0.07692308 -0.00000000       0.011
   0.30769231  0.07692308 -0.00000000       0.011
   0.38461538  0.07692308 -0.00000000       0.011
   0.46153846  0.07692308 -0.00000000       0.011
  -0.46153846  0.07692308  0.00000000       0.011
  -0.38461538  0.07692308 -0.00000000       0.011
  -0.30769231  0.07692308  0.00000000       0.011
  -0.23076923  0.07692308 -0.00000000       0.011
  -0.15384615  0.07692308 -0.00000000       0.011
  -0.07692308  0.07692308  0.00000000       0.005
   0.15384615  0.15384615 -0.00000000       0.003
   0.23076923  0.15384615 -0.00000000       0.011
   0.30769231  0.15384615 -0.00000000       0.011
   0.38461538  0.15384615 -0.00000000       0.011
   0.46153846  0.15384615 -0.00000000       0.011
  -0.46153846  0.15384615  0.00000000       0.011
  -0.38461538  0.15384615  0.00000000       0.011
  -0.30769231  0.15384615  0.00000000       0.011
  -0.23076923  0.15384615  0.00000000       0.011
  -0.15384615  0.15384615  0.00000000       0.005
   0.23076923  0.23076923 -0.00000000       0.003
   0.30769231  0.23076923 -0.00000000       0.011
   0.38461538  0.23076923 -0.00000000       0.011
   0.46153846  0.23076923 -0.00000000       0.011
  -0.46153846  0.23076923  0.00000000       0.011
  -0.38461538  0.23076923 -0.00000000       0.011
  -0.30769231  0.23076923  0.00000000       0.011
  -0.23076923  0.23076923 -0.00000000       0.005
   0.30769231  0.30769231 -0.00000000       0.003
   0.38461538  0.30769231 -0.00000000       0.011
   0.46153846  0.30769231 -0.00000000       0.011
  -0.46153846  0.30769231  0.00000000       0.011
  -0.38461538  0.30769231  0.00000000       0.011
  -0.30769231  0.30769231  0.00000000       0.005
   0.38461538  0.38461538 -0.00000000       0.003
   0.46153846  0.38461538 -0.00000000       0.011
  -0.46153846  0.38461538  0.00000000       0.011
  -0.38461538  0.38461538 -0.00000000       0.005
   0.46153846  0.46153846 -0.00000000       0.003
  -0.46153846  0.46153846  0.00000000       0.005
   0.23076923  0.15384615  0.07692308       0.011
   0.30769231  0.15384615  0.07692308       0.022
   0.38461538  0.15384615  0.07692308       0.022
   0.46153846  0.15384615  0.07692308       0.022
  -0.46153846  0.15384615  0.07692308       0.022
   0.30769231  0.23076923  0.07692308       0.011
   0.38461538  0.23076923  0.07692308       0.022
   0.46153846  0.23076923  0.07692308       0.022
  -0.46153846  0.23076923  0.07692308       0.022
  -0.38461538  0.23076923  0.07692308       0.022
  -0.30769231  0.23076923  0.07692308       0.022
  -0.23076923  0.23076923  0.07692308       0.022
  -0.15384615  0.23076923  0.07692308       0.011
   0.38461538  0.30769231  0.07692308       0.011
   0.46153846  0.30769231  0.07692308       0.022
  -0.46153846  0.30769231  0.07692308       0.022
  -0.38461538  0.30769231  0.07692308       0.022
  -0.30769231  0.30769231  0.07692308       0.022
  -0.23076923  0.30769231  0.07692308       0.011
   0.46153846  0.38461538  0.07692308       0.011
  -0.46153846  0.38461538  0.07692308       0.022
  -0.38461538  0.38461538  0.07692308       0.022
  -0.30769231  0.38461538  0.07692308       0.011
  -0.46153846  0.46153846  0.07692308       0.011
  -0.38461538  0.46153846  0.07692308       0.011
   0.46153846  0.30769231  0.15384615       0.011
  -0.46153846  0.30769231  0.15384615       0.022
  -0.38461538  0.30769231  0.15384615       0.022
  -0.46153846  0.38461538  0.15384615       0.011
  -0.38461538  0.38461538  0.15384615       0.022
  -0.30769231  0.38461538  0.15384615       0.022
  -0.23076923  0.38461538  0.15384615       0.011
  -0.38461538  0.46153846  0.15384615       0.011
  -0.30769231  0.46153846  0.15384615       0.011
  -0.30769231  0.46153846  0.23076923       0.011

 position of ions in fractional coordinates (direct lattice)
   0.25000000  0.25000000  0.25000000
   0.75000000  0.75000000  0.75000000
   0.00000000  0.00000000  0.00000000

 position of ions in cartesian coordinates  (Angst):
   1.79927977  1.79927977  1.79927977
   5.39783931  5.39783931  5.39783931
   0.00000000  0.00000000  0.00000000



--------------------------------------------------------------------------------------------------------


 k-point  1 :   0.0000 0.0000 0.0000  plane waves:    3839
 k-point  2 :   0.0769 0.0000-0.0000  plane waves:    3879
 k-point  3 :   0.1538 0.0000-0.0000  plane waves:    3900
 k-point  4 :   0.2308-0.0000-0.0000  plane waves:    3900
 k-point  5 :   0.3077 0.0000-0.0000  plane waves:    3897
 k-point  6 :   0.3846-0.0000-0.0000  plane waves:    3903
 k-point  7 :   0.4615 0.0000-0.0000  plane waves:    3882
 k-point  8 :   0.0769 0.0769-0.0000  plane waves:    3887
 k-point  9 :   0.1538 0.0769 0.0000  plane waves:    3881
 k-point 10 :   0.2308 0.0769-0.0000  plane waves:    3899
 k-point 11 :   0.3077 0.0769-0.0000  plane waves:    3904
 k-point 12 :   0.3846 0.0769-0.0000  plane waves:    3900
 k-point 13 :   0.4615 0.0769-0.0000  plane waves:    3909
 k-point 14 :  -0.4615 0.0769 0.0000  plane waves:    3904
 k-point 15 :  -0.3846 0.0769-0.0000  plane waves:    3913
 k-point 16 :  -0.3077 0.0769 0.0000  plane waves:    3910
 k-point 17 :  -0.2308 0.0769-0.0000  plane waves:    3917
 k-point 18 :  -0.1538 0.0769-0.0000  plane waves:    3893
 k-point 19 :  -0.0769 0.0769 0.0000  plane waves:    3891
 k-point 20 :   0.1538 0.1538-0.0000  plane waves:    3903
 k-point 21 :   0.2308 0.1538-0.0000  plane waves:    3920
 k-point 22 :   0.3077 0.1538-0.0000  plane waves:    3913
 k-point 23 :   0.3846 0.1538-0.0000  plane waves:    3913
 k-point 24 :   0.4615 0.1538-0.0000  plane waves:    3910
 k-point 25 :  -0.4615 0.1538 0.0000  plane waves:    3927
 k-point 26 :  -0.3846 0.1538 0.0000  plane waves:    3916
 k-point 27 :  -0.3077 0.1538 0.0000  plane waves:    3905
 k-point 28 :  -0.2308 0.1538 0.0000  plane waves:    3914
 k-point 29 :  -0.1538 0.1538 0.0000  plane waves:    3901
 k-point 30 :   0.2308 0.2308-0.0000  plane waves:    3931
 k-point 31 :   0.3077 0.2308-0.0000  plane waves:    3936
 k-point 32 :   0.3846 0.2308-0.0000  plane waves:    3931
 k-point 33 :   0.4615 0.2308-0.0000  plane waves:    3922
 k-point 34 :  -0.4615 0.2308 0.0000  plane waves:    3930
 k-point 35 :  -0.3846 0.2308-0.0000  plane waves:    3927
 k-point 36 :  -0.3077 0.2308 0.0000  plane waves:    3923
 k-point 37 :  -0.2308 0.2308-0.0000  plane waves:    3925
 k-point 38 :   0.3077 0.3077-0.0000  plane waves:    3956
 k-point 39 :   0.3846 0.3077-0.0000  plane waves:    3930
 k-point 40 :   0.4615 0.3077-0.0000  plane waves:    3931
 k-point 41 :  -0.4615 0.3077 0.0000  plane waves:    3932
 k-point 42 :  -0.3846 0.3077 0.0000  plane waves:    3930
 k-point 43 :  -0.3077 0.3077 0.0000  plane waves:    3913
 k-point 44 :   0.3846 0.3846-0.0000  plane waves:    3948
 k-point 45 :   0.4615 0.3846-0.0000  plane waves:    3934
 k-point 46 :  -0.4615 0.3846 0.0000  plane waves:    3934
 k-point 47 :  -0.3846 0.3846-0.0000  plane waves:    3911
 k-point 48 :   0.4615 0.4615-0.0000  plane waves:    3928
 k-point 49 :  -0.4615 0.4615 0.0000  plane waves:    3933
 k-point 50 :   0.2308 0.1538 0.0769  plane waves:    3903
 k-point 51 :   0.3077 0.1538 0.0769  plane waves:    3920
 k-point 52 :   0.3846 0.1538 0.0769  plane waves:    3909
 k-point 53 :   0.4615 0.1538 0.0769  plane waves:    3905
 k-point 54 :  -0.4615 0.1538 0.0769  plane waves:    3926
 k-point 55 :   0.3077 0.2308 0.0769  plane waves:    3922
 k-point 56 :   0.3846 0.2308 0.0769  plane waves:    3919
 k-point 57 :   0.4615 0.2308 0.0769  plane waves:    3919
 k-point 58 :  -0.4615 0.2308 0.0769  plane waves:    3918
 k-point 59 :  -0.3846 0.2308 0.0769  plane waves:    3932
 k-point 60 :  -0.3077 0.2308 0.0769  plane waves:    3916
 k-point 61 :  -0.2308 0.2308 0.0769  plane waves:    3919
 k-point 62 :  -0.1538 0.2308 0.0769  plane waves:    3915
 k-point 63 :   0.3846 0.3077 0.0769  plane waves:    3935
 k-point 64 :   0.4615 0.3077 0.0769  plane waves:    3933
 k-point 65 :  -0.4615 0.3077 0.0769  plane waves:    3924
 k-point 66 :  -0.3846 0.3077 0.0769  plane waves:    3930
 k-point 67 :  -0.3077 0.3077 0.0769  plane waves:    3920
 k-point 68 :  -0.2308 0.3077 0.0769  plane waves:    3927
 k-point 69 :   0.4615 0.3846 0.0769  plane waves:    3938
 k-point 70 :  -0.4615 0.3846 0.0769  plane waves:    3934
 k-point 71 :  -0.3846 0.3846 0.0769  plane waves:    3928
 k-point 72 :  -0.3077 0.3846 0.0769  plane waves:    3928
 k-point 73 :  -0.4615 0.4615 0.0769  plane waves:    3919
 k-point 74 :  -0.3846 0.4615 0.0769  plane waves:    3933
 k-point 75 :   0.4615 0.3077 0.1538  plane waves:    3921
 k-point 76 :  -0.4615 0.3077 0.1538  plane waves:    3924
 k-point 77 :  -0.3846 0.3077 0.1538  plane waves:    3933
 k-point 78 :  -0.4615 0.3846 0.1538  plane waves:    3941
 k-point 79 :  -0.3846 0.3846 0.1538  plane waves:    3926
 k-point 80 :  -0.3077 0.3846 0.1538  plane waves:    3924
 k-point 81 :  -0.2308 0.3846 0.1538  plane waves:    3919
 k-point 82 :  -0.3846 0.4615 0.1538  plane waves:    3928
 k-point 83 :  -0.3077 0.4615 0.1538  plane waves:    3917
 k-point 84 :  -0.3077 0.4615 0.2308  plane waves:    3917

 maximum and minimum number of plane-waves per node :       994      947

 maximum number of plane-waves:      3956
 maximum index in each direction:
   IXMAX=   11   IYMAX=   10   IZMAX=   10
   IXMIN=  -11   IYMIN=  -11   IZMIN=  -11


 parallel 3D FFT for wavefunctions:
    minimum data exchange during FFTs selected (reduces bandwidth)
 parallel 3D FFT for charge:
    minimum data exchange during FFTs selected (reduces bandwidth)


 total amount of memory used by VASP MPI-rank0   116010. kBytes
=======================================================================

   base      :      30000. kBytes
   nonl-proj :      64043. kBytes
   fftplans  :       8952. kBytes
   grid      :       4709. kBytes
   one-center:         49. kBytes
   wavefun   :       8257. kBytes

     INWAV:  cpu time    0.0003: real time    0.0004
 Broyden mixing: mesh for mixing (old mesh)
   NGX = 21   NGY = 21   NGZ = 21
  (NGX  = 96   NGY  = 96   NGZ  = 96)
  gives a total of   9261 points

 initial charge density was supplied:
 charge density of overlapping atoms calculated
 number of electron      37.0000000 magnetization
 keeping initial charge density in first step


--------------------------------------------------------------------------------------------------------


 Maximum index for augmentation-charges        35235 (set IRDMAX)


--------------------------------------------------------------------------------------------------------


 First call to EWALD:  gamma=   0.391
 Maximum number of real-space cells 3x 3x 3
 Maximum number of reciprocal cells 3x 3x 3

    FEWALD:  cpu time    0.0053: real time    0.0066


--------------------------------------- Iteration      1(   1)  ---------------------------------------


    POTLOK:  cpu time    0.0634: real time    0.1479
    SETDIJ:  cpu time    0.1243: real time    0.1247
     EDDAV:  cpu time    1.7456: real time    1.7813
       DOS:  cpu time    0.0042: real time    0.0048
    --------------------------------------------
      LOOP:  cpu time    1.9381: real time    2.0826

 eigenvalue-minimisations  :  4032
 total energy-change (2. order) : 0.4311483E+03  (-0.2015267E+04)
 number of electron      37.0000000 magnetization
 augmentation part       37.0000000 magnetization

 Free energy of the ion-electron system (eV)
  ---------------------------------------------------
  alpha Z        PSCENC =       184.35146536
  Ewald energy   TEWEN  =     -2976.79674463
  -Hartree energ DENC   =      -824.15639981
  -exchange      EXHF   =         0.00000000
  -V(xc)+E(xc)   XCENC  =        66.82978626
  PAW double counting   =      3147.30828992    -3070.62761383
  entropy T*S    EENTRO =        -0.00009055
  eigenvalues    EBANDS =       229.56616927
  atomic energy  EATOM  =      3674.67342263
  Solvation  Ediel_sol  =         0.00000000
  ---------------------------------------------------
  free energy    TOTEN  =       431.14828462 eV

  energy without entropy =      431.14837517  energy(sigma->0) =      431.14832990


--------------------------------------------------------------------------------------------------------




--------------------------------------- Iteration      1(   2)  ---------------------------------------


     EDDAV:  cpu time    1.7527: real time    1.8764
       DOS:  cpu time    0.0032: real time    0.0047
    --------------------------------------------
      LOOP:  cpu time    1.7558: real time    1.8604

 eigenvalue-minimisations  :  4312
 total energy-change (2. order) :-0.3877185E+03  (-0.3807291E+03)
 number of electron      37.0000000 magnetization
 augmentation part       37.0000000 magnetization

 Free energy of the ion-electron system (eV)
  ---------------------------------------------------
  alpha Z        PSCENC =       184.35146536
  Ewald energy   TEWEN  =     -2976.79674463
  -Hartree energ DENC   =      -824.15639981
  -exchange      EXHF   =         0.00000000
  -V(xc)+E(xc)   XCENC  =        66.82978626
  PAW double counting   =      3147.30828992    -3070.62761383
  entropy T*S    EENTRO =        -0.00029477
  eigenvalues    EBANDS =      -158.15210099
  atomic energy  EATOM  =      3674.67342263
  Solvation  Ediel_sol  =         0.00000000
  ---------------------------------------------------
  free energy    TOTEN  =        43.42981014 eV

  energy without entropy =       43.43010491  energy(sigma->0) =       43.42995753


--------------------------------------------------------------------------------------------------------




--------------------------------------- Iteration      1(   3)  ---------------------------------------


     EDDAV:  cpu time    2.1155: real time    2.1572
       DOS:  cpu time    0.0031: real time    0.0032
    --------------------------------------------
      LOOP:  cpu time    2.1187: real time    2.1621

 eigenvalue-minimisations  :  5536
 total energy-change (2. order) :-0.6178723E+02  (-0.6099416E+02)
 number of electron      37.0000000 magnetization
 augmentation part       37.0000000 magnetization

 Free energy of the ion-electron system (eV)
  ---------------------------------------------------
  alpha Z        PSCENC =       184.35146536
  Ewald energy   TEWEN  =     -2976.79674463
  -Hartree energ DENC   =      -824.15639981
  -exchange      EXHF   =         0.00000000
  -V(xc)+E(xc)   XCENC  =        66.82978626
  PAW double counting   =      3147.30828992    -3070.62761383
  entropy T*S    EENTRO =        -0.00013600
  eigenvalues    EBANDS =      -219.93949307
  atomic energy  EATOM  =      3674.67342263
  Solvation  Ediel_sol  =         0.00000000
  ---------------------------------------------------
  free energy    TOTEN  =       -18.35742317 eV

  energy without entropy =      -18.35728717  energy(sigma->0) =      -18.35735517


--------------------------------------------------------------------------------------------------------




--------------------------------------- Iteration      1(   4)  ---------------------------------------


     EDDAV:  cpu time    2.6119: real time    2.6681
       DOS:  cpu time    0.0031: real time    0.0032
    --------------------------------------------
      LOOP:  cpu time    2.6149: real time    2.6697

 eigenvalue-minimisations  :  7232
 total energy-change (2. order) :-0.4131155E+01  (-0.4104908E+01)
 number of electron      37.0000000 magnetization
 augmentation part       37.0000000 magnetization

 Free energy of the ion-electron system (eV)
  ---------------------------------------------------
  alpha Z        PSCENC =       184.35146536
  Ewald energy   TEWEN  =     -2976.79674463
  -Hartree energ DENC   =      -824.15639981
  -exchange      EXHF   =         0.00000000
  -V(xc)+E(xc)   XCENC  =        66.82978626
  PAW double counting   =      3147.30828992    -3070.62761383
  entropy T*S    EENTRO =        -0.00017838
  eigenvalues    EBANDS =      -224.07060520
  atomic energy  EATOM  =      3674.67342263
  Solvation  Ediel_sol  =         0.00000000
  ---------------------------------------------------
  free energy    TOTEN  =       -22.48857768 eV

  energy without entropy =      -22.48839930  energy(sigma->0) =      -22.48848849


--------------------------------------------------------------------------------------------------------




--------------------------------------- Iteration      1(   5)  ---------------------------------------


     EDDAV:  cpu time    2.1482: real time    2.1838
       DOS:  cpu time    0.0030: real time    0.0032
    CHARGE:  cpu time    0.4467: real time    0.4474
    MIXING:  cpu time    0.0089: real time    0.0090
    --------------------------------------------
      LOOP:  cpu time    2.6068: real time    2.6427

 eigenvalue-minimisations  :  5592
 total energy-change (2. order) :-0.1335465E+00  (-0.1335065E+00)
 number of electron      37.0000000 magnetization
 augmentation part        6.0471661 magnetization

 Broyden mixing:
  rms(total) = 0.25841E+01    rms(broyden)= 0.25841E+01
  rms(prec ) = 0.29866E+01
  weight for this iteration     100.00

 Free energy of the ion-electron system (eV)
  ---------------------------------------------------
  alpha Z        PSCENC =       184.35146536
  Ewald energy   TEWEN  =     -2976.79674463
  -Hartree energ DENC   =      -824.15639981
  -exchange      EXHF   =         0.00000000
  -V(xc)+E(xc)   XCENC  =        66.82978626
  PAW double counting   =      3147.30828992    -3070.62761383
  entropy T*S    EENTRO =        -0.00018445
  eigenvalues    EBANDS =      -224.20414566
  atomic energy  EATOM  =      3674.67342263
  Solvation  Ediel_sol  =         0.00000000
  ---------------------------------------------------
  free energy    TOTEN  =       -22.62212421 eV

  energy without entropy =      -22.62193976  energy(sigma->0) =      -22.62203198


--------------------------------------------------------------------------------------------------------




--------------------------------------- Iteration      1(   6)  ---------------------------------------


    POTLOK:  cpu time    0.0782: real time    0.1131
    SETDIJ:  cpu time    0.1087: real time    0.1150
     EDDAV:  cpu time    2.0198: real time    2.0200
       DOS:  cpu time    0.0033: real time    0.0040
    CHARGE:  cpu time    0.4048: real time    0.4049
    MIXING:  cpu time    0.0057: real time    0.0059
    --------------------------------------------
      LOOP:  cpu time    2.6204: real time    2.6620

 eigenvalue-minimisations  :  5168
 total energy-change (2. order) : 0.1104614E+01  (-0.2305329E+00)
 number of electron      37.0000000 magnetization
 augmentation part        6.0663645 magnetization

 Broyden mixing:
  rms(total) = 0.16915E+01    rms(broyden)= 0.16915E+01
  rms(prec ) = 0.18241E+01
  weight for this iteration     100.00

 eigenvalues of (default mixing * dielectric matrix)
  average eigenvalue GAMMA=   2.7692
  2.7692

 Free energy of the ion-electron system (eV)
  ---------------------------------------------------
  alpha Z        PSCENC =       184.35146536
  Ewald energy   TEWEN  =     -2976.79674463
  -Hartree energ DENC   =      -809.49808536
  -exchange      EXHF   =         0.00000000
  -V(xc)+E(xc)   XCENC  =        66.37167383
  PAW double counting   =      3329.76466996    -3256.95942930
  entropy T*S    EENTRO =        -0.00031454
  eigenvalues    EBANDS =      -233.42416778
  atomic energy  EATOM  =      3674.67342263
  Solvation  Ediel_sol  =         0.00000000
  ---------------------------------------------------
  free energy    TOTEN  =       -21.51750983 eV

  energy without entropy =      -21.51719529  energy(sigma->0) =      -21.51735256


--------------------------------------------------------------------------------------------------------




--------------------------------------- Iteration      1(   7)  ---------------------------------------


    POTLOK:  cpu time    0.0478: real time    0.0771
    SETDIJ:  cpu time    0.1158: real time    0.1159
     EDDAV:  cpu time    2.2869: real time    2.2873
       DOS:  cpu time    0.0032: real time    0.0034
    CHARGE:  cpu time    0.3753: real time    0.3754
    MIXING:  cpu time    0.0064: real time    0.0065
    --------------------------------------------
      LOOP:  cpu time    2.8355: real time    2.8734

 eigenvalue-minimisations  :  6144
 total energy-change (2. order) : 0.1041017E+00  (-0.2878446E+00)
 number of electron      37.0000000 magnetization
 augmentation part        6.0553758 magnetization

 Broyden mixing:
  rms(total) = 0.63206E+00    rms(broyden)= 0.63206E+00
  rms(prec ) = 0.76299E+00
  weight for this iteration     100.00

 eigenvalues of (default mixing * dielectric matrix)
  average eigenvalue GAMMA=   2.1933
  1.0752  3.3115

 Free energy of the ion-electron system (eV)
  ---------------------------------------------------
  alpha Z        PSCENC =       184.35146536
  Ewald energy   TEWEN  =     -2976.79674463
  -Hartree energ DENC   =      -794.54582758
  -exchange      EXHF   =         0.00000000
  -V(xc)+E(xc)   XCENC  =        66.07901208
  PAW double counting   =      3561.45687263    -3492.57078717
  entropy T*S    EENTRO =        -0.00024258
  eigenvalues    EBANDS =      -244.06057891
  atomic energy  EATOM  =      3674.67342263
  Solvation  Ediel_sol  =         0.00000000
  ---------------------------------------------------
  free energy    TOTEN  =       -21.41340817 eV

  energy without entropy =      -21.41316559  energy(sigma->0) =      -21.41328688


--------------------------------------------------------------------------------------------------------




--------------------------------------- Iteration      1(   8)  ---------------------------------------


    POTLOK:  cpu time    0.0916: real time    0.1332
    SETDIJ:  cpu time    0.1150: real time    0.1151
     EDDAV:  cpu time    2.0495: real time    2.0569
       DOS:  cpu time    0.0031: real time    0.0033
    CHARGE:  cpu time    0.3743: real time    0.3745
    MIXING:  cpu time    0.0055: real time    0.0079
    --------------------------------------------
      LOOP:  cpu time    2.6390: real time    2.6829

 eigenvalue-minimisations  :  5296
 total energy-change (2. order) : 0.5149146E-01  (-0.1387855E+00)
 number of electron      37.0000000 magnetization
 augmentation part        5.9865974 magnetization

 Broyden mixing:
  rms(total) = 0.16582E+00    rms(broyden)= 0.16582E+00
  rms(prec ) = 0.30024E+00
  weight for this iteration     100.00

 eigenvalues of (default mixing * dielectric matrix)
  average eigenvalue GAMMA=   1.7012
  2.7470  1.1783  1.1783

 Free energy of the ion-electron system (eV)
  ---------------------------------------------------
  alpha Z        PSCENC =       184.35146536
  Ewald energy   TEWEN  =     -2976.79674463
  -Hartree energ DENC   =      -798.20703799
  -exchange      EXHF   =         0.00000000
  -V(xc)+E(xc)   XCENC  =        66.17550655
  PAW double counting   =      3581.02174598    -3511.72047141
  entropy T*S    EENTRO =        -0.00030799
  eigenvalues    EBANDS =      -240.85949522
  atomic energy  EATOM  =      3674.67342263
  Solvation  Ediel_sol  =         0.00000000
  ---------------------------------------------------
  free energy    TOTEN  =       -21.36191670 eV

  energy without entropy =      -21.36160871  energy(sigma->0) =      -21.36176271


--------------------------------------------------------------------------------------------------------




--------------------------------------- Iteration      1(   9)  ---------------------------------------


    POTLOK:  cpu time    0.0645: real time    0.1031
    SETDIJ:  cpu time    0.1080: real time    0.1113
     EDDAV:  cpu time    2.1570: real time    2.1572
       DOS:  cpu time    0.0031: real time    0.0033
    CHARGE:  cpu time    0.3760: real time    0.3761
    MIXING:  cpu time    0.0058: real time    0.0061
    --------------------------------------------
      LOOP:  cpu time    2.7145: real time    2.7566

 eigenvalue-minimisations  :  5568
 total energy-change (2. order) : 0.7194663E-02  (-0.5359615E-01)
 number of electron      37.0000000 magnetization
 augmentation part        5.9536286 magnetization

 Broyden mixing:
  rms(total) = 0.13336E+00    rms(broyden)= 0.13336E+00
  rms(prec ) = 0.26844E+00
  weight for this iteration     100.00

 eigenvalues of (default mixing * dielectric matrix)
  average eigenvalue GAMMA=   1.4548
  2.7450  1.2731  1.2731  0.5280

 Free energy of the ion-electron system (eV)
  ---------------------------------------------------
  alpha Z        PSCENC =       184.35146536
  Ewald energy   TEWEN  =     -2976.79674463
  -Hartree energ DENC   =      -798.18159693
  -exchange      EXHF   =         0.00000000
  -V(xc)+E(xc)   XCENC  =        66.15785761
  PAW double counting   =      3605.55690520    -3536.51846006
  entropy T*S    EENTRO =        -0.00027641
  eigenvalues    EBANDS =      -240.59729481
  atomic energy  EATOM  =      3674.67342263
  Solvation  Ediel_sol  =         0.00000000
  ---------------------------------------------------
  free energy    TOTEN  =       -21.35472204 eV

  energy without entropy =      -21.35444563  energy(sigma->0) =      -21.35458384


--------------------------------------------------------------------------------------------------------




--------------------------------------- Iteration      1(  10)  ---------------------------------------


    POTLOK:  cpu time    0.0479: real time    0.0842
    SETDIJ:  cpu time    0.1149: real time    0.1151
     EDDAV:  cpu time    2.5958: real time    2.5960
       DOS:  cpu time    0.0034: real time    0.0036
    CHARGE:  cpu time    0.3742: real time    0.3744
    MIXING:  cpu time    0.0078: real time    0.0078
    --------------------------------------------
      LOOP:  cpu time    3.1439: real time    3.1818

 eigenvalue-minimisations  :  6992
 total energy-change (2. order) : 0.1453555E-01  (-0.6412860E-02)
 number of electron      37.0000000 magnetization
 augmentation part        5.9691584 magnetization

 Broyden mixing:
  rms(total) = 0.10672E+00    rms(broyden)= 0.10672E+00
  rms(prec ) = 0.14661E+00
  weight for this iteration     100.00

 eigenvalues of (default mixing * dielectric matrix)
  average eigenvalue GAMMA=   1.5175
  3.1439  1.7187  1.2495  0.8291  0.6463

 Free energy of the ion-electron system (eV)
  ---------------------------------------------------
  alpha Z        PSCENC =       184.35146536
  Ewald energy   TEWEN  =     -2976.79674463
  -Hartree energ DENC   =      -798.13411974
  -exchange      EXHF   =         0.00000000
  -V(xc)+E(xc)   XCENC  =        66.13816215
  PAW double counting   =      3610.59844078    -3541.44001232
  entropy T*S    EENTRO =        -0.00050990
  eigenvalues    EBANDS =      -240.73029083
  atomic energy  EATOM  =      3674.67342263
  Solvation  Ediel_sol  =         0.00000000
  ---------------------------------------------------
  free energy    TOTEN  =       -21.34018649 eV

  energy without entropy =      -21.33967660  energy(sigma->0) =      -21.33993154


--------------------------------------------------------------------------------------------------------




--------------------------------------- Iteration      1(  11)  ---------------------------------------


    POTLOK:  cpu time    0.0586: real time    0.0815
    SETDIJ:  cpu time    0.1106: real time    0.1108
     EDDAV:  cpu time    2.2534: real time    2.2536
       DOS:  cpu time    0.0032: real time    0.0053
    CHARGE:  cpu time    0.3734: real time    0.3735
    MIXING:  cpu time    0.0080: real time    0.0087
    --------------------------------------------
      LOOP:  cpu time    2.8070: real time    2.8342

 eigenvalue-minimisations  :  5832
 total energy-change (2. order) : 0.3112948E-02  (-0.2788684E-02)
 number of electron      37.0000000 magnetization
 augmentation part        5.9760095 magnetization

 Broyden mixing:
  rms(total) = 0.47202E-01    rms(broyden)= 0.47202E-01
  rms(prec ) = 0.49950E-01
  weight for this iteration     100.00

 eigenvalues of (default mixing * dielectric matrix)
  average eigenvalue GAMMA=   1.3817
  2.3618  2.3618  1.1092  1.1092  0.6742  0.6742

 Free energy of the ion-electron system (eV)
  ---------------------------------------------------
  alpha Z        PSCENC =       184.35146536
  Ewald energy   TEWEN  =     -2976.79674463
  -Hartree energ DENC   =      -798.80075782
  -exchange      EXHF   =         0.00000000
  -V(xc)+E(xc)   XCENC  =        66.13507129
  PAW double counting   =      3620.04762316    -3550.66612130
  entropy T*S    EENTRO =        -0.00054640
  eigenvalues    EBANDS =      -240.28048582
  atomic energy  EATOM  =      3674.67342263
  Solvation  Ediel_sol  =         0.00000000
  ---------------------------------------------------
  free energy    TOTEN  =       -21.33707355 eV

  energy without entropy =      -21.33652715  energy(sigma->0) =      -21.33680035


--------------------------------------------------------------------------------------------------------




--------------------------------------- Iteration      1(  12)  ---------------------------------------


    POTLOK:  cpu time    0.0617: real time    0.0882
    SETDIJ:  cpu time    0.1143: real time    0.1144
     EDDAV:  cpu time    2.5679: real time    2.5682
       DOS:  cpu time    0.0033: real time    0.0036
    CHARGE:  cpu time    0.3751: real time    0.3753
    MIXING:  cpu time    0.0073: real time    0.0074
    --------------------------------------------
      LOOP:  cpu time    3.1297: real time    3.1574

 eigenvalue-minimisations  :  6888
 total energy-change (2. order) : 0.3317841E-05  (-0.1787509E-03)
 number of electron      37.0000000 magnetization
 augmentation part        5.9783665 magnetization

 Broyden mixing:
  rms(total) = 0.24351E-02    rms(broyden)= 0.24351E-02
  rms(prec ) = 0.54786E-02
  weight for this iteration     100.00

 eigenvalues of (default mixing * dielectric matrix)
  average eigenvalue GAMMA=   1.3538
  2.5393  2.0795  1.3164  1.3164  0.7971  0.7971  0.6304

 Free energy of the ion-electron system (eV)
  ---------------------------------------------------
  alpha Z        PSCENC =       184.35146536
  Ewald energy   TEWEN  =     -2976.79674463
  -Hartree energ DENC   =      -798.94441926
  -exchange      EXHF   =         0.00000000
  -V(xc)+E(xc)   XCENC  =        66.13917682
  PAW double counting   =      3612.87578599    -3543.41638157
  entropy T*S    EENTRO =        -0.00055143
  eigenvalues    EBANDS =      -240.21882413
  atomic energy  EATOM  =      3674.67342263
  Solvation  Ediel_sol  =         0.00000000
  ---------------------------------------------------
  free energy    TOTEN  =       -21.33707023 eV

  energy without entropy =      -21.33651879  energy(sigma->0) =      -21.33679451


--------------------------------------------------------------------------------------------------------




--------------------------------------- Iteration      1(  13)  ---------------------------------------


    POTLOK:  cpu time    0.0571: real time    0.0893
    SETDIJ:  cpu time    0.1073: real time    0.1074
     EDDAV:  cpu time    2.2452: real time    2.2454
       DOS:  cpu time    0.0029: real time    0.0037
    CHARGE:  cpu time    0.3684: real time    0.3689
    MIXING:  cpu time    0.0139: real time    0.0140
    --------------------------------------------
      LOOP:  cpu time    2.7947: real time    2.8275

 eigenvalue-minimisations  :  5856
 total energy-change (2. order) :-0.7394421E-05  (-0.5434181E-05)
 number of electron      37.0000000 magnetization
 augmentation part        5.9788880 magnetization

 Broyden mixing:
  rms(total) = 0.57367E-02    rms(broyden)= 0.57367E-02
  rms(prec ) = 0.78426E-02
  weight for this iteration     100.00

 eigenvalues of (default mixing * dielectric matrix)
  average eigenvalue GAMMA=   1.3981
  2.5534  2.0796  1.5764  1.5764  0.9814  0.9814  0.7550  0.6812

 Free energy of the ion-electron system (eV)
  ---------------------------------------------------
  alpha Z        PSCENC =       184.35146536
  Ewald energy   TEWEN  =     -2976.79674463
  -Hartree energ DENC   =      -798.92530059
  -exchange      EXHF   =         0.00000000
  -V(xc)+E(xc)   XCENC  =        66.13886151
  PAW double counting   =      3613.89812787    -3544.43553972
  entropy T*S    EENTRO =        -0.00055086
  eigenvalues    EBANDS =      -240.24081920
  atomic energy  EATOM  =      3674.67342263
  Solvation  Ediel_sol  =         0.00000000
  ---------------------------------------------------
  free energy    TOTEN  =       -21.33707762 eV

  energy without entropy =      -21.33652676  energy(sigma->0) =      -21.33680219


--------------------------------------------------------------------------------------------------------




--------------------------------------- Iteration      1(  14)  ---------------------------------------


    POTLOK:  cpu time    0.0480: real time    0.0790
    SETDIJ:  cpu time    0.1137: real time    0.1139
     EDDAV:  cpu time    2.1180: real time    2.1183
       DOS:  cpu time    0.0031: real time    0.0033
    CHARGE:  cpu time    0.3744: real time    0.3745
    MIXING:  cpu time    0.0066: real time    0.0071
    --------------------------------------------
      LOOP:  cpu time    2.6638: real time    2.6976

 eigenvalue-minimisations  :  5392
 total energy-change (2. order) : 0.1046154E-04  (-0.3547197E-05)
 number of electron      37.0000000 magnetization
 augmentation part        5.9789384 magnetization

 Broyden mixing:
  rms(total) = 0.10900E-02    rms(broyden)= 0.10900E-02
  rms(prec ) = 0.22426E-02
  weight for this iteration     100.00

 eigenvalues of (default mixing * dielectric matrix)
  average eigenvalue GAMMA=   1.4157
  2.6189  2.4404  1.9262  1.2574  1.2574  0.6579  0.8717  0.8717  0.8398

 Free energy of the ion-electron system (eV)
  ---------------------------------------------------
  alpha Z        PSCENC =       184.35146536
  Ewald energy   TEWEN  =     -2976.79674463
  -Hartree energ DENC   =      -798.90452693
  -exchange      EXHF   =         0.00000000
  -V(xc)+E(xc)   XCENC  =        66.13967651
  PAW double counting   =      3613.47203003    -3544.01517070
  entropy T*S    EENTRO =        -0.00055300
  eigenvalues    EBANDS =      -240.25666643
  atomic energy  EATOM  =      3674.67342263
  Solvation  Ediel_sol  =         0.00000000
  ---------------------------------------------------
  free energy    TOTEN  =       -21.33706716 eV

  energy without entropy =      -21.33651416  energy(sigma->0) =      -21.33679066


--------------------------------------------------------------------------------------------------------




--------------------------------------- Iteration      1(  15)  ---------------------------------------


    POTLOK:  cpu time    0.0463: real time    0.0813
    SETDIJ:  cpu time    0.1132: real time    0.1134
     EDDAV:  cpu time    2.5354: real time    2.5359
       DOS:  cpu time    0.0032: real time    0.0041
    CHARGE:  cpu time    0.3764: real time    0.3765
    MIXING:  cpu time    0.0069: real time    0.0070
    --------------------------------------------
      LOOP:  cpu time    3.0814: real time    3.1171

 eigenvalue-minimisations  :  6864
 total energy-change (2. order) : 0.7076842E-06  (-0.1777971E-05)
 number of electron      37.0000000 magnetization
 augmentation part        5.9784156 magnetization

 Broyden mixing:
  rms(total) = 0.17732E-02    rms(broyden)= 0.17731E-02
  rms(prec ) = 0.19683E-02
  weight for this iteration     100.00

 eigenvalues of (default mixing * dielectric matrix)
  average eigenvalue GAMMA=   1.3847
  2.6787  2.3939  1.3918  1.3918  1.3016  1.3016  0.6549  1.0185  0.8569  0.8569

 Free energy of the ion-electron system (eV)
  ---------------------------------------------------
  alpha Z        PSCENC =       184.35146536
  Ewald energy   TEWEN  =     -2976.79674463
  -Hartree energ DENC   =      -798.89955745
  -exchange      EXHF   =         0.00000000
  -V(xc)+E(xc)   XCENC  =        66.13975692
  PAW double counting   =      3613.46737770    -3544.01073121
  entropy T*S    EENTRO =        -0.00055424
  eigenvalues    EBANDS =      -240.26150153
  atomic energy  EATOM  =      3674.67342263
  Solvation  Ediel_sol  =         0.00000000
  ---------------------------------------------------
  free energy    TOTEN  =       -21.33706645 eV

  energy without entropy =      -21.33651222  energy(sigma->0) =      -21.33678934


--------------------------------------------------------------------------------------------------------




--------------------------------------- Iteration      1(  16)  ---------------------------------------


    POTLOK:  cpu time    0.0485: real time    0.0777
    SETDIJ:  cpu time    0.1148: real time    0.1149
     EDDAV:  cpu time    2.2005: real time    2.2009
       DOS:  cpu time    0.0032: real time    0.0036
    CHARGE:  cpu time    0.3758: real time    0.3760
    MIXING:  cpu time    0.0076: real time    0.0124
    --------------------------------------------
      LOOP:  cpu time    2.7505: real time    2.7849

 eigenvalue-minimisations  :  5832
 total energy-change (2. order) : 0.8908501E-08  (-0.1727568E-06)
 number of electron      37.0000000 magnetization
 augmentation part        5.9784277 magnetization

 Broyden mixing:
  rms(total) = 0.72452E-04    rms(broyden)= 0.72233E-04
  rms(prec ) = 0.11796E-03
  weight for this iteration     100.00

 eigenvalues of (default mixing * dielectric matrix)
  average eigenvalue GAMMA=   1.4420
  2.6689  2.5581  1.8370  1.8370  1.4683  1.0957  1.0957  0.6545  0.8431  0.8431
  0.9611

 Free energy of the ion-electron system (eV)
  ---------------------------------------------------
  alpha Z        PSCENC =       184.35146536
  Ewald energy   TEWEN  =     -2976.79674463
  -Hartree energ DENC   =      -798.90025353
  -exchange      EXHF   =         0.00000000
  -V(xc)+E(xc)   XCENC  =        66.13920262
  PAW double counting   =      3613.81032168    -3544.34963592
  entropy T*S    EENTRO =        -0.00055391
  eigenvalues    EBANDS =      -240.26429075
  atomic energy  EATOM  =      3674.67342263
  Solvation  Ediel_sol  =         0.00000000
  ---------------------------------------------------
  free energy    TOTEN  =       -21.33706644 eV

  energy without entropy =      -21.33651253  energy(sigma->0) =      -21.33678949


--------------------------------------------------------------------------------------------------------




--------------------------------------- Iteration      1(  17)  ---------------------------------------


    POTLOK:  cpu time    0.0474: real time    0.0811
    SETDIJ:  cpu time    0.1145: real time    0.1146
     EDDAV:  cpu time    1.7136: real time    1.7138
       DOS:  cpu time    0.0032: real time    0.0035
    --------------------------------------------
      LOOP:  cpu time    1.8787: real time    1.9119

 eigenvalue-minimisations  :  4016
 total energy-change (2. order) :-0.4387766E-07  (-0.1026164E-07)
 number of electron      37.0000000 magnetization
 augmentation part        5.9784277 magnetization

 Free energy of the ion-electron system (eV)
  ---------------------------------------------------
  alpha Z        PSCENC =       184.35146536
  Ewald energy   TEWEN  =     -2976.79674463
  -Hartree energ DENC   =      -798.90188860
  -exchange      EXHF   =         0.00000000
  -V(xc)+E(xc)   XCENC  =        66.13909427
  PAW double counting   =      3613.89013466    -3544.42842299
  entropy T*S    EENTRO =        -0.00055386
  eigenvalues    EBANDS =      -240.26357334
  atomic energy  EATOM  =      3674.67342263
  Solvation  Ediel_sol  =         0.00000000
  ---------------------------------------------------
  free energy    TOTEN  =       -21.33706649 eV

  energy without entropy =      -21.33651263  energy(sigma->0) =      -21.33678956


--------------------------------------------------------------------------------------------------------




 average (electrostatic) potential at core
  the test charge radii are     1.1985  1.0856  1.2059
  (the norm of the test charge is              1.0000)
       1 -59.4489       2-103.8540       3 -67.0842



 E-fermi :   6.8118     XC(G=0): -10.3164     alpha+bet :-12.0711


 k-point     1 :       0.0000    0.0000    0.0000
  band No.  band energies     occupation
      1     -33.7002      2.00000
      2     -15.9405      2.00000
      3     -15.9405      2.00000
      4     -15.9164      2.00000
      5     -15.9164      2.00000
      6     -15.9164      2.00000
      7     -11.5083      2.00000
      8     -11.5083      2.00000
      9     -11.5083      2.00000
     10      -4.7027      2.00000
     11       3.0896      2.00000
     12       3.0896      2.00000
     13       3.0896      2.00000
     14       3.3948      2.00000
     15       3.3948      2.00000
     16       4.4761      2.00000
     17       5.9602      2.00000
     18       5.9602      2.00000
     19       5.9602      2.00000
     20       7.0955      0.00000
     21       7.0955      0.00000
     22       7.0955      0.00000
     23       7.7355      0.00000
     24       8.3988      0.00000

 k-point     2 :       0.0769    0.0000   -0.0000
  band No.  band energies     occupation
      1     -33.7001      2.00000
      2     -15.9408      2.00000
      3     -15.9408      2.00000
      4     -15.9164      2.00000
      5     -15.9163      2.00000
      6     -15.9163      2.00000
      7     -11.5156      2.00000
      8     -11.5076      2.00000
      9     -11.5076      2.00000
     10      -4.6647      2.00000
     11       2.9387      2.00000
     12       3.0235      2.00000
     13       3.0235      2.00000
     14       3.4573      2.00000
     15       3.4573      2.00000
     16       4.4278      2.00000
     17       5.8838      2.00000
     18       5.8838      2.00000
     19       5.9692      2.00000
     20       7.1641      0.00000
     21       7.1766      0.00000
     22       7.1766      0.00000
     23       7.8941      0.00000
     24       8.4076      0.00000

 k-point     3 :       0.1538    0.0000   -0.0000
  band No.  band energies     occupation
      1     -33.6998      2.00000
      2     -15.9417      2.00000
      3     -15.9417      2.00000
      4     -15.9166      2.00000
      5     -15.9161      2.00000
      6     -15.9161      2.00000
      7     -11.5355      2.00000
      8     -11.5055      2.00000
[...]
  212              fftbas_plan_mpi                       0.099747                     12   6
  213                dfftw_execute                         0.039729                   36   7
  214                map_backward                          0.006902                   12   7
  215                  map_gather                            0.001602                  6   8
  216                  m_alltoallv_z                         0.002653                  6   8
  217                  map_scatter                           0.002348                  6   8
  218                map_forward                           0.049760                   12   7
  219                  map_gather                            0.029389                  6   8
  220                  m_alltoallv_z                         0.008541                  6   8
  221                  map_scatter                           0.011522                  6   8
  222            M_sumb_d                              0.002312                        6   5
  223          M_sumb_d                              0.000029                          1   4
  224        setdij_                               1.912778                           20   3
  225          fft3d_mpi                             0.351268                         40   4
  226            fftbas_plan_mpi                       0.321277                       40   5
  227              dfftw_execute                         0.133634                    120   6
  228              map_backward                          0.021203                     40   6
  229                map_gather                            0.005512                   20   7
  230                m_alltoallv_z                         0.007761                   20   7
  231                map_scatter                           0.006974                   20   7
  232              map_forward                           0.155234                     40   6
  233                map_gather                            0.088103                   20   7
  234                m_alltoallv_z                         0.027942                   20   7
  235                map_scatter                           0.038193                   20   7
  236          M_sumb_d                              0.009853                         20   4
  237        set_dd_magatom                        0.000003                            1   3
  238        set_dd_paw                            0.011918                            1   3
  239          set_rsgf_all                          0.000004                          1   4
  240          M_sumb_d                              0.011766                          8   4
  241        strkin                                0.001376                            1   3
  242          M_sumb_d                              0.000617                          1   4
  243        strelo                                0.003864                            1   3
  244          M_sumb_d                              0.000091                          2   4
  245        strenl                                1.348942                            1   3
  246          spher                                 1.010494                         19   4
  247          phase                                 0.015931                        189   4
  248          proj1                                 0.292393                       1134   4
  249            crexp_mul_wave                        0.037852                     3402   5
  250            M_sumb_d                              0.080141                     1134   5
  251          M_sumb_d                              0.006733                          1   4
  252        M_sumb_d                              0.000208                            6   3
  253        fft3d_mpi                             0.022328                           11   3
  254          fftbas_plan_mpi                       0.020601                         11   4
  255            dfftw_execute                         0.007648                       33   5
  256            map_forward                           0.004300                       10   5
  257              map_gather                            0.001396                      5   6
  258              m_alltoallv_z                         0.001603                      5   6
  259              map_scatter                           0.001054                      5   6
  260            map_backward                          0.006093                       12   5
  261              map_gather                            0.001641                      6   6
  262              m_alltoallv_z                         0.001836                      6   6
  263              map_scatter                           0.002323                      6   6
  264        ggaall_grid                           0.002672                            1   3
  265        forhar                                0.010476                            2   3
  266          M_sumb_d                              0.000465                          2   4
  267        strehar                               0.004149                            1   3
  268          M_sumb_d                              0.000067                          1   4
  269        chggra                                0.009460                            1   3
  270          fft3d_mpi                             0.005987                          3   4
  271            fftbas_plan_mpi                       0.005512                        3   5
  272              dfftw_execute                         0.002136                      9   6
  273              map_backward                          0.001002                      2   6
  274                map_gather                            0.000262                    1   7
  275                m_alltoallv_z                         0.000306                    1   7
  276                map_scatter                           0.000379                    1   7
  277              map_forward                           0.001614                      4   6
  278                map_gather                            0.000539                    2   7
  279                m_alltoallv_z                         0.000555                    2   7
  280                map_scatter                           0.000422                    2   7
  281          M_sumb_d                              0.000115                          3   4
  282        brmix                                 0.014872                            1   3
  283          M_sumb_d                              0.000282                          6   4
  284          brpre                                 0.000051                          1   4
  285          setg0                                 0.002458                          1   4
  286          broyd                                 0.002425                          1   4
  287            M_sumb_d                              0.000617                       19   5
  288            brget                                 0.000333                       69   5
  289            brsav                                 0.000121                       17   5
  290          M_bcast_z                             0.008115                          1   4
  291          M_bcast_d                             0.000051                          1   4
  292        M_bcast_d                             0.000053                            2   3
  293      potlok                                0.039314                              1   2
  294        fft3d_mpi                             0.025627                           13   3
  295          fftbas_plan_mpi                       0.023654                         13   4
  296            dfftw_execute                         0.008647                       39   5
  297            map_forward                           0.005791                       14   5
  298              map_gather                            0.001825                      8   6
  299              m_alltoallv_z                         0.002127                      8   6
  300              map_scatter                           0.001477                      8   6
  301            map_backward                          0.006325                       12   5
  302              map_gather                            0.001682                      6   6
  303              m_alltoallv_z                         0.001988                      6   6
  304              map_scatter                           0.002299                      6   6
  305        ggaall_grid                           0.002657                            1   3
  306        M_sumb_d                              0.000261                            6   3
  307        M_bcast_d                             0.000132                            1   3
  308      potlok_metagga                        0.000003                              1   2
  309      set_dd_magatom                        0.000004                              1   2
  310      set_dd_paw                            0.000453                              1   2
  311        set_rsgf_all                          0.000003                            1   3
  312        M_sumb_d                              0.000251                            8   3
  313      densta                                0.002498                              1   2
  314        M_sumb_d                              0.000847                           43   3
  315      lprj_proall                           0.000008                              1   2

 Flat profile
 ============

             routine name                   CPU           calls
 ---------------------------------------------------------------
 total_time                             26.023593           1
 dfftw_execute                           8.139063       54042
 eddav                                   5.939632          17
 fftbas_plan_mpi                         3.910317       18016
 setdij_                                 3.337086          41
 M_sumb_d                                3.041886       49947
 set_charge                              2.903269          13
 m_alltoallv_z                           2.300535       18041
 pdssyex_zheevx                          1.593428         357
 elmin                                   1.526149           1
 M_alltoall_d                            1.420434       59976
 vhamil                                  1.396616        8172
 proj1                                   1.232239        7290
 spher                                   1.171932          20
 fftwav_mpi                              1.144302        9537
 gemm                                    1.126657       24516
 map_forward                             1.120685       19368
 orth1                                   1.083842       12279
 map_gather                              0.975737       18041
 map_scatter                             0.943429       18041
 vnlac0                                  0.566167        8172
 redis_pw                                0.528731       23130
 M_bcast_z                               0.523448        6639
 hamiltmu                                0.465695        4086
 redis_proj                              0.447474       29181
 w1_copy                                 0.396768       24516
 fft3d_mpi                               0.343767       18014
 work_mul_crexp                          0.330549       24516
 eccp                                    0.322944        2142
 map_backward                            0.304360       16660
 fftext_mpi                              0.294638        8172
 crexp_mul_wave                          0.256616       21870
 pw_charge                               0.197387        1365
 kinhamil                                0.173920        8172
 overl                                   0.162215       14223
 potlok                                  0.141151          14
 M_bcast_d                               0.133902        4120
 overl1                                  0.099162        8172
 apply_precond                           0.092839        6030
 setup_precond                           0.080043        2142
 crpa_reader                             0.075048           1
 lincom                                  0.071564         378
 w1_projall                              0.066877        3015
 force_and_stress                        0.061486           1
 fornl                                   0.057737           1
 phase                                   0.049062         589
 soft_charge                             0.041506          13
 ggaall_grid                             0.039763          15
 truncate_high_frequency_w1              0.035440       10314
 brmix                                   0.033409          13
 densta                                  0.027707          18
 setg0                                   0.027000          14
 strenl                                  0.023390           1
 broyd                                   0.014562          13
 forhar                                  0.010011           2
 depsum                                  0.005793          13
 forloc                                  0.005132           1
 strehar                                 0.004082           1
 strelo                                  0.003773           1
 chggra                                  0.003358           1
 set_dd_paw                              0.003069          15
 orthch                                  0.002434           1
 brget                                   0.002376         501
 choleski                                0.002006          21
 proj                                    0.001706          21
 brgrid                                  0.001078           1
 brsav                                   0.001037         145
 brpre                                   0.000881          13
 strkin                                  0.000759           1
 fordep                                  0.000128           1
 vectorpot                               0.000082          14
 set_rsgf_all                            0.000065          15
 set_dd_magatom                          0.000056          15
 potlok_metagga                          0.000052          14
 set_kineden                             0.000043          12
 rotate_active_occupied_orbital          0.000015           1
 lprj_proall                             0.000008           1
 redis_pw_over_bands                     0.000003           1
 ---------------------------------------------------------------
  summed up times    76.8651039600372

 Accumulative profile
 ====================

             routine name                   CPU           calls
 ---------------------------------------------------------------
 total_time                             76.865104           1
 elmin                                  45.363827           1
 eddav                                  37.119580          17
 fft3d_mpi                              18.009427       18014
 fftbas_plan_mpi                        17.694126       18016
 hamiltmu                               12.139427        4086
 fftwav_mpi                             10.549863        9537
 dfftw_execute                           8.139063       54042
 kinhamil                                7.626177        8172
 fftext_mpi                              7.452257        8172
 set_charge                              4.959008          13
 force_and_stress                        4.452917           1
 setdij_                                 4.150981          41
 map_forward                             3.507532       19368
 M_sumb_d                                3.041886       49947
 vnlac0                                  2.551778        8172
 m_alltoallv_z                           2.300535       18041
 map_backward                            2.137215       16660
 proj1                                   2.002585        7290
 soft_charge                             1.765869          13
 w1_projall                              1.745206        3015
 pdssyex_zheevx                          1.593428         357
 M_alltoall_d                            1.420434       59976
 vhamil                                  1.396616        8172
 strenl                                  1.348942           1
 redis_pw                                1.331227       23130
 spher                                   1.171932          20
 gemm                                    1.126657       24516
 orth1                                   1.083842       12279
 redis_proj                              1.065412       29181
 map_gather                              0.975737       18041
 map_scatter                             0.943429       18041
 fordep                                  0.595180           1
 potlok                                  0.555960          14
 M_bcast_z                               0.523448        6639
 eccp                                    0.455127        2142
 w1_copy                                 0.396768       24516
 work_mul_crexp                          0.330549       24516
 crexp_mul_wave                          0.256616       21870
 pw_charge                               0.197387        1365
 overl                                   0.162215       14223
 set_dd_paw                              0.159289          15
 M_bcast_d                               0.133902        4120
 setup_precond                           0.130242        2142
 brmix                                   0.107219          13
 overl1                                  0.099162        8172
 apply_precond                           0.092839        6030
 fornl                                   0.075207           1
 crpa_reader                             0.075048           1
 lincom                                  0.071564         378
 phase                                   0.049062         589
 densta                                  0.042426          18
 ggaall_grid                             0.039763          15
 orthch                                  0.037803           1
 truncate_high_frequency_w1              0.035440       10314
 proj                                    0.033568          21
 setg0                                   0.027000          14
 broyd                                   0.024045          13
 depsum                                  0.012140          13
 forhar                                  0.010476           2
 chggra                                  0.009460           1
 forloc                                  0.007734           1
 strehar                                 0.004149           1
 strelo                                  0.003864           1
 brget                                   0.002376         501
 choleski                                0.002006          21
 strkin                                  0.001376           1
 brgrid                                  0.001078           1
 brsav                                   0.001037         145
 brpre                                   0.000881          13
 vectorpot                               0.000082          14
 set_rsgf_all                            0.000065          15
 set_dd_magatom                          0.000056          15
 potlok_metagga                          0.000052          14
 set_kineden                             0.000043          12
 rotate_active_occupied_orbital          0.000015           1
 lprj_proall                             0.000008           1
 redis_pw_over_bands                     0.000003           1
 ---------------------------------------------------------------

Profiling took   1.490288  1.726156  0.006164  0.004708 seconds
Profiling took   1.490979 seconds
