   2   2   0   0
  0.2260286E+02  0.3998553E-09  0.3998553E-09  0.3998553E-09  0.0000000E+00
  1.000000000000000E-004
  CAR 
 unknown system                          
     15.39480803     -9.05741180  301      3.92264156      1.00000000
     -9.057  0.0000E+00  0.0000E+00
     -8.976  0.0000E+00  0.0000E+00
     -8.894  0.0000E+00  0.0000E+00
     -8.813  0.0000E+00  0.0000E+00
     -8.731  0.0000E+00  0.0000E+00
     -8.650  0.0000E+00  0.0000E+00
     -8.568  0.0000E+00  0.0000E+00
     -8.487  0.0000E+00  0.0000E+00
     -8.405  0.0000E+00  0.0000E+00
     -8.324  0.0000E+00  0.0000E+00
     -8.242  0.0000E+00  0.0000E+00
     -8.161  0.0000E+00  0.0000E+00
     -8.079  0.0000E+00  0.0000E+00
     -7.998  0.0000E+00  0.0000E+00
     -7.916  0.7766E-01  0.1137E-02
     -7.835  0.1665E+00  0.1151E-01
     -7.753  0.2304E+00  0.2800E-01
     -7.672  0.2869E+00  0.4904E-01
     -7.590  0.3311E+00  0.7413E-01
     -7.509  0.3789E+00  0.1032E+00
     -7.427  0.4238E+00  0.1358E+00
     -7.346  0.4710E+00  0.1723E+00
     -7.264  0.5185E+00  0.2126E+00
     -7.183  0.5700E+00  0.2570E+00
     -7.101  0.6250E+00  0.3056E+00
     -7.020  0.6852E+00  0.3590E+00
     -6.938  0.7545E+00  0.4176E+00
     -6.857  0.8346E+00  0.4823E+00
     -6.775  0.9285E+00  0.5539E+00
     -6.694  0.1057E+01  0.6346E+00
     -6.612  0.1224E+01  0.7272E+00
     -6.531  0.1551E+01  0.8380E+00
     -6.449  0.1768E+01  0.9821E+00
     -6.368  0.1815E+01  0.1129E+01
     -6.286  0.1810E+01  0.1276E+01
     -6.205  0.1861E+01  0.1425E+01
     -6.123  0.1946E+01  0.1580E+01
     -6.042  0.2133E+01  0.1744E+01
     -5.960  0.3248E+01  0.1945E+01
     -5.879  0.0000E+00  0.2000E+01
     -5.797  0.0000E+00  0.2000E+01
     -5.716  0.0000E+00  0.2000E+01
     -5.634  0.0000E+00  0.2000E+01
     -5.553  0.0000E+00  0.2000E+01
     -5.471  0.0000E+00  0.2000E+01
     -5.390  0.0000E+00  0.2000E+01
     -5.308  0.0000E+00  0.2000E+01
     -5.227  0.0000E+00  0.2000E+01
     -5.145  0.0000E+00  0.2000E+01
     -5.064  0.0000E+00  0.2000E+01
     -4.982  0.0000E+00  0.2000E+01
     -4.901  0.0000E+00  0.2000E+01
     -4.819  0.0000E+00  0.2000E+01
     -4.738  0.0000E+00  0.2000E+01
     -4.656  0.0000E+00  0.2000E+01
     -4.575  0.0000E+00  0.2000E+01
     -4.493  0.0000E+00  0.2000E+01
     -4.411  0.0000E+00  0.2000E+01
     -4.330  0.0000E+00  0.2000E+01
     -4.248  0.0000E+00  0.2000E+01
     -4.167  0.0000E+00  0.2000E+01
     -4.085  0.0000E+00  0.2000E+01
     -4.004  0.0000E+00  0.2000E+01
     -3.922  0.0000E+00  0.2000E+01
     -3.841  0.0000E+00  0.2000E+01
     -3.759  0.0000E+00  0.2000E+01
     -3.678  0.0000E+00  0.2000E+01
     -3.596  0.0000E+00  0.2000E+01
     -3.515  0.0000E+00  0.2000E+01
     -3.433  0.0000E+00  0.2000E+01
     -3.352  0.0000E+00  0.2000E+01
     -3.270  0.0000E+00  0.2000E+01
     -3.189  0.0000E+00  0.2000E+01
     -3.107  0.0000E+00  0.2000E+01
     -3.026  0.0000E+00  0.2000E+01
     -2.944  0.0000E+00  0.2000E+01
     -2.863  0.0000E+00  0.2000E+01
     -2.781  0.0000E+00  0.2000E+01
     -2.700  0.0000E+00  0.2000E+01
     -2.618  0.0000E+00  0.2000E+01
     -2.537  0.0000E+00  0.2000E+01
     -2.455  0.0000E+00  0.2000E+01
     -2.374  0.0000E+00  0.2000E+01
     -2.292  0.0000E+00  0.2000E+01
     -2.211  0.0000E+00  0.2000E+01
     -2.129  0.0000E+00  0.2000E+01
     -2.048  0.0000E+00  0.2000E+01
     -1.966  0.0000E+00  0.2000E+01
     -1.885  0.0000E+00  0.2000E+01
     -1.803  0.0000E+00  0.2000E+01
     -1.722  0.0000E+00  0.2000E+01
     -1.640  0.7365E-01  0.2001E+01
     -1.559  0.3553E+00  0.2021E+01
     -1.477  0.7596E+00  0.2063E+01
     -1.396  0.1186E+01  0.2141E+01
     -1.314  0.1807E+01  0.2260E+01
     -1.233  0.3970E+01  0.2468E+01
     -1.151  0.2844E+01  0.2790E+01
     -1.070  0.1617E+01  0.2955E+01
     -0.988  0.1185E+01  0.3066E+01
     -0.907  0.9664E+00  0.3153E+01
     -0.825  0.8164E+00  0.3225E+01
     -0.744  0.7215E+00  0.3287E+01
     -0.662  0.6203E+00  0.3342E+01
     -0.581  0.5677E+00  0.3391E+01
     -0.499  0.5197E+00  0.3435E+01
     -0.418  0.4707E+00  0.3475E+01
     -0.336  0.4240E+00  0.3511E+01
     -0.255  0.3976E+00  0.3545E+01
     -0.173  0.3718E+00  0.3576E+01
     -0.092  0.3424E+00  0.3605E+01
     -0.010  0.3108E+00  0.3632E+01
      0.071  0.2935E+00  0.3657E+01
      0.153  0.2779E+00  0.3680E+01
      0.234  0.2609E+00  0.3702E+01
      0.316  0.2440E+00  0.3723E+01
      0.397  0.2456E+00  0.3742E+01
      0.479  0.6267E+00  0.3780E+01
      0.560  0.9362E+00  0.3844E+01
      0.642  0.1415E+01  0.3939E+01
      0.723  0.1259E+01  0.4050E+01
      0.805  0.1201E+01  0.4150E+01
      0.886  0.1117E+01  0.4244E+01
      0.968  0.1083E+01  0.4333E+01
      1.050  0.1055E+01  0.4421E+01
      1.131  0.1063E+01  0.4507E+01
      1.213  0.1106E+01  0.4595E+01
      1.294  0.1144E+01  0.4687E+01
      1.376  0.1218E+01  0.4783E+01
      1.457  0.1258E+01  0.4883E+01
      1.539  0.1338E+01  0.4989E+01
      1.620  0.1398E+01  0.5099E+01
      1.702  0.1675E+01  0.5223E+01
      1.783  0.1777E+01  0.5364E+01
      1.865  0.1766E+01  0.5508E+01
      1.946  0.1734E+01  0.5650E+01
      2.028  0.1712E+01  0.5791E+01
      2.109  0.1670E+01  0.5929E+01
      2.191  0.1678E+01  0.6065E+01
      2.272  0.1648E+01  0.6201E+01
      2.354  0.1622E+01  0.6334E+01
      2.435  0.1610E+01  0.6466E+01
      2.517  0.1588E+01  0.6596E+01
      2.598  0.1578E+01  0.6725E+01
      2.680  0.1562E+01  0.6853E+01
      2.761  0.1542E+01  0.6980E+01
      2.843  0.1537E+01  0.7105E+01
      2.924  0.1555E+01  0.7231E+01
      3.006  0.1537E+01  0.7357E+01
      3.087  0.1443E+01  0.7481E+01
      3.169  0.1072E+01  0.7580E+01
      3.250  0.9197E+00  0.7660E+01
      3.332  0.7989E+00  0.7730E+01
      3.413  0.6947E+00  0.7791E+01
      3.495  0.6044E+00  0.7844E+01
      3.576  0.5230E+00  0.7890E+01
      3.658  0.4357E+00  0.7929E+01
      3.739  0.3725E+00  0.7962E+01
      3.821  0.2468E+00  0.7987E+01
      3.902  0.2758E-01  0.8000E+01
      3.984  0.0000E+00  0.8000E+01
      4.065  0.0000E+00  0.8000E+01
      4.147  0.0000E+00  0.8000E+01
      4.228  0.0000E+00  0.8000E+01
      4.310  0.0000E+00  0.8000E+01
      4.391  0.0000E+00  0.8000E+01
      4.473  0.0000E+00  0.8000E+01
      4.554  0.0000E+00  0.8000E+01
      4.636  0.0000E+00  0.8000E+01
      4.717  0.0000E+00  0.8000E+01
      4.799  0.0000E+00  0.8000E+01
      4.880  0.0000E+00  0.8000E+01
      4.962  0.0000E+00  0.8000E+01
      5.043  0.0000E+00  0.8000E+01
      5.125  0.0000E+00  0.8000E+01
      5.206  0.0000E+00  0.8000E+01
      5.288  0.0000E+00  0.8000E+01
      5.369  0.2453E-02  0.8000E+01
      5.451  0.5746E-01  0.8002E+01
      5.532  0.9856E-01  0.8009E+01
      5.614  0.1274E+00  0.8018E+01
      5.695  0.1654E+00  0.8030E+01
      5.777  0.2047E+00  0.8045E+01
      5.858  0.2414E+00  0.8063E+01
      5.940  0.2834E+00  0.8084E+01
      6.021  0.3271E+00  0.8109E+01
      6.103  0.3683E+00  0.8138E+01
      6.184  0.4507E+00  0.8171E+01
      6.266  0.5773E+00  0.8212E+01
      6.347  0.6979E+00  0.8264E+01
      6.429  0.7861E+00  0.8325E+01
      6.511  0.8802E+00  0.8393E+01
      6.592  0.9898E+00  0.8469E+01
      6.674  0.1117E+01  0.8555E+01
      6.755  0.1262E+01  0.8651E+01
      6.837  0.1479E+01  0.8763E+01
      6.918  0.1721E+01  0.8893E+01
      7.000  0.1909E+01  0.9042E+01
      7.081  0.1765E+01  0.9190E+01
      7.163  0.1721E+01  0.9333E+01
      7.244  0.1677E+01  0.9471E+01
      7.326  0.1619E+01  0.9606E+01
      7.407  0.1538E+01  0.9736E+01
      7.489  0.1336E+01  0.9852E+01
      7.570  0.1199E+01  0.9957E+01
      7.652  0.1091E+01  0.1005E+02
      7.733  0.1101E+01  0.1014E+02
      7.815  0.8446E+00  0.1022E+02
      7.896  0.7337E+00  0.1029E+02
      7.978  0.8439E+00  0.1035E+02
      8.059  0.8032E+00  0.1042E+02
      8.141  0.7294E+00  0.1048E+02
      8.222  0.9625E+00  0.1054E+02
      8.304  0.1417E+01  0.1064E+02
      8.385  0.2317E+01  0.1079E+02
      8.467  0.2588E+01  0.1100E+02
      8.548  0.2195E+01  0.1119E+02
      8.630  0.1878E+01  0.1135E+02
      8.711  0.1639E+01  0.1150E+02
      8.793  0.1370E+01  0.1162E+02
      8.874  0.1444E+01  0.1173E+02
      8.956  0.1401E+01  0.1185E+02
      9.037  0.1376E+01  0.1196E+02
      9.119  0.1307E+01  0.1207E+02
      9.200  0.1275E+01  0.1217E+02
      9.282  0.1343E+01  0.1228E+02
      9.363  0.1437E+01  0.1239E+02
      9.445  0.1616E+01  0.1252E+02
      9.526  0.1838E+01  0.1266E+02
      9.608  0.1491E+01  0.1280E+02
      9.689  0.1571E+01  0.1292E+02
      9.771  0.1719E+01  0.1305E+02
      9.852  0.1428E+01  0.1318E+02
      9.934  0.1303E+01  0.1329E+02
     10.015  0.1227E+01  0.1339E+02
     10.097  0.1200E+01  0.1349E+02
     10.178  0.1242E+01  0.1359E+02
     10.260  0.1240E+01  0.1369E+02
     10.341  0.1186E+01  0.1379E+02
     10.423  0.1160E+01  0.1389E+02
     10.504  0.1181E+01  0.1398E+02
     10.586  0.1110E+01  0.1407E+02
     10.667  0.1078E+01  0.1416E+02
     10.749  0.1047E+01  0.1425E+02
     10.830  0.1007E+01  0.1433E+02
     10.912  0.9228E+00  0.1441E+02
     10.993  0.8797E+00  0.1448E+02
     11.075  0.8827E+00  0.1455E+02
     11.156  0.9080E+00  0.1463E+02
     11.238  0.9737E+00  0.1470E+02
     11.319  0.1097E+01  0.1479E+02
     11.401  0.1206E+01  0.1488E+02
     11.482  0.1299E+01  0.1498E+02
     11.564  0.1163E+01  0.1509E+02
     11.645  0.9877E+00  0.1517E+02
     11.727  0.9614E+00  0.1525E+02
     11.808  0.8992E+00  0.1533E+02
     11.890  0.8016E+00  0.1539E+02
     11.971  0.7914E+00  0.1546E+02
     12.053  0.7581E+00  0.1553E+02
     12.135  0.4288E+00  0.1557E+02
     12.216  0.4039E+00  0.1560E+02
     12.298  0.3866E+00  0.1564E+02
     12.379  0.3862E+00  0.1567E+02
     12.461  0.3734E+00  0.1570E+02
     12.542  0.3282E+00  0.1573E+02
     12.624  0.3000E+00  0.1575E+02
     12.705  0.2782E+00  0.1578E+02
     12.787  0.2615E+00  0.1580E+02
     12.868  0.2490E+00  0.1582E+02
     12.950  0.2353E+00  0.1584E+02
     13.031  0.2203E+00  0.1586E+02
     13.113  0.2062E+00  0.1588E+02
     13.194  0.1943E+00  0.1589E+02
     13.276  0.1821E+00  0.1591E+02
     13.357  0.1716E+00  0.1592E+02
     13.439  0.1514E+00  0.1593E+02
     13.520  0.1305E+00  0.1595E+02
     13.602  0.1129E+00  0.1596E+02
     13.683  0.9864E-01  0.1596E+02
     13.765  0.8816E-01  0.1597E+02
     13.846  0.8514E-01  0.1598E+02
     13.928  0.7986E-01  0.1599E+02
     14.009  0.7723E-01  0.1599E+02
     14.091  0.4146E-01  0.1600E+02
     14.172  0.1543E-01  0.1600E+02
     14.254  0.1103E-02  0.1600E+02
     14.335  0.0000E+00  0.1600E+02
     14.417  0.0000E+00  0.1600E+02
     14.498  0.0000E+00  0.1600E+02
     14.580  0.0000E+00  0.1600E+02
     14.661  0.0000E+00  0.1600E+02
     14.743  0.0000E+00  0.1600E+02
     14.824  0.0000E+00  0.1600E+02
     14.906  0.0000E+00  0.1600E+02
     14.987  0.0000E+00  0.1600E+02
     15.069  0.0000E+00  0.1600E+02
     15.150  0.0000E+00  0.1600E+02
     15.232  0.0000E+00  0.1600E+02
     15.313  0.0000E+00  0.1600E+02
     15.395  0.0000E+00  0.1600E+02
