    2    2    1    1
  0.2260286E+02  0.3998553E-09  0.3998553E-09  0.3998553E-09  0.0000000E+00
  1.000000000000000E-004
  CAR 
 unknown system                          
      8    256      8
 
  0.0000000E+00  0.0000000E+00  0.0000000E+00  0.1250000E-03
    1       -7.945947   1.000000
    2        3.921201   1.000000
    3        3.921201   1.000000
    4        3.921201   1.000000
    5        6.031992   0.000000
    6        8.210333   0.000000
    7        8.210333   0.000000
    8        8.210334   0.000000
 
  0.5000000E-01  0.0000000E+00  0.0000000E+00  0.1000000E-02
    1       -7.920990   1.000000
    2        3.591674   1.000000
    3        3.892531   1.000000
    4        3.892532   1.000000
    5        6.279818   0.000000
    6        8.238590   0.000000
    7        8.262365   0.000000
    8        8.262365   0.000000
 
  0.1000000E+00  0.0000000E+00  0.0000000E+00  0.1000000E-02
    1       -7.846802   1.000000
    2        2.893201   1.000000
    3        3.813150   1.000000
    4        3.813151   1.000000
    5        6.656227   0.000000
    6        8.402973   0.000000
    7        8.402973   0.000000
    8        8.423137   0.000000
 
  0.1500000E+00  0.0000000E+00  0.0000000E+00  0.1000000E-02
    1       -7.725822   1.000000
    2        2.096939   1.000000
    3        3.699314   1.000000
    4        3.699315   1.000000
    5        6.788269   0.000000
    6        8.587809   0.000000
    7        8.587809   0.000000
    8        8.914709   0.000000
 
  0.2000000E+00  0.0000000E+00  0.0000000E+00  0.1000000E-02
    1       -7.562468   1.000000
    2        1.296624   1.000000
    3        3.569673   1.000000
    4        3.569673   1.000000
    5        6.711589   0.000000
    6        8.751740   0.000000
    7        8.751740   0.000000
    8        9.627382   0.000000
 
  0.2500000E+00  0.0000000E+00  0.0000000E+00  0.1000000E-02
    1       -7.364159   1.000000
    2        0.533582   1.000000
    3        3.440226   1.000000
    4        3.440226   1.000000
    5        6.561612   0.000000
    6        8.835122   0.000000
    7        8.835122   0.000000
    8       10.402187   0.000000
 
  0.3000000E+00  0.0000000E+00  0.0000000E+00  0.1000000E-02
    1       -7.142661   1.000000
    2       -0.163811   1.000000
    3        3.322740   1.000000
    4        3.322740   1.000000
    5        6.405144   0.000000
    6        8.825145   0.000000
    7        8.825146   0.000000
    8       11.105710   0.000000
 
  0.3500000E+00  0.0000000E+00  0.0000000E+00  0.1000000E-02
    1       -6.916293   1.000000
    2       -0.767649   1.000000
    3        3.225187   1.000000
    4        3.225188   1.000000
    5        6.269877   0.000000
    6        8.757945   0.000000
    7        8.757945   0.000000
    8       11.553442   0.000000
 
  0.4000000E+00  0.0000000E+00  0.0000000E+00  0.1000000E-02
    1       -6.712171   1.000000
    2       -1.244916   1.000000
    3        3.152629   1.000000
    4        3.152629   1.000000
    5        6.168073   0.000000
    6        8.679278   0.000000
    7        8.679278   0.000000
    8       11.686415   0.000000
 
  0.4500000E+00  0.0000000E+00  0.0000000E+00  0.1000000E-02
    1       -6.565774   1.000000
    2       -1.556506   1.000000
    3        3.108057   1.000000
    4        3.108057   1.000000
    5        6.105351   0.000000
    6        8.621032   0.000000
    7        8.621032   0.000000
    8       11.687294   0.000000
 
  0.5000000E+00  0.0000000E+00  0.0000000E+00  0.5000000E-03
    1       -6.511875   1.000000
    2       -1.665684   1.000000
    3        3.093043   1.000000
    4        3.093043   1.000000
    5        6.084219   0.000000
    6        8.599930   0.000000
    7        8.599930   0.000000
    8       11.677777   0.000000
 
  0.5000000E-01  0.5000000E-01  0.0000000E+00  0.7500000E-03
    1       -7.912655   1.000000
    2        3.592402   1.000000
    3        3.826190   1.000000
    4        3.826190   1.000000
    5        6.378584   0.000000
    6        8.085697   0.000000
    7        8.355646   0.000000
    8        8.355646   0.000000
 
  0.1000000E+00  0.5000000E-01  0.0000000E+00  0.3000000E-02
    1       -7.854834   1.000000
    2        3.059124   1.000000
    3        3.715623   1.000000
    4        3.778615   1.000000
    5        6.742683   0.000000
    6        8.025421   0.000000
    7        8.534688   0.000000
    8        8.557904   0.000000
 
  0.1500000E+00  0.5000000E-01  0.0000000E+00  0.3000000E-02
    1       -7.749379   1.000000
    2        2.319094   1.000000
    3        3.580417   1.000000
    4        3.704615   1.000000
    5        6.966333   0.000000
    6        8.134849   0.000000
    7        8.755207   0.000000
    8        8.928330   0.000000
 
  0.2000000E+00  0.5000000E-01  0.0000000E+00  0.3000000E-02
    1       -7.599947   1.000000
    2        1.537619   1.000000
    3        3.439592   1.000000
    4        3.588709   1.000000
    5        6.938653   0.000000
    6        8.366323   0.000000
    7        8.954039   0.000000
    8        9.460989   0.000000
 
  0.2500000E+00  0.5000000E-01  0.0000000E+00  0.3000000E-02
    1       -7.412889   1.000000
    2        0.773706   1.000000
    3        3.308145   1.000000
    4        3.450186   1.000000
    5        6.801674   0.000000
    6        8.552335   0.000000
    7        9.067425   0.000000
    8       10.057416   0.000000
 
  0.3000000E+00  0.5000000E-01  0.0000000E+00  0.3000000E-02
    1       -7.198283   1.000000
    2        0.061616   1.000000
    3        3.196554   1.000000
    4        3.307210   1.000000
    5        6.645418   0.000000
    6        8.620407   0.000000
    7        9.070415   0.000000
    8       10.649093   0.000000
 
  0.3500000E+00  0.5000000E-01  0.0000000E+00  0.3000000E-02
    1       -6.972013   1.000000
    2       -0.569588   1.000000
    3        3.111518   1.000000
    4        3.173330   1.000000
    5        6.504541   0.000000
    6        8.598438   0.000000
    7        8.992498   0.000000
    8       11.204374   0.000000
 
  0.4000000E+00  0.5000000E-01  0.0000000E+00  0.3000000E-02
    1       -6.757984   1.000000
    2       -1.088042   1.000000
    3        3.056894   1.000000
    4        3.057898   1.000000
    5        6.393613   0.000000
    6        8.546962   0.000000
    7        8.883089   0.000000
    8       11.608707   0.000000
 
  0.4500000E+00  0.5000000E-01  0.0000000E+00  0.3000000E-02
    1       -6.589162   1.000000
    2       -1.455944   1.000000
    3        2.967267   1.000000
    4        3.034452   1.000000
    5        6.319379   0.000000
    6        8.509715   0.000000
    7        8.780908   0.000000
    8       11.771459   0.000000
 
  0.5000000E+00  0.5000000E-01  0.0000000E+00  0.3000000E-02
    1       -6.501981   1.000000
    2       -1.634076   1.000000
    3        2.905733   1.000000
    4        3.044402   1.000000
    5        6.284985   0.000000
    6        8.509013   0.000000
    7        8.708615   0.000000
    8       11.808460   0.000000
 
 -0.4500000E+00  0.5000000E-01  0.0000000E+00  0.3000000E-02
    1       -6.520096   1.000000
    2       -1.597601   1.000000
    3        2.876173   1.000000
    4        3.085703   1.000000
    5        6.291619   0.000000
    6        8.552667   0.000000
    7        8.676291   0.000000
    8       11.812818   0.000000
 
 -0.4000000E+00  0.5000000E-01  0.0000000E+00  0.3000000E-02
    1       -6.638292   1.000000
    2       -1.352020   1.000000
    3        2.880349   1.000000
    4        3.156156   1.000000
    5        6.339085   0.000000
    6        8.637804   0.000000
    7        8.683735   0.000000
    8       11.776942   0.000000
 
 -0.3500000E+00  0.5000000E-01  0.0000000E+00  0.3000000E-02
    1       -6.826336   1.000000
    2       -0.929270   1.000000
    3        2.918965   1.000000
    4        3.252358   1.000000
    5        6.425659   0.000000
    6        8.719805   0.000000
    7        8.750340   0.000000
    8       11.594565   0.000000
 
 -0.3000000E+00  0.5000000E-01  0.0000000E+00  0.3000000E-02
    1       -7.047702   1.000000
    2       -0.369447   1.000000
    3        2.991515   1.000000
    4        3.369318   1.000000
    5        6.547148   0.000000
    6        8.759006   0.000000
    7        8.859889   0.000000
    8       11.150947   0.000000
 
 -0.2500000E+00  0.5000000E-01  0.0000000E+00  0.3000000E-02
    1       -7.272276   1.000000
    2        0.291358   1.000000
    3        3.095963   1.000000
    4        3.499857   1.000000
    5        6.694324   0.000000
    6        8.760435   0.000000
    7        8.911322   0.000000
    8       10.536006   0.000000
 
 -0.2000000E+00  0.5000000E-01  0.0000000E+00  0.3000000E-02
    1       -7.479103   1.000000
    2        1.022117   1.000000
    3        3.228279   1.000000
    4        3.633774   1.000000
    5        6.846213   0.000000
    6        8.685738   0.000000
    7        8.827927   0.000000
    8        9.898598   0.000000
 
 -0.1500000E+00  0.5000000E-01  0.0000000E+00  0.3000000E-02
    1       -7.654479   1.000000
    2        1.791424   1.000000
    3        3.382042   1.000000
    4        3.757062   1.000000
    5        6.950555   0.000000
    6        8.540302   0.000000
    7        8.574520   0.000000
    8        9.333850   0.000000
 
 -0.1000000E+00  0.5000000E-01  0.0000000E+00  0.3000000E-02
    1       -7.789757   1.000000
    2        2.554686   1.000000
    3        3.549349   1.000000
    4        3.852258   1.000000
    5        6.886455   0.000000
    6        8.292867   0.000000
    7        8.381172   0.000000
    8        8.878063   0.000000
 
 -0.5000000E-01  0.5000000E-01  0.0000000E+00  0.1500000E-02
    1       -7.879594   1.000000
    2        3.217756   1.000000
    3        3.728279   1.000000
    4        3.901396   1.000000
    5        6.574244   0.000000
    6        8.197956   0.000000
    7        8.274364   0.000000
    8        8.518747   0.000000
 
  0.1000000E+00  0.1000000E+00  0.0000000E+00  0.7500000E-03
    1       -7.813602   1.000000
    2        2.921269   1.000000
    3        3.578106   1.000000
    4        3.578107   1.000000
    5        7.076909   0.000000
    6        7.766897   0.000000
    7        8.753415   0.000000
    8        8.753415   0.000000
 
  0.1500000E+00  0.1000000E+00  0.0000000E+00  0.3000000E-02
    1       -7.724387   1.000000
    2        2.389160   1.000000
    3        3.422597   1.000000
    4        3.474085   1.000000
    5        7.372043   0.000000
    6        7.672113   0.000000
    7        9.015922   0.000000
    8        9.069020   0.000000
 
  0.2000000E+00  0.1000000E+00  0.0000000E+00  0.3000000E-02
    1       -7.590223   1.000000
    2        1.697995   1.000000
    3        3.268438   1.000000
    4        3.366104   1.000000
    5        7.347785   0.000000
    6        7.886561   0.000000
    7        9.261962   0.000000
    8        9.431171   0.000000
 
  0.2500000E+00  0.1000000E+00  0.0000000E+00  0.3000000E-02
    1       -7.416530   1.000000
    2        0.976862   1.000000
    3        3.130137   1.000000
    4        3.218142   1.000000
    5        7.209688   0.000000
    6        8.181323   0.000000
    7        9.424147   0.000000
    8        9.674446   0.000000
 
  0.3000000E+00  0.1000000E+00  0.0000000E+00  0.3000000E-02
    1       -7.211979   1.000000
    2        0.280300   1.000000
    3        3.017581   1.000000
    4        3.047002   1.000000
    5        7.060303   0.000000
    6        8.389438   0.000000
    7        9.462454   0.000000
    8        9.916406   0.000000
 
  0.3500000E+00  0.1000000E+00  0.0000000E+00  0.3000000E-02
    1       -6.990322   1.000000
    2       -0.355494   1.000000
    3        2.873285   1.000000
    4        2.936960   1.000000
    5        6.923950   0.000000
    6        8.444543   0.000000
    7        9.394259   0.000000
    8       10.345756   0.000000
 
  0.4000000E+00  0.1000000E+00  0.0000000E+00  0.3000000E-02
    1       -6.772386   1.000000
    2       -0.896742   1.000000
    3        2.712585   1.000000
    4        2.891712   1.000000
    5        6.814094   0.000000
    6        8.414005   0.000000
    7        9.270347   0.000000
    8       10.928020   0.000000
 
  0.4500000E+00  0.1000000E+00  0.0000000E+00  0.3000000E-02
    1       -6.587891   1.000000
    2       -1.306047   1.000000
    3        2.575583   1.000000
    4        2.883167   1.000000
    5        6.738497   0.000000
    6        8.377029   0.000000
    7        9.136499   0.000000
    8       11.525483   0.000000
 
  0.5000000E+00  0.1000000E+00  0.0000000E+00  0.3000000E-02
    1       -6.472486   1.000000
    2       -1.543223   1.000000
    3        2.469588   1.000000
    4        2.910965   1.000000
    5        6.701083   0.000000
    6        8.371884   0.000000
    7        9.021691   0.000000
    8       11.943340   0.000000
 
 -0.4500000E+00  0.1000000E+00  0.0000000E+00  0.3000000E-02
    1       -6.455335   1.000000
    2       -1.576986   1.000000
    3        2.399778   1.000000
    4        2.973272   1.000000
    5        6.703234   0.000000
    6        8.412834   0.000000
    7        8.940763   0.000000
    8       12.082691   0.000000
 
 -0.4000000E+00  0.1000000E+00  0.0000000E+00  0.3000000E-02
    1       -6.541281   1.000000
    2       -1.402373   1.000000
    3        2.369940   1.000000
    4        3.066749   1.000000
    5        6.744476   0.000000
    6        8.501412   0.000000
    7        8.897675   0.000000
    8       11.987451   0.000000
 
 -0.3500000E+00  0.1000000E+00  0.0000000E+00  0.3000000E-02
    1       -6.707336   1.000000
    2       -1.044364   1.000000
    3        2.382963   1.000000
    4        3.186412   1.000000
    5        6.822803   0.000000
    6        8.628195   0.000000
    7        8.885700   0.000000
    8       11.628704   0.000000
 
 -0.3000000E+00  0.1000000E+00  0.0000000E+00  0.3000000E-02
    1       -6.918050   1.000000
    2       -0.543048   1.000000
    3        2.441203   1.000000
    4        3.325249   1.000000
    5        6.934103   0.000000
    6        8.766574   0.000000
    7        8.884316   0.000000
    8       11.062834   0.000000
 
 -0.2500000E+00  0.1000000E+00  0.0000000E+00  0.3000000E-02
    1       -7.141135   1.000000
    2        0.060640   1.000000
    3        2.546967   1.000000
    4        3.473556   1.000000
    5        7.069903   0.000000
    6        8.853060   0.000000
    7        8.856760   0.000000
    8       10.466338   0.000000
 
 -0.2000000E+00  0.1000000E+00  0.0000000E+00  0.3000000E-02
    1       -7.352981   1.000000
    2        0.727329   1.000000
    3        2.703678   1.000000
    4        3.618214   1.000000
    5        7.210074   0.000000
    6        8.765362   0.000000
    7        8.766195   0.000000
    8       10.002625   0.000000
 
 -0.1500000E+00  0.1000000E+00  0.0000000E+00  0.3000000E-02
    1       -7.537805   1.000000
    2        1.411639   1.000000
    3        2.918435   1.000000
    4        3.742237   1.000000
    5        7.297320   0.000000
    6        8.480861   0.000000
    7        8.614932   0.000000
    8        9.688750   0.000000
 
 -0.1000000E+00  0.1000000E+00  0.0000000E+00  0.1500000E-02
    1       -7.685513   1.000000
    2        2.048158   1.000000
    3        3.203935   1.000000
    4        3.826052   1.000000
    5        7.193731   0.000000
    6        8.270063   0.000000
    7        8.464657   0.000000
    8        9.333243   0.000000
 
  0.1500000E+00  0.1500000E+00  0.0000000E+00  0.7500000E-03
    1       -7.651626   1.000000
    2        2.175540   1.000000
    3        3.249837   1.000000
    4        3.249837   1.000000
    5        7.351114   0.000000
    6        7.744759   0.000000
    7        9.327486   0.000000
    8        9.327486   0.000000
 
  0.2000000E+00  0.1500000E+00  0.0000000E+00  0.3000000E-02
    1       -7.533573   1.000000
    2        1.686535   1.000000
    3        3.082160   1.000000
    4        3.099679   1.000000
    5        7.215140   0.000000
    6        7.928649   0.000000
    7        9.601425   0.000000
    8        9.632889   0.000000
 
  0.2500000E+00  0.1500000E+00  0.0000000E+00  0.3000000E-02
    1       -7.374841   1.000000
    2        1.076313   1.000000
    3        2.934137   1.000000
    4        2.934862   1.000000
    5        7.176373   0.000000
    6        8.074593   0.000000
    7        9.599573   0.000000
    8        9.862652   0.000000
 
  0.3000000E+00  0.1500000E+00  0.0000000E+00  0.3000000E-02
    1       -7.182964   1.000000
    2        0.441945   1.000000
    3        2.733667   1.000000
    4        2.815578   1.000000
    5        7.128519   0.000000
    6        8.318851   0.000000
    7        9.491116   0.000000
    8        9.960450   0.000000
 
  0.3500000E+00  0.1500000E+00  0.0000000E+00  0.3000000E-02
    1       -6.969872   1.000000
    2       -0.163554   1.000000
    3        2.516403   1.000000
    4        2.732654   1.000000
    5        7.050155   0.000000
    6        8.569667   0.000000
    7        9.550849   0.000000
    8        9.925185   0.000000
 
  0.4000000E+00  0.1500000E+00  0.0000000E+00  0.3000000E-02
    1       -6.753697   1.000000
    2       -0.699967   1.000000
    3        2.305884   1.000000
    4        2.688817   1.000000
    5        6.973804   0.000000
    6        8.632218   0.000000
    7        9.805273   0.000000
    8        9.970416   0.000000
 
  0.4500000E+00  0.1500000E+00  0.0000000E+00  0.3000000E-02
    1       -6.560702   1.000000
    2       -1.128000   1.000000
    3        2.118608   1.000000
    4        2.685435   1.000000
    5        6.925115   0.000000
    6        8.588868   0.000000
    7        9.654139   0.000000
    8       10.630805   0.000000
 
  0.5000000E+00  0.1500000E+00  0.0000000E+00  0.3000000E-02
    1       -6.424109   1.000000
    2       -1.406691   1.000000
    3        1.965592   1.000000
    4        2.722141   1.000000
    5        6.916346   0.000000
    6        8.546352   0.000000
    7        9.508144   0.000000
    8       11.370455   0.000000
 
 -0.4500000E+00  0.1500000E+00  0.0000000E+00  0.3000000E-02
    1       -6.375391   1.000000
    2       -1.500688   1.000000
    3        1.854550   1.000000
    4        2.796934   1.000000
    5        6.951127   0.000000
    6        8.539141   0.000000
    7        9.387058   0.000000
    8       12.007929   0.000000
 
 -0.4000000E+00  0.1500000E+00  0.0000000E+00  0.3000000E-02
    1       -6.427679   1.000000
    2       -1.396178   1.000000
    3        1.791562   1.000000
    4        2.906081   1.000000
    5        7.027570   0.000000
    6        8.577823   0.000000
    7        9.298167   0.000000
    8       12.118939   0.000000
 
 -0.3500000E+00  0.1500000E+00  0.0000000E+00  0.3000000E-02
    1       -6.566788   1.000000
    2       -1.110209   1.000000
    3        1.782368   1.000000
    4        3.043836   1.000000
    5        7.139892   0.000000
    6        8.662092   0.000000
    7        9.237291   0.000000
    8       11.633104   0.000000
 
 -0.3000000E+00  0.1500000E+00  0.0000000E+00  0.3000000E-02
    1       -6.760924   1.000000
    2       -0.682093   1.000000
    3        1.833825   1.000000
    4        3.201870   1.000000
    5        7.278723   0.000000
    6        8.776458   0.000000
    7        9.185751   0.000000
    8       10.957709   0.000000
 
 -0.2500000E+00  0.1500000E+00  0.0000000E+00  0.3000000E-02
    1       -6.977135   1.000000
    2       -0.159966   1.000000
    3        1.956202   1.000000
    4        3.368485   1.000000
    5        7.428706   0.000000
    6        8.865309   0.000000
    7        9.107431   0.000000
    8       10.321631   0.000000
 
 -0.2000000E+00  0.1500000E+00  0.0000000E+00  0.3000000E-02
    1       -7.189550   1.000000
    2        0.402588   1.000000
    3        2.166437   1.000000
    4        3.527863   1.000000
    5        7.555322   0.000000
    6        8.786063   0.000000
    7        8.966906   0.000000
    8        9.926215   0.000000
 
 -0.1500000E+00  0.1500000E+00  0.0000000E+00  0.1500000E-02
    1       -7.380352   1.000000
    2        0.944311   1.000000
    3        2.486943   1.000000
    4        3.659857   1.000000
    5        7.556073   0.000000
    6        8.546106   0.000000
    7        8.779442   0.000000
    8        9.818444   0.000000
 
  0.2000000E+00  0.2000000E+00  0.0000000E+00  0.7500000E-03
    1       -7.431947   1.000000
    2        1.430991   1.000000
    3        2.901899   1.000000
    4        2.901899   1.000000
    5        6.917362   0.000000
    6        7.998513   0.000000
    7       10.012828   0.000000
    8       10.012832   0.000000
 
  0.2500000E+00  0.2000000E+00  0.0000000E+00  0.3000000E-02
    1       -7.289272   1.000000
    2        0.991082   1.000000
    3        2.723707   1.000000
    4        2.742844   1.000000
    5        6.794451   0.000000
    6        7.943246   0.000000
    7       10.110373   0.000000
    8       10.332272   0.000000
 
  0.3000000E+00  0.2000000E+00  0.0000000E+00  0.3000000E-02
    1       -7.112199   1.000000
    2        0.471899   1.000000
    3        2.500314   1.000000
    4        2.615168   1.000000
    5        6.795231   0.000000
    6        7.972381   0.000000
    7        9.954030   0.000000
    8       10.519066   0.000000
 
  0.3500000E+00  0.2000000E+00  0.0000000E+00  0.3000000E-02
    1       -6.911167   1.000000
    2       -0.057247   1.000000
    3        2.237405   1.000000
    4        2.525316   1.000000
    5        6.797855   0.000000
    6        8.222361   0.000000
    7        9.785510   0.000000
    8       10.545782   0.000000
 
  0.4000000E+00  0.2000000E+00  0.0000000E+00  0.3000000E-02
    1       -6.702051   1.000000
    2       -0.549021   1.000000
    3        1.967467   1.000000
    4        2.476997   1.000000
    5        6.769194   0.000000
    6        8.666581   0.000000
    7        9.679669   0.000000
    8       10.451798   0.000000
 
  0.4500000E+00  0.2000000E+00  0.0000000E+00  0.3000000E-02
    1       -6.507861   1.000000
    2       -0.961595   1.000000
    3        1.718060   1.000000
    4        2.471835   1.000000
    5        6.748300   0.000000
    6        9.058459   0.000000
    7        9.824522   0.000000
    8       10.298837   0.000000
 
  0.5000000E+00  0.2000000E+00  0.0000000E+00  0.3000000E-02
    1       -6.358534   1.000000
    2       -1.253389   1.000000
    3        1.507180   1.000000
    4        2.509711   1.000000
    5        6.764716   0.000000
    6        9.132195   0.000000
    7       10.133040   0.000000
    8       10.431311   0.000000
 
 -0.4500000E+00  0.2000000E+00  0.0000000E+00  0.3000000E-02
    1       -6.285020   1.000000
    2       -1.387164   1.000000
    3        1.346670   1.000000
    4        2.588825   1.000000
    5        6.830274   0.000000
    6        9.109272   0.000000
    7        9.980147   0.000000
    8       11.222667   0.000000
 
 -0.4000000E+00  0.2000000E+00  0.0000000E+00  0.3000000E-02
    1       -6.305702   1.000000
    2       -1.343341   1.000000
    3        1.245929   1.000000
    4        2.705564   1.000000
    5        6.946516   0.000000
    6        9.098330   0.000000
    7        9.850130   0.000000
    8       11.879147   0.000000
 
 -0.3500000E+00  0.2000000E+00  0.0000000E+00  0.3000000E-02
    1       -6.414923   1.000000
    2       -1.132401   1.000000
    3        1.215164   1.000000
    4        2.854098   1.000000
    5        7.107907   0.000000
    6        9.119669   0.000000
    7        9.738670   0.000000
    8       11.596450   0.000000
 
 -0.3000000E+00  0.2000000E+00  0.0000000E+00  0.3000000E-02
    1       -6.586898   1.000000
    2       -0.793623   1.000000
    3        1.268921   1.000000
    4        3.025694   1.000000
    5        7.301006   0.000000
    6        9.169948   0.000000
    7        9.623275   0.000000
    8       10.871977   0.000000
 
 -0.2500000E+00  0.2000000E+00  0.0000000E+00  0.3000000E-02
    1       -6.790071   1.000000
    2       -0.384676   1.000000
    3        1.429892   1.000000
    4        3.207729   1.000000
    5        7.498099   0.000000
    6        9.201752   0.000000
    7        9.461898   0.000000
    8       10.202875   0.000000
 
 -0.2000000E+00  0.2000000E+00  0.0000000E+00  0.1500000E-02
    1       -6.997499   1.000000
    2        0.029905   1.000000
    3        1.726247   1.000000
    4        3.382661   1.000000
    5        7.633413   0.000000
    6        9.036491   0.000000
    7        9.227781   0.000000
    8        9.880926   0.000000
 
  0.2500000E+00  0.2500000E+00  0.0000000E+00  0.7500000E-03
    1       -7.163231   1.000000
    2        0.713814   1.000000
    3        2.572521   1.000000
    4        2.572521   1.000000
    5        6.502649   0.000000
    6        7.704588   0.000000
    7       10.766552   0.000000
    8       10.766608   0.000000
 
  0.3000000E+00  0.2500000E+00  0.0000000E+00  0.3000000E-02
    1       -7.002614   1.000000
    2        0.323967   1.000000
    3        2.381674   1.000000
    4        2.434075   1.000000
    5        6.400537   0.000000
    6        7.538939   0.000000
    7       10.818657   0.000000
    8       11.080929   0.000000
 
  0.3500000E+00  0.2500000E+00  0.0000000E+00  0.3000000E-02
    1       -6.816736   1.000000
    2       -0.101941   1.000000
    3        2.109445   1.000000
    4        2.334446   1.000000
    5        6.422274   0.000000
    6        7.571052   0.000000
    7       10.670942   0.000000
    8       11.211747   0.000000
 
  0.4000000E+00  0.2500000E+00  0.0000000E+00  0.3000000E-02
    1       -6.619677   1.000000
    2       -0.513279   1.000000
    3        1.788464   1.000000
    4        2.277766   1.000000
    5        6.444391   0.000000
    6        7.884912   0.000000
    7       10.512169   0.000000
    8       11.174722   0.000000
 
  0.4500000E+00  0.2500000E+00  0.0000000E+00  0.3000000E-02
    1       -6.431639   1.000000
    2       -0.870515   1.000000
    3        1.467326   1.000000
    4        2.266015   1.000000
    5        6.450850   0.000000
    6        8.433327   0.000000
    7       10.379955   0.000000
    8       11.038926   0.000000
 
  0.5000000E+00  0.2500000E+00  0.0000000E+00  0.3000000E-02
    1       -6.279013   1.000000
    2       -1.136067   1.000000
    3        1.181910   1.000000
    4        2.299422   1.000000
    5        6.481522   0.000000
    6        9.097954   0.000000
    7       10.320261   0.000000
    8       10.864845   0.000000
 
 -0.4500000E+00  0.2500000E+00  0.0000000E+00  0.3000000E-02
    1       -6.190237   1.000000
    2       -1.275893   1.000000
    3        0.955273   1.000000
    4        2.376558   1.000000
    5        6.559230   0.000000
    6        9.645039   0.000000
    7       10.512691   0.000000
    8       10.686670   0.000000
 
 -0.4000000E+00  0.2500000E+00  0.0000000E+00  0.3000000E-02
    1       -6.185350   1.000000
    2       -1.270681   1.000000
    3        0.804812   1.000000
    4        2.494172   1.000000
    5        6.690692   0.000000
    6        9.808751   0.000000
    7       10.516265   0.000000
    8       11.152791   0.000000
 
 -0.3500000E+00  0.2500000E+00  0.0000000E+00  0.3000000E-02
    1       -6.265118   1.000000
    2       -1.129880   1.000000
    3        0.749591   1.000000
    4        2.646773   1.000000
    5        6.873314   0.000000
    6        9.834642   0.000000
    7       10.344085   0.000000
    8       11.482778   0.000000
 
 -0.3000000E+00  0.2500000E+00  0.0000000E+00  0.3000000E-02
    1       -6.410727   1.000000
    2       -0.896127   1.000000
    3        0.816697   1.000000
    4        2.825869   1.000000
    5        7.095502   0.000000
    6        9.839765   0.000000
    7       10.133310   0.000000
    8       10.832489   0.000000
 
 -0.2500000E+00  0.2500000E+00  0.0000000E+00  0.1500000E-02
    1       -6.594470   1.000000
    2       -0.631851   1.000000
    3        1.039018   1.000000
    4        3.018854   1.000000
    5        7.328823   0.000000
    6        9.701065   0.000000
    7        9.834420   0.000000
    8       10.258095   0.000000
 
  0.3000000E+00  0.3000000E+00  0.0000000E+00  0.7500000E-03
    1       -6.859550   1.000000
    2        0.041903   1.000000
    3        2.284218   1.000000
    4        2.284219   1.000000
    5        6.129242   0.000000
    6        7.222857   0.000000
    7       11.561736   0.000000
    8       11.561787   0.000000
 
  0.3500000E+00  0.3000000E+00  0.0000000E+00  0.3000000E-02
    1       -6.691532   1.000000
    2       -0.294191   1.000000
    3        2.093061   1.000000
    4        2.173251   1.000000
    5        6.053175   0.000000
    6        7.077983   0.000000
    7       11.639871   0.000000
    8       11.858682   0.000000
 
  0.4000000E+00  0.3000000E+00  0.0000000E+00  0.3000000E-02
    1       -6.511314   1.000000
    2       -0.625006   1.000000
    3        1.788238   1.000000
    4        2.105824   1.000000
    5        6.095474   0.000000
    6        7.183298   0.000000
    7       11.508741   0.000000
    8       11.931254   0.000000
 
  0.4500000E+00  0.3000000E+00  0.0000000E+00  0.3000000E-02
    1       -6.336843   1.000000
    2       -0.910729   1.000000
    3        1.425166   1.000000
    4        2.084367   1.000000
    5        6.141518   0.000000
    6        7.586841   0.000000
    7       11.357089   0.000000
    8       11.842354   0.000000
 
  0.5000000E+00  0.3000000E+00  0.0000000E+00  0.3000000E-02
    1       -6.191130   1.000000
    2       -1.120163   1.000000
    3        1.067200   1.000000
    4        2.109510   1.000000
    5        6.191020   0.000000
    6        8.217213   0.000000
    7       11.221776   0.000000
    8       11.674192   0.000000
 