 running on   48 total cores
 distrk:  each k-point on   12 cores,    4 groups
 distr:  one band on   12 cores,    1 groups
 using from now: INCAR     
 vasp.5.4.4.18Apr17-6-g9f103f2a35 (build Nov 04 2020 14:40:39) complex          
  
 POSCAR found type information on POSCAR  Al As
 POSCAR found :  2 types and       2 ions
 scaLAPACK will be used

 ----------------------------------------------------------------------------- 
|                                                                             |
|           W    W    AA    RRRRR   N    N  II  N    N   GGGG   !!!           |
|           W    W   A  A   R    R  NN   N  II  NN   N  G    G  !!!           |
|           W    W  A    A  R    R  N N  N  II  N N  N  G       !!!           |
|           W WW W  AAAAAA  RRRRR   N  N N  II  N  N N  G  GGG   !            |
|           WW  WW  A    A  R   R   N   NN  II  N   NN  G    G                |
|           W    W  A    A  R    R  N    N  II  N    N   GGGG   !!!           |
|                                                                             |
|      You have enabled k-point parallelism (KPAR>1).                         |
|      This developmental code was originally  written by Paul Kent at ORNL,  |
|      and carefully double checked in Vienna.                                |
|      GW as well as linear response parallelism added by Martijn Marsman     |
|      and Georg Kresse.                                                      |
|      Carefully verify results versus KPAR=1.                                |
|      Report problems to Paul Kent and Vienna.                               |
|                                                                             |
 ----------------------------------------------------------------------------- 

 LDA part: xc-table for Pade appr. of Perdew
 POSCAR found type information on POSCAR  Al As
 POSCAR found :  2 types and       2 ions
 generate k-points for:   20   20   20
 POSCAR, INCAR and KPOINTS ok, starting setup
 FFT: planning ...
 WAVECAR not read
 entering main loop
       N       E                     dE             d eps       ncg     rms          rms(c)
DAV:   1     0.142121349849E+02    0.14212E+02   -0.31132E+03  4160   0.753E+02
DAV:   2    -0.900676327271E+01   -0.23219E+02   -0.22871E+02  5424   0.891E+01
DAV:   3    -0.957878297386E+01   -0.57202E+00   -0.57202E+00  5176   0.187E+01
DAV:   4    -0.958122462743E+01   -0.24417E-02   -0.24417E-02  6496   0.137E+00
DAV:   5    -0.958123140934E+01   -0.67819E-05   -0.67819E-05  5320   0.563E-02    0.273E+00
RMM:   6    -0.938934558713E+01    0.19189E+00   -0.21156E-01  4121   0.245E+00    0.150E+00
RMM:   7    -0.935491593312E+01    0.34430E-01   -0.12634E-01  4306   0.200E+00    0.447E-01
RMM:   8    -0.935514533789E+01   -0.22940E-03   -0.58107E-03  4448   0.609E-01    0.492E-02
RMM:   9    -0.935539276693E+01   -0.24743E-03   -0.25940E-04  4824   0.131E-01    0.195E-02
RMM:  10    -0.935542026637E+01   -0.27499E-04   -0.44344E-05  4722   0.512E-02    0.411E-03
RMM:  11    -0.935542256448E+01   -0.22981E-05   -0.57884E-06  4737   0.192E-02    0.207E-03
RMM:  12    -0.935542215984E+01    0.40464E-06   -0.57432E-07  3734   0.480E-03
   1 F= -.93554222E+01 E0= -.93554222E+01  d E =0.000000E+00
