unknown system                          
           1
     0.000000    2.827404    2.827404
     2.827404    0.000000    2.827404
     2.827404    2.827404    0.000000
   Al   As
   1   1
Direct configuration=     1
   0.00000000  0.00000000  0.00000000
   0.75000000  0.75000000  0.75000000
