   2   2   0   0
  0.2450102E+02  0.4107489E-09  0.4107489E-09  0.4107489E-09  0.0000000E+00
  1.000000000000000E-004
  CAR 
 unknown system                          
     13.95567157     -9.22913452  301      3.30032111      1.00000000
     -9.229  0.0000E+00  0.0000E+00
     -9.152  0.0000E+00  0.0000E+00
     -9.075  0.0000E+00  0.0000E+00
     -8.997  0.0000E+00  0.0000E+00
     -8.920  0.0000E+00  0.0000E+00
     -8.843  0.0000E+00  0.0000E+00
     -8.765  0.0000E+00  0.0000E+00
     -8.688  0.0000E+00  0.0000E+00
     -8.611  0.0000E+00  0.0000E+00
     -8.534  0.0000E+00  0.0000E+00
     -8.456  0.0000E+00  0.0000E+00
     -8.379  0.0000E+00  0.0000E+00
     -8.302  0.0000E+00  0.0000E+00
     -8.224  0.0000E+00  0.0000E+00
     -8.147  0.9365E-01  0.1194E-02
     -8.070  0.1903E+00  0.1245E-01
     -7.993  0.2661E+00  0.3038E-01
     -7.915  0.3316E+00  0.5335E-01
     -7.838  0.3847E+00  0.8100E-01
     -7.761  0.4436E+00  0.1130E+00
     -7.683  0.4984E+00  0.1494E+00
     -7.606  0.5584E+00  0.1902E+00
     -7.529  0.6196E+00  0.2357E+00
     -7.452  0.6868E+00  0.2861E+00
     -7.374  0.7630E+00  0.3421E+00
     -7.297  0.8483E+00  0.4043E+00
     -7.220  0.9498E+00  0.4735E+00
     -7.143  0.1078E+01  0.5518E+00
     -7.065  0.1235E+01  0.6409E+00
     -6.988  0.1498E+01  0.7457E+00
     -6.911  0.2013E+01  0.8812E+00
     -6.833  0.2101E+01  0.1043E+01
     -6.756  0.2103E+01  0.1204E+01
     -6.679  0.2162E+01  0.1370E+01
     -6.602  0.2268E+01  0.1540E+01
     -6.524  0.2475E+01  0.1722E+01
     -6.447  0.4433E+01  0.1944E+01
     -6.370  0.0000E+00  0.2000E+01
     -6.292  0.0000E+00  0.2000E+01
     -6.215  0.0000E+00  0.2000E+01
     -6.138  0.0000E+00  0.2000E+01
     -6.061  0.0000E+00  0.2000E+01
     -5.983  0.0000E+00  0.2000E+01
     -5.906  0.0000E+00  0.2000E+01
     -5.829  0.0000E+00  0.2000E+01
     -5.751  0.0000E+00  0.2000E+01
     -5.674  0.0000E+00  0.2000E+01
     -5.597  0.0000E+00  0.2000E+01
     -5.520  0.0000E+00  0.2000E+01
     -5.442  0.0000E+00  0.2000E+01
     -5.365  0.0000E+00  0.2000E+01
     -5.288  0.0000E+00  0.2000E+01
     -5.210  0.0000E+00  0.2000E+01
     -5.133  0.0000E+00  0.2000E+01
     -5.056  0.0000E+00  0.2000E+01
     -4.979  0.0000E+00  0.2000E+01
     -4.901  0.0000E+00  0.2000E+01
     -4.824  0.0000E+00  0.2000E+01
     -4.747  0.0000E+00  0.2000E+01
     -4.669  0.0000E+00  0.2000E+01
     -4.592  0.0000E+00  0.2000E+01
     -4.515  0.0000E+00  0.2000E+01
     -4.438  0.0000E+00  0.2000E+01
     -4.360  0.0000E+00  0.2000E+01
     -4.283  0.0000E+00  0.2000E+01
     -4.206  0.0000E+00  0.2000E+01
     -4.128  0.0000E+00  0.2000E+01
     -4.051  0.0000E+00  0.2000E+01
     -3.974  0.0000E+00  0.2000E+01
     -3.897  0.0000E+00  0.2000E+01
     -3.819  0.0000E+00  0.2000E+01
     -3.742  0.0000E+00  0.2000E+01
     -3.665  0.0000E+00  0.2000E+01
     -3.587  0.0000E+00  0.2000E+01
     -3.510  0.0000E+00  0.2000E+01
     -3.433  0.0000E+00  0.2000E+01
     -3.356  0.0000E+00  0.2000E+01
     -3.278  0.0000E+00  0.2000E+01
     -3.201  0.0000E+00  0.2000E+01
     -3.124  0.0000E+00  0.2000E+01
     -3.047  0.0000E+00  0.2000E+01
     -2.969  0.0000E+00  0.2000E+01
     -2.892  0.0000E+00  0.2000E+01
     -2.815  0.0000E+00  0.2000E+01
     -2.737  0.0000E+00  0.2000E+01
     -2.660  0.0000E+00  0.2000E+01
     -2.583  0.0000E+00  0.2000E+01
     -2.506  0.0000E+00  0.2000E+01
     -2.428  0.0000E+00  0.2000E+01
     -2.351  0.0000E+00  0.2000E+01
     -2.274  0.0000E+00  0.2000E+01
     -2.196  0.0000E+00  0.2000E+01
     -2.119  0.0000E+00  0.2000E+01
     -2.042  0.0000E+00  0.2000E+01
     -1.965  0.0000E+00  0.2000E+01
     -1.887  0.5964E+00  0.2025E+01
     -1.810  0.1210E+01  0.2095E+01
     -1.733  0.1966E+01  0.2215E+01
     -1.655  0.4576E+01  0.2441E+01
     -1.578  0.2831E+01  0.2785E+01
     -1.501  0.1725E+01  0.2951E+01
     -1.424  0.1267E+01  0.3066E+01
     -1.346  0.1062E+01  0.3155E+01
     -1.269  0.8915E+00  0.3231E+01
     -1.192  0.7693E+00  0.3294E+01
     -1.114  0.6900E+00  0.3350E+01
     -1.037  0.6084E+00  0.3400E+01
     -0.960  0.5440E+00  0.3445E+01
     -0.883  0.5042E+00  0.3485E+01
     -0.805  0.4639E+00  0.3523E+01
     -0.728  0.4219E+00  0.3557E+01
     -0.651  0.3820E+00  0.3588E+01
     -0.573  0.3601E+00  0.3616E+01
     -0.496  0.3370E+00  0.3643E+01
     -0.419  0.3143E+00  0.3668E+01
     -0.342  0.2883E+00  0.3692E+01
     -0.264  0.2645E+00  0.3713E+01
     -0.187  0.2512E+00  0.3733E+01
     -0.110  0.2379E+00  0.3752E+01
     -0.032  0.2240E+00  0.3770E+01
      0.045  0.2084E+00  0.3787E+01
      0.122  0.6362E+00  0.3819E+01
      0.199  0.9853E+00  0.3883E+01
      0.277  0.1544E+01  0.3983E+01
      0.354  0.1442E+01  0.4099E+01
      0.431  0.1282E+01  0.4205E+01
      0.508  0.1215E+01  0.4302E+01
      0.586  0.1193E+01  0.4395E+01
      0.663  0.1164E+01  0.4487E+01
      0.740  0.1114E+01  0.4575E+01
      0.818  0.1189E+01  0.4666E+01
      0.895  0.1257E+01  0.4761E+01
      0.972  0.1342E+01  0.4863E+01
      1.049  0.1402E+01  0.4970E+01
      1.127  0.1490E+01  0.5081E+01
      1.204  0.1707E+01  0.5203E+01
      1.281  0.1934E+01  0.5346E+01
      1.359  0.1903E+01  0.5496E+01
      1.436  0.1899E+01  0.5643E+01
      1.513  0.1844E+01  0.5787E+01
      1.590  0.1852E+01  0.5930E+01
      1.668  0.1822E+01  0.6072E+01
      1.745  0.1785E+01  0.6211E+01
      1.822  0.1774E+01  0.6349E+01
      1.900  0.1757E+01  0.6485E+01
      1.977  0.1739E+01  0.6620E+01
      2.054  0.1727E+01  0.6754E+01
      2.131  0.1696E+01  0.6886E+01
      2.209  0.1684E+01  0.7017E+01
      2.286  0.1698E+01  0.7148E+01
      2.363  0.1695E+01  0.7279E+01
      2.441  0.1676E+01  0.7409E+01
      2.518  0.1316E+01  0.7528E+01
      2.595  0.1084E+01  0.7620E+01
      2.672  0.9295E+00  0.7698E+01
      2.750  0.8015E+00  0.7765E+01
      2.827  0.6941E+00  0.7823E+01
      2.904  0.6015E+00  0.7873E+01
      2.982  0.5038E+00  0.7915E+01
      3.059  0.4250E+00  0.7951E+01
      3.136  0.3059E+00  0.7980E+01
      3.213  0.1434E+00  0.7997E+01
      3.291  0.0000E+00  0.8000E+01
      3.368  0.0000E+00  0.8000E+01
      3.445  0.0000E+00  0.8000E+01
      3.523  0.0000E+00  0.8000E+01
      3.600  0.0000E+00  0.8000E+01
      3.677  0.0000E+00  0.8000E+01
      3.754  0.0000E+00  0.8000E+01
      3.832  0.0000E+00  0.8000E+01
      3.909  0.0000E+00  0.8000E+01
      3.986  0.0000E+00  0.8000E+01
      4.063  0.0000E+00  0.8000E+01
      4.141  0.0000E+00  0.8000E+01
      4.218  0.0000E+00  0.8000E+01
      4.295  0.0000E+00  0.8000E+01
      4.373  0.0000E+00  0.8000E+01
      4.450  0.0000E+00  0.8000E+01
      4.527  0.0000E+00  0.8000E+01
      4.604  0.0000E+00  0.8000E+01
      4.682  0.0000E+00  0.8000E+01
      4.759  0.2691E-04  0.8000E+01
      4.836  0.2319E-02  0.8000E+01
      4.914  0.6600E-01  0.8002E+01
      4.991  0.1186E+00  0.8010E+01
      5.068  0.1633E+00  0.8021E+01
      5.145  0.2110E+00  0.8035E+01
      5.223  0.2981E+00  0.8055E+01
      5.300  0.4108E+00  0.8082E+01
      5.377  0.5015E+00  0.8118E+01
      5.455  0.5847E+00  0.8160E+01
      5.532  0.6788E+00  0.8208E+01
      5.609  0.8137E+00  0.8266E+01
      5.686  0.9723E+00  0.8335E+01
      5.764  0.1113E+01  0.8415E+01
      5.841  0.1251E+01  0.8507E+01
      5.918  0.1369E+01  0.8608E+01
      5.996  0.1536E+01  0.8719E+01
      6.073  0.1813E+01  0.8848E+01
      6.150  0.2022E+01  0.9000E+01
      6.227  0.1911E+01  0.9154E+01
      6.305  0.1852E+01  0.9299E+01
      6.382  0.1791E+01  0.9440E+01
      6.459  0.1638E+01  0.9573E+01
      6.537  0.1528E+01  0.9695E+01
      6.614  0.1363E+01  0.9806E+01
      6.691  0.1167E+01  0.9903E+01
      6.768  0.1016E+01  0.9988E+01
      6.846  0.1019E+01  0.1007E+02
      6.923  0.1171E+01  0.1015E+02
      7.000  0.1057E+01  0.1024E+02
      7.078  0.8454E+00  0.1032E+02
      7.155  0.7928E+00  0.1038E+02
      7.232  0.8072E+00  0.1044E+02
      7.309  0.8545E+00  0.1051E+02
      7.387  0.9310E+00  0.1058E+02
      7.464  0.9138E+00  0.1064E+02
      7.541  0.1375E+01  0.1073E+02
      7.618  0.2632E+01  0.1088E+02
      7.696  0.2745E+01  0.1109E+02
      7.773  0.2281E+01  0.1129E+02
      7.850  0.1837E+01  0.1145E+02
      7.928  0.1669E+01  0.1158E+02
      8.005  0.1410E+01  0.1170E+02
      8.082  0.1500E+01  0.1181E+02
      8.159  0.1423E+01  0.1192E+02
      8.237  0.1358E+01  0.1203E+02
      8.314  0.1293E+01  0.1213E+02
      8.391  0.1251E+01  0.1223E+02
      8.469  0.1318E+01  0.1233E+02
      8.546  0.1525E+01  0.1244E+02
      8.623  0.1751E+01  0.1257E+02
      8.700  0.1916E+01  0.1271E+02
      8.778  0.1874E+01  0.1286E+02
      8.855  0.1828E+01  0.1300E+02
      8.932  0.1689E+01  0.1314E+02
      9.010  0.1759E+01  0.1327E+02
      9.087  0.1462E+01  0.1339E+02
      9.164  0.1291E+01  0.1350E+02
      9.241  0.1270E+01  0.1360E+02
      9.319  0.1240E+01  0.1369E+02
      9.396  0.1267E+01  0.1379E+02
      9.473  0.1322E+01  0.1389E+02
      9.551  0.1276E+01  0.1399E+02
      9.628  0.1248E+01  0.1409E+02
      9.705  0.1077E+01  0.1418E+02
      9.782  0.9024E+00  0.1426E+02
      9.860  0.9223E+00  0.1433E+02
      9.937  0.9710E+00  0.1440E+02
     10.014  0.1010E+01  0.1448E+02
     10.092  0.1018E+01  0.1456E+02
     10.169  0.9963E+00  0.1463E+02
     10.246  0.1022E+01  0.1471E+02
     10.323  0.1097E+01  0.1479E+02
     10.401  0.1157E+01  0.1488E+02
     10.478  0.1203E+01  0.1497E+02
     10.555  0.1244E+01  0.1507E+02
     10.633  0.1144E+01  0.1516E+02
     10.710  0.1078E+01  0.1524E+02
     10.787  0.1070E+01  0.1533E+02
     10.864  0.9157E+00  0.1540E+02
     10.942  0.8602E+00  0.1547E+02
     11.019  0.7590E+00  0.1553E+02
     11.096  0.4584E+00  0.1559E+02
     11.173  0.4328E+00  0.1563E+02
     11.251  0.4078E+00  0.1566E+02
     11.328  0.3856E+00  0.1569E+02
     11.405  0.3603E+00  0.1572E+02
     11.483  0.3352E+00  0.1575E+02
     11.560  0.3208E+00  0.1577E+02
     11.637  0.3238E+00  0.1580E+02
     11.714  0.3056E+00  0.1582E+02
     11.792  0.2666E+00  0.1584E+02
     11.869  0.2384E+00  0.1586E+02
     11.946  0.2156E+00  0.1588E+02
     12.024  0.1980E+00  0.1590E+02
     12.101  0.1873E+00  0.1591E+02
     12.178  0.1739E+00  0.1592E+02
     12.255  0.1589E+00  0.1594E+02
     12.333  0.1533E+00  0.1595E+02
     12.410  0.1401E+00  0.1596E+02
     12.487  0.1217E+00  0.1597E+02
     12.565  0.9689E-01  0.1598E+02
     12.642  0.7570E-01  0.1599E+02
     12.719  0.5807E-01  0.1599E+02
     12.796  0.4402E-01  0.1599E+02
     12.874  0.4823E-01  0.1600E+02
     12.951  0.0000E+00  0.1600E+02
     13.028  0.0000E+00  0.1600E+02
     13.106  0.0000E+00  0.1600E+02
     13.183  0.0000E+00  0.1600E+02
     13.260  0.0000E+00  0.1600E+02
     13.337  0.0000E+00  0.1600E+02
     13.415  0.0000E+00  0.1600E+02
     13.492  0.0000E+00  0.1600E+02
     13.569  0.0000E+00  0.1600E+02
     13.647  0.0000E+00  0.1600E+02
     13.724  0.0000E+00  0.1600E+02
     13.801  0.0000E+00  0.1600E+02
     13.878  0.0000E+00  0.1600E+02
     13.956  0.0000E+00  0.1600E+02
