    2    2    1    1
  0.2450102E+02  0.4107489E-09  0.4107489E-09  0.4107489E-09  0.0000000E+00
  1.000000000000000E-004
  CAR 
 unknown system                          
      8    220      8
 
  0.0000000E+00  0.0000000E+00  0.0000000E+00  0.1457938E-03
    1       -8.175280   1.000000
    2        3.258685   1.000000
    3        3.258685   1.000000
    4        3.258685   1.000000
    5        4.741291   0.000000
    6        7.411688   0.000000
    7        7.411688   0.000000
    8        7.411688   0.000000
 
  0.5263158E-01  0.0000000E+00  0.0000000E+00  0.1166351E-02
    1       -8.150415   1.000000
    2        2.869556   1.000000
    3        3.229558   1.000000
    4        3.229558   1.000000
    5        5.051475   0.000000
    6        7.434560   0.000000
    7        7.464567   0.000000
    8        7.464568   0.000000
 
  0.1052632E+00  0.0000000E+00  0.0000000E+00  0.1166351E-02
    1       -8.076720   1.000000
    2        2.132213   1.000000
    3        3.149399   1.000000
    4        3.149399   1.000000
    5        5.491629   0.000000
    6        7.591469   0.000000
    7        7.606618   0.000000
    8        7.606618   0.000000
 
  0.1578947E+00  0.0000000E+00  0.0000000E+00  0.1166351E-02
    1       -7.957203   1.000000
    2        1.336491   1.000000
    3        3.035614   1.000000
    4        3.035614   1.000000
    5        5.683865   0.000000
    6        7.791063   0.000000
    7        7.791063   0.000000
    8        8.029018   0.000000
 
  0.2105263E+00  0.0000000E+00  0.0000000E+00  0.1166351E-02
    1       -7.797394   1.000000
    2        0.557468   1.000000
    3        2.907821   1.000000
    4        2.907821   1.000000
    5        5.648611   0.000000
    6        7.951743   0.000000
    7        7.951743   0.000000
    8        8.702527   0.000000
 
  0.2631579E+00  0.0000000E+00  0.0000000E+00  0.1166351E-02
    1       -7.606509   1.000000
    2       -0.169849   1.000000
    3        2.782557   1.000000
    4        2.782557   1.000000
    5        5.521779   0.000000
    6        8.032833   0.000000
    7        8.032833   0.000000
    8        9.464561   0.000000
 
  0.3157895E+00  0.0000000E+00  0.0000000E+00  0.1166351E-02
    1       -7.399035   1.000000
    2       -0.817524   1.000000
    3        2.671765   1.000000
    4        2.671765   1.000000
    5        5.381350   0.000000
    6        8.027672   0.000000
    7        8.027672   0.000000
    8       10.178652   0.000000
 
  0.3684211E+00  0.0000000E+00  0.0000000E+00  0.1166351E-02
    1       -7.196906   1.000000
    2       -1.355521   1.000000
    3        2.583328   1.000000
    4        2.583328   1.000000
    5        5.261012   0.000000
    6        7.973952   0.000000
    7        7.973953   0.000000
    8       10.658536   0.000000
 
  0.4210526E+00  0.0000000E+00  0.0000000E+00  0.1166351E-02
    1       -7.030518   1.000000
    2       -1.748322   1.000000
    3        2.522124   1.000000
    4        2.522125   1.000000
    5        5.175530   0.000000
    6        7.914854   0.000000
    7        7.914854   0.000000
    8       10.826057   0.000000
 
  0.4736842E+00  0.0000000E+00  0.0000000E+00  0.1166351E-02
    1       -6.934630   1.000000
    2       -1.958138   1.000000
    3        2.490910   1.000000
    4        2.490910   1.000000
    5        5.131510   0.000000
    6        7.878836   0.000000
    7        7.878836   0.000000
    8       10.852452   0.000000
 
  0.5263158E-01  0.5263158E-01  0.0000000E+00  0.8747631E-03
    1       -8.142107   1.000000
    2        2.850688   1.000000
    3        3.164311   1.000000
    4        3.164311   1.000000
    5        5.166662   0.000000
    6        7.282278   0.000000
    7        7.557988   0.000000
    8        7.557988   0.000000
 
  0.1052632E+00  0.5263158E-01  0.0000000E+00  0.3499052E-02
    1       -8.084648   1.000000
    2        2.289547   1.000000
    3        3.054597   1.000000
    4        3.110407   1.000000
    5        5.574553   0.000000
    6        7.217987   0.000000
    7        7.737812   0.000000
    8        7.752542   0.000000
 
  0.1578947E+00  0.5263158E-01  0.0000000E+00  0.3499052E-02
    1       -7.980320   1.000000
    2        1.549058   1.000000
    3        2.921213   1.000000
    4        3.031001   1.000000
    5        5.852812   0.000000
    6        7.318983   0.000000
    7        7.957102   0.000000
    8        8.086981   0.000000
 
  0.2105263E+00  0.5263158E-01  0.0000000E+00  0.3499052E-02
    1       -7.833699   1.000000
    2        0.786476   1.000000
    3        2.784099   1.000000
    4        2.911207   1.000000
    5        5.878367   0.000000
    6        7.552649   0.000000
    7        8.150924   0.000000
    8        8.569602   0.000000
 
  0.2631579E+00  0.5263158E-01  0.0000000E+00  0.3499052E-02
    1       -7.652664   1.000000
    2        0.055374   1.000000
    3        2.658671   1.000000
    4        2.771271   1.000000
    5        5.771558   0.000000
    6        7.749144   0.000000
    7        8.258090   0.000000
    8        9.146637   0.000000
 
  0.3157895E+00  0.5263158E-01  0.0000000E+00  0.3499052E-02
    1       -7.449699   1.000000
    2       -0.610899   1.000000
    3        2.555460   1.000000
    4        2.630112   1.000000
    5        5.633622   0.000000
    6        7.827723   0.000000
    7        8.260295   0.000000
    8        9.758177   0.000000
 
  0.3684211E+00  0.5263158E-01  0.0000000E+00  0.3499052E-02
    1       -7.244006   1.000000
    2       -1.181445   1.000000
    3        2.481015   1.000000
    4        2.501581   1.000000
    5        5.507842   0.000000
    6        7.821573   0.000000
    7        8.190552   0.000000
    8       10.340318   0.000000
 
  0.4210526E+00  0.5263158E-01  0.0000000E+00  0.3499052E-02
    1       -7.063085   1.000000
    2       -1.621654   1.000000
    3        2.395083   1.000000
    4        2.438902   1.000000
    5        5.412396   0.000000
    6        7.791661   0.000000
    7        8.096771   0.000000
    8       10.755912   0.000000
 
  0.4736842E+00  0.5263158E-01  0.0000000E+00  0.3499052E-02
    1       -6.940985   1.000000
    2       -1.893213   1.000000
    3        2.316867   1.000000
    4        2.430497   1.000000
    5        5.355411   0.000000
    6        7.778901   0.000000
    7        8.014458   0.000000
    8       10.926200   0.000000
 
 -0.4736842E+00  0.5263158E-01  0.0000000E+00  0.3499052E-02
    1       -6.907874   1.000000
    2       -1.963726   1.000000
    3        2.271042   1.000000
    4        2.455493   1.000000
    5        5.340394   0.000000
    6        7.802267   0.000000
    7        7.962786   0.000000
    8       10.962059   0.000000
 
 -0.4210526E+00  0.5263158E-01  0.0000000E+00  0.3499052E-02
    1       -6.973178   1.000000
    2       -1.823256   1.000000
    3        2.260159   1.000000
    4        2.512164   1.000000
    5        5.368150   0.000000
    6        7.865174   0.000000
    7        7.947367   0.000000
    8       10.919959   0.000000
 
 -0.3684211E+00  0.5263158E-01  0.0000000E+00  0.3499052E-02
    1       -7.118841   1.000000
    2       -1.490997   1.000000
    3        2.285479   1.000000
    4        2.597360   1.000000
    5        5.437128   0.000000
    6        7.957575   0.000000
    7        7.961138   0.000000
    8       10.718648   0.000000
 
 -0.3157895E+00  0.5263158E-01  0.0000000E+00  0.3499052E-02
    1       -7.311631   1.000000
    2       -1.003169   1.000000
    3        2.346914   1.000000
    4        2.706232   1.000000
    5        5.542479   0.000000
    6        7.982204   0.000000
    7        8.052463   0.000000
    8       10.250343   0.000000
 
 -0.2631579E+00  0.5263158E-01  0.0000000E+00  0.3499052E-02
    1       -7.519033   1.000000
    2       -0.397657   1.000000
    3        2.442769   1.000000
    4        2.831675   1.000000
    5        5.673000   0.000000
    6        7.972902   0.000000
    7        8.097193   0.000000
    8        9.614562   0.000000
 
 -0.2105263E+00  0.5263158E-01  0.0000000E+00  0.3499052E-02
    1       -7.716419   1.000000
    2        0.291898   1.000000
    3        2.569270   1.000000
    4        2.963406   1.000000
    5        5.802772   0.000000
    6        7.895095   0.000000
    7        8.010835   0.000000
    8        8.979789   0.000000
 
 -0.1578947E+00  0.5263158E-01  0.0000000E+00  0.3499052E-02
    1       -7.887055   1.000000
    2        1.033076   1.000000
    3        2.720107   1.000000
    4        3.087101   1.000000
    5        5.869419   0.000000
    6        7.749198   0.000000
    7        7.749269   0.000000
    8        8.458075   0.000000
 
 -0.1052632E+00  0.5263158E-01  0.0000000E+00  0.3499052E-02
    1       -8.020219   1.000000
    2        1.783977   1.000000
    3        2.887135   1.000000
    4        3.184483   1.000000
    5        5.749260   0.000000
    6        7.475428   0.000000
    7        7.588198   0.000000
    8        8.051001   0.000000
 
 -0.5263158E-01  0.5263158E-01  0.0000000E+00  0.1749526E-02
    1       -8.109247   1.000000
    2        2.459919   1.000000
    3        3.066592   1.000000
    4        3.236348   1.000000
    5        5.388489   0.000000
    6        7.391010   0.000000
    7        7.478409   0.000000
    8        7.714704   0.000000
 
  0.1052632E+00  0.1052632E+00  0.0000000E+00  0.8747631E-03
    1       -8.043698   1.000000
    2        2.121767   1.000000
    3        2.919426   1.000000
    4        2.919427   1.000000
    5        5.922075   0.000000
    6        6.957828   0.000000
    7        7.957327   0.000000
    8        7.957327   0.000000
 
  0.1578947E+00  0.1052632E+00  0.0000000E+00  0.3499052E-02
    1       -7.955452   1.000000
    2        1.594019   1.000000
    3        2.767146   1.000000
    4        2.806547   1.000000
    5        6.251263   0.000000
    6        6.854904   0.000000
    7        8.219125   0.000000
    8        8.258758   0.000000
 
  0.2105263E+00  0.1052632E+00  0.0000000E+00  0.3499052E-02
    1       -7.823708   1.000000
    2        0.926311   1.000000
    3        2.618036   1.000000
    4        2.685284   1.000000
    5        6.329577   0.000000
    6        7.012614   0.000000
    7        8.460379   0.000000
    8        8.591886   0.000000
 
  0.2631579E+00  0.1052632E+00  0.0000000E+00  0.3499052E-02
    1       -7.655173   1.000000
    2        0.239314   1.000000
    3        2.487051   1.000000
    4        2.527193   1.000000
    5        6.228089   0.000000
    6        7.320102   0.000000
    7        8.614501   0.000000
    8        8.830979   0.000000
 
  0.3157895E+00  0.1052632E+00  0.0000000E+00  0.3499052E-02
    1       -7.460611   1.000000
    2       -0.412418   1.000000
    3        2.350817   1.000000
    4        2.384142   1.000000
    5        6.092472   0.000000
    6        7.559821   0.000000
    7        8.647576   0.000000
    8        9.092064   0.000000
 
  0.3684211E+00  0.1052632E+00  0.0000000E+00  0.3499052E-02
    1       -7.256709   1.000000
    2       -0.990631   1.000000
    3        2.177526   1.000000
    4        2.315361   1.000000
    5        5.966960   0.000000
    6        7.646058   0.000000
    7        8.582447   0.000000
    8        9.544483   0.000000
 
  0.4210526E+00  0.1052632E+00  0.0000000E+00  0.3499052E-02
    1       -7.067829   1.000000
    2       -1.458689   1.000000
    3        2.022979   1.000000
    4        2.283808   1.000000
    5        5.868889   0.000000
    6        7.645728   0.000000
    7        8.469812   0.000000
    8       10.141695   0.000000
 
  0.4736842E+00  0.1052632E+00  0.0000000E+00  0.3499052E-02
    1       -6.925759   1.000000
    2       -1.777567   1.000000
    3        1.897680   1.000000
    4        2.290347   1.000000
    5        5.806774   0.000000
    6        7.639115   0.000000
    7        8.352547   0.000000
    8       10.727656   0.000000
 
 -0.4736842E+00  0.1052632E+00  0.0000000E+00  0.3499052E-02
    1       -6.862623   1.000000
    2       -1.911246   1.000000
    3        1.808702   1.000000
    4        2.333958   1.000000
    5        5.784548   0.000000
    6        7.663851   0.000000
    7        8.256236   0.000000
    8       11.084272   0.000000
 
 -0.4210526E+00  0.1052632E+00  0.0000000E+00  0.3499052E-02
    1       -6.895574   1.000000
    2       -1.841240   1.000000
    3        1.761013   1.000000
    4        2.411893   1.000000
    5        5.803139   0.000000
    6        7.731606   0.000000
    7        8.191600   0.000000
    8       11.093777   0.000000
 
 -0.3684211E+00  0.1052632E+00  0.0000000E+00  0.3499052E-02
    1       -7.015390   1.000000
    2       -1.577936   1.000000
    3        1.758307   1.000000
    4        2.519561   1.000000
    5        5.860962   0.000000
    6        7.838111   0.000000
    7        8.156330   0.000000
    8       10.762520   0.000000
 
 -0.3157895E+00  0.1052632E+00  0.0000000E+00  0.3499052E-02
    1       -7.192871   1.000000
    2       -1.154532   1.000000
    3        1.803543   1.000000
    4        2.650176   1.000000
    5        5.953310   0.000000
    6        7.960693   0.000000
    7        8.133518   0.000000
    8       10.187060   0.000000
 
 -0.2631579E+00  0.1052632E+00  0.0000000E+00  0.3499052E-02
    1       -7.394936   1.000000
    2       -0.612184   1.000000
    3        1.899563   1.000000
    4        2.794128   1.000000
    5        6.069555   0.000000
    6        8.039797   0.000000
    7        8.089950   0.000000
    8        9.568137   0.000000
 
 -0.2105263E+00  0.1052632E+00  0.0000000E+00  0.3499052E-02
    1       -7.594601   1.000000
    2        0.007271   1.000000
    3        2.050144   1.000000
    4        2.938151   1.000000
    5        6.184201   0.000000
    6        7.951620   0.000000
    7        7.989477   0.000000
    8        9.091732   0.000000
 
 -0.1578947E+00  0.1052632E+00  0.0000000E+00  0.3499052E-02
    1       -7.772905   1.000000
    2        0.657298   1.000000
    3        2.262056   1.000000
    4        3.064741   1.000000
    5        6.230794   0.000000
    6        7.667362   0.000000
    7        7.833486   0.000000
    8        8.797102   0.000000
 
 -0.1052632E+00  0.1052632E+00  0.0000000E+00  0.1749526E-02
    1       -7.917392   1.000000
    2        1.275499   1.000000
    3        2.545521   1.000000
    4        3.153214   1.000000
    5        6.083223   0.000000
    6        7.461397   0.000000
    7        7.677353   0.000000
    8        8.476725   0.000000
 
  0.1578947E+00  0.1578947E+00  0.0000000E+00  0.8747631E-03
    1       -7.883578   1.000000
    2        1.361104   1.000000
    3        2.598741   1.000000
    4        2.598741   1.000000
    5        6.506467   0.000000
    6        6.655382   0.000000
    7        8.531673   0.000000
    8        8.531673   0.000000
 
  0.2105263E+00  0.1578947E+00  0.0000000E+00  0.3499052E-02
    1       -7.767785   1.000000
    2        0.887815   1.000000
    3        2.437017   1.000000
    4        2.441967   1.000000
    5        6.398220   0.000000
    6        6.847991   0.000000
    7        8.800876   0.000000
    8        8.834453   0.000000
 
  0.2631579E+00  0.1578947E+00  0.0000000E+00  0.3499052E-02
    1       -7.613785   1.000000
    2        0.312614   1.000000
    3        2.261221   1.000000
    4        2.297085   1.000000
    5        6.346132   0.000000
    6        7.054684   0.000000
    7        8.807953   0.000000
    8        9.056773   0.000000
 
  0.3157895E+00  0.1578947E+00  0.0000000E+00  0.3499052E-02
    1       -7.430912   1.000000
    2       -0.275708   1.000000
    3        2.046659   1.000000
    4        2.188917   1.000000
    5        6.274549   0.000000
    6        7.364900   0.000000
    7        8.719947   0.000000
    8        9.146706   0.000000
 
  0.3684211E+00  0.1578947E+00  0.0000000E+00  0.3499052E-02
    1       -7.233675   1.000000
    2       -0.824156   1.000000
    3        1.822869   1.000000
    4        2.118595   1.000000
    5        6.186610   0.000000
    6        7.667465   0.000000
    7        8.800783   0.000000
    8        9.110054   0.000000
 
  0.4210526E+00  0.1578947E+00  0.0000000E+00  0.3499052E-02
    1       -7.043414   1.000000
    2       -1.290205   1.000000
    3        1.613806   1.000000
    4        2.089273   1.000000
    5        6.113397   0.000000
    6        7.783720   0.000000
    7        8.997145   0.000000
    8        9.226553   0.000000
 
  0.4736842E+00  0.1578947E+00  0.0000000E+00  0.3499052E-02
    1       -6.888855   1.000000
    2       -1.632730   1.000000
    3        1.435904   1.000000
    4        2.101836   1.000000
    5        6.074001   0.000000
    6        7.784010   0.000000
    7        8.858939   0.000000
    8        9.891853   0.000000
 
 -0.4736842E+00  0.1578947E+00  0.0000000E+00  0.3499052E-02
    1       -6.801556   1.000000
    2       -1.813185   1.000000
    3        1.300023   1.000000
    4        2.155200   1.000000
    5        6.076429   0.000000
    6        7.778894   0.000000
    7        8.728274   0.000000
    8       10.611054   0.000000
 
 -0.4210526E+00  0.1578947E+00  0.0000000E+00  0.3499052E-02
    1       -6.803627   1.000000
    2       -1.806806   1.000000
    3        1.213967   1.000000
    4        2.246341   1.000000
    5        6.121492   0.000000
    6        7.807539   0.000000
    7        8.620666   0.000000
    8       11.061671   0.000000
 
 -0.3684211E+00  0.1578947E+00  0.0000000E+00  0.3499052E-02
    1       -6.894416   1.000000
    2       -1.615684   1.000000
    3        1.184526   1.000000
    4        2.370067   1.000000
    5        6.204855   0.000000
    6        7.879027   0.000000
    7        8.536922   0.000000
    8       10.759589   0.000000
 
 -0.3157895E+00  0.1578947E+00  0.0000000E+00  0.3499052E-02
    1       -7.051009   1.000000
    2       -1.269255   1.000000
    3        1.219263   1.000000
    4        2.518490   1.000000
    5        6.317199   0.000000
    6        7.983095   0.000000
    7        8.462023   0.000000
    8       10.096279   0.000000
 
 -0.2631579E+00  0.1578947E+00  0.0000000E+00  0.3499052E-02
    1       -7.241845   1.000000
    2       -0.813152   1.000000
    3        1.328770   1.000000
    4        2.680232   1.000000
    5        6.440922   0.000000
    6        8.070772   0.000000
    7        8.363500   0.000000
    8        9.438378   0.000000
 
 -0.2105263E+00  0.1578947E+00  0.0000000E+00  0.3499052E-02
    1       -7.438607   1.000000
    2       -0.301347   1.000000
    3        1.529312   1.000000
    4        2.839461   1.000000
    5        6.535915   0.000000
    6        7.999372   0.000000
    7        8.208234   0.000000
    8        9.019477   0.000000
 
 -0.1578947E+00  0.1578947E+00  0.0000000E+00  0.1749526E-02
    1       -7.620370   1.000000
    2        0.206156   1.000000
    3        1.840692   1.000000
    4        2.975496   1.000000
    5        6.501325   0.000000
    6        7.756349   0.000000
    7        8.009179   0.000000
    8        8.912873   0.000000
 
  0.2105263E+00  0.2105263E+00  0.0000000E+00  0.8747631E-03
    1       -7.668363   1.000000
    2        0.623909   1.000000
    3        2.263308   1.000000
    4        2.263308   1.000000
    5        6.115263   0.000000
    6        6.947077   0.000000
    7        9.215414   0.000000
    8        9.215415   0.000000
 
  0.2631579E+00  0.2105263E+00  0.0000000E+00  0.3499052E-02
    1       -7.530330   1.000000
    2        0.205465   1.000000
    3        2.082391   1.000000
    4        2.112766   1.000000
    5        6.006116   0.000000
    6        6.940456   0.000000
    7        9.301343   0.000000
    8        9.530649   0.000000
 
  0.3157895E+00  0.2105263E+00  0.0000000E+00  0.3499052E-02
    1       -7.361883   1.000000
    2       -0.272552   1.000000
    3        1.845937   1.000000
    4        1.995825   1.000000
    5        6.014452   0.000000
    6        7.022620   0.000000
    7        9.137098   0.000000
    8        9.709455   0.000000
 
  0.3684211E+00  0.2105263E+00  0.0000000E+00  0.3499052E-02
    1       -7.175713   1.000000
    2       -0.746449   1.000000
    3        1.571510   1.000000
    4        1.918914   1.000000
    5        6.011607   0.000000
    6        7.331157   0.000000
    7        8.974904   0.000000
    8        9.731450   0.000000
 
  0.4210526E+00  0.2105263E+00  0.0000000E+00  0.3499052E-02
    1       -6.990503   1.000000
    2       -1.169661   1.000000
    3        1.297499   1.000000
    4        1.885513   1.000000
    5        5.983850   0.000000
    6        7.810098   0.000000
    7        8.896321   0.000000
    8        9.640381   0.000000
 
  0.4736842E+00  0.2105263E+00  0.0000000E+00  0.3499052E-02
    1       -6.831658   1.000000
    2       -1.500165   1.000000
    3        1.053558   1.000000
    4        1.896802   1.000000
    5        5.974094   0.000000
    6        8.201135   0.000000
    7        9.094954   0.000000
    8        9.496389   0.000000
 
 -0.4736842E+00  0.2105263E+00  0.0000000E+00  0.3499052E-02
    1       -6.728423   1.000000
    2       -1.698919   1.000000
    3        0.858520   1.000000
    4        1.951963   1.000000
    5        6.006489   0.000000
    6        8.298534   0.000000
    7        9.341708   0.000000
    8        9.720137   0.000000
 
 -0.4210526E+00  0.2105263E+00  0.0000000E+00  0.3499052E-02
    1       -6.704661   1.000000
    2       -1.738205   1.000000
    3        0.725339   1.000000
    4        2.048168   1.000000
    5        6.088039   0.000000
    6        8.306926   0.000000
    7        9.196942   0.000000
    8       10.470821   0.000000
 
 -0.3684211E+00  0.2105263E+00  0.0000000E+00  0.3499052E-02
    1       -6.766301   1.000000
    2       -1.614774   1.000000
    3        0.665864   1.000000
    4        2.180268   1.000000
    5        6.215390   0.000000
    6        8.327470   0.000000
    7        9.063855   0.000000
    8       10.667108   0.000000
 
 -0.3157895E+00  0.2105263E+00  0.0000000E+00  0.3499052E-02
    1       -6.897759   1.000000
    2       -1.355717   1.000000
    3        0.695102   1.000000
    4        2.340147   1.000000
    5        6.375525   0.000000
    6        8.376749   0.000000
    7        8.924013   0.000000
    8       10.017135   0.000000
 
 -0.2631579E+00  0.2105263E+00  0.0000000E+00  0.3499052E-02
    1       -7.071262   1.000000
    2       -1.012077   1.000000
    3        0.834791   1.000000
    4        2.515737   1.000000
    5        6.539385   0.000000
    6        8.422147   0.000000
    7        8.739556   0.000000
    8        9.323491   0.000000
 
 -0.2105263E+00  0.2105263E+00  0.0000000E+00  0.1749526E-02
    1       -7.258937   1.000000
    2       -0.644934   1.000000
    3        1.110397   1.000000
    4        2.689828   1.000000
    5        6.639135   0.000000
    6        8.273243   0.000000
    7        8.486438   0.000000
    8        8.971067   0.000000
 
  0.2631579E+00  0.2631579E+00  0.0000000E+00  0.8747631E-03
    1       -7.409046   1.000000
    2       -0.069871   1.000000
    3        1.951154   1.000000
    4        1.951154   1.000000
    5        5.727312   0.000000
    6        6.753489   0.000000
    7        9.965532   0.000000
    8        9.965553   0.000000
 
  0.3157895E+00  0.2631579E+00  0.0000000E+00  0.3499052E-02
    1       -7.257201   1.000000
    2       -0.432754   1.000000
    3        1.761875   1.000000
    4        1.823525   1.000000
    5        5.644877   0.000000
    6        6.628622   0.000000
    7        9.979612   0.000000
    8       10.274716   0.000000
 
  0.3684211E+00  0.2631579E+00  0.0000000E+00  0.3499052E-02
    1       -7.086062   1.000000
    2       -0.812566   1.000000
    3        1.483007   1.000000
    4        1.736901   1.000000
    5        5.681224   0.000000
    6        6.707270   0.000000
    7        9.817618   0.000000
    8       10.399198   0.000000
 
  0.4210526E+00  0.2631579E+00  0.0000000E+00  0.3499052E-02
    1       -6.912150   1.000000
    2       -1.161608   1.000000
    3        1.157718   1.000000
    4        1.695232   1.000000
    5        5.707328   0.000000
    6        7.076328   0.000000
    7        9.658967   0.000000
    8       10.361268   0.000000
 
  0.4736842E+00  0.2631579E+00  0.0000000E+00  0.3499052E-02
    1       -6.757679   1.000000
    2       -1.442115   1.000000
    3        0.840397   1.000000
    4        1.700132   1.000000
    5        5.723767   0.000000
    6        7.667934   0.000000
    7        9.537919   0.000000
    8       10.229916   0.000000
 
 -0.4736842E+00  0.2631579E+00  0.0000000E+00  0.3499052E-02
    1       -6.648597   1.000000
    2       -1.620874   1.000000
    3        0.570218   1.000000
    4        1.751194   1.000000
    5        5.771976   0.000000
    6        8.349869   0.000000
    7        9.508734   0.000000
    8       10.060955   0.000000
 
 -0.4210526E+00  0.2631579E+00  0.0000000E+00  0.3499052E-02
    1       -6.607610   1.000000
    2       -1.674629   1.000000
    3        0.373923   1.000000
    4        1.846005   1.000000
    5        5.869826   0.000000
    6        8.858228   0.000000
    7        9.773221   0.000000
    8        9.881078   0.000000
 
 -0.3684211E+00  0.2631579E+00  0.0000000E+00  0.3499052E-02
    1       -6.644066   1.000000
    2       -1.602388   1.000000
    3        0.274858   1.000000
    4        1.979816   1.000000
    5        6.018687   0.000000
    6        9.004810   0.000000
    7        9.689028   0.000000
    8       10.325209   0.000000
 
 -0.3157895E+00  0.2631579E+00  0.0000000E+00  0.3499052E-02
    1       -6.748808   1.000000
    2       -1.434019   1.000000
    3        0.300736   1.000000
    4        2.144876   1.000000
    5        6.207772   0.000000
    6        9.039694   0.000000
    7        9.453837   0.000000
    8        9.973806   0.000000
 
 -0.2631579E+00  0.2631579E+00  0.0000000E+00  0.1749526E-02
    1       -6.899647   1.000000
    2       -1.222273   1.000000
    3        0.482807   1.000000
    4        2.329316   1.000000
    5        6.407222   0.000000
    6        8.940227   0.000000
    7        9.132236   0.000000
    8        9.370347   0.000000
 
  0.3157895E+00  0.3157895E+00  0.0000000E+00  0.8747631E-03
    1       -7.123433   1.000000
    2       -0.702033   1.000000
    3        1.684425   1.000000
    4        1.684425   1.000000
    5        5.392054   0.000000
    6        6.345711   0.000000
    7       10.753983   0.000000
    8       10.754092   0.000000
 
  0.3684211E+00  0.3157895E+00  0.0000000E+00  0.3499052E-02
    1       -6.970865   1.000000
    2       -1.003597   1.000000
    3        1.499239   1.000000
    4        1.586353   1.000000
    5        5.340833   0.000000
    6        6.232156   0.000000
    7       10.787719   0.000000
    8       11.044537   0.000000
 
  0.4210526E+00  0.3157895E+00  0.0000000E+00  0.3499052E-02
    1       -6.814285   1.000000
    2       -1.282210   1.000000
    3        1.196272   1.000000
    4        1.533856   1.000000
    5        5.400502   0.000000
    6        6.381029   0.000000
    7       10.639933   0.000000
    8       11.112392   0.000000
 
  0.4736842E+00  0.3157895E+00  0.0000000E+00  0.3499052E-02
    1       -6.673120   1.000000
    2       -1.500848   1.000000
    3        0.840731   1.000000
    4        1.529049   1.000000
    5        5.455071   0.000000
    6        6.836671   0.000000
    7       10.487635   0.000000
    8       11.022146   0.000000
 
 -0.4736842E+00  0.3157895E+00  0.0000000E+00  0.3499052E-02
    1       -6.569573   1.000000
    2       -1.633736   1.000000
    3        0.501808   1.000000
    4        1.572000   1.000000
    5        5.519384   0.000000
    6        7.508984   0.000000
    7       10.360967   0.000000
    8       10.849282   0.000000
 
 -0.4210526E+00  0.3157895E+00  0.0000000E+00  0.3499052E-02
    1       -6.523083   1.000000
    2       -1.669063   1.000000
    3        0.232502   1.000000
    4        1.660801   1.000000
    5        5.625875   0.000000
    6        8.297278   0.000000
    7       10.283693   0.000000
    8       10.628401   0.000000
 
 -0.3684211E+00  0.3157895E+00  0.0000000E+00  0.3499052E-02
    1       -6.542834   1.000000
    2       -1.619077   1.000000
    3        0.079254   1.000000
    4        1.791286   1.000000
    5        5.783705   0.000000
    6        9.074506   0.000000
    7       10.301172   0.000000
    8       10.346918   0.000000
 
 -0.3157895E+00  0.3157895E+00  0.0000000E+00  0.1749526E-02
    1       -6.623588   1.000000
    2       -1.525179   1.000000
    3        0.090658   1.000000
    4        1.956354   1.000000
    5        5.986258   0.000000
    6        9.478046   0.000000
    7        9.956983   0.000000
    8       10.158420   0.000000
 
  0.3684211E+00  0.3684211E+00  0.0000000E+00  0.8747631E-03
    1       -6.839723   1.000000
    2       -1.245401   1.000000
    3        1.476076   1.000000
    4        1.476077   1.000000
    5        5.123435   0.000000
    6        5.963009   0.000000
    7       11.555677   0.000000
    8       11.555786   0.000000
 
  0.4210526E+00  0.3684211E+00  0.0000000E+00  0.3499052E-02
    1       -6.706146   1.000000
    2       -1.472277   1.000000
    3        1.305440   1.000000
    4        1.411324   1.000000
    5        5.107908   0.000000
    6        5.910597   0.000000
    7       11.626899   0.000000
    8       11.813717   0.000000
 
  0.4736842E+00  0.3684211E+00  0.0000000E+00  0.3499052E-02
    1       -6.587198   1.000000
    2       -1.641894   1.000000
    3        0.999276   1.000000
    4        1.394768   1.000000
    5        5.197422   0.000000
    6        6.147219   0.000000
    7       11.496119   0.000000
    8       11.817603   0.000000
 