   2   2   0   0
  0.1676207E+02  0.3619297E-09  0.3619297E-09  0.3619297E-09  0.0000000E+00
  1.000000000000000E-004
  CAR 
 unknown system                          
     14.72456820    -10.75366196  301      4.11394693      1.00000000
    -10.754  0.0000E+00  0.0000E+00
    -10.669  0.0000E+00  0.0000E+00
    -10.584  0.0000E+00  0.0000E+00
    -10.499  0.0000E+00  0.0000E+00
    -10.414  0.0000E+00  0.0000E+00
    -10.329  0.0000E+00  0.0000E+00
    -10.244  0.0000E+00  0.0000E+00
    -10.159  0.0000E+00  0.0000E+00
    -10.074  0.0000E+00  0.0000E+00
     -9.989  0.0000E+00  0.0000E+00
     -9.904  0.0000E+00  0.0000E+00
     -9.819  0.0000E+00  0.0000E+00
     -9.735  0.0000E+00  0.0000E+00
     -9.650  0.0000E+00  0.0000E+00
     -9.565  0.5452E-01  0.7397E-03
     -9.480  0.1063E+00  0.7714E-02
     -9.395  0.1471E+00  0.1867E-01
     -9.310  0.1792E+00  0.3244E-01
     -9.225  0.2044E+00  0.4878E-01
     -9.140  0.2319E+00  0.6727E-01
     -9.055  0.2529E+00  0.8787E-01
     -8.970  0.2764E+00  0.1103E+00
     -8.885  0.2980E+00  0.1348E+00
     -8.800  0.3188E+00  0.1610E+00
     -8.715  0.3414E+00  0.1890E+00
     -8.630  0.3614E+00  0.2188E+00
     -8.546  0.3827E+00  0.2504E+00
     -8.461  0.4055E+00  0.2839E+00
     -8.376  0.4272E+00  0.3192E+00
     -8.291  0.4505E+00  0.3565E+00
     -8.206  0.4753E+00  0.3958E+00
     -8.121  0.5013E+00  0.4372E+00
     -8.036  0.5294E+00  0.4810E+00
     -7.951  0.5598E+00  0.5272E+00
     -7.866  0.5939E+00  0.5762E+00
     -7.781  0.6333E+00  0.6282E+00
     -7.696  0.6791E+00  0.6839E+00
     -7.611  0.7337E+00  0.7438E+00
     -7.526  0.8109E+00  0.8092E+00
     -7.441  0.9431E+00  0.8830E+00
     -7.357  0.1058E+01  0.9721E+00
     -7.272  0.1045E+01  0.1061E+01
     -7.187  0.1032E+01  0.1149E+01
     -7.102  0.1010E+01  0.1236E+01
     -7.017  0.9990E+00  0.1321E+01
     -6.932  0.9913E+00  0.1406E+01
     -6.847  0.9794E+00  0.1489E+01
     -6.762  0.9870E+00  0.1573E+01
     -6.677  0.9900E+00  0.1657E+01
     -6.592  0.1025E+01  0.1742E+01
     -6.507  0.1096E+01  0.1831E+01
     -6.422  0.1613E+01  0.1937E+01
     -6.337  0.4134E-01  0.2000E+01
     -6.253  0.0000E+00  0.2000E+01
     -6.168  0.0000E+00  0.2000E+01
     -6.083  0.0000E+00  0.2000E+01
     -5.998  0.0000E+00  0.2000E+01
     -5.913  0.0000E+00  0.2000E+01
     -5.828  0.0000E+00  0.2000E+01
     -5.743  0.0000E+00  0.2000E+01
     -5.658  0.0000E+00  0.2000E+01
     -5.573  0.0000E+00  0.2000E+01
     -5.488  0.0000E+00  0.2000E+01
     -5.403  0.0000E+00  0.2000E+01
     -5.318  0.0000E+00  0.2000E+01
     -5.233  0.0000E+00  0.2000E+01
     -5.148  0.0000E+00  0.2000E+01
     -5.064  0.0000E+00  0.2000E+01
     -4.979  0.0000E+00  0.2000E+01
     -4.894  0.0000E+00  0.2000E+01
     -4.809  0.0000E+00  0.2000E+01
     -4.724  0.0000E+00  0.2000E+01
     -4.639  0.0000E+00  0.2000E+01
     -4.554  0.0000E+00  0.2000E+01
     -4.469  0.0000E+00  0.2000E+01
     -4.384  0.0000E+00  0.2000E+01
     -4.299  0.0000E+00  0.2000E+01
     -4.214  0.0000E+00  0.2000E+01
     -4.129  0.0000E+00  0.2000E+01
     -4.044  0.0000E+00  0.2000E+01
     -3.959  0.0000E+00  0.2000E+01
     -3.875  0.0000E+00  0.2000E+01
     -3.790  0.0000E+00  0.2000E+01
     -3.705  0.0000E+00  0.2000E+01
     -3.620  0.0000E+00  0.2000E+01
     -3.535  0.0000E+00  0.2000E+01
     -3.450  0.0000E+00  0.2000E+01
     -3.365  0.6957E-01  0.2001E+01
     -3.280  0.4807E+00  0.2025E+01
     -3.195  0.9014E+00  0.2084E+01
     -3.110  0.1493E+01  0.2181E+01
     -3.025  0.2252E+01  0.2342E+01
     -2.940  0.1975E+01  0.2570E+01
     -2.855  0.1361E+01  0.2708E+01
     -2.770  0.1071E+01  0.2809E+01
     -2.686  0.9157E+00  0.2893E+01
     -2.601  0.7907E+00  0.2966E+01
     -2.516  0.7060E+00  0.3029E+01
     -2.431  0.6453E+00  0.3086E+01
     -2.346  0.5852E+00  0.3139E+01
     -2.261  0.5337E+00  0.3186E+01
     -2.176  0.5009E+00  0.3230E+01
     -2.091  0.4684E+00  0.3271E+01
     -2.006  0.4367E+00  0.3309E+01
     -1.921  0.4037E+00  0.3345E+01
     -1.836  0.3842E+00  0.3378E+01
     -1.751  0.3650E+00  0.3410E+01
     -1.666  0.3456E+00  0.3440E+01
     -1.581  0.3244E+00  0.3469E+01
     -1.497  0.3044E+00  0.3495E+01
     -1.412  0.2922E+00  0.3521E+01
     -1.327  0.2798E+00  0.3545E+01
     -1.242  0.2664E+00  0.3568E+01
     -1.157  0.2529E+00  0.3590E+01
     -1.072  0.2372E+00  0.3611E+01
     -0.987  0.2271E+00  0.3631E+01
     -0.902  0.2185E+00  0.3650E+01
     -0.817  0.2097E+00  0.3668E+01
     -0.732  0.2032E+00  0.3685E+01
     -0.647  0.5629E+00  0.3719E+01
     -0.562  0.7149E+00  0.3773E+01
     -0.477  0.9992E+00  0.3845E+01
     -0.393  0.1184E+01  0.3942E+01
     -0.308  0.1121E+01  0.4040E+01
     -0.223  0.1022E+01  0.4131E+01
     -0.138  0.9876E+00  0.4216E+01
     -0.053  0.9443E+00  0.4298E+01
      0.032  0.9173E+00  0.4377E+01
      0.117  0.9282E+00  0.4455E+01
      0.202  0.9733E+00  0.4536E+01
      0.287  0.9786E+00  0.4620E+01
      0.372  0.1020E+01  0.4704E+01
      0.457  0.1084E+01  0.4791E+01
      0.542  0.1088E+01  0.4882E+01
      0.627  0.1131E+01  0.4977E+01
      0.712  0.1246E+01  0.5077E+01
      0.796  0.1408E+01  0.5189E+01
      0.881  0.1438E+01  0.5312E+01
      0.966  0.1410E+01  0.5433E+01
      1.051  0.1390E+01  0.5552E+01
      1.136  0.1367E+01  0.5670E+01
      1.221  0.1349E+01  0.5785E+01
      1.306  0.1338E+01  0.5899E+01
      1.391  0.1315E+01  0.6012E+01
      1.476  0.1296E+01  0.6122E+01
      1.561  0.1281E+01  0.6232E+01
      1.646  0.1257E+01  0.6340E+01
      1.731  0.1245E+01  0.6446E+01
      1.816  0.1230E+01  0.6551E+01
      1.901  0.1206E+01  0.6654E+01
      1.985  0.1189E+01  0.6756E+01
      2.070  0.1176E+01  0.6857E+01
      2.155  0.1163E+01  0.6956E+01
      2.240  0.1150E+01  0.7054E+01
      2.325  0.1135E+01  0.7151E+01
      2.410  0.1131E+01  0.7247E+01
      2.495  0.1109E+01  0.7342E+01
      2.580  0.1052E+01  0.7435E+01
      2.665  0.8149E+00  0.7513E+01
      2.750  0.7099E+00  0.7577E+01
      2.835  0.6329E+00  0.7634E+01
      2.920  0.5617E+00  0.7685E+01
      3.005  0.5083E+00  0.7730E+01
      3.090  0.4592E+00  0.7772E+01
      3.174  0.4121E+00  0.7808E+01
      3.259  0.3677E+00  0.7842E+01
      3.344  0.3286E+00  0.7871E+01
      3.429  0.2909E+00  0.7897E+01
      3.514  0.2586E+00  0.7921E+01
      3.599  0.2215E+00  0.7941E+01
      3.684  0.1877E+00  0.7958E+01
      3.769  0.1625E+00  0.7973E+01
      3.854  0.1258E+00  0.7986E+01
      3.939  0.7792E-01  0.7995E+01
      4.024  0.2598E-01  0.8000E+01
      4.109  0.0000E+00  0.8000E+01
      4.194  0.0000E+00  0.8000E+01
      4.278  0.0000E+00  0.8000E+01
      4.363  0.0000E+00  0.8000E+01
      4.448  0.0000E+00  0.8000E+01
      4.533  0.0000E+00  0.8000E+01
      4.618  0.0000E+00  0.8000E+01
      4.703  0.0000E+00  0.8000E+01
      4.788  0.0000E+00  0.8000E+01
      4.873  0.0000E+00  0.8000E+01
      4.958  0.0000E+00  0.8000E+01
      5.043  0.0000E+00  0.8000E+01
      5.128  0.0000E+00  0.8000E+01
      5.213  0.0000E+00  0.8000E+01
      5.298  0.0000E+00  0.8000E+01
      5.383  0.0000E+00  0.8000E+01
      5.467  0.1889E-01  0.8000E+01
      5.552  0.1154E+00  0.8006E+01
      5.637  0.1745E+00  0.8018E+01
      5.722  0.2513E+00  0.8036E+01
      5.807  0.3748E+00  0.8063E+01
      5.892  0.4977E+00  0.8100E+01
      5.977  0.5684E+00  0.8145E+01
      6.062  0.6510E+00  0.8197E+01
      6.147  0.7380E+00  0.8256E+01
      6.232  0.8360E+00  0.8323E+01
      6.317  0.9472E+00  0.8398E+01
      6.402  0.1071E+01  0.8484E+01
      6.487  0.1210E+01  0.8581E+01
      6.572  0.1424E+01  0.8692E+01
      6.656  0.1785E+01  0.8826E+01
      6.741  0.2226E+01  0.9007E+01
      6.826  0.1676E+01  0.9178E+01
      6.911  0.1511E+01  0.9312E+01
      6.996  0.1440E+01  0.9437E+01
      7.081  0.1332E+01  0.9554E+01
      7.166  0.1346E+01  0.9668E+01
      7.251  0.1109E+01  0.9771E+01
      7.336  0.1022E+01  0.9861E+01
      7.421  0.9909E+00  0.9946E+01
      7.506  0.9583E+00  0.1003E+02
      7.591  0.9221E+00  0.1011E+02
      7.676  0.9352E+00  0.1019E+02
      7.761  0.9115E+00  0.1026E+02
      7.845  0.9903E+00  0.1034E+02
      7.930  0.1059E+01  0.1043E+02
      8.015  0.1187E+01  0.1053E+02
      8.100  0.1406E+01  0.1064E+02
      8.185  0.1159E+01  0.1075E+02
      8.270  0.1189E+01  0.1085E+02
      8.355  0.1395E+01  0.1096E+02
      8.440  0.2035E+01  0.1110E+02
      8.525  0.2247E+01  0.1129E+02
      8.610  0.1459E+01  0.1143E+02
      8.695  0.1409E+01  0.1156E+02
      8.780  0.1368E+01  0.1168E+02
      8.865  0.1513E+01  0.1180E+02
      8.950  0.1217E+01  0.1191E+02
      9.034  0.1157E+01  0.1201E+02
      9.119  0.1101E+01  0.1211E+02
      9.204  0.1058E+01  0.1220E+02
      9.289  0.1007E+01  0.1229E+02
      9.374  0.9743E+00  0.1237E+02
      9.459  0.9786E+00  0.1245E+02
      9.544  0.1070E+01  0.1254E+02
      9.629  0.1221E+01  0.1264E+02
      9.714  0.1430E+01  0.1275E+02
      9.799  0.1528E+01  0.1288E+02
      9.884  0.1513E+01  0.1301E+02
      9.969  0.1434E+01  0.1313E+02
     10.054  0.1424E+01  0.1325E+02
     10.138  0.1398E+01  0.1338E+02
     10.223  0.1310E+01  0.1349E+02
     10.308  0.1283E+01  0.1360E+02
     10.393  0.1192E+01  0.1371E+02
     10.478  0.1140E+01  0.1381E+02
     10.563  0.1194E+01  0.1391E+02
     10.648  0.8689E+00  0.1400E+02
     10.733  0.8505E+00  0.1407E+02
     10.818  0.8518E+00  0.1414E+02
     10.903  0.8302E+00  0.1422E+02
     10.988  0.8211E+00  0.1429E+02
     11.073  0.8235E+00  0.1435E+02
     11.158  0.8463E+00  0.1443E+02
     11.243  0.9161E+00  0.1450E+02
     11.327  0.9665E+00  0.1458E+02
     11.412  0.1020E+01  0.1466E+02
     11.497  0.1123E+01  0.1476E+02
     11.582  0.1291E+01  0.1486E+02
     11.667  0.1690E+01  0.1498E+02
     11.752  0.1648E+01  0.1513E+02
     11.837  0.1205E+01  0.1524E+02
     11.922  0.9886E+00  0.1533E+02
     12.007  0.9445E+00  0.1542E+02
     12.092  0.8746E+00  0.1549E+02
     12.177  0.7956E+00  0.1556E+02
     12.262  0.7406E+00  0.1563E+02
     12.347  0.7387E+00  0.1570E+02
     12.432  0.4139E+00  0.1575E+02
     12.516  0.3853E+00  0.1578E+02
     12.601  0.3563E+00  0.1581E+02
     12.686  0.3259E+00  0.1584E+02
     12.771  0.2935E+00  0.1587E+02
     12.856  0.2647E+00  0.1589E+02
     12.941  0.2400E+00  0.1591E+02
     13.026  0.2192E+00  0.1593E+02
     13.111  0.1961E+00  0.1595E+02
     13.196  0.1641E+00  0.1597E+02
     13.281  0.1300E+00  0.1598E+02
     13.366  0.1018E+00  0.1599E+02
     13.451  0.8438E-01  0.1600E+02
     13.536  0.6588E-02  0.1600E+02
     13.621  0.0000E+00  0.1600E+02
     13.705  0.0000E+00  0.1600E+02
     13.790  0.0000E+00  0.1600E+02
     13.875  0.0000E+00  0.1600E+02
     13.960  0.0000E+00  0.1600E+02
     14.045  0.0000E+00  0.1600E+02
     14.130  0.0000E+00  0.1600E+02
     14.215  0.0000E+00  0.1600E+02
     14.300  0.0000E+00  0.1600E+02
     14.385  0.0000E+00  0.1600E+02
     14.470  0.0000E+00  0.1600E+02
     14.555  0.0000E+00  0.1600E+02
     14.640  0.0000E+00  0.1600E+02
     14.725  0.0000E+00  0.1600E+02
