    2    2    1    1
  0.1676207E+02  0.3619297E-09  0.3619297E-09  0.3619297E-09  0.0000000E+00
  1.000000000000000E-004
  CAR 
 unknown system                          
      8    328      8
 
  0.0000000E+00  0.0000000E+00  0.0000000E+00  0.9391435E-04
    1       -9.595561   1.000000
    2        4.075078   1.000000
    3        4.075078   1.000000
    4        4.075079   1.000000
    5        6.343790   0.000000
    6        7.109504   0.000000
    7        7.109504   0.000000
    8        7.109504   0.000000
 
  0.4545455E-01  0.0000000E+00  0.0000000E+00  0.7513148E-03
    1       -9.567755   1.000000
    2        3.705692   1.000000
    3        4.021109   1.000000
    4        4.021109   1.000000
    5        6.489202   0.000000
    6        7.181277   0.000000
    7        7.181277   0.000000
    8        7.276451   0.000000
 
  0.9090909E-01  0.0000000E+00  0.0000000E+00  0.7513148E-03
    1       -9.484648   1.000000
    2        2.914675   1.000000
    3        3.876874   1.000000
    4        3.876874   1.000000
    5        6.542895   0.000000
    6        7.374711   0.000000
    7        7.374711   0.000000
    8        7.852815   0.000000
 
  0.1363636E+00  0.0000000E+00  0.0000000E+00  0.7513148E-03
    1       -9.347524   1.000000
    2        1.999845   1.000000
    3        3.679561   1.000000
    4        3.679562   1.000000
    5        6.452990   0.000000
    6        7.639727   0.000000
    7        7.639727   0.000000
    8        8.617976   0.000000
 
  0.1818182E+00  0.0000000E+00  0.0000000E+00  0.7513148E-03
    1       -9.158665   1.000000
    2        1.063140   1.000000
    3        3.463317   1.000000
    4        3.463317   1.000000
    5        6.316031   0.000000
    6        7.922102   0.000000
    7        7.922102   0.000000
    8        9.405650   0.000000
 
  0.2272727E+00  0.0000000E+00  0.0000000E+00  0.7513148E-03
    1       -8.922041   1.000000
    2        0.146596   1.000000
    3        3.251608   1.000000
    4        3.251608   1.000000
    5        6.169163   0.000000
    6        8.175491   0.000000
    7        8.175491   0.000000
    8       10.165873   0.000000
 
  0.2727273E+00  0.0000000E+00  0.0000000E+00  0.7513148E-03
    1       -8.644196   1.000000
    2       -0.724445   1.000000
    3        3.058967   1.000000
    4        3.058967   1.000000
    5        6.030164   0.000000
    6        8.368605   0.000000
    7        8.368605   0.000000
    8       10.872062   0.000000
 
  0.3181818E+00  0.0000000E+00  0.0000000E+00  0.7513148E-03
    1       -8.336195   1.000000
    2       -1.528004   1.000000
    3        2.894107   1.000000
    4        2.894107   1.000000
    5        5.908792   0.000000
    6        8.491309   0.000000
    7        8.491309   0.000000
    8       11.486567   0.000000
 
  0.3636364E+00  0.0000000E+00  0.0000000E+00  0.7513148E-03
    1       -8.017135   1.000000
    2       -2.238127   1.000000
    3        2.762201   1.000000
    4        2.762202   1.000000
    5        5.810688   0.000000
    6        8.553696   0.000000
    7        8.553696   0.000000
    8       11.952694   0.000000
 
  0.4090909E+00  0.0000000E+00  0.0000000E+00  0.7513148E-03
    1       -7.719934   1.000000
    2       -2.817364   1.000000
    3        2.666329   1.000000
    4        2.666329   1.000000
    5        5.739018   0.000000
    6        8.576726   0.000000
    7        8.576726   0.000000
    8       12.232705   0.000000
 
  0.4545455E+00  0.0000000E+00  0.0000000E+00  0.7513148E-03
    1       -7.497228   1.000000
    2       -3.210373   1.000000
    3        2.608223   1.000000
    4        2.608223   1.000000
    5        5.695484   0.000000
    6        8.581164   0.000000
    7        8.581164   0.000000
    8       12.358745   0.000000
 
  0.5000000E+00  0.0000000E+00  0.0000000E+00  0.3756574E-03
    1       -7.412305   1.000000
    2       -3.352191   1.000000
    3        2.588785   1.000000
    4        2.588786   1.000000
    5        5.680900   0.000000
    6        8.581054   0.000000
    7        8.581054   0.000000
    8       12.392154   0.000000
 
  0.4545455E-01  0.4545455E-01  0.0000000E+00  0.5634861E-03
    1       -9.558468   1.000000
    2        3.751590   1.000000
    3        3.914213   1.000000
    4        3.914213   1.000000
    5        6.584801   0.000000
    6        7.082759   0.000000
    7        7.311021   0.000000
    8        7.311022   0.000000
 
  0.9090909E-01  0.4545455E-01  0.0000000E+00  0.2253944E-02
    1       -9.493750   1.000000
    2        3.131442   1.000000
    3        3.732910   1.000000
    4        3.843430   1.000000
    5        6.695876   0.000000
    6        7.134966   0.000000
    7        7.548139   0.000000
    8        7.734918   0.000000
 
  0.1363636E+00  0.4545455E-01  0.0000000E+00  0.2253944E-02
    1       -9.374568   1.000000
    2        2.271784   1.000000
    3        3.515250   1.000000
    4        3.712640   1.000000
    5        6.661800   0.000000
    6        7.288403   0.000000
    7        7.842688   0.000000
    8        8.437199   0.000000
 
  0.1818182E+00  0.4545455E-01  0.0000000E+00  0.2253944E-02
    1       -9.202794   1.000000
    2        1.354995   1.000000
    3        3.291469   1.000000
    4        3.521342   1.000000
    5        6.549927   0.000000
    6        7.536185   0.000000
    7        8.144784   0.000000
    8        9.185042   0.000000
 
  0.2272727E+00  0.4545455E-01  0.0000000E+00  0.2253944E-02
    1       -8.981802   1.000000
    2        0.440536   1.000000
    3        3.081435   1.000000
    4        3.305247   1.000000
    5        6.410673   0.000000
    6        7.811436   0.000000
    7        8.410812   0.000000
    8        9.905551   0.000000
 
  0.2727273E+00  0.4545455E-01  0.0000000E+00  0.2253944E-02
    1       -8.717092   1.000000
    2       -0.439968   1.000000
    3        2.897342   1.000000
    4        3.089479   1.000000
    5        6.270539   0.000000
    6        8.057367   0.000000
    7        8.608902   0.000000
    8       10.576125   0.000000
 
  0.3181818E+00  0.4545455E-01  0.0000000E+00  0.2253944E-02
    1       -8.417974   1.000000
    2       -1.262846   1.000000
    3        2.746464   1.000000
    4        2.889525   1.000000
    5        6.143309   0.000000
    6        8.242670   0.000000
    7        8.726260   0.000000
    8       11.182666   0.000000
 
  0.3636364E+00  0.4545455E-01  0.0000000E+00  0.2253944E-02
    1       -8.100307   1.000000
    2       -2.003377   1.000000
    3        2.633009   1.000000
    4        2.714759   1.000000
    5        6.036693   0.000000
    6        8.364161   0.000000
    7        8.771102   0.000000
    8       11.697966   0.000000
 
  0.4090909E+00  0.4545455E-01  0.0000000E+00  0.2253944E-02
    1       -7.791631   1.000000
    2       -2.628413   1.000000
    3        2.559215   1.000000
    4        2.571024   1.000000
    5        5.955055   0.000000
    6        8.438756   0.000000
    7        8.764852   0.000000
    8       12.078391   0.000000
 
  0.4545455E+00  0.4545455E-01  0.0000000E+00  0.2253944E-02
    1       -7.537661   1.000000
    2       -3.088672   1.000000
    3        2.462125   1.000000
    4        2.525971   1.000000
    5        5.900782   0.000000
    6        8.489039   0.000000
    7        8.730787   0.000000
    8       12.301388   0.000000
 
  0.5000000E+00  0.4545455E-01  0.0000000E+00  0.2253944E-02
    1       -7.400953   1.000000
    2       -3.319497   1.000000
    3        2.390591   1.000000
    4        2.533251   1.000000
    5        5.875097   0.000000
    6        8.532637   0.000000
    7        8.686356   0.000000
    8       12.392652   0.000000
 
 -0.4545455E+00  0.4545455E-01  0.0000000E+00  0.2253944E-02
    1       -7.429714   1.000000
    2       -3.271802   1.000000
    3        2.358262   1.000000
    4        2.580325   1.000000
    5        5.878485   0.000000
    6        8.577996   0.000000
    7        8.640076   0.000000
    8       12.382818   0.000000
 
 -0.4090909E+00  0.4545455E-01  0.0000000E+00  0.2253944E-02
    1       -7.612729   1.000000
    2       -2.956948   1.000000
    3        2.366316   1.000000
    4        2.665781   1.000000
    5        5.910839   0.000000
    6        8.590804   0.000000
    7        8.623179   0.000000
    8       12.264540   0.000000
 
 -0.3636364E+00  0.4545455E-01  0.0000000E+00  0.2253944E-02
    1       -7.891362   1.000000
    2       -2.434934   1.000000
    3        2.415354   1.000000
    4        2.787511   1.000000
    5        5.971463   0.000000
    6        8.528152   0.000000
    7        8.655775   0.000000
    8       11.998709   0.000000
 
 -0.3181818E+00  0.4545455E-01  0.0000000E+00  0.2253944E-02
    1       -8.207081   1.000000
    2       -1.766826   1.000000
    3        2.505330   1.000000
    4        2.942425   1.000000
    5        6.058792   0.000000
    6        8.434560   0.000000
    7        8.653517   0.000000
    8       11.567771   0.000000
 
 -0.2727273E+00  0.4545455E-01  0.0000000E+00  0.2253944E-02
    1       -8.520912   1.000000
    2       -0.995933   1.000000
    3        2.635302   1.000000
    4        3.125920   1.000000
    5        6.169945   0.000000
    6        8.291254   0.000000
    7        8.588234   0.000000
    8       11.008579   0.000000
 
 -0.2272727E+00  0.4545455E-01  0.0000000E+00  0.2253944E-02
    1       -8.809882   1.000000
    2       -0.151958   1.000000
    3        2.803055   1.000000
    4        3.330902   1.000000
    5        6.299655   0.000000
    6        8.088757   0.000000
    7        8.436327   0.000000
    8       10.371545   0.000000
 
 -0.1818182E+00  0.4545455E-01  0.0000000E+00  0.2253944E-02
    1       -9.060800   1.000000
    2        0.740812   1.000000
    3        3.004574   1.000000
    4        3.546065   1.000000
    5        6.438597   0.000000
    6        7.837358   0.000000
    7        8.193929   0.000000
    8        9.686789   0.000000
 
 -0.1363636E+00  0.4545455E-01  0.0000000E+00  0.2253944E-02
    1       -9.265832   1.000000
    2        1.655266   1.000000
    3        3.233520   1.000000
    4        3.753305   1.000000
    5        6.569387   0.000000
    6        7.569823   0.000000
    7        7.885399   0.000000
    8        8.971420   0.000000
 
 -0.9090909E-01  0.4545455E-01  0.0000000E+00  0.2253944E-02
    1       -9.420332   1.000000
    2        2.546488   1.000000
    3        3.482172   1.000000
    4        3.924763   1.000000
    5        6.655555   0.000000
    6        7.335850   0.000000
    7        7.562267   0.000000
    8        8.257286   0.000000
 
 -0.4545455E-01  0.4545455E-01  0.0000000E+00  0.1126972E-02
    1       -9.521485   1.000000
    2        3.303670   1.000000
    3        3.755354   1.000000
    4        4.024155   1.000000
    5        6.619759   0.000000
    6        7.191753   0.000000
    7        7.313254   0.000000
    8        7.633509   0.000000
 
  0.9090909E-01  0.9090909E-01  0.0000000E+00  0.5634861E-03
    1       -9.447510   1.000000
    2        3.048242   1.000000
    3        3.527067   1.000000
    4        3.527067   1.000000
    5        6.698310   0.000000
    6        7.351021   0.000000
    7        7.819267   0.000000
    8        7.819267   0.000000
 
  0.1363636E+00  0.9090909E-01  0.0000000E+00  0.2253944E-02
    1       -9.346574   1.000000
    2        2.410029   1.000000
    3        3.295475   1.000000
    4        3.393394   1.000000
    5        6.677887   0.000000
    6        7.430829   0.000000
    7        8.141126   0.000000
    8        8.361983   0.000000
 
  0.1818182E+00  0.9090909E-01  0.0000000E+00  0.2253944E-02
    1       -9.192497   1.000000
    2        1.575455   1.000000
    3        3.065268   1.000000
    4        3.245023   1.000000
    5        6.741890   0.000000
    6        7.429607   0.000000
    7        8.467680   0.000000
    8        9.036923   0.000000
 
  0.2272727E+00  0.9090909E-01  0.0000000E+00  0.2253944E-02
    1       -8.988130   1.000000
    2        0.699871   1.000000
    3        2.854299   1.000000
    4        3.041868   1.000000
    5        6.760995   0.000000
    6        7.543120   0.000000
    7        8.756850   0.000000
    8        9.656766   0.000000
 
  0.2727273E+00  0.9090909E-01  0.0000000E+00  0.2253944E-02
    1       -8.738135   1.000000
    2       -0.165261   1.000000
    3        2.673673   1.000000
    4        2.814042   1.000000
    5        6.691293   0.000000
    6        7.766968   0.000000
    7        8.974808   0.000000
    8       10.194299   0.000000
 
  0.3181818E+00  0.9090909E-01  0.0000000E+00  0.2253944E-02
    1       -8.450381   1.000000
    2       -0.989119   1.000000
    3        2.530161   1.000000
    4        2.586536   1.000000
    5        6.586774   0.000000
    6        7.997919   0.000000
    7        9.104110   0.000000
    8       10.681096   0.000000
 
  0.3636364E+00  0.9090909E-01  0.0000000E+00  0.2253944E-02
    1       -8.138102   1.000000
    2       -1.745070   1.000000
    3        2.375145   1.000000
    4        2.427664   1.000000
    5        6.483355   0.000000
    6        8.176292   0.000000
    7        9.148584   0.000000
    8       11.159806   0.000000
 
  0.4090909E+00  0.9090909E-01  0.0000000E+00  0.2253944E-02
    1       -7.824256   1.000000
    2       -2.401958   1.000000
    3        2.189667   1.000000
    4        2.368202   1.000000
    5        6.396611   0.000000
    6        8.296775   0.000000
    7        9.128219   0.000000
    8       11.629204   0.000000
 
  0.4545455E+00  0.9090909E-01  0.0000000E+00  0.2253944E-02
    1       -7.547713   1.000000
    2       -2.915675   1.000000
    3        2.036476   1.000000
    4        2.352390   1.000000
    5        6.333615   0.000000
    6        8.381317   0.000000
    7        9.067796   0.000000
    8       12.032992   0.000000
 
  0.5000000E+00  0.9090909E-01  0.0000000E+00  0.2253944E-02
    1       -7.366548   1.000000
    2       -3.225086   1.000000
    3        1.920024   1.000000
    4        2.379790   1.000000
    5        6.297662   0.000000
    6        8.454103   0.000000
    7        8.987735   0.000000
    8       12.297894   0.000000
 
 -0.4545455E+00  0.9090909E-01  0.0000000E+00  0.2253944E-02
    1       -7.338627   1.000000
    2       -3.270762   1.000000
    3        1.843612   1.000000
    4        2.449064   1.000000
    5        6.290042   0.000000
    6        8.530183   0.000000
    7        8.899880   0.000000
    8       12.381472   0.000000
 
 -0.4090909E+00  0.9090909E-01  0.0000000E+00  0.2253944E-02
    1       -7.474754   1.000000
    2       -3.041790   1.000000
    3        1.809796   1.000000
    4        2.557977   1.000000
    5        6.310776   0.000000
    6        8.612983   0.000000
    7        8.806422   0.000000
    8       12.270634   0.000000
 
 -0.3636364E+00  0.9090909E-01  0.0000000E+00  0.2253944E-02
    1       -7.727166   1.000000
    2       -2.587171   1.000000
    3        1.820621   1.000000
    4        2.703268   1.000000
    5        6.358885   0.000000
    6        8.693683   0.000000
    7        8.700282   0.000000
    8       11.967610   0.000000
 
 -0.3181818E+00  0.9090909E-01  0.0000000E+00  0.2253944E-02
    1       -8.033985   1.000000
    2       -1.971744   1.000000
    3        1.877759   1.000000
    4        2.880410   1.000000
    5        6.432221   0.000000
    6        8.567220   0.000000
    7        8.749518   0.000000
    8       11.514469   0.000000
 
 -0.2727273E+00  0.9090909E-01  0.0000000E+00  0.2253944E-02
    1       -8.349864   1.000000
    2       -1.246128   1.000000
    3        1.982725   1.000000
    4        3.082885   1.000000
    5        6.526892   0.000000
    6        8.391572   0.000000
    7        8.742481   0.000000
    8       10.987402   0.000000
 
 -0.2272727E+00  0.9090909E-01  0.0000000E+00  0.2253944E-02
    1       -8.647423   1.000000
    2       -0.446900   1.000000
    3        2.137459   1.000000
    4        3.301125   1.000000
    5        6.635680   0.000000
    6        8.166769   0.000000
    7        8.626801   0.000000
    8       10.452579   0.000000
 
 -0.1818182E+00  0.9090909E-01  0.0000000E+00  0.2253944E-02
    1       -8.910824   1.000000
    2        0.393247   1.000000
    3        2.346129   1.000000
    4        3.520563   1.000000
    5        6.744584   0.000000
    6        7.906032   0.000000
    7        8.380656   0.000000
    8        9.932378   0.000000
 
 -0.1363636E+00  0.9090909E-01  0.0000000E+00  0.2253944E-02
    1       -9.130773   1.000000
    2        1.230644   1.000000
    3        2.620875   1.000000
    4        3.719071   1.000000
    5        6.823514   0.000000
    6        7.645414   0.000000
    7        8.048176   0.000000
    8        9.400078   0.000000
 
 -0.9090909E-01  0.9090909E-01  0.0000000E+00  0.1126972E-02
    1       -9.301726   1.000000
    2        1.984666   1.000000
    3        2.994553   1.000000
    4        3.865424   1.000000
    5        6.808691   0.000000
    6        7.437235   0.000000
    7        7.742815   0.000000
    8        8.829020   0.000000
 
  0.1363636E+00  0.1363636E+00  0.0000000E+00  0.5634861E-03
    1       -9.263927   1.000000
    2        2.221557   1.000000
    3        3.054630   1.000000
    4        3.054630   1.000000
    5        6.469256   0.000000
    6        7.862062   0.000000
    7        8.490492   0.000000
    8        8.490492   0.000000
 
  0.1818182E+00  0.1363636E+00  0.0000000E+00  0.2253944E-02
    1       -9.127898   1.000000
    2        1.623935   1.000000
    3        2.818437   1.000000
    4        2.867386   1.000000
    5        6.428314   0.000000
    6        7.910780   0.000000
    7        8.847224   0.000000
    8        8.998171   0.000000
 
  0.2272727E+00  0.1363636E+00  0.0000000E+00  0.2253944E-02
    1       -8.940858   1.000000
    2        0.858529   1.000000
    3        2.603994   1.000000
    4        2.673715   1.000000
    5        6.535942   0.000000
    6        7.866830   0.000000
    7        9.169842   0.000000
    8        9.505878   0.000000
 
  0.2727273E+00  0.1363636E+00  0.0000000E+00  0.2253944E-02
    1       -8.706816   1.000000
    2        0.052239   1.000000
    3        2.422214   1.000000
    4        2.438223   1.000000
    5        6.677981   0.000000
    6        7.889855   0.000000
    7        9.422070   0.000000
    8        9.878750   0.000000
 
  0.3181818E+00  0.1363636E+00  0.0000000E+00  0.2253944E-02
    1       -8.432460   1.000000
    2       -0.742327   1.000000
    3        2.185293   1.000000
    4        2.279875   1.000000
    5        6.748275   0.000000
    6        8.024125   0.000000
    7        9.580645   0.000000
    8       10.171050   0.000000
 
  0.3636364E+00  0.1363636E+00  0.0000000E+00  0.2253944E-02
    1       -8.128942   1.000000
    2       -1.490675   1.000000
    3        1.938019   1.000000
    4        2.180995   1.000000
    5        6.739231   0.000000
    6        8.208298   0.000000
    7        9.642962   0.000000
    8       10.497384   0.000000
 
  0.4090909E+00  0.1363636E+00  0.0000000E+00  0.2253944E-02
    1       -7.815440   1.000000
    2       -2.159965   1.000000
    3        1.711583   1.000000
    4        2.127704   1.000000
    5        6.698179   0.000000
    6        8.359767   0.000000
    7        9.625507   0.000000
    8       10.925653   0.000000
 
  0.4545455E+00  0.1363636E+00  0.0000000E+00  0.2253944E-02
    1       -7.524670   1.000000
    2       -2.709012   1.000000
    3        1.515664   1.000000
    4        2.120694   1.000000
    5        6.659224   0.000000
    6        8.461562   0.000000
    7        9.553361   0.000000
    8       11.430713   0.000000
 
  0.5000000E+00  0.1363636E+00  0.0000000E+00  0.2253944E-02
    1       -7.308293   1.000000
    2       -3.081121   1.000000
    3        1.356835   1.000000
    4        2.159479   1.000000
    5        6.638354   0.000000
    6        8.537772   0.000000
    7        9.449392   0.000000
    8       11.913619   0.000000
 
 -0.4545455E+00  0.1363636E+00  0.0000000E+00  0.2253944E-02
    1       -7.227376   1.000000
    2       -3.212508   1.000000
    3        1.239997   1.000000
    4        2.242509   1.000000
    5        6.641723   0.000000
    6        8.613329   0.000000
    7        9.328401   0.000000
    8       12.225935   0.000000
 
 -0.4090909E+00  0.1363636E+00  0.0000000E+00  0.2253944E-02
    1       -7.311930   1.000000
    2       -3.072620   1.000000
    3        1.169139   1.000000
    4        2.367110   1.000000
    5        6.670436   0.000000
    6        8.700968   0.000000
    7        9.195430   0.000000
    8       12.227747   0.000000
 
 -0.3636364E+00  0.1363636E+00  0.0000000E+00  0.2253944E-02
    1       -7.530527   1.000000
    2       -2.694290   1.000000
    3        1.147985   1.000000
    4        2.529337   1.000000
    5        6.722685   0.000000
    6        8.799867   0.000000
    7        9.046063   0.000000
    8       11.915119   0.000000
 
 -0.3181818E+00  0.1363636E+00  0.0000000E+00  0.2253944E-02
    1       -7.822027   1.000000
    2       -2.142875   1.000000
    3        1.180621   1.000000
    4        2.723518   1.000000
    5        6.794350   0.000000
    6        8.868840   0.000000
    7        8.892820   0.000000
    8       11.416529   0.000000
 
 -0.2727273E+00  0.1363636E+00  0.0000000E+00  0.2253944E-02
    1       -8.135322   1.000000
    2       -1.477855   1.000000
    3        1.272784   1.000000
    4        2.941489   1.000000
    5        6.878241   0.000000
    6        8.651513   0.000000
    7        8.937803   0.000000
    8       10.873018   0.000000
 
 -0.2272727E+00  0.1363636E+00  0.0000000E+00  0.2253944E-02
    1       -8.438162   1.000000
    2       -0.747898   1.000000
    3        1.434828   1.000000
    4        3.171415   1.000000
    5        6.961291   0.000000
    6        8.391983   0.000000
    7        8.861354   0.000000
    8       10.401970   0.000000
 
 -0.1818182E+00  0.1363636E+00  0.0000000E+00  0.2253944E-02
    1       -8.711631   1.000000
    2       -0.004838   1.000000
    3        1.688490   1.000000
    4        3.395787   1.000000
    5        7.017092   0.000000
    6        8.108600   0.000000
    7        8.614564   0.000000
    8       10.060131   0.000000
 
 -0.1363636E+00  0.1363636E+00  0.0000000E+00  0.1126972E-02
    1       -8.944711   1.000000
    2        0.678807   1.000000
    3        2.074965   1.000000
    4        3.589300   1.000000
    5        6.992074   0.000000
    6        7.841808   0.000000
    7        8.291586   0.000000
    8        9.764210   0.000000
 
  0.1818182E+00  0.1818182E+00  0.0000000E+00  0.5634861E-03
    1       -9.009957   1.000000
    2        1.357262   1.000000
    3        2.576466   1.000000
    4        2.576466   1.000000
    5        6.190090   0.000000
    6        8.170331   0.000000
    7        9.240787   0.000000
    8        9.240787   0.000000
 
  0.2272727E+00  0.1818182E+00  0.0000000E+00  0.2253944E-02
    1       -8.840666   1.000000
    2        0.807234   1.000000
    3        2.356666   1.000000
    4        2.357043   1.000000
    5        6.155479   0.000000
    6        8.151701   0.000000
    7        9.607019   0.000000
    8        9.638082   0.000000
 
  0.2727273E+00  0.1818182E+00  0.0000000E+00  0.2253944E-02
    1       -8.623515   1.000000
    2        0.128671   1.000000
    3        2.109598   1.000000
    4        2.170263   1.000000
    5        6.285238   0.000000
    6        8.108234   0.000000
    7        9.903658   0.000000
    8        9.907141   0.000000
 
  0.3181818E+00  0.1818182E+00  0.0000000E+00  0.2253944E-02
    1       -8.364231   1.000000
    2       -0.587324   1.000000
    3        1.827219   1.000000
    4        2.024396   1.000000
    5        6.464870   0.000000
    6        8.164943   0.000000
    7       10.022551   0.000000
    8       10.111785   0.000000
 
  0.3636364E+00  0.1818182E+00  0.0000000E+00  0.2253944E-02
    1       -8.072355   1.000000
    2       -1.290638   1.000000
    3        1.537098   1.000000
    4        1.923391   1.000000
    5        6.589299   0.000000
    6        8.362412   0.000000
    7       10.112320   0.000000
    8       10.210232   0.000000
 
  0.4090909E+00  0.1818182E+00  0.0000000E+00  0.2253944E-02
    1       -7.764043   1.000000
    2       -1.942234   1.000000
    3        1.262168   1.000000
    4        1.869675   1.000000
    5        6.640657   0.000000
    6        8.621900   0.000000
    7       10.213217   0.000000
    8       10.307064   0.000000
 
  0.4545455E+00  0.1818182E+00  0.0000000E+00  0.2253944E-02
    1       -7.466835   1.000000
    2       -2.500524   1.000000
    3        1.017144   1.000000
    4        1.864146   1.000000
    5        6.659216   0.000000
    6        8.818020   0.000000
    7       10.144423   0.000000
    8       10.695828   0.000000
 
  0.5000000E+00  0.1818182E+00  0.0000000E+00  0.2253944E-02
    1       -7.225495   1.000000
    2       -2.912107   1.000000
    3        0.811485   1.000000
    4        1.906474   1.000000
    5        6.679957   0.000000
    6        8.925420   0.000000
    7       10.028493   0.000000
    8       11.238373   0.000000
 
 -0.4545455E+00  0.1818182E+00  0.0000000E+00  0.2253944E-02
    1       -7.099254   1.000000
    2       -3.113004   1.000000
    3        0.651953   1.000000
    4        1.995156   1.000000
    5        6.719693   0.000000
    6        8.992085   0.000000
    7        9.882940   0.000000
    8       11.778516   0.000000
 
 -0.4090909E+00  0.1818182E+00  0.0000000E+00  0.2253944E-02
    1       -7.131504   1.000000
    2       -3.058423   1.000000
    3        0.544279   1.000000
    4        2.127423   1.000000
    5        6.783124   0.000000
    6        9.057235   0.000000
    7        9.715200   0.000000
    8       12.053815   0.000000
 
 -0.3636364E+00  0.1818182E+00  0.0000000E+00  0.2253944E-02
    1       -7.309837   1.000000
    2       -2.762887   1.000000
    3        0.494537   1.000000
    4        2.299014   1.000000
    5        6.867633   0.000000
    6        9.137712   0.000000
    7        9.522783   0.000000
    8       11.844865   0.000000
 
 -0.3181818E+00  0.1818182E+00  0.0000000E+00  0.2253944E-02
    1       -7.578976   1.000000
    2       -2.288699   1.000000
    3        0.510936   1.000000
    4        2.503649   1.000000
    5        6.965226   0.000000
    6        9.230895   0.000000
    7        9.296352   0.000000
    8       11.322086   0.000000
 
 -0.2727273E+00  0.1818182E+00  0.0000000E+00  0.2253944E-02
    1       -7.884025   1.000000
    2       -1.706249   1.000000
    3        0.607297   1.000000
    4        2.732196   1.000000
    5        7.062063   0.000000
    6        9.027271   0.000000
    7        9.303582   0.000000
    8       10.733985   0.000000
 
 -0.2272727E+00  0.1818182E+00  0.0000000E+00  0.2253944E-02
    1       -8.187772   1.000000
    2       -1.083796   1.000000
    3        0.809546   1.000000
    4        2.971278   1.000000
    5        7.134598   0.000000
    6        8.719352   0.000000
    7        9.247915   0.000000
    8       10.281803   0.000000
 
 -0.1818182E+00  0.1818182E+00  0.0000000E+00  0.1126972E-02
    1       -8.468016   1.000000
    2       -0.496166   1.000000
    3        1.160161   1.000000
    4        3.201533   1.000000
    5        7.140636   0.000000
    6        8.397974   0.000000
    7        8.955874   0.000000
    8       10.113118   0.000000
 
  0.2272727E+00  0.2272727E+00  0.0000000E+00  0.5634861E-03
    1       -8.689241   1.000000
    2        0.486927   1.000000
    3        2.130392   1.000000
    4        2.130392   1.000000
    5        5.924314   0.000000
    6        8.117767   0.000000
    7       10.026556   0.000000
    8       10.026556   0.000000
 
  0.2727273E+00  0.2272727E+00  0.0000000E+00  0.2253944E-02
    1       -8.489605   1.000000
    2       -0.019255   1.000000
    3        1.897985   1.000000
    4        1.937096   1.000000
    5        5.909197   0.000000
    6        7.992445   0.000000
    7       10.339435   0.000000
    8       10.387463   0.000000
 
  0.3181818E+00  0.2272727E+00  0.0000000E+00  0.2253944E-02
    1       -8.246770   1.000000
    2       -0.609484   1.000000
    3        1.603797   1.000000
    4        1.784480   1.000000
    5        6.060353   0.000000
    6        7.937905   0.000000
    7       10.452732   0.000000
    8       10.654456   0.000000
 
  0.3636364E+00  0.2272727E+00  0.0000000E+00  0.2253944E-02
    1       -7.969057   1.000000
    2       -1.222292   1.000000
    3        1.270474   1.000000
    4        1.677347   1.000000
    5        6.253107   0.000000
    6        8.055989   0.000000
    7       10.443563   0.000000
    8       10.807547   0.000000
 
  0.4090909E+00  0.2272727E+00  0.0000000E+00  0.2253944E-02
    1       -7.670309   1.000000
    2       -1.814686   1.000000
    3        0.936307   1.000000
    4        1.618461   1.000000
    5        6.386007   0.000000
    6        8.389029   0.000000
    7       10.412740   0.000000
    8       10.849069   0.000000
 
  0.4545455E+00  0.2272727E+00  0.0000000E+00  0.2253944E-02
    1       -7.373946   1.000000
    2       -2.344804   1.000000
    3        0.628564   1.000000
    4        1.609045   1.000000
    5        6.457451   0.000000
    6        8.856044   0.000000
    7       10.449739   0.000000
    8       10.799032   0.000000
 
  0.5000000E+00  0.2272727E+00  0.0000000E+00  0.2253944E-02
    1       -7.118385   1.000000
    2       -2.762065   1.000000
    3        0.363707   1.000000
    4        1.649004   1.000000
    5        6.512072   0.000000
    6        9.275421   0.000000
    7       10.674977   0.000000
    8       10.682698   0.000000
 