 running on   48 total cores
 distrk:  each k-point on   12 cores,    4 groups
 distr:  one band on   12 cores,    1 groups
 using from now: INCAR     
 vasp.5.4.4.18Apr17-6-g9f103f2a35 (build Nov 04 2020 14:40:39) complex          
  
 POSCAR found type information on POSCAR  B  As
 POSCAR found :  2 types and       2 ions
 scaLAPACK will be used

 ----------------------------------------------------------------------------- 
|                                                                             |
|           W    W    AA    RRRRR   N    N  II  N    N   GGGG   !!!           |
|           W    W   A  A   R    R  NN   N  II  NN   N  G    G  !!!           |
|           W    W  A    A  R    R  N N  N  II  N N  N  G       !!!           |
|           W WW W  AAAAAA  RRRRR   N  N N  II  N  N N  G  GGG   !            |
|           WW  WW  A    A  R   R   N   NN  II  N   NN  G    G                |
|           W    W  A    A  R    R  N    N  II  N    N   GGGG   !!!           |
|                                                                             |
|      You have enabled k-point parallelism (KPAR>1).                         |
|      This developmental code was originally  written by Paul Kent at ORNL,  |
|      and carefully double checked in Vienna.                                |
|      GW as well as linear response parallelism added by Martijn Marsman     |
|      and Georg Kresse.                                                      |
|      Carefully verify results versus KPAR=1.                                |
|      Report problems to Paul Kent and Vienna.                               |
|                                                                             |
 ----------------------------------------------------------------------------- 

 LDA part: xc-table for Pade appr. of Perdew
 POSCAR found type information on POSCAR  B  As
 POSCAR found :  2 types and       2 ions
 generate k-points for:   22   22   22
 POSCAR, INCAR and KPOINTS ok, starting setup
 FFT: planning ...
 WAVECAR not read
 entering main loop
       N       E                     dE             d eps       ncg     rms          rms(c)
DAV:   1     0.918222624243E+01    0.91822E+01   -0.37197E+03  5248   0.845E+02
DAV:   2    -0.110501942538E+02   -0.20232E+02   -0.19724E+02  8352   0.975E+01
DAV:   3    -0.113726358411E+02   -0.32244E+00   -0.32244E+00  6168   0.143E+01
DAV:   4    -0.113731779142E+02   -0.54207E-03   -0.54207E-03  7784   0.625E-01
DAV:   5    -0.113731781771E+02   -0.26298E-06   -0.26298E-06  6040   0.103E-02    0.306E+00
RMM:   6    -0.110725150941E+02    0.30066E+00   -0.34636E-01  5298   0.356E+00    0.141E+00
RMM:   7    -0.110478217174E+02    0.24693E-01   -0.41709E-02  5629   0.132E+00    0.696E-01
RMM:   8    -0.110442464560E+02    0.35753E-02   -0.16256E-02  5486   0.100E+00    0.790E-02
RMM:   9    -0.110447654065E+02   -0.51895E-03   -0.16962E-03  5743   0.277E-01    0.664E-02
RMM:  10    -0.110445526332E+02    0.21277E-03   -0.15361E-04  5672   0.831E-02    0.186E-02
RMM:  11    -0.110445546459E+02   -0.20127E-05   -0.10076E-04  5646   0.596E-02    0.122E-02
RMM:  12    -0.110445457036E+02    0.89423E-05   -0.85262E-06  5619   0.197E-02    0.108E-03
RMM:  13    -0.110445457163E+02   -0.12674E-07   -0.27737E-07  3867   0.384E-03
   1 F= -.11044546E+02 E0= -.11044546E+02  d E =0.000000E+00
