unknown system                          
           1
     0.000000    2.559229    2.559229
     2.559229    0.000000    2.559229
     2.559229    2.559229    0.000000
   B    As
   1   1
Direct configuration=     1
   0.75000000  0.75000000  0.75000000
   0.00000000  0.00000000  0.00000000
