   2   2   0   0
  0.2354465E+02  0.4053334E-09  0.4053334E-09  0.4053334E-09  0.1000000E-15
  1.000000000000000E-004
  CAR 
 unknown system                          
     14.70893596     -9.14795369  301      3.97395689      1.00000000
     -9.148  0.0000E+00  0.0000E+00
     -9.068  0.0000E+00  0.0000E+00
     -8.989  0.0000E+00  0.0000E+00
     -8.909  0.0000E+00  0.0000E+00
     -8.830  0.0000E+00  0.0000E+00
     -8.750  0.0000E+00  0.0000E+00
     -8.671  0.0000E+00  0.0000E+00
     -8.591  0.5005E-17  0.3980E-18
     -8.512  0.1526E-13  0.1214E-14
     -8.432  0.1446E-10  0.1151E-11
     -8.353  0.4381E-08  0.3496E-09
     -8.273  0.4371E-06  0.3511E-07
     -8.194  0.1482E-04  0.1214E-05
     -8.114  0.1811E-03  0.1562E-04
     -8.035  0.9051E-03  0.8760E-04
     -7.955  0.2251E-02  0.2666E-03
     -7.876  0.3573E-02  0.5507E-03
     -7.796  0.4697E-02  0.9242E-03
     -7.717  0.5503E-02  0.1362E-02
     -7.637  0.6541E-02  0.1882E-02
     -7.557  0.7271E-02  0.2460E-02
     -7.478  0.7983E-02  0.3095E-02
     -7.398  0.9391E-02  0.3842E-02
     -7.319  0.9693E-02  0.4613E-02
     -7.239  0.1093E-01  0.5481E-02
     -7.160  0.1260E-01  0.6483E-02
     -7.080  0.1307E-01  0.7523E-02
     -7.001  0.1484E-01  0.8703E-02
     -6.921  0.1754E-01  0.1010E-01
     -6.842  0.1906E-01  0.1161E-01
     -6.762  0.2359E-01  0.1349E-01
     -6.683  0.2865E-01  0.1577E-01
     -6.603  0.3075E-01  0.1821E-01
     -6.524  0.3255E-01  0.2080E-01
     -6.444  0.3280E-01  0.2341E-01
     -6.365  0.3423E-01  0.2613E-01
     -6.285  0.3592E-01  0.2899E-01
     -6.206  0.3239E-01  0.3156E-01
     -6.126  0.1760E-01  0.3296E-01
     -6.047  0.4251E-02  0.3330E-01
     -5.967  0.3844E-03  0.3333E-01
     -5.888  0.1187E-04  0.3333E-01
     -5.808  0.1189E-06  0.3333E-01
     -5.728  0.3745E-09  0.3333E-01
     -5.649  0.3635E-12  0.3333E-01
     -5.569  0.1073E-15  0.3333E-01
     -5.490  0.0000E+00  0.3333E-01
     -5.410  0.0000E+00  0.3333E-01
     -5.331  0.0000E+00  0.3333E-01
     -5.251  0.0000E+00  0.3333E-01
     -5.172  0.0000E+00  0.3333E-01
     -5.092  0.0000E+00  0.3333E-01
     -5.013  0.0000E+00  0.3333E-01
     -4.933  0.0000E+00  0.3333E-01
     -4.854  0.0000E+00  0.3333E-01
     -4.774  0.0000E+00  0.3333E-01
     -4.695  0.0000E+00  0.3333E-01
     -4.615  0.0000E+00  0.3333E-01
     -4.536  0.0000E+00  0.3333E-01
     -4.456  0.0000E+00  0.3333E-01
     -4.377  0.0000E+00  0.3333E-01
     -4.297  0.0000E+00  0.3333E-01
     -4.218  0.0000E+00  0.3333E-01
     -4.138  0.0000E+00  0.3333E-01
     -4.058  0.0000E+00  0.3333E-01
     -3.979  0.0000E+00  0.3333E-01
     -3.899  0.0000E+00  0.3333E-01
     -3.820  0.0000E+00  0.3333E-01
     -3.740  0.0000E+00  0.3333E-01
     -3.661  0.0000E+00  0.3333E-01
     -3.581  0.0000E+00  0.3333E-01
     -3.502  0.0000E+00  0.3333E-01
     -3.422  0.0000E+00  0.3333E-01
     -3.343  0.0000E+00  0.3333E-01
     -3.263  0.0000E+00  0.3333E-01
     -3.184  0.0000E+00  0.3333E-01
     -3.104  0.0000E+00  0.3333E-01
     -3.025  0.0000E+00  0.3333E-01
     -2.945  0.0000E+00  0.3333E-01
     -2.866  0.0000E+00  0.3333E-01
     -2.786  0.0000E+00  0.3333E-01
     -2.707  0.0000E+00  0.3333E-01
     -2.627  0.0000E+00  0.3333E-01
     -2.548  0.0000E+00  0.3333E-01
     -2.468  0.0000E+00  0.3333E-01
     -2.389  0.5454E-18  0.3333E-01
     -2.309  0.2608E-14  0.3333E-01
     -2.229  0.3567E-11  0.3333E-01
     -2.150  0.1501E-08  0.3333E-01
     -2.070  0.2047E-06  0.3333E-01
     -1.991  0.9726E-05  0.3333E-01
     -1.911  0.1749E-03  0.3335E-01
     -1.832  0.1307E-02  0.3345E-01
     -1.752  0.4723E-02  0.3383E-01
     -1.673  0.1074E-01  0.3468E-01
     -1.593  0.1951E-01  0.3623E-01
     -1.514  0.3214E-01  0.3879E-01
     -1.434  0.4739E-01  0.4256E-01
     -1.355  0.4985E-01  0.4652E-01
     -1.275  0.3631E-01  0.4941E-01
     -1.196  0.2382E-01  0.5130E-01
     -1.116  0.1856E-01  0.5278E-01
     -1.037  0.1514E-01  0.5398E-01
     -0.957  0.1282E-01  0.5500E-01
     -0.878  0.1147E-01  0.5592E-01
     -0.798  0.1026E-01  0.5673E-01
     -0.719  0.8854E-02  0.5744E-01
     -0.639  0.7647E-02  0.5804E-01
     -0.559  0.8815E-02  0.5874E-01
     -0.480  0.7570E-02  0.5935E-01
     -0.400  0.4855E-02  0.5973E-01
     -0.321  0.5904E-02  0.6020E-01
     -0.241  0.6065E-02  0.6068E-01
     -0.162  0.4553E-02  0.6105E-01
     -0.082  0.5800E-02  0.6151E-01
     -0.003  0.5600E-02  0.6195E-01
      0.077  0.3285E-02  0.6221E-01
      0.156  0.2842E-02  0.6244E-01
      0.236  0.6447E-02  0.6295E-01
      0.315  0.1182E-01  0.6389E-01
      0.395  0.1727E-01  0.6527E-01
      0.474  0.2035E-01  0.6688E-01
      0.554  0.2081E-01  0.6854E-01
      0.633  0.2045E-01  0.7017E-01
      0.713  0.2067E-01  0.7181E-01
      0.792  0.1882E-01  0.7331E-01
      0.872  0.1633E-01  0.7460E-01
      0.951  0.1730E-01  0.7598E-01
      1.031  0.2283E-01  0.7780E-01
      1.111  0.2342E-01  0.7966E-01
      1.190  0.2056E-01  0.8129E-01
      1.270  0.1777E-01  0.8271E-01
      1.349  0.1976E-01  0.8428E-01
      1.429  0.2800E-01  0.8650E-01
      1.508  0.3275E-01  0.8911E-01
      1.588  0.2938E-01  0.9144E-01
      1.667  0.2600E-01  0.9351E-01
      1.747  0.2910E-01  0.9583E-01
      1.826  0.3388E-01  0.9852E-01
      1.906  0.2986E-01  0.1009E+00
      1.985  0.2435E-01  0.1028E+00
      2.065  0.2695E-01  0.1050E+00
      2.144  0.3188E-01  0.1075E+00
      2.224  0.2963E-01  0.1099E+00
      2.303  0.2566E-01  0.1119E+00
      2.383  0.2452E-01  0.1139E+00
      2.462  0.2687E-01  0.1160E+00
      2.542  0.2847E-01  0.1183E+00
      2.621  0.2752E-01  0.1204E+00
      2.701  0.2546E-01  0.1225E+00
      2.780  0.2413E-01  0.1244E+00
      2.860  0.2054E-01  0.1260E+00
      2.940  0.1799E-01  0.1275E+00
      3.019  0.1543E-01  0.1287E+00
      3.099  0.1319E-01  0.1297E+00
      3.178  0.1132E-01  0.1306E+00
      3.258  0.9737E-02  0.1314E+00
      3.337  0.8995E-02  0.1321E+00
      3.417  0.6698E-02  0.1327E+00
      3.496  0.4519E-02  0.1330E+00
      3.576  0.2765E-02  0.1332E+00
      3.655  0.1089E-02  0.1333E+00
      3.735  0.1958E-03  0.1333E+00
      3.814  0.1306E-04  0.1333E+00
      3.894  0.2961E-06  0.1333E+00
      3.973  0.2198E-08  0.1333E+00
      4.053  0.5210E-11  0.1333E+00
      4.132  0.3844E-14  0.1333E+00
      4.212  0.7499E-18  0.1333E+00
      4.291  0.0000E+00  0.1333E+00
      4.371  0.0000E+00  0.1333E+00
      4.450  0.0000E+00  0.1333E+00
      4.530  0.1193E-17  0.1333E+00
      4.610  0.4595E-14  0.1333E+00
      4.689  0.5142E-11  0.1333E+00
      4.769  0.1686E-08  0.1333E+00
      4.848  0.1655E-06  0.1333E+00
      4.928  0.5088E-05  0.1333E+00
      5.007  0.5477E-04  0.1333E+00
      5.087  0.2684E-03  0.1334E+00
      5.166  0.8025E-03  0.1334E+00
      5.246  0.1429E-02  0.1335E+00
      5.325  0.1991E-02  0.1337E+00
      5.405  0.3287E-02  0.1340E+00
      5.484  0.3673E-02  0.1342E+00
      5.564  0.3411E-02  0.1345E+00
      5.643  0.5684E-02  0.1350E+00
      5.723  0.7819E-02  0.1356E+00
      5.802  0.8205E-02  0.1362E+00
      5.882  0.1014E-01  0.1371E+00
      5.961  0.1171E-01  0.1380E+00
      6.041  0.1336E-01  0.1390E+00
      6.120  0.1781E-01  0.1405E+00
      6.200  0.1858E-01  0.1419E+00
      6.280  0.1662E-01  0.1433E+00
      6.359  0.1900E-01  0.1448E+00
      6.439  0.2678E-01  0.1469E+00
      6.518  0.3125E-01  0.1494E+00
      6.598  0.2929E-01  0.1517E+00
      6.677  0.2881E-01  0.1540E+00
      6.757  0.2942E-01  0.1563E+00
      6.836  0.2817E-01  0.1586E+00
      6.916  0.2761E-01  0.1608E+00
      6.995  0.2248E-01  0.1626E+00
      7.075  0.1817E-01  0.1640E+00
      7.154  0.2180E-01  0.1657E+00
      7.234  0.2279E-01  0.1676E+00
      7.313  0.1475E-01  0.1687E+00
      7.393  0.1045E-01  0.1696E+00
      7.472  0.1423E-01  0.1707E+00
      7.552  0.2052E-01  0.1723E+00
      7.631  0.2244E-01  0.1741E+00
      7.711  0.1695E-01  0.1755E+00
      7.790  0.1322E-01  0.1765E+00
      7.870  0.1717E-01  0.1779E+00
      7.949  0.3116E-01  0.1804E+00
      8.029  0.4161E-01  0.1837E+00
      8.109  0.3550E-01  0.1865E+00
      8.188  0.2477E-01  0.1885E+00
      8.268  0.2104E-01  0.1901E+00
      8.347  0.2530E-01  0.1921E+00
      8.427  0.3054E-01  0.1946E+00
      8.506  0.3119E-01  0.1971E+00
      8.586  0.2818E-01  0.1993E+00
      8.665  0.2543E-01  0.2013E+00
      8.745  0.2545E-01  0.2033E+00
      8.824  0.2136E-01  0.2050E+00
      8.904  0.1759E-01  0.2064E+00
      8.983  0.1838E-01  0.2079E+00
      9.063  0.2040E-01  0.2095E+00
      9.142  0.2685E-01  0.2117E+00
      9.222  0.3726E-01  0.2146E+00
      9.301  0.4075E-01  0.2179E+00
      9.381  0.3323E-01  0.2205E+00
      9.460  0.2463E-01  0.2225E+00
      9.540  0.1851E-01  0.2239E+00
      9.619  0.1380E-01  0.2250E+00
      9.699  0.1560E-01  0.2263E+00
      9.779  0.1825E-01  0.2277E+00
      9.858  0.2009E-01  0.2293E+00
      9.938  0.2525E-01  0.2313E+00
     10.017  0.2483E-01  0.2333E+00
     10.097  0.1938E-01  0.2348E+00
     10.176  0.1661E-01  0.2362E+00
     10.256  0.1612E-01  0.2374E+00
     10.335  0.1815E-01  0.2389E+00
     10.415  0.1959E-01  0.2404E+00
     10.494  0.1885E-01  0.2419E+00
     10.574  0.1976E-01  0.2435E+00
     10.653  0.1899E-01  0.2450E+00
     10.733  0.1419E-01  0.2462E+00
     10.812  0.1221E-01  0.2471E+00
     10.892  0.1042E-01  0.2480E+00
     10.971  0.8985E-02  0.2487E+00
     11.051  0.1315E-01  0.2497E+00
     11.130  0.1681E-01  0.2510E+00
     11.210  0.2043E-01  0.2527E+00
     11.289  0.2518E-01  0.2547E+00
     11.369  0.2461E-01  0.2566E+00
     11.448  0.1805E-01  0.2581E+00
     11.528  0.1202E-01  0.2590E+00
     11.608  0.9346E-02  0.2598E+00
     11.687  0.6869E-02  0.2603E+00
     11.767  0.5655E-02  0.2608E+00
     11.846  0.3261E-02  0.2610E+00
     11.926  0.2253E-02  0.2612E+00
     12.005  0.3892E-02  0.2615E+00
     12.085  0.5334E-02  0.2619E+00
     12.164  0.7086E-02  0.2625E+00
     12.244  0.8794E-02  0.2632E+00
     12.323  0.8633E-02  0.2639E+00
     12.403  0.6947E-02  0.2644E+00
     12.482  0.4442E-02  0.2648E+00
     12.562  0.1740E-02  0.2649E+00
     12.641  0.3604E-03  0.2650E+00
     12.721  0.3312E-03  0.2650E+00
     12.800  0.1234E-02  0.2651E+00
     12.880  0.2363E-02  0.2653E+00
     12.959  0.3072E-02  0.2655E+00
     13.039  0.3151E-02  0.2658E+00
     13.118  0.2808E-02  0.2660E+00
     13.198  0.2849E-02  0.2662E+00
     13.278  0.2484E-02  0.2664E+00
     13.357  0.1386E-02  0.2665E+00
     13.437  0.7343E-03  0.2666E+00
     13.516  0.4127E-03  0.2666E+00
     13.596  0.2531E-03  0.2666E+00
     13.675  0.2646E-03  0.2667E+00
     13.755  0.1255E-03  0.2667E+00
     13.834  0.1923E-04  0.2667E+00
     13.914  0.9152E-06  0.2667E+00
     13.993  0.1319E-07  0.2667E+00
     14.073  0.5651E-10  0.2667E+00
     14.152  0.7091E-13  0.2667E+00
     14.232  0.2584E-16  0.2667E+00
     14.311  0.0000E+00  0.2667E+00
     14.391  0.0000E+00  0.2667E+00
     14.470  0.0000E+00  0.2667E+00
     14.550  0.0000E+00  0.2667E+00
     14.629  0.0000E+00  0.2667E+00
     14.709  0.0000E+00  0.2667E+00
