    2    2   60    1
  0.2354465E+02  0.4053334E-09  0.4053334E-09  0.4053334E-09  0.1000000E-15
  1.000000000000000E-004
  CAR 
 unknown system                          
      8    145      8
 
  0.0000000E+00  0.0000000E+00  0.0000000E+00  0.2441406E-03
    1       -8.063550   1.000000
    2        3.578848   1.000000
    3        3.578848   1.000000
    4        3.578848   1.000000
    5        5.367541   0.000000
    6        7.799560   0.000000
    7        7.799560   0.000000
    8        7.799560   0.000000
 
  0.6250000E-01  0.0000000E+00  0.0000000E+00  0.1953125E-02
    1       -8.026613   1.000000
    2        3.081127   1.000000
    3        3.536405   1.000000
    4        3.536405   1.000000
    5        5.741915   0.000000
    6        7.843194   0.000000
    7        7.876411   0.000000
    8        7.876411   0.000000
 
  0.1250000E+00  0.0000000E+00  0.0000000E+00  0.1953125E-02
    1       -7.917635   1.000000
    2        2.158897   1.000000
    3        3.423548   1.000000
    4        3.423548   1.000000
    5        6.162184   0.000000
    6        8.072127   0.000000
    7        8.072128   0.000000
    8        8.157381   0.000000
 
  0.1875000E+00  0.0000000E+00  0.0000000E+00  0.1953125E-02
    1       -7.742747   1.000000
    2        1.186200   1.000000
    3        3.272675   1.000000
    4        3.272675   1.000000
    5        6.199080   0.000000
    6        8.290922   0.000000
    7        8.290923   0.000000
    8        8.892947   0.000000
 
  0.2500000E+00  0.0000000E+00  0.0000000E+00  0.1953125E-02
    1       -7.514089   1.000000
    2        0.262378   1.000000
    3        3.115913   1.000000
    4        3.115913   1.000000
    5        6.045924   0.000000
    6        8.417276   0.000000
    7        8.417276   0.000000
    8        9.818622   0.000000
 
  0.3125000E+00  0.0000000E+00  0.0000000E+00  0.1953125E-02
    1       -7.253188   1.000000
    2       -0.558722   1.000000
    3        2.976609   1.000000
    4        2.976609   1.000000
    5        5.865463   0.000000
    6        8.410723   0.000000
    7        8.410723   0.000000
    8       10.681793   0.000000
 
  0.3750000E+00  0.0000000E+00  0.0000000E+00  0.1953125E-02
    1       -6.996427   1.000000
    2       -1.224373   1.000000
    3        2.869334   1.000000
    4        2.869335   1.000000
    5        5.717183   0.000000
    6        8.332289   0.000000
    7        8.332289   0.000000
    8       11.166362   0.000000
 
  0.4375000E+00  0.0000000E+00  0.0000000E+00  0.1953125E-02
    1       -6.798915   1.000000
    2       -1.670363   1.000000
    3        2.802301   1.000000
    4        2.802301   1.000000
    5        5.622878   0.000000
    6        8.257048   0.000000
    7        8.257048   0.000000
    8       11.258244   0.000000
 
  0.5000000E+00  0.0000000E+00  0.0000000E+00  0.9765625E-03
    1       -6.723013   1.000000
    2       -1.829593   1.000000
    3        2.779553   1.000000
    4        2.779553   1.000000
    5        5.590725   0.000000
    6        8.227719   0.000000
    7        8.227719   0.000000
    8       11.257046   0.000000
 
  0.6250000E-01  0.6250000E-01  0.0000000E+00  0.1464844E-02
    1       -8.014270   1.000000
    2        3.073147   1.000000
    3        3.440909   1.000000
    4        3.440910   1.000000
    5        5.897906   0.000000
    6        7.615033   0.000000
    7        8.013263   0.000000
    8        8.013263   0.000000
 
  0.1250000E+00  0.6250000E-01  0.0000000E+00  0.5859375E-02
    1       -7.929221   1.000000
    2        2.369409   1.000000
    3        3.287963   1.000000
    4        3.363998   1.000000
    5        6.347878   0.000000
    6        7.542929   0.000000
    7        8.264460   0.000000
    8        8.310490   0.000000
 
  0.1875000E+00  0.6250000E-01  0.0000000E+00  0.5859375E-02
    1       -7.776062   1.000000
    2        1.457500   1.000000
    3        3.114830   1.000000
    4        3.246567   1.000000
    5        6.501793   0.000000
    6        7.743883   0.000000
    7        8.536336   0.000000
    8        8.818079   0.000000
 
  0.2500000E+00  0.6250000E-01  0.0000000E+00  0.5859375E-02
    1       -7.564672   1.000000
    2        0.543462   1.000000
    3        2.952580   1.000000
    4        3.079259   1.000000
    5        6.382897   0.000000
    6        8.030751   0.000000
    7        8.710515   0.000000
    8        9.437074   0.000000
 
  0.3125000E+00  0.6250000E-01  0.0000000E+00  0.5859375E-02
    1       -7.312959   1.000000
    2       -0.297356   1.000000
    3        2.821876   1.000000
    4        2.898169   1.000000
    5        6.205199   0.000000
    6        8.157395   0.000000
    7        8.723077   0.000000
    8       10.093818   0.000000
 
  0.3750000E+00  0.6250000E-01  0.0000000E+00  0.5859375E-02
    1       -7.051649   1.000000
    2       -1.008308   1.000000
    3        2.731254   1.000000
    4        2.734606   1.000000
    5        6.048188   0.000000
    6        8.143638   0.000000
    7        8.621461   0.000000
    8       10.772232   0.000000
 
  0.4375000E+00  0.6250000E-01  0.0000000E+00  0.5859375E-02
    1       -6.829353   1.000000
    2       -1.527033   1.000000
    3        2.596415   1.000000
    4        2.696435   1.000000
    5        5.938684   0.000000
    6        8.103101   0.000000
    7        8.491042   0.000000
    8       11.257140   0.000000
 
  0.5000000E+00  0.6250000E-01  0.0000000E+00  0.5859375E-02
    1       -6.708329   1.000000
    2       -1.783951   1.000000
    3        2.504767   1.000000
    4        2.708634   1.000000
    5        5.887071   0.000000
    6        8.102740   0.000000
    7        8.389207   0.000000
    8       11.415070   0.000000
 
 -0.4375000E+00  0.6250000E-01  0.0000000E+00  0.5859375E-02
    1       -6.733932   1.000000
    2       -1.730767   1.000000
    3        2.463162   1.000000
    4        2.769157   1.000000
    5        5.896904   0.000000
    6        8.164971   0.000000
    7        8.340809   0.000000
    8       11.418139   0.000000
 
 -0.3750000E+00  0.6250000E-01  0.0000000E+00  0.5859375E-02
    1       -6.895761   1.000000
    2       -1.378580   1.000000
    3        2.475537   1.000000
    4        2.872962   1.000000
    5        5.967533   0.000000
    6        8.283385   0.000000
    7        8.344711   0.000000
    8       11.249600   0.000000
 
 -0.3125000E+00  0.6250000E-01  0.0000000E+00  0.5859375E-02
    1       -7.137703   1.000000
    2       -0.788092   1.000000
    3        2.543263   1.000000
    4        3.011651   1.000000
    5        6.093368   0.000000
    6        8.371505   0.000000
    7        8.420304   0.000000
    8       10.727117   0.000000
 
 -0.2500000E+00  0.6250000E-01  0.0000000E+00  0.5859375E-02
    1       -7.400228   1.000000
    2       -0.028754   1.000000
    3        2.664841   1.000000
    4        3.172151   1.000000
    5        6.258724   0.000000
    6        8.358069   0.000000
    7        8.483948   0.000000
    8        9.981243   0.000000
 
 -0.1875000E+00  0.6250000E-01  0.0000000E+00  0.5859375E-02
    1       -7.641087   1.000000
    2        0.838043   1.000000
    3        2.835302   1.000000
    4        3.334616   1.000000
    5        6.419663   0.000000
    6        8.241033   0.000000
    7        8.319233   0.000000
    8        9.285574   0.000000
 
 -0.1250000E+00  0.6250000E-01  0.0000000E+00  0.5859375E-02
    1       -7.834483   1.000000
    2        1.746334   1.000000
    3        3.046729   1.000000
    4        3.470687   1.000000
    5        6.444714   0.000000
    6        7.953320   0.000000
    7        8.049127   0.000000
    8        8.731755   0.000000
 
 -0.6250000E-01  0.6250000E-01  0.0000000E+00  0.2929688E-02
    1       -7.965612   1.000000
    2        2.577358   1.000000
    3        3.296577   1.000000
    4        3.546515   1.000000
    5        6.129661   0.000000
    6        7.784184   0.000000
    7        7.896452   0.000000
    8        8.251298   0.000000
 
  0.1250000E+00  0.1250000E+00  0.0000000E+00  0.1464844E-02
    1       -7.868626   1.000000
    2        2.184013   1.000000
    3        3.101665   1.000000
    4        3.101665   1.000000
    5        6.796663   0.000000
    6        7.178726   0.000000
    7        8.577118   0.000000
    8        8.577118   0.000000
 
  0.1875000E+00  0.1250000E+00  0.0000000E+00  0.5859375E-02
    1       -7.739081   1.000000
    2        1.539478   1.000000
    3        2.905453   1.000000
    4        2.943640   1.000000
    5        6.960724   0.000000
    6        7.210526   0.000000
    7        8.920498   0.000000
    8        8.960787   0.000000
 
  0.2500000E+00  0.1250000E+00  0.0000000E+00  0.5859375E-02
    1       -7.548643   1.000000
    2        0.738352   1.000000
    3        2.730341   1.000000
    4        2.758779   1.000000
    5        6.829088   0.000000
    6        7.565732   0.000000
    7        9.152018   0.000000
    8        9.175437   0.000000
 
  0.3125000E+00  0.1250000E+00  0.0000000E+00  0.5859375E-02
    1       -7.312216   1.000000
    2       -0.058051   1.000000
    3        2.530153   1.000000
    4        2.596162   1.000000
    5        6.675343   0.000000
    6        7.913430   0.000000
    7        9.248983   0.000000
    8        9.254470   0.000000
 
  0.3750000E+00  0.1250000E+00  0.0000000E+00  0.5859375E-02
    1       -7.055643   1.000000
    2       -0.768887   1.000000
    3        2.296851   1.000000
    4        2.514127   1.000000
    5        6.533787   0.000000
    6        8.044986   0.000000
    7        9.160837   0.000000
    8        9.704454   0.000000
 
  0.4375000E+00  0.1250000E+00  0.0000000E+00  0.5859375E-02
    1       -6.820638   1.000000
    2       -1.325768   1.000000
    3        2.090520   1.000000
    4        2.489318   1.000000
    5        6.433249   0.000000
    6        8.024864   0.000000
    7        9.002060   0.000000
    8       10.460195   0.000000
 
  0.5000000E+00  0.1250000E+00  0.0000000E+00  0.5859375E-02
    1       -6.664862   1.000000
    2       -1.657136   1.000000
    3        1.930971   1.000000
    4        2.522284   1.000000
    5        6.388359   0.000000
    6        8.007815   0.000000
    7        8.845956   0.000000
    8       11.248208   0.000000
 
 -0.4375000E+00  0.1250000E+00  0.0000000E+00  0.5859375E-02
    1       -6.641507   1.000000
    2       -1.703631   1.000000
    3        1.830813   1.000000
    4        2.609746   1.000000
    5        6.403471   0.000000
    6        8.049670   0.000000
    7        8.729406   0.000000
    8       11.645313   0.000000
 
 -0.3750000E+00  0.1250000E+00  0.0000000E+00  0.5859375E-02
    1       -6.759755   1.000000
    2       -1.456023   1.000000
    3        1.799045   1.000000
    4        2.744539   1.000000
    5        6.476088   0.000000
    6        8.159640   0.000000
    7        8.660452   0.000000
    8       11.351712   0.000000
 
 -0.3125000E+00  0.1250000E+00  0.0000000E+00  0.5859375E-02
    1       -6.976231   1.000000
    2       -0.964456   1.000000
    3        1.843511   1.000000
    4        2.914861   1.000000
    5        6.598052   0.000000
    6        8.314246   0.000000
    7        8.618637   0.000000
    8       10.627601   0.000000
 
 -0.2500000E+00  0.1250000E+00  0.0000000E+00  0.5859375E-02
    1       -7.231203   1.000000
    2       -0.305862   1.000000
    3        1.973694   1.000000
    4        3.102652   1.000000
    5        6.751159   0.000000
    6        8.419934   0.000000
    7        8.548641   0.000000
    8        9.875615   0.000000
 
 -0.1875000E+00  0.1250000E+00  0.0000000E+00  0.5859375E-02
    1       -7.477362   1.000000
    2        0.435663   1.000000
    3        2.205854   1.000000
    4        3.281610   1.000000
    5        6.882721   0.000000
    6        8.251657   0.000000
    7        8.391533   0.000000
    8        9.425686   0.000000
 
 -0.1250000E+00  0.1250000E+00  0.0000000E+00  0.2929688E-02
    1       -7.684405   1.000000
    2        1.157283   1.000000
    3        2.567126   1.000000
    4        3.416622   1.000000
    5        6.819803   0.000000
    6        7.949349   0.000000
    7        8.184517   0.000000
    8        9.182251   0.000000
 
  0.1875000E+00  0.1875000E+00  0.0000000E+00  0.1464844E-02
    1       -7.633837   1.000000
    2        1.269079   1.000000
    3        2.688920   1.000000
    4        2.688921   1.000000
    5        6.650698   0.000000
    6        7.422612   0.000000
    7        9.356596   0.000000
    8        9.356598   0.000000
 
  0.2500000E+00  0.1875000E+00  0.0000000E+00  0.5859375E-02
    1       -7.466779   1.000000
    2        0.709690   1.000000
    3        2.474221   1.000000
    4        2.497681   1.000000
    5        6.520841   0.000000
    6        7.480826   0.000000
    7        9.485048   0.000000
    8        9.727534   0.000000
 
  0.3125000E+00  0.1875000E+00  0.0000000E+00  0.5859375E-02
    1       -7.250509   1.000000
    2        0.051997   1.000000
    3        2.199287   1.000000
    4        2.352141   1.000000
    5        6.520128   0.000000
    6        7.652240   0.000000
    7        9.286040   0.000000
    8        9.910849   0.000000
 
  0.3750000E+00  0.1875000E+00  0.0000000E+00  0.5859375E-02
    1       -7.006902   1.000000
    2       -0.586379   1.000000
    3        1.888887   1.000000
    4        2.263917   1.000000
    5        6.479922   0.000000
    6        8.094014   0.000000
    7        9.142699   0.000000
    8        9.880750   0.000000
 
  0.4375000E+00  0.1875000E+00  0.0000000E+00  0.5859375E-02
    1       -6.771420   1.000000
    2       -1.124143   1.000000
    3        1.595614   1.000000
    4        2.238507   1.000000
    5        6.431916   0.000000
    6        8.464602   0.000000
    7        9.382715   0.000000
    8        9.725222   0.000000
 
  0.5000000E+00  0.1875000E+00  0.0000000E+00  0.5859375E-02
    1       -6.594882   1.000000
    2       -1.485891   1.000000
    3        1.354703   1.000000
    4        2.276853   1.000000
    5        6.433218   0.000000
    6        8.492851   0.000000
    7        9.537063   0.000000
    8       10.181169   0.000000
 
 -0.4375000E+00  0.1875000E+00  0.0000000E+00  0.5859375E-02
    1       -6.530989   1.000000
    2       -1.606113   1.000000
    3        1.187392   1.000000
    4        2.375851   1.000000
    5        6.504067   0.000000
    6        8.471824   0.000000
    7        9.367152   0.000000
    8       11.113746   0.000000
 
 -0.3750000E+00  0.1875000E+00  0.0000000E+00  0.5859375E-02
    1       -6.603261   1.000000
    2       -1.460520   1.000000
    3        1.109785   1.000000
    4        2.528077   1.000000
    5        6.642970   0.000000
    6        8.495787   0.000000
    7        9.230057   0.000000
    8       11.328410   0.000000
 
 -0.3125000E+00  0.1875000E+00  0.0000000E+00  0.5859375E-02
    1       -6.784835   1.000000
    2       -1.088786   1.000000
    3        1.140602   1.000000
    4        2.720576   1.000000
    5        6.832441   0.000000
    6        8.573411   0.000000
    7        9.105703   0.000000
    8       10.522645   0.000000
 
 -0.2500000E+00  0.1875000E+00  0.0000000E+00  0.5859375E-02
    1       -7.021544   1.000000
    2       -0.578943   1.000000
    3        1.309704   1.000000
    4        2.932716   1.000000
    5        7.031031   0.000000
    6        8.642209   0.000000
    7        8.933958   0.000000
    8        9.710051   0.000000
 
 -0.1875000E+00  0.1875000E+00  0.0000000E+00  0.2929688E-02
    1       -7.263801   1.000000
    2       -0.041122   1.000000
    3        1.660517   1.000000
    4        3.133546   1.000000
    5        7.126594   0.000000
    6        8.446136   0.000000
    7        8.668617   0.000000
    8        9.378315   0.000000
 
  0.2500000E+00  0.2500000E+00  0.0000000E+00  0.1464844E-02
    1       -7.324245   1.000000
    2        0.396853   1.000000
    3        2.289810   1.000000
    4        2.289810   1.000000
    5        6.151671   0.000000
    6        7.266696   0.000000
    7       10.256062   0.000000
    8       10.256162   0.000000
 
  0.3125000E+00  0.2500000E+00  0.0000000E+00  0.5859375E-02
    1       -7.131881   1.000000
    2       -0.076553   1.000000
    3        2.047481   1.000000
    4        2.128851   1.000000
    5        6.056432   0.000000
    6        7.117157   0.000000
    7       10.257679   0.000000
    8       10.614991   0.000000
 
  0.3750000E+00  0.2500000E+00  0.0000000E+00  0.5859375E-02
    1       -6.908537   1.000000
    2       -0.579384   1.000000
    3        1.693135   1.000000
    4        2.027525   1.000000
    5        6.096569   0.000000
    6        7.286780   0.000000
    7       10.058197   0.000000
    8       10.708059   0.000000
 
  0.4375000E+00  0.2500000E+00  0.0000000E+00  0.5859375E-02
    1       -6.684616   1.000000
    2       -1.027418   1.000000
    3        1.302663   1.000000
    4        1.992221   1.000000
    5        6.107820   0.000000
    6        7.855521   0.000000
    7        9.881157   0.000000
    8       10.597045   0.000000
 
  0.5000000E+00  0.2500000E+00  0.0000000E+00  0.5859375E-02
    1       -6.503641   1.000000
    2       -1.351598   1.000000
    3        0.953446   1.000000
    4        2.024677   1.000000
    5        6.137242   0.000000
    6        8.640058   0.000000
    7        9.804161   0.000000
    8       10.400140   0.000000
 
 -0.4375000E+00  0.2500000E+00  0.0000000E+00  0.5859375E-02
    1       -6.414413   1.000000
    2       -1.492163   1.000000
    3        0.693022   1.000000
    4        2.122582   1.000000
    5        6.234084   0.000000
    6        9.211978   0.000000
    7       10.143934   0.000000
    8       10.188594   0.000000
 
 -0.3750000E+00  0.2500000E+00  0.0000000E+00  0.5859375E-02
    1       -6.446394   1.000000
    2       -1.423811   1.000000
    3        0.555454   1.000000
    4        2.279238   1.000000
    5        6.408654   0.000000
    6        9.315640   0.000000
    7        9.979998   0.000000
    8       10.926152   0.000000
 
 -0.3125000E+00  0.2500000E+00  0.0000000E+00  0.5859375E-02
    1       -6.587642   1.000000
    2       -1.185962   1.000000
    3        0.581056   1.000000
    4        2.482218   1.000000
    5        6.647791   0.000000
    6        9.339681   0.000000
    7        9.737624   0.000000
    8       10.457559   0.000000
 
 -0.2500000E+00  0.2500000E+00  0.0000000E+00  0.2929688E-02
    1       -6.795026   1.000000
    2       -0.875539   1.000000
    3        0.823884   1.000000
    4        2.710816   1.000000
    5        6.904607   0.000000
    6        9.219597   0.000000
    7        9.382722   0.000000
    8        9.723381   0.000000
 
  0.3125000E+00  0.3125000E+00  0.0000000E+00  0.1464844E-02
    1       -6.965835   1.000000
    2       -0.399339   1.000000
    3        1.950987   1.000000
    4        1.950987   1.000000
    5        5.718902   0.000000
    6        6.732700   0.000000
    7       11.219933   0.000000
    8       11.222997   0.000000
 
  0.3750000E+00  0.3125000E+00  0.0000000E+00  0.5859375E-02
    1       -6.769253   1.000000
    2       -0.780290   1.000000
    3        1.705138   1.000000
    4        1.832963   1.000000
    5        5.665596   0.000000
    6        6.611867   0.000000
    7       11.252508   0.000000
    8       11.544295   0.000000
 
  0.4375000E+00  0.3125000E+00  0.0000000E+00  0.5859375E-02
    1       -6.568717   1.000000
    2       -1.121680   1.000000
    3        1.301988   1.000000
    4        1.782352   1.000000
    5        5.737222   0.000000
    6        6.899274   0.000000
    7       11.071248   0.000000
    8       11.550802   0.000000
 
  0.5000000E+00  0.3125000E+00  0.0000000E+00  0.5859375E-02
    1       -6.401194   1.000000
    2       -1.361466   1.000000
    3        0.860971   1.000000
    4        1.801895   1.000000
    5        5.802963   0.000000
    6        7.592467   0.000000
    7       10.896586   0.000000
    8       11.376654   0.000000
 
 -0.4375000E+00  0.3125000E+00  0.0000000E+00  0.5859375E-02
    1       -6.307452   1.000000
    2       -1.460099   1.000000
    3        0.488011   1.000000
    4        1.890267   1.000000
    5        5.913869   0.000000
    6        8.518342   0.000000
    7       10.774339   0.000000
    8       11.127789   0.000000
 
 -0.3750000E+00  0.3125000E+00  0.0000000E+00  0.5859375E-02
    1       -6.314307   1.000000
    2       -1.417546   1.000000
    3        0.264460   1.000000
    4        2.041880   1.000000
    5        6.100143   0.000000
    6        9.489574   0.000000
    7       10.773693   0.000000
    8       10.815240   0.000000
 
 -0.3125000E+00  0.3125000E+00  0.0000000E+00  0.2929688E-02
    1       -6.417907   1.000000
    2       -1.297810   1.000000
    3        0.275158   1.000000
    4        2.245607   1.000000
    5        6.357679   0.000000
    6        9.974134   0.000000
    7       10.360205   0.000000
    8       10.640979   0.000000
 
  0.3750000E+00  0.3750000E+00  0.0000000E+00  0.1464844E-02
    1       -6.604740   1.000000
    2       -1.073713   1.000000
    3        1.696805   1.000000
    4        1.696806   1.000000
    5        5.378967   0.000000
    6        6.257946   0.000000
    7       12.206836   0.000000
    8       12.207286   0.000000
 
  0.4375000E+00  0.3750000E+00  0.0000000E+00  0.5859375E-02
    1       -6.439062   1.000000
    2       -1.340054   1.000000
    3        1.468162   1.000000
    4        1.628077   1.000000
    5        5.377983   0.000000
    6        6.238921   0.000000
    7       12.289107   0.000000
    8       12.476179   0.000000
 
  0.5000000E+00  0.3750000E+00  0.0000000E+00  0.5859375E-02
    1       -6.303585   1.000000
    2       -1.508599   1.000000
    3        1.057957   1.000000
    4        1.630639   1.000000
    5        5.499937   0.000000
    6        6.654964   0.000000
    7       12.126861   0.000000
    8       12.387486   0.000000
 
 -0.4375000E+00  0.3750000E+00  0.0000000E+00  0.5859375E-02
    1       -6.229532   1.000000
    2       -1.549385   1.000000
    3        0.624770   1.000000
    4        1.704242   1.000000
    5        5.638634   0.000000
    6        7.453068   0.000000
    7       11.947816   0.000000
    8       12.089268   0.000000
 
 -0.3750000E+00  0.3750000E+00  0.0000000E+00  0.2929688E-02
    1       -6.234673   1.000000
    2       -1.486860   1.000000
    3        0.313500   1.000000
    4        1.844511   1.000000
    5        5.834383   0.000000
    6        8.464970   0.000000
    7       11.575474   0.000000
    8       11.677323   0.000000
 
  0.4375000E+00  0.4375000E+00  0.0000000E+00  0.1464844E-02
    1       -6.318061   1.000000
    2       -1.549118   1.000000
    3        1.540124   1.000000
    4        1.540124   1.000000
    5        5.157250   0.000000
    6        5.962400   0.000000
    7       13.132540   0.000000
    8       13.133732   0.000000
 
  0.5000000E+00  0.4375000E+00  0.0000000E+00  0.5859375E-02
    1       -6.231667   1.000000
    2       -1.663240   1.000000
    3        1.347344   1.000000
    4        1.523602   1.000000
    5        5.223625   0.000000
    6        6.051285   0.000000
    7       13.207338   0.000000
    8       13.256642   0.000000
 
 -0.4375000E+00  0.4375000E+00  0.0000000E+00  0.2929688E-02
    1       -6.200442   1.000000
    2       -1.652703   1.000000
    3        0.975354   1.000000
    4        1.579367   1.000000
    5        5.417308   0.000000
    6        6.573470   0.000000
    7       12.875550   0.000000
    8       12.897660   0.000000
 
  0.5000000E+00  0.5000000E+00  0.0000000E+00  0.7324219E-03
    1       -6.204938   1.000000
    2       -1.725361   1.000000
    3        1.487259   1.000000
    4        1.487259   1.000000
    5        5.079529   0.000000
    6        5.864234   0.000000
    7       13.624482   0.000000
    8       13.624532   0.000000
 
  0.1875000E+00  0.1250000E+00  0.6250000E-01  0.5859375E-02
    1       -7.821940   1.000000
    2        1.807158   1.000000
    3        2.944418   1.000000
    4        3.318871   1.000000
    5        6.739906   0.000000
    6        7.417967   0.000000
    7        8.437454   0.000000
    8        8.791232   0.000000
 
  0.2500000E+00  0.1250000E+00  0.6250000E-01  0.1171875E-01
    1       -7.649967   1.000000
    2        1.035598   1.000000
    3        2.635566   1.000000
    4        3.221218   1.000000
    5        6.854368   0.000000
    6        7.609901   0.000000
    7        8.703380   0.000000
    8        9.160706   0.000000
 
  0.3125000E+00  0.1250000E+00  0.6250000E-01  0.1171875E-01
    1       -7.425524   1.000000
    2        0.217716   1.000000
    3        2.403873   1.000000
    4        3.065747   1.000000
    5        6.717514   0.000000
    6        7.943843   0.000000
    7        8.896933   0.000000
    8        9.425491   0.000000
 
  0.3750000E+00  0.1250000E+00  0.6250000E-01  0.1171875E-01
    1       -7.170168   1.000000
    2       -0.542576   1.000000
    3        2.236883   1.000000
    4        2.894905   1.000000
    5        6.552865   0.000000
    6        8.074485   0.000000
    7        8.891146   0.000000
    8        9.929992   0.000000
 
  0.4375000E+00  0.1250000E+00  0.6250000E-01  0.1171875E-01
    1       -6.919803   1.000000
    2       -1.171110   1.000000
    3        2.127182   1.000000
    4        2.744734   1.000000
    5        6.418536   0.000000
    6        8.036559   0.000000
    7        8.799970   0.000000
    8       10.651744   0.000000
 
  0.5000000E+00  0.1250000E+00  0.6250000E-01  0.1171875E-01
    1       -6.728044   1.000000
    2       -1.595623   1.000000
    3        2.067089   1.000000
    4        2.642075   1.000000
    5        6.333218   0.000000
    6        7.972285   0.000000
    7        8.715200   0.000000
    8       11.330262   0.000000
 
 -0.4375000E+00  0.1250000E+00  0.6250000E-01  0.5859375E-02
    1       -6.654595   1.000000
    2       -1.747546   1.000000
    3        2.048367   1.000000
    4        2.605472   1.000000
    5        6.304136   0.000000
    6        7.945752   0.000000
    7        8.682404   0.000000
    8       11.598969   0.000000
 
  0.2500000E+00  0.1875000E+00  0.6250000E-01  0.5859375E-02
    1       -7.590703   1.000000
    2        1.009117   1.000000
    3        2.520002   1.000000
    4        2.878710   1.000000
    5        6.911308   0.000000
    6        7.379829   0.000000
    7        9.178116   0.000000
    8        9.246065   0.000000
 
  0.3125000E+00  0.1875000E+00  0.6250000E-01  0.1171875E-01
    1       -7.386898   1.000000
    2        0.343065   1.000000
    3        2.190590   1.000000
    4        2.752781   1.000000
    5        6.902619   0.000000
    6        7.618795   0.000000
    7        9.064257   0.000000
    8        9.534492   0.000000
 
  0.3750000E+00  0.1875000E+00  0.6250000E-01  0.1171875E-01
    1       -7.145800   1.000000
    2       -0.342439   1.000000
    3        1.935052   1.000000
    4        2.589810   1.000000
    5        6.824513   0.000000
    6        7.970377   0.000000
    7        9.012606   0.000000
    8        9.640933   0.000000
 
  0.4375000E+00  0.1875000E+00  0.6250000E-01  0.1171875E-01
    1       -6.897717   1.000000
    2       -0.953877   1.000000
    3        1.735176   1.000000
    4        2.450388   1.000000
    5        6.736067   0.000000
    6        8.084387   0.000000
    7        9.348960   0.000000
    8        9.684166   0.000000
 
  0.5000000E+00  0.1875000E+00  0.6250000E-01  0.1171875E-01
    1       -6.689197   1.000000
    2       -1.409712   1.000000
    3        1.579546   1.000000
    4        2.374964   1.000000
    5        6.687426   0.000000
    6        8.008897   0.000000
    7        9.393377   0.000000
    8       10.349073   0.000000
 
 -0.4375000E+00  0.1875000E+00  0.6250000E-01  0.1171875E-01
    1       -6.577517   1.000000
    2       -1.634905   1.000000
    3        1.469198   1.000000
    4        2.378596   1.000000
    5        6.695144   0.000000
    6        7.939158   0.000000
    7        9.311559   0.000000
    8       11.216027   0.000000
 
 -0.3750000E+00  0.1875000E+00  0.6250000E-01  0.1171875E-01
    1       -6.602799   1.000000
    2       -1.582951   1.000000
    3        1.414837   1.000000
    4        2.457716   1.000000
    5        6.758934   0.000000
    6        7.929102   0.000000
    7        9.260379   0.000000
    8       11.358283   0.000000
 
 -0.3125000E+00  0.1875000E+00  0.6250000E-01  0.1171875E-01
    1       -6.755202   1.000000
    2       -1.267041   1.000000
    3        1.431310   1.000000
    4        2.598525   1.000000
    5        6.869909   0.000000
    6        7.981570   0.000000
    7        9.241029   0.000000
    8       10.570027   0.000000
 
 -0.2500000E+00  0.1875000E+00  0.6250000E-01  0.1171875E-01
    1       -6.983914   1.000000
    2       -0.753365   1.000000
    3        1.536454   1.000000
    4        2.780251   1.000000
    5        7.014227   0.000000
    6        8.041419   0.000000
    7        9.207252   0.000000
    8        9.796876   0.000000
 
 -0.1875000E+00  0.1875000E+00  0.6250000E-01  0.1171875E-01
    1       -7.233754   1.000000
    2       -0.131813   1.000000
    3        1.755339   1.000000
    4        2.973371   1.000000
    5        7.166814   0.000000
    6        7.922062   0.000000
    7        9.123833   0.000000
    8        9.314299   0.000000
 
 -0.1250000E+00  0.1875000E+00  0.6250000E-01  0.5859375E-02
    1       -7.464240   1.000000
    2        0.495195   1.000000
    3        2.121485   1.000000
    4        3.136561   1.000000
    5        7.207375   0.000000
    6        7.610640   0.000000
    7        8.957057   0.000000
    8        9.192139   0.000000
 