       N       E                     dE             d eps       ncg     rms          rms(c)
DAV:   1     0.142673529184E+02    0.14267E+02   -0.30347E+03  2344   0.741E+02
DAV:   2    -0.900124451886E+01   -0.23269E+02   -0.22543E+02  3128   0.878E+01
DAV:   3    -0.958701543740E+01   -0.58577E+00   -0.58577E+00  2888   0.189E+01
DAV:   4    -0.958967459730E+01   -0.26592E-02   -0.26592E-02  3704   0.139E+00
DAV:   5    -0.958968114160E+01   -0.65443E-05   -0.65443E-05  2936   0.575E-02    0.266E+00
RMM:   6    -0.940346413709E+01    0.18622E+00   -0.21245E-01  2320   0.242E+00    0.147E+00
RMM:   7    -0.937273354537E+01    0.30731E-01   -0.11744E-01  2320   0.191E+00    0.458E-01
RMM:   8    -0.937301070148E+01   -0.27716E-03   -0.58612E-03  2320   0.612E-01    0.479E-02
RMM:   9    -0.937327039069E+01   -0.25969E-03   -0.27682E-04  2320   0.132E-01    0.204E-02
RMM:  10    -0.937330467087E+01   -0.34280E-04   -0.52941E-05  2136   0.558E-02    0.403E-03
RMM:  11    -0.937330744241E+01   -0.27715E-05   -0.68845E-06  1680   0.209E-02
   1 F= -.93733074E+01 E0= -.93733074E+01  d E =-.937331E+01
