 running on   48 total cores
 distrk:  each k-point on   12 cores,    4 groups
 distr:  one band on   12 cores,    1 groups
 using from now: INCAR     
 vasp.5.4.4.18Apr17-6-g9f103f2a35 (build Nov 04 2020 14:40:39) complex          
  
 POSCAR found type information on POSCAR  Al As
 POSCAR found :  2 types and       2 ions
 scaLAPACK will be used

 ----------------------------------------------------------------------------- 
|                                                                             |
|           W    W    AA    RRRRR   N    N  II  N    N   GGGG   !!!           |
|           W    W   A  A   R    R  NN   N  II  NN   N  G    G  !!!           |
|           W    W  A    A  R    R  N N  N  II  N N  N  G       !!!           |
|           W WW W  AAAAAA  RRRRR   N  N N  II  N  N N  G  GGG   !            |
|           WW  WW  A    A  R   R   N   NN  II  N   NN  G    G                |
|           W    W  A    A  R    R  N    N  II  N    N   GGGG   !!!           |
|                                                                             |
|      You have enabled k-point parallelism (KPAR>1).                         |
|      This developmental code was originally  written by Paul Kent at ORNL,  |
|      and carefully double checked in Vienna.                                |
|      GW as well as linear response parallelism added by Martijn Marsman     |
|      and Georg Kresse.                                                      |
|      Carefully verify results versus KPAR=1.                                |
|      Report problems to Paul Kent and Vienna.                               |
|                                                                             |
 ----------------------------------------------------------------------------- 

 LDA part: xc-table for Pade appr. of Perdew
 POSCAR found type information on POSCAR  Al As
 POSCAR found :  2 types and       2 ions
 generate k-points for:   16   16   16
 POSCAR, INCAR and KPOINTS ok, starting setup
 FFT: planning ...
 WAVECAR not read
 entering main loop
       N       E                     dE             d eps       ncg     rms          rms(c)
DAV:   1     0.142673529184E+02    0.14267E+02   -0.30347E+03  2344   0.741E+02
DAV:   2    -0.900124451886E+01   -0.23269E+02   -0.22543E+02  3128   0.878E+01
DAV:   3    -0.958701543740E+01   -0.58577E+00   -0.58577E+00  2888   0.189E+01
DAV:   4    -0.958967459730E+01   -0.26592E-02   -0.26592E-02  3704   0.139E+00
DAV:   5    -0.958968114160E+01   -0.65443E-05   -0.65443E-05  2936   0.575E-02    0.266E+00
RMM:   6    -0.940346413709E+01    0.18622E+00   -0.21245E-01  2320   0.242E+00    0.147E+00
RMM:   7    -0.937273354537E+01    0.30731E-01   -0.11744E-01  2320   0.191E+00    0.458E-01
RMM:   8    -0.937301070148E+01   -0.27716E-03   -0.58612E-03  2320   0.612E-01    0.479E-02
RMM:   9    -0.937327039069E+01   -0.25969E-03   -0.27682E-04  2320   0.132E-01    0.204E-02
RMM:  10    -0.937330467087E+01   -0.34280E-04   -0.52941E-05  2136   0.558E-02    0.403E-03
RMM:  11    -0.937330744241E+01   -0.27715E-05   -0.68845E-06  1680   0.209E-02
   1 F= -.93733074E+01 E0= -.93733074E+01  d E =-.937331E+01
 curvature:   0.00 expect dE= 0.000E+00 dE for cont linesearch  0.000E+00
 trial: gam= 0.00000 g(F)=  0.214E-47 g(S)=  0.782E-05 ort = 0.000E+00 (trialstep = 0.100E+01)
 search vector abs. value=  0.782E-05
 reached required accuracy - stopping structural energy minimisation
