   2   2   1   0
  0.8981104E+01  0.2939623E-09  0.2939623E-09  0.2939623E-09  0.0000000E+00
   1.0000000000000000E-004
  CAR 
 unknown system                          
     41.34959514    -15.86460759  301      6.37864893      1.00000000
    -15.865  0.0000E+00  0.0000E+00  0.0000E+00  0.0000E+00
    -15.674  0.0000E+00  0.0000E+00  0.0000E+00  0.0000E+00
    -15.483  0.0000E+00  0.0000E+00  0.0000E+00  0.0000E+00
    -15.292  0.0000E+00  0.0000E+00  0.0000E+00  0.0000E+00
    -15.102  0.0000E+00  0.0000E+00  0.0000E+00  0.0000E+00
    -14.911  0.0000E+00  0.0000E+00  0.0000E+00  0.0000E+00
    -14.720  0.0000E+00  0.0000E+00  0.0000E+00  0.0000E+00
    -14.530  0.0000E+00  0.0000E+00  0.0000E+00  0.0000E+00
    -14.339  0.0000E+00  0.0000E+00  0.0000E+00  0.0000E+00
    -14.148  0.0000E+00  0.0000E+00  0.0000E+00  0.0000E+00
    -13.957  0.0000E+00  0.0000E+00  0.0000E+00  0.0000E+00
    -13.767  0.0000E+00  0.0000E+00  0.0000E+00  0.0000E+00
    -13.576  0.0000E+00  0.0000E+00  0.0000E+00  0.0000E+00
    -13.385  0.0000E+00  0.0000E+00  0.0000E+00  0.0000E+00
    -13.195  0.5213E-01  0.5213E-01  0.1893E-02  0.1893E-02
    -13.004  0.1418E+00  0.1418E+00  0.1829E-01  0.1829E-01
    -12.813  0.1791E+00  0.1791E+00  0.4609E-01  0.4609E-01
    -12.622  0.2448E+00  0.2448E+00  0.8588E-01  0.8588E-01
    -12.432  0.3428E+00  0.3428E+00  0.1408E+00  0.1408E+00
    -12.241  0.4921E+00  0.4921E+00  0.2180E+00  0.2180E+00
    -12.050  0.8006E+00  0.8006E+00  0.3351E+00  0.3352E+00
    -11.860  0.2403E+01  0.2403E+01  0.5641E+00  0.5641E+00
    -11.669  0.1902E+01  0.1902E+01  0.1000E+01  0.1000E+01
    -11.478  0.0000E+00  0.0000E+00  0.1000E+01  0.1000E+01
    -11.287  0.0000E+00  0.0000E+00  0.1000E+01  0.1000E+01
    -11.097  0.0000E+00  0.0000E+00  0.1000E+01  0.1000E+01
    -10.906  0.0000E+00  0.0000E+00  0.1000E+01  0.1000E+01
    -10.715  0.0000E+00  0.0000E+00  0.1000E+01  0.1000E+01
    -10.525  0.0000E+00  0.0000E+00  0.1000E+01  0.1000E+01
    -10.334  0.0000E+00  0.0000E+00  0.1000E+01  0.1000E+01
    -10.143  0.0000E+00  0.0000E+00  0.1000E+01  0.1000E+01
     -9.952  0.0000E+00  0.0000E+00  0.1000E+01  0.1000E+01
     -9.762  0.0000E+00  0.0000E+00  0.1000E+01  0.1000E+01
     -9.571  0.0000E+00  0.0000E+00  0.1000E+01  0.1000E+01
     -9.380  0.0000E+00  0.0000E+00  0.1000E+01  0.1000E+01
     -9.190  0.0000E+00  0.0000E+00  0.1000E+01  0.1000E+01
     -8.999  0.0000E+00  0.0000E+00  0.1000E+01  0.1000E+01
     -8.808  0.0000E+00  0.0000E+00  0.1000E+01  0.1000E+01
     -8.617  0.0000E+00  0.0000E+00  0.1000E+01  0.1000E+01
     -8.427  0.0000E+00  0.0000E+00  0.1000E+01  0.1000E+01
     -8.236  0.0000E+00  0.0000E+00  0.1000E+01  0.1000E+01
     -8.045  0.0000E+00  0.0000E+00  0.1000E+01  0.1000E+01
     -7.855  0.0000E+00  0.0000E+00  0.1000E+01  0.1000E+01
     -7.664  0.0000E+00  0.0000E+00  0.1000E+01  0.1000E+01
     -7.473  0.0000E+00  0.0000E+00  0.1000E+01  0.1000E+01
     -7.282  0.0000E+00  0.0000E+00  0.1000E+01  0.1000E+01
     -7.092  0.0000E+00  0.0000E+00  0.1000E+01  0.1000E+01
     -6.901  0.0000E+00  0.0000E+00  0.1000E+01  0.1000E+01
     -6.710  0.0000E+00  0.0000E+00  0.1000E+01  0.1000E+01
     -6.520  0.0000E+00  0.0000E+00  0.1000E+01  0.1000E+01
     -6.329  0.0000E+00  0.0000E+00  0.1000E+01  0.1000E+01
     -6.138  0.0000E+00  0.0000E+00  0.1000E+01  0.1000E+01
     -5.947  0.0000E+00  0.0000E+00  0.1000E+01  0.1000E+01
     -5.757  0.0000E+00  0.0000E+00  0.1000E+01  0.1000E+01
     -5.566  0.0000E+00  0.0000E+00  0.1000E+01  0.1000E+01
     -5.375  0.0000E+00  0.0000E+00  0.1000E+01  0.1000E+01
     -5.185  0.0000E+00  0.0000E+00  0.1000E+01  0.1000E+01
     -4.994  0.0000E+00  0.0000E+00  0.1000E+01  0.1000E+01
     -4.803  0.0000E+00  0.0000E+00  0.1000E+01  0.1000E+01
     -4.612  0.0000E+00  0.0000E+00  0.1000E+01  0.1000E+01
     -4.422  0.0000E+00  0.0000E+00  0.1000E+01  0.1000E+01
     -4.231  0.0000E+00  0.0000E+00  0.1000E+01  0.1000E+01
     -4.040  0.0000E+00  0.0000E+00  0.1000E+01  0.1000E+01
     -3.850  0.0000E+00  0.0000E+00  0.1000E+01  0.1000E+01
     -3.659  0.0000E+00  0.0000E+00  0.1000E+01  0.1000E+01
     -3.468  0.0000E+00  0.0000E+00  0.1000E+01  0.1000E+01
     -3.277  0.0000E+00  0.0000E+00  0.1000E+01  0.1000E+01
     -3.087  0.0000E+00  0.0000E+00  0.1000E+01  0.1000E+01
     -2.896  0.0000E+00  0.0000E+00  0.1000E+01  0.1000E+01
     -2.705  0.0000E+00  0.0000E+00  0.1000E+01  0.1000E+01
     -2.515  0.0000E+00  0.0000E+00  0.1000E+01  0.1000E+01
     -2.324  0.0000E+00  0.0000E+00  0.1000E+01  0.1000E+01
     -2.133  0.0000E+00  0.0000E+00  0.1000E+01  0.1000E+01
     -1.942  0.0000E+00  0.0000E+00  0.1000E+01  0.1000E+01
     -1.752  0.0000E+00  0.0000E+00  0.1000E+01  0.1000E+01
     -1.561  0.0000E+00  0.0000E+00  0.1000E+01  0.1000E+01
     -1.370  0.0000E+00  0.0000E+00  0.1000E+01  0.1000E+01
     -1.180  0.1046E+00  0.1046E+00  0.1006E+01  0.1006E+01
     -0.989  0.1728E+00  0.1728E+00  0.1032E+01  0.1032E+01
     -0.798  0.2485E+00  0.2485E+00  0.1072E+01  0.1072E+01
     -0.607  0.3445E+00  0.3445E+00  0.1128E+01  0.1128E+01
     -0.417  0.5115E+00  0.5115E+00  0.1207E+01  0.1207E+01
     -0.226  0.8051E+00  0.8051E+00  0.1335E+01  0.1335E+01
     -0.035  0.1018E+01  0.1018E+01  0.1497E+01  0.1497E+01
      0.155  0.9892E+00  0.9892E+00  0.1683E+01  0.1683E+01
      0.346  0.6771E+00  0.6771E+00  0.1822E+01  0.1822E+01
      0.537  0.2176E+00  0.2176E+00  0.1886E+01  0.1886E+01
      0.728  0.4433E+00  0.4433E+00  0.1935E+01  0.1935E+01
      0.918  0.1338E+01  0.1338E+01  0.2090E+01  0.2090E+01
      1.109  0.1938E+01  0.1938E+01  0.2367E+01  0.2367E+01
      1.300  0.3128E+01  0.3128E+01  0.2782E+01  0.2782E+01
      1.490  0.1421E+01  0.1421E+01  0.3116E+01  0.3116E+01
      1.681  0.1077E+01  0.1077E+01  0.3345E+01  0.3345E+01
      1.872  0.8721E+00  0.8721E+00  0.3529E+01  0.3529E+01
      2.063  0.6938E+00  0.6937E+00  0.3677E+01  0.3677E+01
      2.253  0.5897E+00  0.5897E+00  0.3800E+01  0.3800E+01
      2.444  0.4141E+00  0.4141E+00  0.3893E+01  0.3893E+01
      2.635  0.2337E+00  0.2337E+00  0.3955E+01  0.3955E+01
      2.825  0.1935E+00  0.1935E+00  0.3991E+01  0.3991E+01
      3.016  0.4511E+00  0.4511E+00  0.4049E+01  0.4049E+01
      3.207  0.1034E+01  0.1034E+01  0.4182E+01  0.4182E+01
      3.398  0.1523E+01  0.1523E+01  0.4390E+01  0.4390E+01
      3.588  0.2359E+01  0.2360E+01  0.4706E+01  0.4706E+01
      3.779  0.8015E+01  0.8012E+01  0.5281E+01  0.5281E+01
      3.970  0.3199E+01  0.3198E+01  0.6002E+01  0.6002E+01
      4.160  0.2249E+01  0.2249E+01  0.6201E+01  0.6201E+01
      4.351  0.4185E+01  0.4185E+01  0.6813E+01  0.6813E+01
      4.542  0.9805E+00  0.9806E+00  0.7049E+01  0.7049E+01
      4.733  0.9049E+00  0.9050E+00  0.7192E+01  0.7192E+01
      4.923  0.1211E+01  0.1211E+01  0.7389E+01  0.7389E+01
      5.114  0.8016E+00  0.8016E+00  0.7569E+01  0.7569E+01
      5.305  0.7276E+00  0.7276E+00  0.7711E+01  0.7711E+01
      5.495  0.7339E+00  0.7339E+00  0.7851E+01  0.7852E+01
      5.686  0.7968E+00  0.7968E+00  0.7995E+01  0.7995E+01
      5.877  0.7542E+00  0.7542E+00  0.8142E+01  0.8142E+01
      6.068  0.7219E+00  0.7219E+00  0.8282E+01  0.8282E+01
      6.258  0.6923E+00  0.6923E+00  0.8416E+01  0.8417E+01
      6.449  0.6890E+00  0.6890E+00  0.8549E+01  0.8549E+01
      6.640  0.6636E+00  0.6636E+00  0.8677E+01  0.8677E+01
      6.830  0.6738E+00  0.6738E+00  0.8808E+01  0.8808E+01
      7.021  0.7526E+00  0.7526E+00  0.8936E+01  0.8937E+01
      7.212  0.9350E-01  0.9350E-01  0.9000E+01  0.9000E+01
      7.403  0.0000E+00  0.0000E+00  0.9000E+01  0.9000E+01
      7.593  0.0000E+00  0.0000E+00  0.9000E+01  0.9000E+01
      7.784  0.0000E+00  0.0000E+00  0.9000E+01  0.9000E+01
      7.975  0.0000E+00  0.0000E+00  0.9000E+01  0.9000E+01
      8.165  0.0000E+00  0.0000E+00  0.9000E+01  0.9000E+01
      8.356  0.0000E+00  0.0000E+00  0.9000E+01  0.9000E+01
      8.547  0.0000E+00  0.0000E+00  0.9000E+01  0.9000E+01
      8.737  0.4043E-03  0.4045E-03  0.9000E+01  0.9000E+01
      8.928  0.6216E-02  0.6216E-02  0.9001E+01  0.9001E+01
      9.119  0.8101E-02  0.8101E-02  0.9002E+01  0.9002E+01
      9.310  0.1129E-01  0.1129E-01  0.9004E+01  0.9004E+01
      9.500  0.1394E-01  0.1394E-01  0.9006E+01  0.9006E+01
      9.691  0.1689E-01  0.1689E-01  0.9009E+01  0.9009E+01
      9.882  0.2002E-01  0.2002E-01  0.9013E+01  0.9013E+01
     10.072  0.2341E-01  0.2341E-01  0.9017E+01  0.9017E+01
     10.263  0.2703E-01  0.2704E-01  0.9022E+01  0.9022E+01
     10.454  0.3086E-01  0.3086E-01  0.9027E+01  0.9027E+01
     10.645  0.3499E-01  0.3499E-01  0.9033E+01  0.9033E+01
     10.835  0.3982E-01  0.3982E-01  0.9040E+01  0.9040E+01
     11.026  0.4499E-01  0.4499E-01  0.9049E+01  0.9049E+01
     11.217  0.5050E-01  0.5050E-01  0.9058E+01  0.9058E+01
     11.407  0.5675E-01  0.5675E-01  0.9068E+01  0.9068E+01
     11.598  0.6407E-01  0.6407E-01  0.9079E+01  0.9079E+01
     11.789  0.7224E-01  0.7224E-01  0.9092E+01  0.9092E+01
     11.980  0.8131E-01  0.8131E-01  0.9107E+01  0.9107E+01
     12.170  0.9227E-01  0.9227E-01  0.9123E+01  0.9123E+01
     12.361  0.1062E+00  0.1062E+00  0.9142E+01  0.9142E+01
     12.552  0.1229E+00  0.1229E+00  0.9164E+01  0.9164E+01
     12.742  0.1501E+00  0.1501E+00  0.9190E+01  0.9190E+01
     12.933  0.2039E+00  0.2039E+00  0.9223E+01  0.9223E+01
     13.124  0.2408E+00  0.2408E+00  0.9264E+01  0.9264E+01
     13.315  0.3044E+00  0.3044E+00  0.9315E+01  0.9315E+01
     13.505  0.3395E+00  0.3395E+00  0.9378E+01  0.9378E+01
     13.696  0.3243E+00  0.3243E+00  0.9441E+01  0.9441E+01
     13.887  0.3250E+00  0.3250E+00  0.9503E+01  0.9503E+01
     14.077  0.3100E+00  0.3100E+00  0.9564E+01  0.9564E+01
     14.268  0.3003E+00  0.3003E+00  0.9622E+01  0.9622E+01
     14.459  0.2882E+00  0.2882E+00  0.9678E+01  0.9678E+01
     14.650  0.2755E+00  0.2755E+00  0.9732E+01  0.9732E+01
     14.840  0.2619E+00  0.2619E+00  0.9783E+01  0.9783E+01
     15.031  0.2485E+00  0.2485E+00  0.9832E+01  0.9832E+01
     15.222  0.2454E+00  0.2454E+00  0.9879E+01  0.9879E+01
     15.412  0.2819E+00  0.2819E+00  0.9929E+01  0.9929E+01
     15.603  0.2330E+00  0.2330E+00  0.9977E+01  0.9977E+01
     15.794  0.3491E-01  0.3491E-01  0.1000E+02  0.1000E+02
     15.985  0.0000E+00  0.0000E+00  0.1000E+02  0.1000E+02
     16.175  0.1710E+00  0.1712E+00  0.1000E+02  0.1000E+02
     16.366  0.3010E+00  0.3010E+00  0.1006E+02  0.1006E+02
     16.557  0.3502E+00  0.3502E+00  0.1012E+02  0.1012E+02
     16.747  0.4203E+00  0.4203E+00  0.1019E+02  0.1019E+02
     16.938  0.4724E+00  0.4724E+00  0.1028E+02  0.1028E+02
     17.129  0.4504E+00  0.4504E+00  0.1037E+02  0.1037E+02
     17.320  0.3953E+00  0.3953E+00  0.1044E+02  0.1044E+02
     17.510  0.4775E+00  0.4775E+00  0.1052E+02  0.1052E+02
     17.701  0.5286E+00  0.5286E+00  0.1061E+02  0.1061E+02
     17.892  0.1024E+01  0.1024E+01  0.1078E+02  0.1078E+02
     18.082  0.6639E+00  0.6639E+00  0.1091E+02  0.1091E+02
     18.273  0.5991E+00  0.5991E+00  0.1103E+02  0.1103E+02
     18.464  0.5738E+00  0.5738E+00  0.1114E+02  0.1114E+02
     18.655  0.5108E+00  0.5107E+00  0.1124E+02  0.1124E+02
     18.845  0.4038E+00  0.4038E+00  0.1133E+02  0.1133E+02
     19.036  0.3459E+00  0.3459E+00  0.1140E+02  0.1140E+02
     19.227  0.3056E+00  0.3056E+00  0.1146E+02  0.1146E+02
     19.417  0.2665E+00  0.2665E+00  0.1152E+02  0.1152E+02
     19.608  0.2409E+00  0.2409E+00  0.1157E+02  0.1157E+02
     19.799  0.2206E+00  0.2206E+00  0.1161E+02  0.1161E+02
     19.990  0.2025E+00  0.2025E+00  0.1165E+02  0.1165E+02
     20.180  0.1823E+00  0.1823E+00  0.1169E+02  0.1169E+02
     20.371  0.1703E+00  0.1703E+00  0.1172E+02  0.1172E+02
     20.562  0.1587E+00  0.1587E+00  0.1175E+02  0.1175E+02
     20.752  0.1645E+00  0.1645E+00  0.1178E+02  0.1178E+02
     20.943  0.1678E+00  0.1678E+00  0.1181E+02  0.1181E+02
     21.134  0.1669E+00  0.1669E+00  0.1185E+02  0.1185E+02
     21.325  0.2537E+00  0.2537E+00  0.1189E+02  0.1189E+02
     21.515  0.3316E+00  0.3316E+00  0.1194E+02  0.1194E+02
     21.706  0.4649E+00  0.4649E+00  0.1202E+02  0.1202E+02
     21.897  0.6605E+00  0.6605E+00  0.1213E+02  0.1213E+02
     22.087  0.6366E+00  0.6366E+00  0.1225E+02  0.1225E+02
     22.278  0.6298E+00  0.6298E+00  0.1237E+02  0.1237E+02
     22.469  0.4773E+00  0.4773E+00  0.1247E+02  0.1247E+02
     22.660  0.4104E+00  0.4104E+00  0.1256E+02  0.1256E+02
     22.850  0.3778E+00  0.3778E+00  0.1263E+02  0.1263E+02
     23.041  0.3507E+00  0.3507E+00  0.1270E+02  0.1270E+02
     23.232  0.3384E+00  0.3384E+00  0.1277E+02  0.1277E+02
     23.422  0.3362E+00  0.3362E+00  0.1283E+02  0.1283E+02
     23.613  0.2133E+00  0.2133E+00  0.1288E+02  0.1288E+02
     23.804  0.2011E+00  0.2011E+00  0.1292E+02  0.1292E+02
     23.995  0.1887E+00  0.1887E+00  0.1295E+02  0.1295E+02
     24.185  0.1929E+00  0.1929E+00  0.1299E+02  0.1299E+02
     24.376  0.1832E+00  0.1832E+00  0.1303E+02  0.1303E+02
     24.567  0.1785E+00  0.1785E+00  0.1306E+02  0.1306E+02
     24.757  0.1846E+00  0.1846E+00  0.1309E+02  0.1309E+02
     24.948  0.1828E+00  0.1828E+00  0.1313E+02  0.1313E+02
     25.139  0.1879E+00  0.1879E+00  0.1316E+02  0.1316E+02
     25.330  0.1784E+00  0.1784E+00  0.1320E+02  0.1320E+02
     25.520  0.1564E+00  0.1564E+00  0.1323E+02  0.1323E+02
     25.711  0.1622E+00  0.1622E+00  0.1326E+02  0.1326E+02
     25.902  0.1798E+00  0.1798E+00  0.1330E+02  0.1330E+02
     26.092  0.1856E+00  0.1856E+00  0.1333E+02  0.1333E+02
     26.283  0.1939E+00  0.1939E+00  0.1337E+02  0.1337E+02
     26.474  0.2012E+00  0.2012E+00  0.1340E+02  0.1340E+02
     26.665  0.2066E+00  0.2066E+00  0.1344E+02  0.1344E+02
     26.855  0.2237E+00  0.2237E+00  0.1348E+02  0.1348E+02
     27.046  0.2271E+00  0.2271E+00  0.1353E+02  0.1353E+02
     27.237  0.2070E+00  0.2070E+00  0.1357E+02  0.1357E+02
     27.427  0.2148E+00  0.2148E+00  0.1361E+02  0.1361E+02
     27.618  0.2173E+00  0.2173E+00  0.1365E+02  0.1365E+02
     27.809  0.2535E+00  0.2535E+00  0.1369E+02  0.1369E+02
     28.000  0.2914E+00  0.2914E+00  0.1375E+02  0.1375E+02
     28.190  0.3180E+00  0.3180E+00  0.1380E+02  0.1380E+02
     28.381  0.3118E+00  0.3118E+00  0.1386E+02  0.1386E+02
     28.572  0.2794E+00  0.2794E+00  0.1392E+02  0.1392E+02
     28.762  0.2277E+00  0.2277E+00  0.1397E+02  0.1397E+02
     28.953  0.2070E+00  0.2070E+00  0.1401E+02  0.1401E+02
     29.144  0.1842E+00  0.1842E+00  0.1405E+02  0.1405E+02
     29.335  0.2080E+00  0.2080E+00  0.1409E+02  0.1409E+02
     29.525  0.2320E+00  0.2320E+00  0.1413E+02  0.1413E+02
     29.716  0.2656E+00  0.2656E+00  0.1418E+02  0.1418E+02
     29.907  0.2952E+00  0.2952E+00  0.1423E+02  0.1423E+02
     30.097  0.3200E+00  0.3200E+00  0.1429E+02  0.1429E+02
     30.288  0.3582E+00  0.3582E+00  0.1435E+02  0.1435E+02
     30.479  0.3744E+00  0.3744E+00  0.1443E+02  0.1443E+02
     30.670  0.3854E+00  0.3854E+00  0.1450E+02  0.1450E+02
     30.860  0.3343E+00  0.3343E+00  0.1457E+02  0.1457E+02
     31.051  0.3353E+00  0.3353E+00  0.1463E+02  0.1463E+02
     31.242  0.3420E+00  0.3420E+00  0.1469E+02  0.1469E+02
     31.432  0.3249E+00  0.3249E+00  0.1476E+02  0.1476E+02
     31.623  0.3134E+00  0.3134E+00  0.1482E+02  0.1482E+02
     31.814  0.3170E+00  0.3170E+00  0.1488E+02  0.1488E+02
     32.005  0.3188E+00  0.3188E+00  0.1494E+02  0.1494E+02
     32.195  0.3134E+00  0.3134E+00  0.1500E+02  0.1500E+02
     32.386  0.2656E+00  0.2656E+00  0.1506E+02  0.1506E+02
     32.577  0.2501E+00  0.2501E+00  0.1510E+02  0.1510E+02
     32.767  0.2275E+00  0.2275E+00  0.1515E+02  0.1515E+02
     32.958  0.2163E+00  0.2163E+00  0.1519E+02  0.1519E+02
     33.149  0.2082E+00  0.2082E+00  0.1523E+02  0.1523E+02
     33.340  0.2008E+00  0.2008E+00  0.1527E+02  0.1527E+02
     33.530  0.1918E+00  0.1918E+00  0.1531E+02  0.1531E+02
     33.721  0.1832E+00  0.1832E+00  0.1534E+02  0.1534E+02
     33.912  0.1750E+00  0.1750E+00  0.1538E+02  0.1538E+02
     34.102  0.1650E+00  0.1650E+00  0.1541E+02  0.1541E+02
     34.293  0.1560E+00  0.1560E+00  0.1544E+02  0.1544E+02
     34.484  0.1493E+00  0.1493E+00  0.1547E+02  0.1547E+02
     34.675  0.1448E+00  0.1448E+00  0.1550E+02  0.1550E+02
     34.865  0.1421E+00  0.1421E+00  0.1553E+02  0.1553E+02
     35.056  0.1383E+00  0.1383E+00  0.1555E+02  0.1555E+02
     35.247  0.1423E+00  0.1423E+00  0.1558E+02  0.1558E+02
     35.437  0.2084E+00  0.2084E+00  0.1561E+02  0.1561E+02
     35.628  0.1357E+00  0.1358E+00  0.1565E+02  0.1565E+02
     35.819  0.1012E+00  0.1012E+00  0.1567E+02  0.1567E+02
     36.010  0.2079E+00  0.2079E+00  0.1570E+02  0.1570E+02
     36.200  0.3753E+00  0.3754E+00  0.1576E+02  0.1576E+02
     36.391  0.2879E+00  0.2882E+00  0.1583E+02  0.1583E+02
     36.582  0.2262E+00  0.2260E+00  0.1587E+02  0.1587E+02
     36.772  0.2083E+00  0.2083E+00  0.1591E+02  0.1591E+02
     36.963  0.2204E+00  0.2204E+00  0.1596E+02  0.1596E+02
     37.154  0.1091E+00  0.1091E+00  0.1599E+02  0.1599E+02
     37.345  0.7657E-02  0.7657E-02  0.1600E+02  0.1600E+02
     37.535  0.5570E-02  0.5570E-02  0.1600E+02  0.1600E+02
     37.726  0.3785E-02  0.3785E-02  0.1600E+02  0.1600E+02
     37.917  0.2505E-02  0.2505E-02  0.1600E+02  0.1600E+02
     38.107  0.1489E-02  0.1489E-02  0.1600E+02  0.1600E+02
     38.298  0.7350E-03  0.7351E-03  0.1600E+02  0.1600E+02
     38.489  0.2446E-03  0.2447E-03  0.1600E+02  0.1600E+02
     38.680  0.1739E-04  0.1740E-04  0.1600E+02  0.1600E+02
     38.870  0.0000E+00  0.0000E+00  0.1600E+02  0.1600E+02
     39.061  0.0000E+00  0.0000E+00  0.1600E+02  0.1600E+02
     39.252  0.0000E+00  0.0000E+00  0.1600E+02  0.1600E+02
     39.442  0.0000E+00  0.0000E+00  0.1600E+02  0.1600E+02
     39.633  0.0000E+00  0.0000E+00  0.1600E+02  0.1600E+02
     39.824  0.0000E+00  0.0000E+00  0.1600E+02  0.1600E+02
     40.015  0.0000E+00  0.0000E+00  0.1600E+02  0.1600E+02
     40.205  0.0000E+00  0.0000E+00  0.1600E+02  0.1600E+02
     40.396  0.0000E+00  0.0000E+00  0.1600E+02  0.1600E+02
     40.587  0.0000E+00  0.0000E+00  0.1600E+02  0.1600E+02
     40.777  0.0000E+00  0.0000E+00  0.1600E+02  0.1600E+02
     40.968  0.0000E+00  0.0000E+00  0.1600E+02  0.1600E+02
     41.159  0.0000E+00  0.0000E+00  0.1600E+02  0.1600E+02
     41.350  0.0000E+00  0.0000E+00  0.1600E+02  0.1600E+02
     41.34959514    -15.86460759  301      6.37864893      1.00000000
    -15.865  0.0000E+00  0.0000E+00  0.0000E+00  0.0000E+00  0.0000E+00  0.0000E+00  0.0000E+00  0.0000E+00  0.0000E+00  0.0000E+00  0.0000E+00  0.0000E+00  0.0000E+00  0.0000E+00  0.0000E+00  0.0000E+00  0.0000E+00  0.0000E+00
    -15.674  0.0000E+00  0.0000E+00  0.0000E+00  0.0000E+00  0.0000E+00  0.0000E+00  0.0000E+00  0.0000E+00  0.0000E+00  0.0000E+00  0.0000E+00  0.0000E+00  0.0000E+00  0.0000E+00  0.0000E+00  0.0000E+00  0.0000E+00  0.0000E+00
    -15.483  0.0000E+00  0.0000E+00  0.0000E+00  0.0000E+00  0.0000E+00  0.0000E+00  0.0000E+00  0.0000E+00  0.0000E+00  0.0000E+00  0.0000E+00  0.0000E+00  0.0000E+00  0.0000E+00  0.0000E+00  0.0000E+00  0.0000E+00  0.0000E+00
    -15.292  0.0000E+00  0.0000E+00  0.0000E+00  0.0000E+00  0.0000E+00  0.0000E+00  0.0000E+00  0.0000E+00  0.0000E+00  0.0000E+00  0.0000E+00  0.0000E+00  0.0000E+00  0.0000E+00  0.0000E+00  0.0000E+00  0.0000E+00  0.0000E+00
    -15.102  0.0000E+00  0.0000E+00  0.0000E+00  0.0000E+00  0.0000E+00  0.0000E+00  0.0000E+00  0.0000E+00  0.0000E+00  0.0000E+00  0.0000E+00  0.0000E+00  0.0000E+00  0.0000E+00  0.0000E+00  0.0000E+00  0.0000E+00  0.0000E+00
    -14.911  0.0000E+00  0.0000E+00  0.0000E+00  0.0000E+00  0.0000E+00  0.0000E+00  0.0000E+00  0.0000E+00  0.0000E+00  0.0000E+00  0.0000E+00  0.0000E+00  0.0000E+00  0.0000E+00  0.0000E+00  0.0000E+00  0.0000E+00  0.0000E+00
    -14.720  0.0000E+00  0.0000E+00  0.0000E+00  0.0000E+00  0.0000E+00  0.0000E+00  0.0000E+00  0.0000E+00  0.0000E+00  0.0000E+00  0.0000E+00  0.0000E+00  0.0000E+00  0.0000E+00  0.0000E+00  0.0000E+00  0.0000E+00  0.0000E+00
    -14.530  0.0000E+00  0.0000E+00  0.0000E+00  0.0000E+00  0.0000E+00  0.0000E+00  0.0000E+00  0.0000E+00  0.0000E+00  0.0000E+00  0.0000E+00  0.0000E+00  0.0000E+00  0.0000E+00  0.0000E+00  0.0000E+00  0.0000E+00  0.0000E+00
    -14.339  0.0000E+00  0.0000E+00  0.0000E+00  0.0000E+00  0.0000E+00  0.0000E+00  0.0000E+00  0.0000E+00  0.0000E+00  0.0000E+00  0.0000E+00  0.0000E+00  0.0000E+00  0.0000E+00  0.0000E+00  0.0000E+00  0.0000E+00  0.0000E+00
    -14.148  0.0000E+00  0.0000E+00  0.0000E+00  0.0000E+00  0.0000E+00  0.0000E+00  0.0000E+00  0.0000E+00  0.0000E+00  0.0000E+00  0.0000E+00  0.0000E+00  0.0000E+00  0.0000E+00  0.0000E+00  0.0000E+00  0.0000E+00  0.0000E+00
    -13.957  0.0000E+00  0.0000E+00  0.0000E+00  0.0000E+00  0.0000E+00  0.0000E+00  0.0000E+00  0.0000E+00  0.0000E+00  0.0000E+00  0.0000E+00  0.0000E+00  0.0000E+00  0.0000E+00  0.0000E+00  0.0000E+00  0.0000E+00  0.0000E+00
    -13.767  0.0000E+00  0.0000E+00  0.0000E+00  0.0000E+00  0.0000E+00  0.0000E+00  0.0000E+00  0.0000E+00  0.0000E+00  0.0000E+00  0.0000E+00  0.0000E+00  0.0000E+00  0.0000E+00  0.0000E+00  0.0000E+00  0.0000E+00  0.0000E+00
    -13.576  0.0000E+00  0.0000E+00  0.0000E+00  0.0000E+00  0.0000E+00  0.0000E+00  0.0000E+00  0.0000E+00  0.0000E+00  0.0000E+00  0.0000E+00  0.0000E+00  0.0000E+00  0.0000E+00  0.0000E+00  0.0000E+00  0.0000E+00  0.0000E+00
    -13.385  0.0000E+00  0.0000E+00  0.0000E+00  0.0000E+00  0.0000E+00  0.0000E+00  0.0000E+00  0.0000E+00  0.0000E+00  0.0000E+00  0.0000E+00  0.0000E+00  0.0000E+00  0.0000E+00  0.0000E+00  0.0000E+00  0.0000E+00  0.0000E+00
    -13.195  0.4951E-02  0.4951E-02  0.4340E-04  0.4340E-04  0.4340E-04  0.4340E-04  0.4340E-04  0.4340E-04  0.1695E-07  0.1695E-07  0.1695E-07  0.1695E-07  0.1034E-05  0.1034E-05  0.1695E-07  0.1695E-07  0.1034E-05  0.1034E-05
    -13.004  0.1190E-01  0.1190E-01  0.3755E-03  0.3755E-03  0.3755E-03  0.3755E-03  0.3755E-03  0.3755E-03  0.3806E-06  0.3806E-06  0.3806E-06  0.3806E-06  0.2681E-04  0.2682E-04  0.3806E-06  0.3806E-06  0.2681E-04  0.2682E-04
    -12.813  0.1260E-01  0.1260E-01  0.8349E-03  0.8349E-03  0.8349E-03  0.8349E-03  0.8349E-03  0.8349E-03  0.1298E-05  0.1298E-05  0.1298E-05  0.1298E-05  0.1195E-03  0.1195E-03  0.1298E-05  0.1298E-05  0.1195E-03  0.1195E-03
    -12.622  0.1411E-01  0.1411E-01  0.1545E-02  0.1545E-02  0.1545E-02  0.1545E-02  0.1545E-02  0.1545E-02  0.3012E-05  0.3012E-05  0.3012E-05  0.3012E-05  0.3496E-03  0.3496E-03  0.3012E-05  0.3012E-05  0.3496E-03  0.3496E-03
    -12.432  0.1542E-01  0.1542E-01  0.2625E-02  0.2625E-02  0.2625E-02  0.2625E-02  0.2625E-02  0.2625E-02  0.5618E-05  0.5618E-05  0.5618E-05  0.5618E-05  0.8984E-03  0.8984E-03  0.5618E-05  0.5618E-05  0.8984E-03  0.8984E-03
    -12.241  0.1584E-01  0.1584E-01  0.4269E-02  0.4269E-02  0.4269E-02  0.4269E-02  0.4269E-02  0.4269E-02  0.9118E-05  0.9119E-05  0.9118E-05  0.9119E-05  0.2141E-02  0.2141E-02  0.9118E-05  0.9119E-05  0.2141E-02  0.2141E-02
    -12.050  0.1563E-01  0.1563E-01  0.7337E-02  0.7338E-02  0.7337E-02  0.7338E-02  0.7337E-02  0.7338E-02  0.1339E-04  0.1339E-04  0.1339E-04  0.1339E-04  0.5540E-02  0.5540E-02  0.1339E-04  0.1339E-04  0.5540E-02  0.5540E-02
    -11.860  0.1752E-01  0.1752E-01  0.2305E-01  0.2305E-01  0.2305E-01  0.2305E-01  0.2305E-01  0.2305E-01  0.2194E-04  0.2194E-04  0.2194E-04  0.2194E-04  0.2252E-01  0.2252E-01  0.2194E-04  0.2194E-04  0.2252E-01  0.2252E-01
    -11.669  0.5401E-02  0.5401E-02  0.1331E-01  0.1331E-01  0.1331E-01  0.1331E-01  0.1331E-01  0.1331E-01  0.1101E-04  0.1101E-04  0.1101E-04  0.1101E-04  0.2915E-01  0.2915E-01  0.1101E-04  0.1101E-04  0.2915E-01  0.2915E-01
    -11.478  0.0000E+00  0.0000E+00  0.0000E+00  0.0000E+00  0.0000E+00  0.0000E+00  0.0000E+00  0.0000E+00  0.0000E+00  0.0000E+00  0.0000E+00  0.0000E+00  0.0000E+00  0.0000E+00  0.0000E+00  0.0000E+00  0.0000E+00  0.0000E+00
    -11.287  0.0000E+00  0.0000E+00  0.0000E+00  0.0000E+00  0.0000E+00  0.0000E+00  0.0000E+00  0.0000E+00  0.0000E+00  0.0000E+00  0.0000E+00  0.0000E+00  0.0000E+00  0.0000E+00  0.0000E+00  0.0000E+00  0.0000E+00  0.0000E+00
    -11.097  0.0000E+00  0.0000E+00  0.0000E+00  0.0000E+00  0.0000E+00  0.0000E+00  0.0000E+00  0.0000E+00  0.0000E+00  0.0000E+00  0.0000E+00  0.0000E+00  0.0000E+00  0.0000E+00  0.0000E+00  0.0000E+00  0.0000E+00  0.0000E+00
    -10.906  0.0000E+00  0.0000E+00  0.0000E+00  0.0000E+00  0.0000E+00  0.0000E+00  0.0000E+00  0.0000E+00  0.0000E+00  0.0000E+00  0.0000E+00  0.0000E+00  0.0000E+00  0.0000E+00  0.0000E+00  0.0000E+00  0.0000E+00  0.0000E+00
    -10.715  0.0000E+00  0.0000E+00  0.0000E+00  0.0000E+00  0.0000E+00  0.0000E+00  0.0000E+00  0.0000E+00  0.0000E+00  0.0000E+00  0.0000E+00  0.0000E+00  0.0000E+00  0.0000E+00  0.0000E+00  0.0000E+00  0.0000E+00  0.0000E+00
    -10.525  0.0000E+00  0.0000E+00  0.0000E+00  0.0000E+00  0.0000E+00  0.0000E+00  0.0000E+00  0.0000E+00  0.0000E+00  0.0000E+00  0.0000E+00  0.0000E+00  0.0000E+00  0.0000E+00  0.0000E+00  0.0000E+00  0.0000E+00  0.0000E+00
    -10.334  0.0000E+00  0.0000E+00  0.0000E+00  0.0000E+00  0.0000E+00  0.0000E+00  0.0000E+00  0.0000E+00  0.0000E+00  0.0000E+00  0.0000E+00  0.0000E+00  0.0000E+00  0.0000E+00  0.0000E+00  0.0000E+00  0.0000E+00  0.0000E+00
    -10.143  0.0000E+00  0.0000E+00  0.0000E+00  0.0000E+00  0.0000E+00  0.0000E+00  0.0000E+00  0.0000E+00  0.0000E+00  0.0000E+00  0.0000E+00  0.0000E+00  0.0000E+00  0.0000E+00  0.0000E+00  0.0000E+00  0.0000E+00  0.0000E+00
     -9.952  0.0000E+00  0.0000E+00  0.0000E+00  0.0000E+00  0.0000E+00  0.0000E+00  0.0000E+00  0.0000E+00  0.0000E+00  0.0000E+00  0.0000E+00  0.0000E+00  0.0000E+00  0.0000E+00  0.0000E+00  0.0000E+00  0.0000E+00  0.0000E+00
     -9.762  0.0000E+00  0.0000E+00  0.0000E+00  0.0000E+00  0.0000E+00  0.0000E+00  0.0000E+00  0.0000E+00  0.0000E+00  0.0000E+00  0.0000E+00  0.0000E+00  0.0000E+00  0.0000E+00  0.0000E+00  0.0000E+00  0.0000E+00  0.0000E+00
     -9.571  0.0000E+00  0.0000E+00  0.0000E+00  0.0000E+00  0.0000E+00  0.0000E+00  0.0000E+00  0.0000E+00  0.0000E+00  0.0000E+00  0.0000E+00  0.0000E+00  0.0000E+00  0.0000E+00  0.0000E+00  0.0000E+00  0.0000E+00  0.0000E+00
     -9.380  0.0000E+00  0.0000E+00  0.0000E+00  0.0000E+00  0.0000E+00  0.0000E+00  0.0000E+00  0.0000E+00  0.0000E+00  0.0000E+00  0.0000E+00  0.0000E+00  0.0000E+00  0.0000E+00  0.0000E+00  0.0000E+00  0.0000E+00  0.0000E+00
     -9.190  0.0000E+00  0.0000E+00  0.0000E+00  0.0000E+00  0.0000E+00  0.0000E+00  0.0000E+00  0.0000E+00  0.0000E+00  0.0000E+00  0.0000E+00  0.0000E+00  0.0000E+00  0.0000E+00  0.0000E+00  0.0000E+00  0.0000E+00  0.0000E+00
     -8.999  0.0000E+00  0.0000E+00  0.0000E+00  0.0000E+00  0.0000E+00  0.0000E+00  0.0000E+00  0.0000E+00  0.0000E+00  0.0000E+00  0.0000E+00  0.0000E+00  0.0000E+00  0.0000E+00  0.0000E+00  0.0000E+00  0.0000E+00  0.0000E+00
     -8.808  0.0000E+00  0.0000E+00  0.0000E+00  0.0000E+00  0.0000E+00  0.0000E+00  0.0000E+00  0.0000E+00  0.0000E+00  0.0000E+00  0.0000E+00  0.0000E+00  0.0000E+00  0.0000E+00  0.0000E+00  0.0000E+00  0.0000E+00  0.0000E+00
     -8.617  0.0000E+00  0.0000E+00  0.0000E+00  0.0000E+00  0.0000E+00  0.0000E+00  0.0000E+00  0.0000E+00  0.0000E+00  0.0000E+00  0.0000E+00  0.0000E+00  0.0000E+00  0.0000E+00  0.0000E+00  0.0000E+00  0.0000E+00  0.0000E+00
     -8.427  0.0000E+00  0.0000E+00  0.0000E+00  0.0000E+00  0.0000E+00  0.0000E+00  0.0000E+00  0.0000E+00  0.0000E+00  0.0000E+00  0.0000E+00  0.0000E+00  0.0000E+00  0.0000E+00  0.0000E+00  0.0000E+00  0.0000E+00  0.0000E+00
     -8.236  0.0000E+00  0.0000E+00  0.0000E+00  0.0000E+00  0.0000E+00  0.0000E+00  0.0000E+00  0.0000E+00  0.0000E+00  0.0000E+00  0.0000E+00  0.0000E+00  0.0000E+00  0.0000E+00  0.0000E+00  0.0000E+00  0.0000E+00  0.0000E+00
     -8.045  0.0000E+00  0.0000E+00  0.0000E+00  0.0000E+00  0.0000E+00  0.0000E+00  0.0000E+00  0.0000E+00  0.0000E+00  0.0000E+00  0.0000E+00  0.0000E+00  0.0000E+00  0.0000E+00  0.0000E+00  0.0000E+00  0.0000E+00  0.0000E+00
     -7.855  0.0000E+00  0.0000E+00  0.0000E+00  0.0000E+00  0.0000E+00  0.0000E+00  0.0000E+00  0.0000E+00  0.0000E+00  0.0000E+00  0.0000E+00  0.0000E+00  0.0000E+00  0.0000E+00  0.0000E+00  0.0000E+00  0.0000E+00  0.0000E+00
     -7.664  0.0000E+00  0.0000E+00  0.0000E+00  0.0000E+00  0.0000E+00  0.0000E+00  0.0000E+00  0.0000E+00  0.0000E+00  0.0000E+00  0.0000E+00  0.0000E+00  0.0000E+00  0.0000E+00  0.0000E+00  0.0000E+00  0.0000E+00  0.0000E+00
     -7.473  0.0000E+00  0.0000E+00  0.0000E+00  0.0000E+00  0.0000E+00  0.0000E+00  0.0000E+00  0.0000E+00  0.0000E+00  0.0000E+00  0.0000E+00  0.0000E+00  0.0000E+00  0.0000E+00  0.0000E+00  0.0000E+00  0.0000E+00  0.0000E+00
     -7.282  0.0000E+00  0.0000E+00  0.0000E+00  0.0000E+00  0.0000E+00  0.0000E+00  0.0000E+00  0.0000E+00  0.0000E+00  0.0000E+00  0.0000E+00  0.0000E+00  0.0000E+00  0.0000E+00  0.0000E+00  0.0000E+00  0.0000E+00  0.0000E+00
     -7.092  0.0000E+00  0.0000E+00  0.0000E+00  0.0000E+00  0.0000E+00  0.0000E+00  0.0000E+00  0.0000E+00  0.0000E+00  0.0000E+00  0.0000E+00  0.0000E+00  0.0000E+00  0.0000E+00  0.0000E+00  0.0000E+00  0.0000E+00  0.0000E+00
     -6.901  0.0000E+00  0.0000E+00  0.0000E+00  0.0000E+00  0.0000E+00  0.0000E+00  0.0000E+00  0.0000E+00  0.0000E+00  0.0000E+00  0.0000E+00  0.0000E+00  0.0000E+00  0.0000E+00  0.0000E+00  0.0000E+00  0.0000E+00  0.0000E+00
     -6.710  0.0000E+00  0.0000E+00  0.0000E+00  0.0000E+00  0.0000E+00  0.0000E+00  0.0000E+00  0.0000E+00  0.0000E+00  0.0000E+00  0.0000E+00  0.0000E+00  0.0000E+00  0.0000E+00  0.0000E+00  0.0000E+00  0.0000E+00  0.0000E+00
     -6.520  0.0000E+00  0.0000E+00  0.0000E+00  0.0000E+00  0.0000E+00  0.0000E+00  0.0000E+00  0.0000E+00  0.0000E+00  0.0000E+00  0.0000E+00  0.0000E+00  0.0000E+00  0.0000E+00  0.0000E+00  0.0000E+00  0.0000E+00  0.0000E+00
     -6.329  0.0000E+00  0.0000E+00  0.0000E+00  0.0000E+00  0.0000E+00  0.0000E+00  0.0000E+00  0.0000E+00  0.0000E+00  0.0000E+00  0.0000E+00  0.0000E+00  0.0000E+00  0.0000E+00  0.0000E+00  0.0000E+00  0.0000E+00  0.0000E+00