   2   2   0   0
  0.2416209E+02  0.4088461E-09  0.4088461E-09  0.4088461E-09  0.0000000E+00
   1.0000000000000000E-004
  CAR 
 unknown system                          
     20.66067860    -24.17096430  301     -1.13978487      1.00000000
    -24.171  0.0000E+00  0.0000E+00
    -24.022  0.0000E+00  0.0000E+00
    -23.872  0.0000E+00  0.0000E+00
    -23.723  0.0000E+00  0.0000E+00
    -23.573  0.0000E+00  0.0000E+00
    -23.424  0.0000E+00  0.0000E+00
    -23.274  0.0000E+00  0.0000E+00
    -23.125  0.0000E+00  0.0000E+00
    -22.975  0.0000E+00  0.0000E+00
    -22.826  0.0000E+00  0.0000E+00
    -22.677  0.0000E+00  0.0000E+00
    -22.527  0.0000E+00  0.0000E+00
    -22.378  0.0000E+00  0.0000E+00
    -22.228  0.0000E+00  0.0000E+00
    -22.079  0.4015E+02  0.6000E+01
    -21.929  0.0000E+00  0.6000E+01
    -21.780  0.0000E+00  0.6000E+01
    -21.631  0.0000E+00  0.6000E+01
    -21.481  0.0000E+00  0.6000E+01
    -21.332  0.0000E+00  0.6000E+01
    -21.182  0.0000E+00  0.6000E+01
    -21.033  0.0000E+00  0.6000E+01
    -20.883  0.0000E+00  0.6000E+01
    -20.734  0.0000E+00  0.6000E+01
    -20.584  0.0000E+00  0.6000E+01
    -20.435  0.0000E+00  0.6000E+01
    -20.286  0.0000E+00  0.6000E+01
    -20.136  0.0000E+00  0.6000E+01
    -19.987  0.0000E+00  0.6000E+01
    -19.837  0.0000E+00  0.6000E+01
    -19.688  0.0000E+00  0.6000E+01
    -19.538  0.0000E+00  0.6000E+01
    -19.389  0.0000E+00  0.6000E+01
    -19.239  0.0000E+00  0.6000E+01
    -19.090  0.0000E+00  0.6000E+01
    -18.941  0.0000E+00  0.6000E+01
    -18.791  0.0000E+00  0.6000E+01
    -18.642  0.0000E+00  0.6000E+01
    -18.492  0.0000E+00  0.6000E+01
    -18.343  0.0000E+00  0.6000E+01
    -18.193  0.0000E+00  0.6000E+01
    -18.044  0.0000E+00  0.6000E+01
    -17.895  0.0000E+00  0.6000E+01
    -17.745  0.0000E+00  0.6000E+01
    -17.596  0.0000E+00  0.6000E+01
    -17.446  0.0000E+00  0.6000E+01
    -17.297  0.0000E+00  0.6000E+01
    -17.147  0.0000E+00  0.6000E+01
    -16.998  0.0000E+00  0.6000E+01
    -16.848  0.0000E+00  0.6000E+01
    -16.699  0.0000E+00  0.6000E+01
    -16.550  0.0000E+00  0.6000E+01
    -16.400  0.0000E+00  0.6000E+01
    -16.251  0.0000E+00  0.6000E+01
    -16.101  0.0000E+00  0.6000E+01
    -15.952  0.0000E+00  0.6000E+01
    -15.802  0.0000E+00  0.6000E+01
    -15.653  0.0000E+00  0.6000E+01
    -15.504  0.0000E+00  0.6000E+01
    -15.354  0.0000E+00  0.6000E+01
    -15.205  0.0000E+00  0.6000E+01
    -15.055  0.0000E+00  0.6000E+01
    -14.906  0.0000E+00  0.6000E+01
    -14.756  0.0000E+00  0.6000E+01
    -14.607  0.0000E+00  0.6000E+01
    -14.457  0.0000E+00  0.6000E+01
    -14.308  0.0000E+00  0.6000E+01
    -14.159  0.0000E+00  0.6000E+01
    -14.009  0.0000E+00  0.6000E+01
    -13.860  0.0000E+00  0.6000E+01
    -13.710  0.0000E+00  0.6000E+01
    -13.561  0.1710E+01  0.6070E+01
    -13.411  0.8721E+01  0.6573E+01
    -13.262  0.8534E+01  0.8000E+01
    -13.112  0.0000E+00  0.8000E+01
    -12.963  0.0000E+00  0.8000E+01
    -12.814  0.0000E+00  0.8000E+01
    -12.664  0.0000E+00  0.8000E+01
    -12.515  0.0000E+00  0.8000E+01
    -12.365  0.0000E+00  0.8000E+01
    -12.216  0.0000E+00  0.8000E+01
    -12.066  0.0000E+00  0.8000E+01
    -11.917  0.0000E+00  0.8000E+01
    -11.768  0.0000E+00  0.8000E+01
    -11.618  0.0000E+00  0.8000E+01
    -11.469  0.0000E+00  0.8000E+01
    -11.319  0.0000E+00  0.8000E+01
    -11.170  0.0000E+00  0.8000E+01
    -11.020  0.0000E+00  0.8000E+01
    -10.871  0.0000E+00  0.8000E+01
    -10.721  0.0000E+00  0.8000E+01
    -10.572  0.0000E+00  0.8000E+01
    -10.423  0.0000E+00  0.8000E+01
    -10.273  0.0000E+00  0.8000E+01
    -10.124  0.0000E+00  0.8000E+01
     -9.974  0.0000E+00  0.8000E+01
     -9.825  0.0000E+00  0.8000E+01
     -9.675  0.0000E+00  0.8000E+01
     -9.526  0.0000E+00  0.8000E+01
     -9.377  0.0000E+00  0.8000E+01
     -9.227  0.0000E+00  0.8000E+01
     -9.078  0.0000E+00  0.8000E+01
     -8.928  0.0000E+00  0.8000E+01
     -8.779  0.0000E+00  0.8000E+01
     -8.629  0.0000E+00  0.8000E+01
     -8.480  0.0000E+00  0.8000E+01
     -8.330  0.0000E+00  0.8000E+01
     -8.181  0.0000E+00  0.8000E+01
     -8.032  0.0000E+00  0.8000E+01
     -7.882  0.0000E+00  0.8000E+01
     -7.733  0.0000E+00  0.8000E+01
     -7.583  0.0000E+00  0.8000E+01
     -7.434  0.0000E+00  0.8000E+01
     -7.284  0.0000E+00  0.8000E+01
     -7.135  0.0000E+00  0.8000E+01
     -6.986  0.0000E+00  0.8000E+01
     -6.836  0.0000E+00  0.8000E+01
     -6.687  0.0000E+00  0.8000E+01
     -6.537  0.0000E+00  0.8000E+01
     -6.388  0.0000E+00  0.8000E+01
     -6.238  0.0000E+00  0.8000E+01
     -6.089  0.0000E+00  0.8000E+01
     -5.939  0.0000E+00  0.8000E+01
     -5.790  0.0000E+00  0.8000E+01
     -5.641  0.0000E+00  0.8000E+01
     -5.491  0.0000E+00  0.8000E+01
     -5.342  0.0000E+00  0.8000E+01
     -5.192  0.0000E+00  0.8000E+01
     -5.043  0.0000E+00  0.8000E+01
     -4.893  0.0000E+00  0.8000E+01
     -4.744  0.0000E+00  0.8000E+01
     -4.594  0.0000E+00  0.8000E+01
     -4.445  0.0000E+00  0.8000E+01
     -4.296  0.0000E+00  0.8000E+01
     -4.146  0.0000E+00  0.8000E+01
     -3.997  0.0000E+00  0.8000E+01
     -3.847  0.0000E+00  0.8000E+01
     -3.698  0.0000E+00  0.8000E+01
     -3.548  0.0000E+00  0.8000E+01
     -3.399  0.0000E+00  0.8000E+01
     -3.250  0.0000E+00  0.8000E+01
     -3.100  0.0000E+00  0.8000E+01
     -2.951  0.0000E+00  0.8000E+01
     -2.801  0.5216E+00  0.8012E+01
     -2.652  0.1561E+01  0.8170E+01
     -2.502  0.5860E+01  0.8616E+01
     -2.353  0.4992E+01  0.9471E+01
     -2.203  0.1081E+01  0.9720E+01
     -2.054  0.2304E+01  0.9964E+01
     -1.905  0.2622E+01  0.1033E+02
     -1.755  0.3432E+01  0.1076E+02
     -1.606  0.7926E+01  0.1156E+02
     -1.456  0.8668E+01  0.1260E+02
     -1.307  0.6807E+01  0.1361E+02
     -1.157  0.1987E+01  0.1399E+02
     -1.008  0.0000E+00  0.1400E+02
     -0.859  0.0000E+00  0.1400E+02
     -0.709  0.0000E+00  0.1400E+02
     -0.560  0.0000E+00  0.1400E+02
     -0.410  0.0000E+00  0.1400E+02
     -0.261  0.0000E+00  0.1400E+02
     -0.111  0.0000E+00  0.1400E+02
      0.038  0.0000E+00  0.1400E+02
      0.188  0.0000E+00  0.1400E+02
      0.337  0.0000E+00  0.1400E+02
      0.486  0.0000E+00  0.1400E+02
      0.636  0.0000E+00  0.1400E+02
      0.785  0.0000E+00  0.1400E+02
      0.935  0.0000E+00  0.1400E+02
      1.084  0.0000E+00  0.1400E+02
      1.234  0.0000E+00  0.1400E+02
      1.383  0.0000E+00  0.1400E+02
      1.533  0.0000E+00  0.1400E+02
      1.682  0.0000E+00  0.1400E+02
      1.831  0.0000E+00  0.1400E+02
      1.981  0.0000E+00  0.1400E+02
      2.130  0.0000E+00  0.1400E+02
      2.280  0.0000E+00  0.1400E+02
      2.429  0.0000E+00  0.1400E+02
      2.579  0.0000E+00  0.1400E+02
      2.728  0.0000E+00  0.1400E+02
      2.877  0.0000E+00  0.1400E+02
      3.027  0.0000E+00  0.1400E+02
      3.176  0.0000E+00  0.1400E+02
      3.326  0.0000E+00  0.1400E+02
      3.475  0.0000E+00  0.1400E+02
      3.625  0.0000E+00  0.1400E+02
      3.774  0.7967E-02  0.1400E+02
      3.924  0.4055E-01  0.1400E+02
      4.073  0.5859E-01  0.1401E+02
      4.222  0.7960E-01  0.1402E+02
      4.372  0.9619E-01  0.1404E+02
      4.521  0.1159E+00  0.1405E+02
      4.671  0.1371E+00  0.1407E+02
      4.820  0.1597E+00  0.1409E+02
      4.970  0.1851E+00  0.1412E+02
      5.119  0.2140E+00  0.1415E+02
      5.268  0.2460E+00  0.1418E+02
      5.418  0.2858E+00  0.1422E+02
      5.567  0.3367E+00  0.1427E+02
      5.717  0.3996E+00  0.1432E+02
      5.866  0.4953E+00  0.1439E+02
      6.016  0.7008E+00  0.1448E+02
      6.165  0.8078E+00  0.1460E+02
      6.315  0.1299E+01  0.1475E+02
      6.464  0.1220E+01  0.1493E+02
      6.613  0.1202E+01  0.1511E+02
      6.763  0.1187E+01  0.1529E+02
      6.912  0.1120E+01  0.1546E+02
      7.062  0.1179E+01  0.1563E+02
      7.211  0.1286E+01  0.1581E+02
      7.361  0.1306E+01  0.1601E+02
      7.510  0.7141E+00  0.1618E+02
      7.660  0.8499E+00  0.1628E+02
      7.809  0.1629E+01  0.1646E+02
      7.958  0.2077E+01  0.1682E+02
      8.108  0.1470E+01  0.1705E+02
      8.257  0.1541E+01  0.1726E+02
      8.407  0.2178E+01  0.1754E+02
      8.556  0.2871E+01  0.1791E+02
      8.706  0.2524E+01  0.1829E+02
      8.855  0.2445E+01  0.1870E+02
      9.004  0.1892E+01  0.1901E+02
      9.154  0.1383E+01  0.1926E+02
      9.303  0.1104E+01  0.1944E+02
      9.453  0.9279E+00  0.1959E+02
      9.602  0.6088E+00  0.1971E+02
      9.752  0.7832E+00  0.1980E+02
      9.901  0.9448E+00  0.1993E+02
     10.051  0.1573E+01  0.2011E+02
     10.200  0.2011E+01  0.2039E+02
     10.349  0.2051E+01  0.2066E+02
     10.499  0.2451E+01  0.2102E+02
     10.648  0.1430E+01  0.2132E+02
     10.798  0.1089E+01  0.2150E+02
     10.947  0.1125E+01  0.2167E+02
     11.097  0.1045E+01  0.2183E+02
     11.246  0.9040E+00  0.2197E+02
     11.395  0.8507E+00  0.2210E+02
     11.545  0.7943E+00  0.2223E+02
     11.694  0.7264E+00  0.2234E+02
     11.844  0.8519E+00  0.2245E+02
     11.993  0.1013E+01  0.2259E+02
     12.143  0.1141E+01  0.2276E+02
     12.292  0.1566E+01  0.2295E+02
     12.442  0.1775E+01  0.2320E+02
     12.591  0.1879E+01  0.2348E+02
     12.740  0.1614E+01  0.2374E+02
     12.890  0.1245E+01  0.2396E+02
     13.039  0.8670E+00  0.2411E+02
     13.189  0.8660E+00  0.2424E+02
     13.338  0.9361E+00  0.2438E+02
     13.488  0.9172E+00  0.2452E+02
     13.637  0.9285E+00  0.2465E+02
     13.786  0.1057E+01  0.2480E+02
     13.936  0.1844E+01  0.2502E+02
     14.085  0.1888E+01  0.2529E+02
     14.235  0.2099E+01  0.2559E+02
     14.384  0.1505E+01  0.2583E+02
     14.534  0.1630E+01  0.2607E+02
     14.683  0.1076E+01  0.2629E+02
     14.833  0.8050E+00  0.2642E+02
     14.982  0.1446E+01  0.2654E+02
     15.131  0.2446E+01  0.2681E+02
     15.281  0.2908E+01  0.2721E+02
     15.430  0.2109E+01  0.2760E+02
     15.580  0.1645E+01  0.2786E+02
     15.729  0.1732E+01  0.2811E+02
     15.879  0.1822E+01  0.2838E+02
     16.028  0.1995E+01  0.2866E+02
     16.178  0.1969E+01  0.2896E+02
     16.327  0.2045E+01  0.2925E+02
     16.476  0.2112E+01  0.2957E+02
     16.626  0.2041E+01  0.2987E+02
     16.775  0.1957E+01  0.3017E+02
     16.925  0.1566E+01  0.3045E+02
     17.074  0.1443E+01  0.3066E+02
     17.224  0.2030E+01  0.3090E+02
     17.373  0.2391E+01  0.3125E+02
     17.522  0.2080E+01  0.3159E+02
     17.672  0.1098E+01  0.3183E+02
     17.821  0.4330E+00  0.3194E+02
     17.971  0.1256E+00  0.3197E+02
     18.120  0.7008E-01  0.3199E+02
     18.270  0.3431E-01  0.3200E+02
     18.419  0.1142E-01  0.3200E+02
     18.569  0.8119E-03  0.3200E+02
     18.718  0.0000E+00  0.3200E+02
     18.867  0.0000E+00  0.3200E+02
     19.017  0.0000E+00  0.3200E+02
     19.166  0.0000E+00  0.3200E+02
     19.316  0.0000E+00  0.3200E+02
     19.465  0.0000E+00  0.3200E+02
     19.615  0.0000E+00  0.3200E+02
     19.764  0.0000E+00  0.3200E+02
     19.913  0.0000E+00  0.3200E+02
     20.063  0.0000E+00  0.3200E+02
     20.212  0.0000E+00  0.3200E+02
     20.362  0.0000E+00  0.3200E+02
     20.511  0.0000E+00  0.3200E+02
     20.661  0.0000E+00  0.3200E+02
