unknown system                          
            1
    -1.385259    1.385259    1.385259
     1.385259   -1.385259    1.385259
     1.385259    1.385259   -1.385259
   Fe
     1
Direct configuration=     1
   0.00000000  0.00000000  0.00000000
