   2   2   0   0
  0.1977750E+02  0.3824478E-09  0.3824478E-09  0.3824478E-09  0.0000000E+00
  1.000000000000000E-004
  CAR 
 unknown system                          
     17.61545421     -8.74253085  301      5.15032377      1.00000000
     -8.743  0.0000E+00  0.0000E+00
     -8.655  0.0000E+00  0.0000E+00
     -8.567  0.0000E+00  0.0000E+00
     -8.479  0.0000E+00  0.0000E+00
     -8.391  0.0000E+00  0.0000E+00
     -8.303  0.0000E+00  0.0000E+00
     -8.215  0.0000E+00  0.0000E+00
     -8.128  0.0000E+00  0.0000E+00
     -8.040  0.0000E+00  0.0000E+00
     -7.952  0.0000E+00  0.0000E+00
     -7.864  0.0000E+00  0.0000E+00
     -7.776  0.0000E+00  0.0000E+00
     -7.688  0.0000E+00  0.0000E+00
     -7.600  0.0000E+00  0.0000E+00
     -7.512  0.6254E-01  0.1002E-02
     -7.425  0.1347E+00  0.1007E-01
     -7.337  0.1853E+00  0.2441E-01
     -7.249  0.2296E+00  0.4261E-01
     -7.161  0.2631E+00  0.6417E-01
     -7.073  0.2991E+00  0.8897E-01
     -6.985  0.3318E+00  0.1166E+00
     -6.897  0.3658E+00  0.1473E+00
     -6.810  0.3982E+00  0.1809E+00
     -6.722  0.4336E+00  0.2174E+00
     -6.634  0.4682E+00  0.2570E+00
     -6.546  0.5057E+00  0.2998E+00
     -6.458  0.5459E+00  0.3459E+00
     -6.370  0.5900E+00  0.3958E+00
     -6.282  0.6381E+00  0.4497E+00
     -6.195  0.6947E+00  0.5082E+00
     -6.107  0.7610E+00  0.5721E+00
     -6.019  0.8380E+00  0.6422E+00
     -5.931  0.9481E+00  0.7204E+00
     -5.843  0.1108E+01  0.8102E+00
     -5.755  0.1416E+01  0.9213E+00
     -5.667  0.1421E+01  0.1048E+01
     -5.580  0.1412E+01  0.1172E+01
     -5.492  0.1427E+01  0.1297E+01
     -5.404  0.1437E+01  0.1423E+01
     -5.316  0.1477E+01  0.1551E+01
     -5.228  0.1568E+01  0.1684E+01
     -5.140  0.1808E+01  0.1828E+01
     -5.052  0.7987E+00  0.1992E+01
     -4.965  0.0000E+00  0.2000E+01
     -4.877  0.0000E+00  0.2000E+01
     -4.789  0.0000E+00  0.2000E+01
     -4.701  0.0000E+00  0.2000E+01
     -4.613  0.0000E+00  0.2000E+01
     -4.525  0.0000E+00  0.2000E+01
     -4.437  0.0000E+00  0.2000E+01
     -4.350  0.0000E+00  0.2000E+01
     -4.262  0.0000E+00  0.2000E+01
     -4.174  0.0000E+00  0.2000E+01
     -4.086  0.0000E+00  0.2000E+01
     -3.998  0.0000E+00  0.2000E+01
     -3.910  0.0000E+00  0.2000E+01
     -3.822  0.0000E+00  0.2000E+01
     -3.735  0.0000E+00  0.2000E+01
     -3.647  0.0000E+00  0.2000E+01
     -3.559  0.0000E+00  0.2000E+01
     -3.471  0.0000E+00  0.2000E+01
     -3.383  0.0000E+00  0.2000E+01
     -3.295  0.0000E+00  0.2000E+01
     -3.207  0.0000E+00  0.2000E+01
     -3.119  0.0000E+00  0.2000E+01
     -3.032  0.0000E+00  0.2000E+01
     -2.944  0.0000E+00  0.2000E+01
     -2.856  0.0000E+00  0.2000E+01
     -2.768  0.0000E+00  0.2000E+01
     -2.680  0.0000E+00  0.2000E+01
     -2.592  0.0000E+00  0.2000E+01
     -2.504  0.0000E+00  0.2000E+01
     -2.417  0.0000E+00  0.2000E+01
     -2.329  0.0000E+00  0.2000E+01
     -2.241  0.0000E+00  0.2000E+01
     -2.153  0.0000E+00  0.2000E+01
     -2.065  0.0000E+00  0.2000E+01
     -1.977  0.0000E+00  0.2000E+01
     -1.889  0.0000E+00  0.2000E+01
     -1.802  0.0000E+00  0.2000E+01
     -1.714  0.0000E+00  0.2000E+01
     -1.626  0.0000E+00  0.2000E+01
     -1.538  0.0000E+00  0.2000E+01
     -1.450  0.0000E+00  0.2000E+01
     -1.362  0.0000E+00  0.2000E+01
     -1.274  0.0000E+00  0.2000E+01
     -1.187  0.0000E+00  0.2000E+01
     -1.099  0.0000E+00  0.2000E+01
     -1.011  0.2265E+00  0.2009E+01
     -0.923  0.3322E+00  0.2034E+01
     -0.835  0.4551E+00  0.2069E+01
     -0.747  0.7357E+00  0.2118E+01
     -0.659  0.1033E+01  0.2195E+01
     -0.572  0.1386E+01  0.2301E+01
     -0.484  0.2361E+01  0.2455E+01
     -0.396  0.2864E+01  0.2699E+01
     -0.308  0.1676E+01  0.2924E+01
     -0.220  0.1117E+01  0.3041E+01
     -0.132  0.8635E+00  0.3128E+01
     -0.044  0.7560E+00  0.3199E+01
      0.043  0.6460E+00  0.3261E+01
      0.131  0.5765E+00  0.3314E+01
      0.219  0.5286E+00  0.3363E+01
      0.307  0.4741E+00  0.3407E+01
      0.395  0.4293E+00  0.3446E+01
      0.483  0.4030E+00  0.3483E+01
      0.571  0.3740E+00  0.3517E+01
      0.658  0.3409E+00  0.3548E+01
      0.746  0.3161E+00  0.3577E+01
      0.834  0.2997E+00  0.3604E+01
      0.922  0.2832E+00  0.3630E+01
      1.010  0.2641E+00  0.3654E+01
      1.098  0.5292E+00  0.3689E+01
      1.186  0.7202E+00  0.3743E+01
      1.274  0.1013E+01  0.3818E+01
      1.361  0.1133E+01  0.3918E+01
      1.449  0.1036E+01  0.4013E+01
      1.537  0.9819E+00  0.4101E+01
      1.625  0.9537E+00  0.4186E+01
      1.713  0.9314E+00  0.4269E+01
      1.801  0.9149E+00  0.4350E+01
      1.889  0.9094E+00  0.4431E+01
      1.976  0.9638E+00  0.4516E+01
      2.064  0.9922E+00  0.4601E+01
      2.152  0.1028E+01  0.4691E+01
      2.240  0.1079E+01  0.4783E+01
      2.328  0.1113E+01  0.4881E+01
      2.416  0.1178E+01  0.4982E+01
      2.504  0.1233E+01  0.5088E+01
      2.591  0.1401E+01  0.5205E+01
      2.679  0.1576E+01  0.5338E+01
      2.767  0.1537E+01  0.5473E+01
      2.855  0.1517E+01  0.5607E+01
      2.943  0.1502E+01  0.5739E+01
      3.031  0.1483E+01  0.5871E+01
      3.119  0.1449E+01  0.6000E+01
      3.206  0.1441E+01  0.6127E+01
      3.294  0.1424E+01  0.6253E+01
      3.382  0.1404E+01  0.6377E+01
      3.470  0.1392E+01  0.6500E+01
      3.558  0.1367E+01  0.6621E+01
      3.646  0.1363E+01  0.6741E+01
      3.734  0.1358E+01  0.6860E+01
      3.821  0.1339E+01  0.6979E+01
      3.909  0.1327E+01  0.7096E+01
      3.997  0.1308E+01  0.7212E+01
      4.085  0.1330E+01  0.7328E+01
      4.173  0.1310E+01  0.7444E+01
      4.261  0.1007E+01  0.7547E+01
      4.349  0.8517E+00  0.7628E+01
      4.436  0.7486E+00  0.7698E+01
      4.524  0.6575E+00  0.7759E+01
      4.612  0.5804E+00  0.7814E+01
      4.700  0.5081E+00  0.7861E+01
      4.788  0.4395E+00  0.7903E+01
      4.876  0.3694E+00  0.7939E+01
      4.964  0.3149E+00  0.7969E+01
      5.051  0.1962E+00  0.7991E+01
      5.139  0.0000E+00  0.8000E+01
      5.227  0.0000E+00  0.8000E+01
      5.315  0.0000E+00  0.8000E+01
      5.403  0.0000E+00  0.8000E+01
      5.491  0.0000E+00  0.8000E+01
      5.579  0.0000E+00  0.8000E+01
      5.667  0.0000E+00  0.8000E+01
      5.754  0.0000E+00  0.8000E+01
      5.842  0.0000E+00  0.8000E+01
      5.930  0.0000E+00  0.8000E+01
      6.018  0.0000E+00  0.8000E+01
      6.106  0.0000E+00  0.8000E+01
      6.194  0.0000E+00  0.8000E+01
      6.282  0.0000E+00  0.8000E+01
      6.369  0.2289E-01  0.8001E+01
      6.457  0.6546E-01  0.8005E+01
      6.545  0.8637E-01  0.8011E+01
      6.633  0.1156E+00  0.8020E+01
      6.721  0.1400E+00  0.8031E+01
      6.809  0.1685E+00  0.8045E+01
      6.897  0.2020E+00  0.8061E+01
      6.984  0.2310E+00  0.8080E+01
      7.072  0.2620E+00  0.8102E+01
      7.160  0.2955E+00  0.8126E+01
      7.248  0.3298E+00  0.8154E+01
      7.336  0.3580E+00  0.8184E+01
      7.424  0.3881E+00  0.8216E+01
      7.512  0.4594E+00  0.8254E+01
      7.599  0.5177E+00  0.8297E+01
      7.687  0.5586E+00  0.8344E+01
      7.775  0.6015E+00  0.8395E+01
      7.863  0.6628E+00  0.8450E+01
      7.951  0.7631E+00  0.8513E+01
      8.039  0.8567E+00  0.8585E+01
      8.127  0.9378E+00  0.8663E+01
      8.214  0.1031E+01  0.8750E+01
      8.302  0.1136E+01  0.8845E+01
      8.390  0.1308E+01  0.8951E+01
      8.478  0.1568E+01  0.9081E+01
      8.566  0.1574E+01  0.9220E+01
      8.654  0.1535E+01  0.9356E+01
      8.742  0.1556E+01  0.9492E+01
      8.829  0.1651E+01  0.9632E+01
      8.917  0.1593E+01  0.9775E+01
      9.005  0.1539E+01  0.9912E+01
      9.093  0.1311E+01  0.1004E+02
      9.181  0.1043E+01  0.1014E+02
      9.269  0.8110E+00  0.1022E+02
      9.357  0.5454E+00  0.1028E+02
      9.444  0.4549E+00  0.1032E+02
      9.532  0.5395E+00  0.1036E+02
      9.620  0.9234E+00  0.1043E+02
      9.708  0.1357E+01  0.1053E+02
      9.796  0.1718E+01  0.1066E+02
      9.884  0.2134E+01  0.1083E+02
      9.972  0.2778E+01  0.1103E+02
     10.059  0.1825E+01  0.1123E+02
     10.147  0.1754E+01  0.1138E+02
     10.235  0.1479E+01  0.1153E+02
     10.323  0.1322E+01  0.1165E+02
     10.411  0.1406E+01  0.1177E+02
     10.499  0.1237E+01  0.1189E+02
     10.587  0.1212E+01  0.1199E+02
     10.675  0.1194E+01  0.1210E+02
     10.762  0.1271E+01  0.1221E+02
     10.850  0.1397E+01  0.1232E+02
     10.938  0.1537E+01  0.1245E+02
     11.026  0.1447E+01  0.1258E+02
     11.114  0.1216E+01  0.1270E+02
     11.202  0.1196E+01  0.1280E+02
     11.290  0.1357E+01  0.1291E+02
     11.377  0.1206E+01  0.1303E+02
     11.465  0.1178E+01  0.1313E+02
     11.553  0.1152E+01  0.1323E+02
     11.641  0.1163E+01  0.1334E+02
     11.729  0.1254E+01  0.1344E+02
     11.817  0.1085E+01  0.1354E+02
     11.905  0.1087E+01  0.1363E+02
     11.992  0.1109E+01  0.1373E+02
     12.080  0.1008E+01  0.1382E+02
     12.168  0.9910E+00  0.1391E+02
     12.256  0.1029E+01  0.1400E+02
     12.344  0.9852E+00  0.1409E+02
     12.432  0.9756E+00  0.1417E+02
     12.520  0.1032E+01  0.1426E+02
     12.607  0.9566E+00  0.1435E+02
     12.695  0.8399E+00  0.1443E+02
     12.783  0.8172E+00  0.1450E+02
     12.871  0.8675E+00  0.1457E+02
     12.959  0.9456E+00  0.1465E+02
     13.047  0.1120E+01  0.1474E+02
     13.135  0.1093E+01  0.1484E+02
     13.222  0.1282E+01  0.1494E+02
     13.310  0.1068E+01  0.1505E+02
     13.398  0.9167E+00  0.1513E+02
     13.486  0.8180E+00  0.1521E+02
     13.574  0.8078E+00  0.1528E+02
     13.662  0.7782E+00  0.1535E+02
     13.750  0.6958E+00  0.1541E+02
     13.837  0.5876E+00  0.1547E+02
     13.925  0.4700E+00  0.1552E+02
     14.013  0.4005E+00  0.1556E+02
     14.101  0.3695E+00  0.1559E+02
     14.189  0.3392E+00  0.1562E+02
     14.277  0.3208E+00  0.1565E+02
     14.365  0.3037E+00  0.1568E+02
     14.452  0.2869E+00  0.1570E+02
     14.540  0.2738E+00  0.1573E+02
     14.628  0.2607E+00  0.1575E+02
     14.716  0.2485E+00  0.1577E+02
     14.804  0.2349E+00  0.1579E+02
     14.892  0.2199E+00  0.1581E+02
     14.980  0.2110E+00  0.1583E+02
     15.068  0.2091E+00  0.1585E+02
     15.155  0.1979E+00  0.1587E+02
     15.243  0.1713E+00  0.1589E+02
     15.331  0.1529E+00  0.1590E+02
     15.419  0.1383E+00  0.1591E+02
     15.507  0.1264E+00  0.1592E+02
     15.595  0.1159E+00  0.1593E+02
     15.683  0.1095E+00  0.1594E+02
     15.770  0.1076E+00  0.1595E+02
     15.858  0.1075E+00  0.1596E+02
     15.946  0.9091E-01  0.1597E+02
     16.034  0.7517E-01  0.1598E+02
     16.122  0.6080E-01  0.1599E+02
     16.210  0.4780E-01  0.1599E+02
     16.298  0.3799E-01  0.1599E+02
     16.385  0.3514E-01  0.1600E+02
     16.473  0.0000E+00  0.1600E+02
     16.561  0.0000E+00  0.1600E+02
     16.649  0.0000E+00  0.1600E+02
     16.737  0.0000E+00  0.1600E+02
     16.825  0.0000E+00  0.1600E+02
     16.913  0.0000E+00  0.1600E+02
     17.000  0.0000E+00  0.1600E+02
     17.088  0.0000E+00  0.1600E+02
     17.176  0.0000E+00  0.1600E+02
     17.264  0.0000E+00  0.1600E+02
     17.352  0.0000E+00  0.1600E+02
     17.440  0.0000E+00  0.1600E+02
     17.528  0.0000E+00  0.1600E+02
     17.615  0.0000E+00  0.1600E+02
