    2    2    1    1
  0.1977750E+02  0.3824478E-09  0.3824478E-09  0.3824478E-09  0.0000000E+00
  1.000000000000000E-004
  CAR 
 unknown system                          
      8    286      8
 
  0.0000000E+00  0.0000000E+00  0.0000000E+00  0.1079797E-03
    1       -7.544441   1.000000
    2        5.138211   1.000000
    3        5.138211   1.000000
    4        5.138212   1.000000
    5        8.356673   0.000000
    6        9.657730   0.000000
    7        9.657730   0.000000
    8        9.657731   0.000000
 
  0.4761905E-01  0.0000000E+00  0.0000000E+00  0.8638376E-03
    1       -7.517806   1.000000
    2        4.851298   1.000000
    3        5.108420   1.000000
    4        5.108420   1.000000
    5        8.546792   0.000000
    6        9.702919   0.000000
    7        9.711897   0.000000
    8        9.711897   0.000000
 
  0.9523810E-01  0.0000000E+00  0.0000000E+00  0.8638376E-03
    1       -7.438423   1.000000
    2        4.179885   1.000000
    3        5.025680   1.000000
    4        5.025680   1.000000
    5        8.779034   0.000000
    6        9.858587   0.000000
    7        9.858588   0.000000
    8       10.004714   0.000000
 
  0.1428571E+00  0.0000000E+00  0.0000000E+00  0.8638376E-03
    1       -7.308238   1.000000
    2        3.362460   1.000000
    3        4.906275   1.000000
    4        4.906275   1.000000
    5        8.744334   0.000000
    6       10.051545   0.000000
    7       10.051545   0.000000
    8       10.671402   0.000000
 
  0.1904762E+00  0.0000000E+00  0.0000000E+00  0.8638376E-03
    1       -7.130721   1.000000
    2        2.511929   1.000000
    3        4.768985   1.000000
    4        4.768985   1.000000
    5        8.581737   0.000000
    6       10.219645   0.000000
    7       10.219645   0.000000
    8       11.482638   0.000000
 
  0.2380952E+00  0.0000000E+00  0.0000000E+00  0.8638376E-03
    1       -6.911812   1.000000
    2        1.680599   1.000000
    3        4.630083   1.000000
    4        4.630083   1.000000
    5        8.392707   0.000000
    6       10.293887   0.000000
    7       10.293887   0.000000
    8       12.284090   0.000000
 
  0.2857143E+00  0.0000000E+00  0.0000000E+00  0.8638376E-03
    1       -6.660997   1.000000
    2        0.900665   1.000000
    3        4.501666   1.000000
    4        4.501667   1.000000
    5        8.214588   0.000000
    6       10.258709   0.000000
    7       10.258710   0.000000
    8       12.925925   0.000000
 
  0.3333333E+00  0.0000000E+00  0.0000000E+00  0.8638376E-03
    1       -6.393677   1.000000
    2        0.199965   1.000000
    3        4.391941   1.000000
    4        4.391941   1.000000
    5        8.063282   0.000000
    6       10.157093   0.000000
    7       10.157093   0.000000
    8       13.219392   0.000000
 
  0.3809524E+00  0.0000000E+00  0.0000000E+00  0.8638376E-03
    1       -6.134246   1.000000
    2       -0.389572   1.000000
    3        4.306167   1.000000
    4        4.306167   1.000000
    5        7.946215   0.000000
    6       10.041994   0.000000
    7       10.041994   0.000000
    8       13.230144   0.000000
 
  0.4285714E+00  0.0000000E+00  0.0000000E+00  0.8638376E-03
    1       -5.919179   1.000000
    2       -0.826935   1.000000
    3        4.247531   1.000000
    4        4.247531   1.000000
    5        7.866916   0.000000
    6        9.949471   0.000000
    7        9.949471   0.000000
    8       13.164565   0.000000
 
  0.4761905E+00  0.0000000E+00  0.0000000E+00  0.8638376E-03
    1       -5.793838   1.000000
    2       -1.064032   1.000000
    3        4.217823   1.000000
    4        4.217823   1.000000
    5        7.826972   0.000000
    6        9.899062   0.000000
    7        9.899062   0.000000
    8       13.117502   0.000000
 
  0.4761905E-01  0.4761905E-01  0.0000000E+00  0.6478782E-03
    1       -7.508913   1.000000
    2        4.877825   1.000000
    3        5.035675   1.000000
    4        5.035675   1.000000
    5        8.636164   0.000000
    6        9.534883   0.000000
    7        9.811345   0.000000
    8        9.811345   0.000000
 
  0.9523810E-01  0.4761905E-01  0.0000000E+00  0.2591513E-02
    1       -7.447075   1.000000
    2        4.363115   1.000000
    3        4.917050   1.000000
    4        4.996371   1.000000
    5        8.916196   0.000000
    6        9.486418   0.000000
    7       10.000125   0.000000
    8       10.060645   0.000000
 
  0.1428571E+00  0.4761905E-01  0.0000000E+00  0.2591513E-02
    1       -7.333766   1.000000
    2        3.605466   1.000000
    3        4.772411   1.000000
    4        4.925776   1.000000
    5        8.955307   0.000000
    6        9.641991   0.000000
    7       10.232595   0.000000
    8       10.572315   0.000000
 
  0.1904762E+00  0.4761905E-01  0.0000000E+00  0.2591513E-02
    1       -7.171862   1.000000
    2        2.777703   1.000000
    3        4.620969   1.000000
    4        4.809302   1.000000
    5        8.808222   0.000000
    6        9.867428   0.000000
    7       10.441086   0.000000
    8       11.223334   0.000000
 
  0.2380952E+00  0.4761905E-01  0.0000000E+00  0.2591513E-02
    1       -6.966422   1.000000
    2        1.948904   1.000000
    3        4.477935   1.000000
    4        4.666790   1.000000
    5        8.622643   0.000000
    6       10.023024   0.000000
    7       10.553021   0.000000
    8       11.821946   0.000000
 
  0.2857143E+00  0.4761905E-01  0.0000000E+00  0.2591513E-02
    1       -6.725541   1.000000
    2        1.157766   1.000000
    3        4.354022   1.000000
    4        4.516577   1.000000
    5        8.442660   0.000000
    6       10.053440   0.000000
    7       10.537743   0.000000
    8       12.340926   0.000000
 
  0.3333333E+00  0.4761905E-01  0.0000000E+00  0.2591513E-02
    1       -6.462390   1.000000
    2        0.433919   1.000000
    3        4.256177   1.000000
    4        4.372428   1.000000
    5        8.285824   0.000000
    6        9.989409   0.000000
    7       10.429128   0.000000
    8       12.837397   0.000000
 
  0.3809524E+00  0.4761905E-01  0.0000000E+00  0.2591513E-02
    1       -6.197906   1.000000
    2       -0.191962   1.000000
    3        4.188500   1.000000
    4        4.243984   1.000000
    5        8.160660   0.000000
    6        9.896767   0.000000
    7       10.284164   0.000000
    8       13.189218   0.000000
 
  0.4285714E+00  0.4761905E-01  0.0000000E+00  0.2591513E-02
    1       -5.964316   1.000000
    2       -0.681764   1.000000
    3        4.137846   1.000000
    4        4.153014   1.000000
    5        8.071483   0.000000
    6        9.822204   0.000000
    7       10.146497   0.000000
    8       13.290724   0.000000
 
  0.4761905E+00  0.4761905E-01  0.0000000E+00  0.2591513E-02
    1       -5.804903   1.000000
    2       -0.988655   1.000000
    3        4.058589   1.000000
    4        4.150208   1.000000
    5        8.020333   0.000000
    6        9.789765   0.000000
    7       10.041840   0.000000
    8       13.288162   0.000000
 
 -0.4761905E+00  0.4761905E-01  0.0000000E+00  0.2591513E-02
    1       -5.761290   1.000000
    2       -1.069191   1.000000
    3        4.009446   1.000000
    4        4.179388   1.000000
    5        8.008087   0.000000
    6        9.809508   0.000000
    7        9.983276   0.000000
    8       13.286067   0.000000
 
 -0.4285714E+00  0.4761905E-01  0.0000000E+00  0.2591513E-02
    1       -5.847056   1.000000
    2       -0.909357   1.000000
    3        3.992649   1.000000
    4        4.238880   1.000000
    5        8.034873   0.000000
    6        9.882594   0.000000
    7        9.975099   0.000000
    8       13.307129   0.000000
 
 -0.3809524E+00  0.4761905E-01  0.0000000E+00  0.2591513E-02
    1       -6.036446   1.000000
    2       -0.535828   1.000000
    3        4.009578   1.000000
    4        4.326059   1.000000
    5        8.100310   0.000000
    6       10.002467   0.000000
    7       10.013675   0.000000
    8       13.323099   0.000000
 
 -0.3333333E+00  0.4761905E-01  0.0000000E+00  0.2591513E-02
    1       -6.284712   1.000000
    2        0.004237   1.000000
    3        4.060660   1.000000
    4        4.437171   1.000000
    5        8.203216   0.000000
    6       10.085316   0.000000
    7       10.152606   0.000000
    8       13.232289   0.000000
 
 -0.2857143E+00  0.4761905E-01  0.0000000E+00  0.2591513E-02
    1       -6.551712   1.000000
    2        0.666336   1.000000
    3        4.145169   1.000000
    4        4.566934   1.000000
    5        8.341015   0.000000
    6       10.161164   0.000000
    7       10.300138   0.000000
    8       12.891379   0.000000
 
 -0.2380952E+00  0.4761905E-01  0.0000000E+00  0.2591513E-02
    1       -6.809289   1.000000
    2        1.415036   1.000000
    3        4.260852   1.000000
    4        4.707891   1.000000
    5        8.508214   0.000000
    6       10.193704   0.000000
    7       10.386424   0.000000
    8       12.341781   0.000000
 
 -0.1904762E+00  0.4761905E-01  0.0000000E+00  0.2591513E-02
    1       -7.039488   1.000000
    2        2.220169   1.000000
    3        4.403448   1.000000
    4        4.849526   1.000000
    5        8.693163   0.000000
    6       10.135899   0.000000
    7       10.333620   0.000000
    8       11.712565   0.000000
 
 -0.1428571E+00  0.4761905E-01  0.0000000E+00  0.2591513E-02
    1       -7.231102   1.000000
    2        3.048508   1.000000
    3        4.566340   1.000000
    4        4.977516   1.000000
    5        8.868319   0.000000
    6        9.992658   0.000000
    7       10.107722   0.000000
    8       11.065214   0.000000
 
 -0.9523810E-01  0.4761905E-01  0.0000000E+00  0.2591513E-02
    1       -7.377206   1.000000
    2        3.848541   1.000000
    3        4.741736   1.000000
    4        5.074169   1.000000
    5        8.951789   0.000000
    6        9.802090   0.000000
    7        9.830200   0.000000
    8       10.470740   0.000000
 
 -0.4761905E-01  0.4761905E-01  0.0000000E+00  0.1295756E-02
    1       -7.473559   1.000000
    2        4.510655   1.000000
    3        4.930552   1.000000
    4        5.121622   1.000000
    5        8.778697   0.000000
    6        9.662970   0.000000
    7        9.721710   0.000000
    8       10.012191   0.000000
 
  0.9523810E-01  0.9523810E-01  0.0000000E+00  0.6478782E-03
    1       -7.402959   1.000000
    2        4.273804   1.000000
    3        4.767491   1.000000
    4        4.767492   1.000000
    5        9.187489   0.000000
    6        9.290246   0.000000
    7       10.231431   0.000000
    8       10.231432   0.000000
 
  0.1428571E+00  0.9523810E-01  0.0000000E+00  0.2591513E-02
    1       -7.307080   1.000000
    2        3.720409   1.000000
    3        4.599277   1.000000
    4        4.675205   1.000000
    5        9.072665   0.000000
    6        9.521187   0.000000
    7       10.508547   0.000000
    8       10.613838   0.000000
 
  0.1904762E+00  0.9523810E-01  0.0000000E+00  0.2591513E-02
    1       -7.161834   1.000000
    2        2.977169   1.000000
    3        4.431897   1.000000
    4        4.581211   1.000000
    5        8.993274   0.000000
    6        9.672126   0.000000
    7       10.768311   0.000000
    8       11.025451   0.000000
 
  0.2380952E+00  0.9523810E-01  0.0000000E+00  0.2591513E-02
    1       -6.971539   1.000000
    2        2.189417   1.000000
    3        4.279967   1.000000
    4        4.439614   1.000000
    5        8.885454   0.000000
    6        9.843000   0.000000
    7       10.935823   0.000000
    8       11.211464   0.000000
 
  0.2857143E+00  0.9523810E-01  0.0000000E+00  0.2591513E-02
    1       -6.743145   1.000000
    2        1.414084   1.000000
    3        4.153500   1.000000
    4        4.268096   1.000000
    5        8.750039   0.000000
    6        9.947109   0.000000
    7       10.963118   0.000000
    8       11.416783   0.000000
 
  0.3333333E+00  0.9523810E-01  0.0000000E+00  0.2591513E-02
    1       -6.487951   1.000000
    2        0.687606   1.000000
    3        4.058896   1.000000
    4        4.087949   1.000000
    5        8.615305   0.000000
    6        9.914130   0.000000
    7       10.868874   0.000000
    8       11.848548   0.000000
 
  0.3809524E+00  0.9523810E-01  0.0000000E+00  0.2591513E-02
    1       -6.223908   1.000000
    2        0.042379   1.000000
    3        3.915416   1.000000
    4        3.999851   1.000000
    5        8.501449   0.000000
    6        9.817917   0.000000
    7       10.711410   0.000000
    8       12.442730   0.000000
 
  0.4285714E+00  0.9523810E-01  0.0000000E+00  0.2591513E-02
    1       -5.979020   1.000000
    2       -0.484851   1.000000
    3        3.761834   1.000000
    4        3.978020   1.000000
    5        8.419721   0.000000
    6        9.729408   0.000000
    7       10.542373   0.000000
    8       13.058002   0.000000
 
  0.4761905E+00  0.9523810E-01  0.0000000E+00  0.2591513E-02
    1       -5.792853   1.000000
    2       -0.849240   1.000000
    3        3.635093   1.000000
    4        3.993444   1.000000
    5        8.375476   0.000000
    6        9.680437   0.000000
    7       10.394146   0.000000
    8       13.492554   0.000000
 
 -0.4761905E+00  0.9523810E-01  0.0000000E+00  0.2591513E-02
    1       -5.709057   1.000000
    2       -1.004255   1.000000
    3        3.540875   1.000000
    4        4.044780   1.000000
    5        8.370248   0.000000
    6        9.683999   0.000000
    7       10.284446   0.000000
    8       13.664212   0.000000
 
 -0.4285714E+00  0.9523810E-01  0.0000000E+00  0.2591513E-02
    1       -5.752469   1.000000
    2       -0.924036   1.000000
    3        3.483424   1.000000
    4        4.129400   1.000000
    5        8.403201   0.000000
    6        9.744424   0.000000
    7       10.221278   0.000000
    8       13.693967   0.000000
 
 -0.3809524E+00  0.9523810E-01  0.0000000E+00  0.2591513E-02
    1       -5.909734   1.000000
    2       -0.622692   1.000000
    3        3.465969   1.000000
    4        4.243319   1.000000
    5        8.472340   0.000000
    6        9.859508   0.000000
    7       10.204804   0.000000
    8       13.601066   0.000000
 
 -0.3333333E+00  0.9523810E-01  0.0000000E+00  0.2591513E-02
    1       -6.140276   1.000000
    2       -0.143524   1.000000
    3        3.490994   1.000000
    4        4.380967   1.000000
    5        8.575240   0.000000
    6       10.018241   0.000000
    7       10.226021   0.000000
    8       13.291205   0.000000
 
 -0.2857143E+00  0.9523810E-01  0.0000000E+00  0.2591513E-02
    1       -6.401658   1.000000
    2        0.465618   1.000000
    3        3.560499   1.000000
    4        4.534755   1.000000
    5        8.709015   0.000000
    6       10.193099   0.000000
    7       10.261873   0.000000
    8       12.767098   0.000000
 
 -0.2380952E+00  0.9523810E-01  0.0000000E+00  0.2591513E-02
    1       -6.662067   1.000000
    2        1.163216   1.000000
    3        3.676511   1.000000
    4        4.694418   1.000000
    5        8.869076   0.000000
    6       10.269755   0.000000
    7       10.320732   0.000000
    8       12.193844   0.000000
 
 -0.1904762E+00  0.9523810E-01  0.0000000E+00  0.2591513E-02
    1       -6.900670   1.000000
    2        1.910704   1.000000
    3        3.842446   1.000000
    4        4.846228   1.000000
    5        9.045542   0.000000
    6       10.201768   0.000000
    7       10.279429   0.000000
    8       11.732530   0.000000
 
 -0.1428571E+00  0.9523810E-01  0.0000000E+00  0.2591513E-02
    1       -7.104315   1.000000
    2        2.660579   1.000000
    3        4.066839   1.000000
    4        4.972750   1.000000
    5        9.208520   0.000000
    6       10.006721   0.000000
    7       10.059330   0.000000
    8       11.398000   0.000000
 
 -0.9523810E-01  0.9523810E-01  0.0000000E+00  0.1295756E-02
    1       -7.264847   1.000000
    2        3.337542   1.000000
    3        4.368624   1.000000
    4        5.054349   1.000000
    5        9.218089   0.000000
    6        9.755498   0.000000
    7        9.910644   0.000000
    8       10.994819   0.000000
 
  0.1428571E+00  0.1428571E+00  0.0000000E+00  0.6478782E-03
    1       -7.228790   1.000000
    2        3.543019   1.000000
    3        4.411183   1.000000
    4        4.411184   1.000000
    5        8.779489   0.000000
    6        9.847690   0.000000
    7       10.836741   0.000000
    8       10.836741   0.000000
 
  0.1904762E+00  0.1428571E+00  0.0000000E+00  0.2591513E-02
    1       -7.100857   1.000000
    2        3.017324   1.000000
    3        4.228137   1.000000
    4        4.267809   1.000000
    5        8.635171   0.000000
    6        9.917421   0.000000
    7       11.101233   0.000000
    8       11.158732   0.000000
 
  0.2380952E+00  0.1428571E+00  0.0000000E+00  0.2591513E-02
    1       -6.926945   1.000000
    2        2.338567   1.000000
    3        4.064714   1.000000
    4        4.120015   1.000000
    5        8.608945   0.000000
    6        9.950559   0.000000
    7       11.036827   0.000000
    8       11.399383   0.000000
 
  0.2857143E+00  0.1428571E+00  0.0000000E+00  0.2591513E-02
    1       -6.713093   1.000000
    2        1.623102   1.000000
    3        3.928468   1.000000
    4        3.930775   1.000000
    5        8.591835   0.000000
    6       10.111289   0.000000
    7       10.880153   0.000000
    8       11.493325   0.000000
 
  0.3333333E+00  0.1428571E+00  0.0000000E+00  0.2591513E-02
    1       -6.469078   1.000000
    2        0.926096   1.000000
    3        3.711567   1.000000
    4        3.832632   1.000000
    5        8.531795   0.000000
    6       10.288950   0.000000
    7       10.926279   0.000000
    8       11.437181   0.000000
 
  0.3809524E+00  0.1428571E+00  0.0000000E+00  0.2591513E-02
    1       -6.210356   1.000000
    2        0.286823   1.000000
    3        3.492855   1.000000
    4        3.773986   1.000000
    5        8.456784   0.000000
    6       10.239293   0.000000
    7       11.286276   0.000000
    8       11.404872   0.000000
 
  0.4285714E+00  0.1428571E+00  0.0000000E+00  0.2591513E-02
    1       -5.961120   1.000000
    2       -0.256446   1.000000
    3        3.289950   1.000000
    4        3.756526   1.000000
    5        8.402850   0.000000
    6       10.126507   0.000000
    7       11.101020   0.000000
    8       12.100553   0.000000
 
  0.4761905E+00  0.1428571E+00  0.0000000E+00  0.2591513E-02
    1       -5.756517   1.000000
    2       -0.659976   1.000000
    3        3.114878   1.000000
    4        3.780349   1.000000
    5        8.389906   0.000000
    6       10.033594   0.000000
    7       10.921892   0.000000
    8       12.874575   0.000000
 
 -0.4761905E+00  0.1428571E+00  0.0000000E+00  0.2591513E-02
    1       -5.639012   1.000000
    2       -0.876473   1.000000
    3        2.976004   1.000000
    4        3.844071   1.000000
    5        8.425791   0.000000
    6        9.978762   0.000000
    7       10.771680   0.000000
    8       13.603828   0.000000
 
 -0.4285714E+00  0.1428571E+00  0.0000000E+00  0.2591513E-02
    1       -5.640787   1.000000
    2       -0.871740   1.000000
    3        2.879591   1.000000
    4        3.944843   1.000000
    5        8.510941   0.000000
    6        9.969078   0.000000
    7       10.661645   0.000000
    8       14.010691   0.000000
 
 -0.3809524E+00  0.1428571E+00  0.0000000E+00  0.2591513E-02
    1       -5.761222   1.000000
    2       -0.647094   1.000000
    3        2.830865   1.000000
    4        4.078154   1.000000
    5        8.640639   0.000000
    6       10.008193   0.000000
    7       10.594544   0.000000
    8       13.863674   0.000000
 
 -0.3333333E+00  0.1428571E+00  0.0000000E+00  0.2591513E-02
    1       -5.967440   1.000000
    2       -0.239299   1.000000
    3        2.835018   1.000000
    4        4.237440   1.000000
    5        8.806204   0.000000
    6       10.095327   0.000000
    7       10.563982   0.000000
    8       13.331536   0.000000
 
 -0.2857143E+00  0.1428571E+00  0.0000000E+00  0.2591513E-02
    1       -6.217099   1.000000
    2        0.300718   1.000000
    3        2.898597   1.000000
    4        4.413516   1.000000
    5        8.996047   0.000000
    6       10.217048   0.000000
    7       10.549417   0.000000
    8       12.657659   0.000000
 
 -0.2380952E+00  0.1428571E+00  0.0000000E+00  0.2591513E-02
    1       -6.475457   1.000000
    2        0.921284   1.000000
    3        3.032190   1.000000
    4        4.593737   1.000000
    5        9.196114   0.000000
    6       10.321275   0.000000
    7       10.509073   0.000000
    8       12.021698   0.000000
 
 -0.1904762E+00  0.1428571E+00  0.0000000E+00  0.2591513E-02
    1       -6.718675   1.000000
    2        1.566268   1.000000
    3        3.255390   1.000000
    4        4.761240   1.000000
    5        9.383255   0.000000
    6       10.268471   0.000000
    7       10.395147   0.000000
    8       11.609717   0.000000
 
 -0.1428571E+00  0.1428571E+00  0.0000000E+00  0.1295756E-02
    1       -6.931512   1.000000
    2        2.166330   1.000000
    3        3.598380   1.000000
    4        4.895028   1.000000
    5        9.464669   0.000000
    6       10.029688   0.000000
    7       10.218395   0.000000
    8       11.498273   0.000000
 
  0.1904762E+00  0.1904762E+00  0.0000000E+00  0.6478782E-03
    1       -6.990458   1.000000
    2        2.779246   1.000000
    3        4.030762   1.000000
    4        4.030762   1.000000
    5        8.314065   0.000000
    6        9.823673   0.000000
    7       11.558106   0.000000
    8       11.558107   0.000000
 
  0.2380952E+00  0.1904762E+00  0.0000000E+00  0.2591513E-02
    1       -6.833762   1.000000
    2        2.297246   1.000000
    3        3.851671   1.000000
    4        3.854832   1.000000
    5        8.171664   0.000000
    6        9.634120   0.000000
    7       11.681190   0.000000
    8       11.893415   0.000000
 
  0.2857143E+00  0.1904762E+00  0.0000000E+00  0.2591513E-02
    1       -6.636099   1.000000
    2        1.704729   1.000000
    3        3.638681   1.000000
    4        3.710509   1.000000
    5        8.159436   0.000000
    6        9.574559   0.000000
    7       11.554235   0.000000
    8       12.083619   0.000000
 
  0.3333333E+00  0.1904762E+00  0.0000000E+00  0.2591513E-02
    1       -6.406023   1.000000
    2        1.085967   1.000000
    3        3.381327   1.000000
    4        3.604326   1.000000
    5        8.157831   0.000000
    6        9.762695   0.000000
    7       11.395338   0.000000
    8       12.095212   0.000000
 
  0.3809524E+00  0.1904762E+00  0.0000000E+00  0.2591513E-02
    1       -6.157003   1.000000
    2        0.492082   1.000000
    3        3.107949   1.000000
    4        3.540191   1.000000
    5        8.120997   0.000000
    6       10.183152   0.000000
    7       11.274393   0.000000
    8       11.973015   0.000000
 
  0.4285714E+00  0.1904762E+00  0.0000000E+00  0.2591513E-02
    1       -5.909998   1.000000
    2       -0.034294   1.000000
    3        2.845853   1.000000
    4        3.520030   1.000000
    5        8.085902   0.000000
    6       10.621663   0.000000
    7       11.346829   0.000000
    8       11.787285   0.000000
 
  0.4761905E+00  0.1904762E+00  0.0000000E+00  0.2591513E-02
    1       -5.695753   1.000000
    2       -0.448800   1.000000
    3        2.613607   1.000000
    4        3.544187   1.000000
    5        8.087309   0.000000
    6       10.725491   0.000000
    7       11.589468   0.000000
    8       11.906928   0.000000
 
 -0.4761905E+00  0.1904762E+00  0.0000000E+00  0.2591513E-02
    1       -5.553463   1.000000
    2       -0.704216   1.000000
    3        2.423289   1.000000
    4        3.611531   1.000000
    5        8.141195   0.000000
    6       10.684647   0.000000
    7       11.408912   0.000000
    8       12.718846   0.000000
 
 -0.4285714E+00  0.1904762E+00  0.0000000E+00  0.2591513E-02
    1       -5.518278   1.000000
    2       -0.761706   1.000000
    3        2.283665   1.000000
    4        3.719402   1.000000
    5        8.252492   0.000000
    6       10.643416   0.000000
    7       11.260218   0.000000
    8       13.556761   0.000000
 
 -0.3809524E+00  0.1904762E+00  0.0000000E+00  0.2591513E-02
    1       -5.600183   1.000000
    2       -0.612141   1.000000
    3        2.202663   1.000000
    4        3.863358   1.000000
    5        8.419893   0.000000
    6       10.628963   0.000000
    7       11.147543   0.000000
    8       13.909438   0.000000
 
 -0.3333333E+00  0.1904762E+00  0.0000000E+00  0.2591513E-02
    1       -5.776277   1.000000
    2       -0.285016   1.000000
    3        2.189920   1.000000
    4        4.036655   1.000000
    5        8.637055   0.000000
    6       10.646499   0.000000
    7       11.064067   0.000000
    8       13.332004   0.000000
 
 -0.2857143E+00  0.1904762E+00  0.0000000E+00  0.2591513E-02
    1       -6.007533   1.000000
    2        0.164685   1.000000
    3        2.260607   1.000000
    4        4.229522   1.000000
    5        8.891338   0.000000
    6       10.686937   0.000000
    7       10.985322   0.000000
    8       12.580430   0.000000
 
 -0.2380952E+00  0.1904762E+00  0.0000000E+00  0.2591513E-02
    1       -6.257768   1.000000
    2        0.669323   1.000000
    3        2.441090   1.000000
    4        4.428075   1.000000
    5        9.158410   0.000000
    6       10.698044   0.000000
    7       10.860981   0.000000
    8       11.913740   0.000000
 
 -0.1904762E+00  0.1904762E+00  0.0000000E+00  0.1295756E-02
    1       -6.500648   1.000000
    2        1.154170   1.000000
    3        2.768283   1.000000
    4        4.613311   1.000000
    5        9.380908   0.000000
    6       10.520877   0.000000
    7       10.648373   0.000000
    8       11.575038   0.000000
 
  0.2380952E+00  0.2380952E+00  0.0000000E+00  0.6478782E-03
    1       -6.694685   1.000000
    2        2.019161   1.000000
    3        3.666407   1.000000
    4        3.666407   1.000000
    5        7.851090   0.000000
    6        9.267892   0.000000
    7       12.349939   0.000000
    8       12.349957   0.000000
 
  0.2857143E+00  0.2380952E+00  0.0000000E+00  0.2591513E-02
    1       -6.514460   1.000000
    2        1.583324   1.000000
    3        3.467121   1.000000
    4        3.510253   1.000000
    5        7.719914   0.000000
    6        9.030998   0.000000
    7       12.478802   0.000000
    8       12.676864   0.000000
 
  0.3333333E+00  0.2380952E+00  0.0000000E+00  0.2591513E-02
    1       -6.300708   1.000000
    2        1.083893   1.000000
    3        3.192680   1.000000
    4        3.393339   1.000000
    5        7.716467   0.000000
    6        9.017089   0.000000
    7       12.373350   0.000000
    8       12.800307   0.000000
 
  0.3809524E+00  0.2380952E+00  0.0000000E+00  0.2591513E-02
    1       -6.065411   1.000000
    2        0.579943   1.000000
    3        2.865352   1.000000
    4        3.319925   1.000000
    5        7.721254   0.000000
    6        9.297021   0.000000
    7       12.228214   0.000000
    8       12.738328   0.000000
 
  0.4285714E+00  0.2380952E+00  0.0000000E+00  0.2591513E-02
    1       -5.826925   1.000000
    2        0.114867   1.000000
    3        2.530553   1.000000
    4        3.292281   1.000000
    5        7.711015   0.000000
    6        9.826302   0.000000
    7       12.094747   0.000000
    8       12.571074   0.000000
 
  0.4761905E+00  0.2380952E+00  0.0000000E+00  0.2591513E-02
    1       -5.612090   1.000000
    2       -0.268924   1.000000
    3        2.222963   1.000000
    4        3.311071   1.000000
    5        7.723715   0.000000
    6       10.492391   0.000000
    7       12.017267   0.000000
    8       12.366729   0.000000
 
 -0.4761905E+00  0.2380952E+00  0.0000000E+00  0.2591513E-02
    1       -5.455777   1.000000
    2       -0.526614   1.000000
    3        1.964087   1.000000
    4        3.375512   1.000000
    5        7.784670   0.000000
    6       11.110150   0.000000
    7       12.129066   0.000000
    8       12.164510   0.000000
 
 -0.4285714E+00  0.2380952E+00  0.0000000E+00  0.2591513E-02
    1       -5.392369   1.000000
    2       -0.619229   1.000000
    3        1.768114   1.000000
    4        3.483311   1.000000
    5        7.903508   0.000000
    6       11.372088   0.000000
    7       11.982998   0.000000
    8       12.694311   0.000000
 
 -0.3809524E+00  0.2380952E+00  0.0000000E+00  0.2591513E-02
    1       -5.438304   1.000000
    2       -0.532647   1.000000
    3        1.648119   1.000000
    4        3.630393   1.000000
    5        8.081652   0.000000
    6       11.409688   0.000000
    7       11.826017   0.000000
    8       13.447573   0.000000
 
 -0.3333333E+00  0.2380952E+00  0.0000000E+00  0.2591513E-02
    1       -5.580732   1.000000
    2       -0.292796   1.000000
    3        1.622426   1.000000
    4        3.810355   1.000000
    5        8.315165   0.000000
    6       11.407995   0.000000
    7       11.680428   0.000000
    8       13.308170   0.000000
 
 -0.2857143E+00  0.2380952E+00  0.0000000E+00  0.2591513E-02
    1       -5.786907   1.000000
    2        0.037292   1.000000
    3        1.722014   1.000000
    4        4.013585   1.000000
    5        8.593903   0.000000
    6       11.383821   0.000000
    7       11.503913   0.000000
    8       12.569034   0.000000
 
 -0.2380952E+00  0.2380952E+00  0.0000000E+00  0.1295756E-02
    1       -6.021823   1.000000
    2        0.376419   1.000000
    3        1.989162   1.000000
    4        4.226081   1.000000
    5        8.895206   0.000000
    6       11.196586   0.000000
    7       11.229025   0.000000
    8       12.014146   0.000000
 