       N       E                     dE             d eps       ncg     rms          rms(c)
DAV:   1     0.156056567965E+02    0.15606E+02   -0.31942E+03  4608   0.762E+02
DAV:   2    -0.878079800253E+01   -0.24386E+02   -0.23975E+02  6144   0.921E+01
DAV:   3    -0.929138221374E+01   -0.51058E+00   -0.51058E+00  5680   0.183E+01
DAV:   4    -0.929335219959E+01   -0.19700E-02   -0.19700E-02  7384   0.125E+00
DAV:   5    -0.929335785158E+01   -0.56520E-05   -0.56520E-05  5824   0.487E-02    0.296E+00
RMM:   6    -0.907410970870E+01    0.21925E+00   -0.21298E-01  4593   0.257E+00    0.164E+00
RMM:   7    -0.902498524407E+01    0.49124E-01   -0.15726E-01  4773   0.232E+00    0.411E-01
RMM:   8    -0.902515506997E+01   -0.16983E-03   -0.54484E-03  5065   0.597E-01    0.540E-02
RMM:   9    -0.902535947933E+01   -0.20441E-03   -0.26029E-04  5400   0.132E-01    0.187E-02
RMM:  10    -0.902536583907E+01   -0.63597E-05   -0.36121E-05  5485   0.433E-02    0.433E-03
RMM:  11    -0.902536700374E+01   -0.11647E-05   -0.39739E-06  5041   0.172E-02    0.102E-03
RMM:  12    -0.902536698509E+01    0.18650E-07   -0.25340E-07  3901   0.388E-03
   1 F= -.90253670E+01 E0= -.90253670E+01  d E =0.000000E+00
