   2   2   0   0
  0.2166108E+02  0.3942227E-09  0.3942227E-09  0.3942227E-09  0.0000000E+00
  1.000000000000000E-004
  CAR 
 unknown system                          
     16.12590848     -8.96165230  301      4.34520807      1.00000000
     -8.962  0.0000E+00  0.0000E+00
     -8.878  0.0000E+00  0.0000E+00
     -8.794  0.0000E+00  0.0000E+00
     -8.711  0.0000E+00  0.0000E+00
     -8.627  0.0000E+00  0.0000E+00
     -8.544  0.0000E+00  0.0000E+00
     -8.460  0.0000E+00  0.0000E+00
     -8.376  0.0000E+00  0.0000E+00
     -8.293  0.0000E+00  0.0000E+00
     -8.209  0.0000E+00  0.0000E+00
     -8.125  0.0000E+00  0.0000E+00
     -8.042  0.0000E+00  0.0000E+00
     -7.958  0.0000E+00  0.0000E+00
     -7.875  0.0000E+00  0.0000E+00
     -7.791  0.7464E-01  0.1073E-02
     -7.707  0.1549E+00  0.1100E-01
     -7.624  0.2149E+00  0.2675E-01
     -7.540  0.2668E+00  0.4678E-01
     -7.456  0.3066E+00  0.7071E-01
     -7.373  0.3510E+00  0.9826E-01
     -7.289  0.3906E+00  0.1292E+00
     -7.206  0.4337E+00  0.1637E+00
     -7.122  0.4747E+00  0.2016E+00
     -7.038  0.5199E+00  0.2432E+00
     -6.955  0.5673E+00  0.2886E+00
     -6.871  0.6187E+00  0.3382E+00
     -6.787  0.6754E+00  0.3922E+00
     -6.704  0.7415E+00  0.4514E+00
     -6.620  0.8159E+00  0.5165E+00
     -6.537  0.9099E+00  0.5884E+00
     -6.453  0.1031E+01  0.6694E+00
     -6.369  0.1196E+01  0.7620E+00
     -6.286  0.1715E+01  0.8758E+00
     -6.202  0.1661E+01  0.1015E+01
     -6.118  0.1679E+01  0.1155E+01
     -6.035  0.1677E+01  0.1295E+01
     -5.951  0.1716E+01  0.1436E+01
     -5.868  0.1788E+01  0.1582E+01
     -5.784  0.1936E+01  0.1737E+01
     -5.700  0.2675E+01  0.1918E+01
     -5.617  0.0000E+00  0.2000E+01
     -5.533  0.0000E+00  0.2000E+01
     -5.449  0.0000E+00  0.2000E+01
     -5.366  0.0000E+00  0.2000E+01
     -5.282  0.0000E+00  0.2000E+01
     -5.199  0.0000E+00  0.2000E+01
     -5.115  0.0000E+00  0.2000E+01
     -5.031  0.0000E+00  0.2000E+01
     -4.948  0.0000E+00  0.2000E+01
     -4.864  0.0000E+00  0.2000E+01
     -4.780  0.0000E+00  0.2000E+01
     -4.697  0.0000E+00  0.2000E+01
     -4.613  0.0000E+00  0.2000E+01
     -4.530  0.0000E+00  0.2000E+01
     -4.446  0.0000E+00  0.2000E+01
     -4.362  0.0000E+00  0.2000E+01
     -4.279  0.0000E+00  0.2000E+01
     -4.195  0.0000E+00  0.2000E+01
     -4.111  0.0000E+00  0.2000E+01
     -4.028  0.0000E+00  0.2000E+01
     -3.944  0.0000E+00  0.2000E+01
     -3.861  0.0000E+00  0.2000E+01
     -3.777  0.0000E+00  0.2000E+01
     -3.693  0.0000E+00  0.2000E+01
     -3.610  0.0000E+00  0.2000E+01
     -3.526  0.0000E+00  0.2000E+01
     -3.442  0.0000E+00  0.2000E+01
     -3.359  0.0000E+00  0.2000E+01
     -3.275  0.0000E+00  0.2000E+01
     -3.192  0.0000E+00  0.2000E+01
     -3.108  0.0000E+00  0.2000E+01
     -3.024  0.0000E+00  0.2000E+01
     -2.941  0.0000E+00  0.2000E+01
     -2.857  0.0000E+00  0.2000E+01
     -2.773  0.0000E+00  0.2000E+01
     -2.690  0.0000E+00  0.2000E+01
     -2.606  0.0000E+00  0.2000E+01
     -2.523  0.0000E+00  0.2000E+01
     -2.439  0.0000E+00  0.2000E+01
     -2.355  0.0000E+00  0.2000E+01
     -2.272  0.0000E+00  0.2000E+01
     -2.188  0.0000E+00  0.2000E+01
     -2.104  0.0000E+00  0.2000E+01
     -2.021  0.0000E+00  0.2000E+01
     -1.937  0.0000E+00  0.2000E+01
     -1.854  0.0000E+00  0.2000E+01
     -1.770  0.0000E+00  0.2000E+01
     -1.686  0.0000E+00  0.2000E+01
     -1.603  0.0000E+00  0.2000E+01
     -1.519  0.0000E+00  0.2000E+01
     -1.435  0.2220E+00  0.2005E+01
     -1.352  0.3999E+00  0.2029E+01
     -1.268  0.6705E+00  0.2069E+01
     -1.185  0.1080E+01  0.2143E+01
     -1.101  0.1557E+01  0.2250E+01
     -1.017  0.2677E+01  0.2417E+01
     -0.934  0.3818E+01  0.2708E+01
     -0.850  0.1695E+01  0.2923E+01
     -0.766  0.1179E+01  0.3042E+01
     -0.683  0.9817E+00  0.3132E+01
     -0.599  0.8012E+00  0.3206E+01
     -0.516  0.7169E+00  0.3269E+01
     -0.432  0.6270E+00  0.3325E+01
     -0.348  0.5563E+00  0.3374E+01
     -0.265  0.5130E+00  0.3419E+01
     -0.181  0.4686E+00  0.3460E+01
     -0.097  0.4187E+00  0.3497E+01
     -0.014  0.3907E+00  0.3531E+01
      0.070  0.3667E+00  0.3563E+01
      0.153  0.3416E+00  0.3592E+01
      0.237  0.3140E+00  0.3620E+01
      0.321  0.2883E+00  0.3645E+01
      0.404  0.2742E+00  0.3668E+01
      0.488  0.2592E+00  0.3690E+01
      0.572  0.2433E+00  0.3712E+01
      0.655  0.5536E+00  0.3745E+01
      0.739  0.8105E+00  0.3802E+01
      0.822  0.1193E+01  0.3884E+01
      0.906  0.1215E+01  0.3993E+01
      0.990  0.1150E+01  0.4092E+01
      1.073  0.1084E+01  0.4186E+01
      1.157  0.1042E+01  0.4275E+01
      1.241  0.1018E+01  0.4361E+01
      1.324  0.9965E+00  0.4445E+01
      1.408  0.1036E+01  0.4530E+01
      1.491  0.1086E+01  0.4619E+01
      1.575  0.1127E+01  0.4711E+01
      1.659  0.1156E+01  0.4808E+01
      1.742  0.1223E+01  0.4907E+01
      1.826  0.1286E+01  0.5013E+01
      1.910  0.1468E+01  0.5125E+01
      1.993  0.1594E+01  0.5251E+01
      2.077  0.1702E+01  0.5391E+01
      2.160  0.1673E+01  0.5533E+01
      2.244  0.1656E+01  0.5672E+01
      2.328  0.1629E+01  0.5810E+01
      2.411  0.1600E+01  0.5945E+01
      2.495  0.1602E+01  0.6079E+01
      2.579  0.1571E+01  0.6212E+01
      2.662  0.1549E+01  0.6342E+01
      2.746  0.1536E+01  0.6471E+01
      2.830  0.1518E+01  0.6599E+01
      2.913  0.1509E+01  0.6725E+01
      2.997  0.1492E+01  0.6851E+01
      3.080  0.1473E+01  0.6975E+01
      3.164  0.1467E+01  0.7098E+01
      3.248  0.1480E+01  0.7220E+01
      3.331  0.1469E+01  0.7344E+01
      3.415  0.1424E+01  0.7466E+01
      3.499  0.1048E+01  0.7567E+01
      3.582  0.9002E+00  0.7648E+01
      3.666  0.7856E+00  0.7718E+01
      3.749  0.6852E+00  0.7780E+01
      3.833  0.5982E+00  0.7833E+01
      3.917  0.5218E+00  0.7880E+01
      4.000  0.4432E+00  0.7921E+01
      4.084  0.3744E+00  0.7954E+01
      4.168  0.2695E+00  0.7982E+01
      4.251  0.1192E+00  0.7998E+01
      4.335  0.0000E+00  0.8000E+01
      4.418  0.0000E+00  0.8000E+01
      4.502  0.0000E+00  0.8000E+01
      4.586  0.0000E+00  0.8000E+01
      4.669  0.0000E+00  0.8000E+01
      4.753  0.0000E+00  0.8000E+01
      4.837  0.0000E+00  0.8000E+01
      4.920  0.0000E+00  0.8000E+01
      5.004  0.0000E+00  0.8000E+01
      5.087  0.0000E+00  0.8000E+01
      5.171  0.0000E+00  0.8000E+01
      5.255  0.0000E+00  0.8000E+01
      5.338  0.0000E+00  0.8000E+01
      5.422  0.0000E+00  0.8000E+01
      5.506  0.0000E+00  0.8000E+01
      5.589  0.0000E+00  0.8000E+01
      5.673  0.5305E-02  0.8000E+01
      5.756  0.5740E-01  0.8003E+01
      5.840  0.9396E-01  0.8009E+01
      5.924  0.1201E+00  0.8018E+01
      6.007  0.1545E+00  0.8029E+01
      6.091  0.1919E+00  0.8044E+01
      6.175  0.2240E+00  0.8061E+01
      6.258  0.2620E+00  0.8082E+01
      6.342  0.3025E+00  0.8105E+01
      6.425  0.3385E+00  0.8132E+01
      6.509  0.3739E+00  0.8162E+01
      6.593  0.4119E+00  0.8195E+01
      6.676  0.5088E+00  0.8232E+01
      6.760  0.6289E+00  0.8280E+01
      6.844  0.7202E+00  0.8337E+01
      6.927  0.8109E+00  0.8401E+01
      7.011  0.9123E+00  0.8473E+01
      7.094  0.1017E+01  0.8554E+01
      7.178  0.1124E+01  0.8643E+01
      7.262  0.1273E+01  0.8743E+01
      7.345  0.1488E+01  0.8858E+01
      7.429  0.1762E+01  0.8994E+01
      7.513  0.1763E+01  0.9145E+01
      7.596  0.1691E+01  0.9289E+01
      7.680  0.1649E+01  0.9429E+01
      7.763  0.1605E+01  0.9564E+01
      7.847  0.1661E+01  0.9699E+01
      7.931  0.1453E+01  0.9832E+01
      8.014  0.1250E+01  0.9943E+01
      8.098  0.1243E+01  0.1005E+02
      8.182  0.1064E+01  0.1015E+02
      8.265  0.8696E+00  0.1023E+02
      8.349  0.5293E+00  0.1028E+02
      8.432  0.6570E+00  0.1033E+02
      8.516  0.6822E+00  0.1039E+02
      8.600  0.8461E+00  0.1045E+02
      8.683  0.1064E+01  0.1053E+02
      8.767  0.1798E+01  0.1065E+02
      8.851  0.2380E+01  0.1083E+02
      8.934  0.2463E+01  0.1104E+02
      9.018  0.1885E+01  0.1121E+02
      9.101  0.1875E+01  0.1137E+02
      9.185  0.1623E+01  0.1152E+02
      9.269  0.1293E+01  0.1164E+02
      9.352  0.1400E+01  0.1175E+02
      9.436  0.1350E+01  0.1186E+02
      9.520  0.1311E+01  0.1198E+02
      9.603  0.1321E+01  0.1208E+02
      9.687  0.1290E+01  0.1219E+02
      9.770  0.1380E+01  0.1230E+02
      9.854  0.1463E+01  0.1242E+02
      9.938  0.1717E+01  0.1255E+02
     10.021  0.1563E+01  0.1269E+02
     10.105  0.1384E+01  0.1281E+02
     10.189  0.1439E+01  0.1293E+02
     10.272  0.1639E+01  0.1305E+02
     10.356  0.1343E+01  0.1318E+02
     10.439  0.1231E+01  0.1328E+02
     10.523  0.1182E+01  0.1338E+02
     10.607  0.1143E+01  0.1348E+02
     10.690  0.1213E+01  0.1358E+02
     10.774  0.1191E+01  0.1368E+02
     10.858  0.1140E+01  0.1378E+02
     10.941  0.1120E+01  0.1387E+02
     11.025  0.1131E+01  0.1397E+02
     11.108  0.1069E+01  0.1406E+02
     11.192  0.1051E+01  0.1415E+02
     11.276  0.1054E+01  0.1423E+02
     11.359  0.1016E+01  0.1432E+02
     11.443  0.9293E+00  0.1440E+02
     11.527  0.8622E+00  0.1447E+02
     11.610  0.8653E+00  0.1455E+02
     11.694  0.8846E+00  0.1462E+02
     11.777  0.9629E+00  0.1470E+02
     11.861  0.1094E+01  0.1478E+02
     11.945  0.1221E+01  0.1488E+02
     12.028  0.1319E+01  0.1499E+02
     12.112  0.1008E+01  0.1508E+02
     12.196  0.1038E+01  0.1517E+02
     12.279  0.9172E+00  0.1525E+02
     12.363  0.8298E+00  0.1532E+02
     12.446  0.7438E+00  0.1539E+02
     12.530  0.7474E+00  0.1545E+02
     12.614  0.6633E+00  0.1551E+02
     12.697  0.4231E+00  0.1556E+02
     12.781  0.3957E+00  0.1559E+02
     12.865  0.3726E+00  0.1562E+02
     12.948  0.3650E+00  0.1565E+02
     13.032  0.3631E+00  0.1569E+02
     13.115  0.3375E+00  0.1571E+02
     13.199  0.2987E+00  0.1574E+02
     13.283  0.2743E+00  0.1576E+02
     13.366  0.2565E+00  0.1579E+02
     13.450  0.2414E+00  0.1581E+02
     13.534  0.2307E+00  0.1583E+02
     13.617  0.2182E+00  0.1585E+02
     13.701  0.2048E+00  0.1586E+02
     13.784  0.1918E+00  0.1588E+02
     13.868  0.1837E+00  0.1590E+02
     13.952  0.1700E+00  0.1591E+02
     14.035  0.1593E+00  0.1592E+02
     14.119  0.1383E+00  0.1594E+02
     14.203  0.1199E+00  0.1595E+02
     14.286  0.1043E+00  0.1596E+02
     14.370  0.9139E-01  0.1597E+02
     14.453  0.8215E-01  0.1597E+02
     14.537  0.7934E-01  0.1598E+02
     14.621  0.8002E-01  0.1599E+02
     14.704  0.7066E-01  0.1599E+02
     14.788  0.3896E-01  0.1600E+02
     14.872  0.1517E-01  0.1600E+02
     14.955  0.1121E-02  0.1600E+02
     15.039  0.0000E+00  0.1600E+02
     15.122  0.0000E+00  0.1600E+02
     15.206  0.0000E+00  0.1600E+02
     15.290  0.0000E+00  0.1600E+02
     15.373  0.0000E+00  0.1600E+02
     15.457  0.0000E+00  0.1600E+02
     15.541  0.0000E+00  0.1600E+02
     15.624  0.0000E+00  0.1600E+02
     15.708  0.0000E+00  0.1600E+02
     15.791  0.0000E+00  0.1600E+02
     15.875  0.0000E+00  0.1600E+02
     15.959  0.0000E+00  0.1600E+02
     16.042  0.0000E+00  0.1600E+02
     16.126  0.0000E+00  0.1600E+02
