    2    2    1    1
  0.2166108E+02  0.3942227E-09  0.3942227E-09  0.3942227E-09  0.0000000E+00
  1.000000000000000E-004
  CAR 
 unknown system                          
      8    256      8
 
  0.0000000E+00  0.0000000E+00  0.0000000E+00  0.1250000E-03
    1       -7.821309   1.000000
    2        4.292264   1.000000
    3        4.292264   1.000000
    4        4.292264   1.000000
    5        6.747940   0.000000
    6        8.654081   0.000000
    7        8.654081   0.000000
    8        8.654081   0.000000
 
  0.5000000E-01  0.0000000E+00  0.0000000E+00  0.1000000E-02
    1       -7.794980   1.000000
    2        3.970814   1.000000
    3        4.262310   1.000000
    4        4.262310   1.000000
    5        6.980825   0.000000
    6        8.687993   0.000000
    7        8.708430   0.000000
    8        8.708431   0.000000
 
  0.1000000E+00  0.0000000E+00  0.0000000E+00  0.1000000E-02
    1       -7.716668   1.000000
    2        3.266612   1.000000
    3        4.179501   1.000000
    4        4.179502   1.000000
    5        7.320929   0.000000
    6        8.854879   0.000000
    7        8.854879   0.000000
    8        8.910574   0.000000
 
  0.1500000E+00  0.0000000E+00  0.0000000E+00  0.1000000E-02
    1       -7.588797   1.000000
    2        2.448428   1.000000
    3        4.061001   1.000000
    4        4.061001   1.000000
    5        7.396232   0.000000
    6        9.045641   0.000000
    7        9.045641   0.000000
    8        9.472828   0.000000
 
  0.2000000E+00  0.0000000E+00  0.0000000E+00  0.1000000E-02
    1       -7.415767   1.000000
    2        1.619208   1.000000
    3        3.926372   1.000000
    4        3.926372   1.000000
    5        7.282650   0.000000
    6        9.210068   0.000000
    7        9.210068   0.000000
    8       10.237265   0.000000
 
  0.2500000E+00  0.0000000E+00  0.0000000E+00  0.1000000E-02
    1       -7.205052   1.000000
    2        0.824750   1.000000
    3        3.792236   1.000000
    4        3.792236   1.000000
    5        7.114217   0.000000
    6        9.284591   0.000000
    7        9.284591   0.000000
    8       11.035157   0.000000
 
  0.3000000E+00  0.0000000E+00  0.0000000E+00  0.1000000E-02
    1       -6.968625   1.000000
    2        0.095695   1.000000
    3        3.670745   1.000000
    4        3.670745   1.000000
    5        6.948182   0.000000
    6        9.259529   0.000000
    7        9.259529   0.000000
    8       11.719611   0.000000
 
  0.3500000E+00  0.0000000E+00  0.0000000E+00  0.1000000E-02
    1       -6.725522   1.000000
    2       -0.538445   1.000000
    3        3.570017   1.000000
    4        3.570018   1.000000
    5        6.807698   0.000000
    6        9.177422   0.000000
    7        9.177422   0.000000
    8       12.092920   0.000000
 
  0.4000000E+00  0.0000000E+00  0.0000000E+00  0.1000000E-02
    1       -6.504617   1.000000
    2       -1.042414   1.000000
    3        3.495182   1.000000
    4        3.495182   1.000000
    5        6.703028   0.000000
    6        9.087487   0.000000
    7        9.087487   0.000000
    8       12.164561   0.000000
 
  0.4500000E+00  0.0000000E+00  0.0000000E+00  0.1000000E-02
    1       -6.344894   1.000000
    2       -1.373356   1.000000
    3        3.449249   1.000000
    4        3.449249   1.000000
    5        6.638864   0.000000
    6        9.022474   0.000000
    7        9.022474   0.000000
    8       12.140258   0.000000
 
  0.5000000E+00  0.0000000E+00  0.0000000E+00  0.5000000E-03
    1       -6.285762   1.000000
    2       -1.489798   1.000000
    3        3.433775   1.000000
    4        3.433776   1.000000
    5        6.617289   0.000000
    6        8.999126   0.000000
    7        8.999126   0.000000
    8       12.124197   0.000000
 
  0.5000000E-01  0.5000000E-01  0.0000000E+00  0.7500000E-03
    1       -7.786186   1.000000
    2        3.980894   1.000000
    3        4.191891   1.000000
    4        4.191891   1.000000
    5        7.078206   0.000000
    6        8.525782   0.000000
    7        8.806617   0.000000
    8        8.806617   0.000000
 
  0.1000000E+00  0.5000000E-01  0.0000000E+00  0.3000000E-02
    1       -7.725158   1.000000
    2        3.442422   1.000000
    3        4.075671   1.000000
    4        4.145206   1.000000
    5        7.425083   0.000000
    6        8.466818   0.000000
    7        8.993838   0.000000
    8        9.027215   0.000000
 
  0.1500000E+00  0.5000000E-01  0.0000000E+00  0.3000000E-02
    1       -7.613734   1.000000
    2        2.682021   1.000000
    3        3.934349   1.000000
    4        4.069731   1.000000
    5        7.595968   0.000000
    6        8.594260   0.000000
    7        9.222676   0.000000
    8        9.446563   0.000000
 
  0.2000000E+00  0.5000000E-01  0.0000000E+00  0.3000000E-02
    1       -7.455549   1.000000
    2        1.872473   1.000000
    3        3.787799   1.000000
    4        3.950148   1.000000
    5        7.519564   0.000000
    6        8.831813   0.000000
    7        9.424937   0.000000
    8       10.028524   0.000000
 
  0.2500000E+00  0.5000000E-01  0.0000000E+00  0.3000000E-02
    1       -7.256979   1.000000
    2        1.077317   1.000000
    3        3.651540   1.000000
    4        3.806965   1.000000
    5        7.359027   0.000000
    6        9.006454   0.000000
    7        9.532158   0.000000
    8       10.637469   0.000000
 
  0.3000000E+00  0.5000000E-01  0.0000000E+00  0.3000000E-02
    1       -7.028241   1.000000
    2        0.333279   1.000000
    3        3.536315   1.000000
    4        3.659095   1.000000
    5        7.191361   0.000000
    6        9.055563   0.000000
    7        9.520690   0.000000
    8       11.216436   0.000000
 
  0.3500000E+00  0.5000000E-01  0.0000000E+00  0.3000000E-02
    1       -6.785724   1.000000
    2       -0.328987   1.000000
    3        3.448925   1.000000
    4        3.520513   1.000000
    5        7.044467   0.000000
    6        9.015304   0.000000
    7        9.426321   0.000000
    8       11.755311   0.000000
 
  0.4000000E+00  0.5000000E-01  0.0000000E+00  0.3000000E-02
    1       -6.554664   1.000000
    2       -0.875713   1.000000
    3        3.393228   1.000000
    4        3.400833   1.000000
    5        6.930294   0.000000
    6        8.950666   0.000000
    7        9.302971   0.000000
    8       12.125682   0.000000
 
  0.4500000E+00  0.5000000E-01  0.0000000E+00  0.3000000E-02
    1       -6.370915   1.000000
    2       -1.265939   1.000000
    3        3.306565   1.000000
    4        3.370938   1.000000
    5        6.854454   0.000000
    6        8.905867   0.000000
    7        9.190846   0.000000
    8       12.251984   0.000000
 
  0.5000000E+00  0.5000000E-01  0.0000000E+00  0.3000000E-02
    1       -6.275373   1.000000
    2       -1.455816   1.000000
    3        3.242136   1.000000
    4        3.382185   1.000000
    5        6.819594   0.000000
    6        8.902726   0.000000
    7        9.112909   0.000000
    8       12.274044   0.000000
 
 -0.4500000E+00  0.5000000E-01  0.0000000E+00  0.3000000E-02
    1       -6.295263   1.000000
    2       -1.416889   1.000000
    3        3.210543   1.000000
    4        3.425818   1.000000
    5        6.826680   0.000000
    6        8.948651   0.000000
    7        9.079316   0.000000
    8       12.280805   0.000000
 
 -0.4000000E+00  0.5000000E-01  0.0000000E+00  0.3000000E-02
    1       -6.424538   1.000000
    2       -1.155496   1.000000
    3        3.213671   1.000000
    4        3.499525   1.000000
    5        6.875546   0.000000
    6        9.040669   0.000000
    7        9.090061   0.000000
    8       12.266383   0.000000
 
 -0.3500000E+00  0.5000000E-01  0.0000000E+00  0.3000000E-02
    1       -6.628648   1.000000
    2       -0.707979   1.000000
    3        3.252342   1.000000
    4        3.599753   1.000000
    5        6.964761   0.000000
    6        9.134232   0.000000
    7        9.164830   0.000000
    8       12.132235   0.000000
 
 -0.3000000E+00  0.5000000E-01  0.0000000E+00  0.3000000E-02
    1       -6.867013   1.000000
    2       -0.118689   1.000000
    3        3.326148   1.000000
    4        3.721355   1.000000
    5        7.090852   0.000000
    6        9.186045   0.000000
    7        9.290848   0.000000
    8       11.737811   0.000000
 
 -0.2500000E+00  0.5000000E-01  0.0000000E+00  0.3000000E-02
    1       -7.107215   1.000000
    2        0.573642   1.000000
    3        3.433116   1.000000
    4        3.856939   1.000000
    5        7.246193   0.000000
    6        9.202035   0.000000
    7        9.362600   0.000000
    8       11.139680   0.000000
 
 -0.2000000E+00  0.5000000E-01  0.0000000E+00  0.3000000E-02
    1       -7.327332   1.000000
    2        1.336256   1.000000
    3        3.569217   1.000000
    4        3.995948   1.000000
    5        7.413535   0.000000
    6        9.137615   0.000000
    7        9.299459   0.000000
    8       10.491339   0.000000
 
 -0.1500000E+00  0.5000000E-01  0.0000000E+00  0.3000000E-02
    1       -7.513305   1.000000
    2        2.135898   1.000000
    3        3.727980   1.000000
    4        4.123860   1.000000
    5        7.549187   0.000000
    6        8.993693   0.000000
    7        9.057006   0.000000
    8        9.886624   0.000000
 
 -0.1000000E+00  0.5000000E-01  0.0000000E+00  0.3000000E-02
    1       -7.656410   1.000000
    2        2.924537   1.000000
    3        3.901445   1.000000
    4        4.222409   1.000000
    5        7.537837   0.000000
    6        8.758314   0.000000
    7        8.830569   0.000000
    8        9.379696   0.000000
 
 -0.5000000E-01  0.5000000E-01  0.0000000E+00  0.1500000E-02
    1       -7.751290   1.000000
    2        3.600469   1.000000
    3        4.088558   1.000000
    4        4.272742   1.000000
    5        7.261670   0.000000
    6        8.646743   0.000000
    7        8.720159   0.000000
    8        8.984486   0.000000
 
  0.1000000E+00  0.1000000E+00  0.0000000E+00  0.7500000E-03
    1       -7.681637   1.000000
    2        3.317491   1.000000
    3        3.930686   1.000000
    4        3.930686   1.000000
    5        7.768126   0.000000
    6        8.196672   0.000000
    7        9.222997   0.000000
    8        9.222997   0.000000
 
  0.1500000E+00  0.1000000E+00  0.0000000E+00  0.3000000E-02
    1       -7.587358   1.000000
    2        2.768745   1.000000
    3        3.767752   1.000000
    4        3.826661   1.000000
    5        7.992379   0.000000
    6        8.151718   0.000000
    7        9.496381   0.000000
    8        9.562714   0.000000
 
  0.2000000E+00  0.1000000E+00  0.0000000E+00  0.3000000E-02
    1       -7.445357   1.000000
    2        2.049307   1.000000
    3        3.607008   1.000000
    4        3.718692   1.000000
    5        7.878988   0.000000
    6        8.422355   0.000000
    7        9.749314   0.000000
    8        9.936135   0.000000
 
  0.2500000E+00  0.1000000E+00  0.0000000E+00  0.3000000E-02
    1       -7.261048   1.000000
    2        1.296672   1.000000
    3        3.463409   1.000000
    4        3.567518   1.000000
    5        7.734064   0.000000
    6        8.695006   0.000000
    7        9.909122   0.000000
    8       10.150273   0.000000
 
  0.3000000E+00  0.1000000E+00  0.0000000E+00  0.3000000E-02
    1       -7.043209   1.000000
    2        0.567674   1.000000
    3        3.347056   1.000000
    4        3.391387   1.000000
    5        7.582858   0.000000
    6        8.869671   0.000000
    7        9.934860   0.000000
    8       10.386788   0.000000
 
  0.3500000E+00  0.1000000E+00  0.0000000E+00  0.3000000E-02
    1       -6.805942   1.000000
    2       -0.099959   1.000000
    3        3.211977   1.000000
    4        3.264232   1.000000
    5        7.445314   0.000000
    6        8.889152   0.000000
    7        9.849598   0.000000
    8       10.838644   0.000000
 
  0.4000000E+00  0.1000000E+00  0.0000000E+00  0.3000000E-02
    1       -6.571090   1.000000
    2       -0.670831   1.000000
    3        3.045473   1.000000
    4        3.218373   1.000000
    5        7.335369   0.000000
    6        8.834466   0.000000
    7        9.709764   0.000000
    8       11.445339   0.000000
 
  0.4500000E+00  0.1000000E+00  0.0000000E+00  0.3000000E-02
    1       -6.370670   1.000000
    2       -1.104915   1.000000
    3        2.902957   1.000000
    4        3.210768   1.000000
    5        7.261153   0.000000
    6        8.783378   0.000000
    7        9.563466   0.000000
    8       12.056789   0.000000
 
  0.5000000E+00  0.1000000E+00  0.0000000E+00  0.3000000E-02
    1       -6.244342   1.000000
    2       -1.357820   1.000000
    3        2.792033   1.000000
    4        3.240966   1.000000
    5        7.226580   0.000000
    6        8.770704   0.000000
    7        9.440235   0.000000
    8       12.466797   0.000000
 
 -0.4500000E+00  0.1000000E+00  0.0000000E+00  0.3000000E-02
    1       -6.225472   1.000000
    2       -1.393995   1.000000
    3        2.718105   1.000000
    4        3.306978   1.000000
    5        7.232744   0.000000
    6        8.809193   0.000000
    7        9.355059   0.000000
    8       12.600046   0.000000
 
 -0.4000000E+00  0.1000000E+00  0.0000000E+00  0.3000000E-02
    1       -6.319686   1.000000
    2       -1.207669   1.000000
    3        2.685162   1.000000
    4        3.405288   1.000000
    5        7.278879   0.000000
    6        8.900161   0.000000
    7        9.312178   0.000000
    8       12.523983   0.000000
 
 -0.3500000E+00  0.1000000E+00  0.0000000E+00  0.3000000E-02
    1       -6.500523   1.000000
    2       -0.827351   1.000000
    3        2.696266   1.000000
    4        3.530690   1.000000
    5        7.362903   0.000000
    6        9.034706   0.000000
    7        9.305293   0.000000
    8       12.196870   0.000000
 
 -0.3000000E+00  0.1000000E+00  0.0000000E+00  0.3000000E-02
    1       -6.728149   1.000000
    2       -0.297687   1.000000
    3        2.753915   1.000000
    4        3.675858   1.000000
    5        7.481138   0.000000
    6        9.187460   0.000000
    7        9.314015   0.000000
    8       11.642433   0.000000
 
 -0.2500000E+00  0.1000000E+00  0.0000000E+00  0.3000000E-02
    1       -6.967421   1.000000
    2        0.337195   1.000000
    3        2.860600   1.000000
    4        3.830681   1.000000
    5        7.626606   0.000000
    6        9.297132   0.000000
    7        9.299661   0.000000
    8       11.036213   0.000000
 
 -0.2000000E+00  0.1000000E+00  0.0000000E+00  0.3000000E-02
    1       -7.193374   1.000000
    2        1.035714   1.000000
    3        3.020072   1.000000
    4        3.981426   1.000000
    5        7.783067   0.000000
    6        9.218360   0.000000
    7        9.239264   0.000000
    8       10.552742   0.000000
 
 -0.1500000E+00  0.1000000E+00  0.0000000E+00  0.3000000E-02
    1       -7.389715   1.000000
    2        1.749832   1.000000
    3        3.240490   1.000000
    4        4.110295   1.000000
    5        7.901773   0.000000
    6        8.958806   0.000000
    7        9.069647   0.000000
    8       10.228095   0.000000
 
 -0.1000000E+00  0.1000000E+00  0.0000000E+00  0.1500000E-02
    1       -7.546181   1.000000
    2        2.408732   1.000000
    3        3.537450   1.000000
    4        4.196723   1.000000
    5        7.835473   0.000000
    6        8.729757   0.000000
    7        8.916082   0.000000
    8        9.861707   0.000000
 
  0.1500000E+00  0.1500000E+00  0.0000000E+00  0.7500000E-03
    1       -7.510442   1.000000
    2        2.561766   1.000000
    3        3.586484   1.000000
    4        3.586484   1.000000
    5        7.768660   0.000000
    6        8.413334   0.000000
    7        9.821817   0.000000
    8        9.821817   0.000000
 
  0.2000000E+00  0.1500000E+00  0.0000000E+00  0.3000000E-02
    1       -7.385461   1.000000
    2        2.053732   1.000000
    3        3.411358   1.000000
    4        3.433627   1.000000
    5        7.628894   0.000000
    6        8.558916   0.000000
    7       10.087089   0.000000
    8       10.138206   0.000000
 
  0.2500000E+00  0.1500000E+00  0.0000000E+00  0.3000000E-02
    1       -7.217011   1.000000
    2        1.414136   1.000000
    3        3.257376   1.000000
    4        3.267104   1.000000
    5        7.599066   0.000000
    6        8.666654   0.000000
    7       10.042314   0.000000
    8       10.370568   0.000000
 
  0.3000000E+00  0.1500000E+00  0.0000000E+00  0.3000000E-02
    1       -7.012707   1.000000
    2        0.747774   1.000000
    3        3.061376   1.000000
    4        3.134560   1.000000
    5        7.564981   0.000000
    6        8.889708   0.000000
    7        9.909872   0.000000
    8       10.459223   0.000000
 
  0.3500000E+00  0.1500000E+00  0.0000000E+00  0.3000000E-02
    1       -6.784746   1.000000
    2        0.110114   1.000000
    3        2.837780   1.000000
    4        3.049145   1.000000
    5        7.494409   0.000000
    6        9.120992   0.000000
    7        9.974602   0.000000
    8       10.407260   0.000000
 
  0.4000000E+00  0.1500000E+00  0.0000000E+00  0.3000000E-02
    1       -6.552035   1.000000
    2       -0.456895   1.000000
    3        2.620252   1.000000
    4        3.004611   1.000000
    5        7.422086   0.000000
    6        9.140614   0.000000
    7       10.270020   0.000000
    8       10.440111   0.000000
 
  0.4500000E+00  0.1500000E+00  0.0000000E+00  0.3000000E-02
    1       -6.342652   1.000000
    2       -0.911600   1.000000
    3        2.425984   1.000000
    4        3.002304   1.000000
    5        7.378158   0.000000
    6        9.070330   0.000000
    7       10.104478   0.000000
    8       11.139165   0.000000
 
  0.5000000E+00  0.1500000E+00  0.0000000E+00  0.3000000E-02
    1       -6.193265   1.000000
    2       -1.209345   1.000000
    3        2.266442   1.000000
    4        3.041774   1.000000
    5        7.377060   0.000000
    6        9.011892   0.000000
    7        9.947934   0.000000
    8       11.910697   0.000000
 
 -0.4500000E+00  0.1500000E+00  0.0000000E+00  0.3000000E-02
    1       -6.139635   1.000000
    2       -1.310326   1.000000
    3        2.149653   1.000000
    4        3.120912   1.000000
    5        7.423091   0.000000
    6        8.992998   0.000000
    7        9.820381   0.000000
    8       12.576516   0.000000
 
 -0.4000000E+00  0.1500000E+00  0.0000000E+00  0.3000000E-02
    1       -6.197014   1.000000
    2       -1.198575   1.000000
    3        2.081936   1.000000
    4        3.235824   1.000000
    5        7.514176   0.000000
    6        9.022530   0.000000
    7        9.729390   0.000000
    8       12.708490   0.000000
 
 -0.3500000E+00  0.1500000E+00  0.0000000E+00  0.3000000E-02
    1       -6.348986   1.000000
    2       -0.893408   1.000000
    3        2.069226   1.000000
    4        3.380500   1.000000
    5        7.643783   0.000000
    6        9.100919   0.000000
    7        9.671300   0.000000
    8       12.228529   0.000000
 
 -0.3000000E+00  0.1500000E+00  0.0000000E+00  0.3000000E-02
    1       -6.559482   1.000000
    2       -0.438688   1.000000
    3        2.118658   1.000000
    4        3.546228   1.000000
    5        7.801696   0.000000
    6        9.215223   0.000000
    7        9.627774   0.000000
    8       11.541274   0.000000
 
 -0.2500000E+00  0.1500000E+00  0.0000000E+00  0.3000000E-02
    1       -6.792164   1.000000
    2        0.113340   1.000000
    3        2.241118   1.000000
    4        3.720797   1.000000
    5        7.972707   0.000000
    6        9.314948   0.000000
    7        9.560706   0.000000
    8       10.880181   0.000000
 
 -0.2000000E+00  0.1500000E+00  0.0000000E+00  0.3000000E-02
    1       -7.019389   1.000000
    2        0.705123   1.000000
    3        2.455296   1.000000
    4        3.887550   1.000000
    5        8.125517   0.000000
    6        9.258405   0.000000
    7        9.427582   0.000000
    8       10.449686   0.000000
 
 -0.1500000E+00  0.1500000E+00  0.0000000E+00  0.1500000E-02
    1       -7.222570   1.000000
    2        1.269914   1.000000
    3        2.787472   1.000000
    4        4.025223   1.000000
    5        8.157928   0.000000
    6        9.018676   0.000000
    7        9.238802   0.000000
    8       10.335169   0.000000
 
  0.2000000E+00  0.2000000E+00  0.0000000E+00  0.7500000E-03
    1       -7.277800   1.000000
    2        1.797966   1.000000
    3        3.222859   1.000000
    4        3.222859   1.000000
    5        7.316577   0.000000
    6        8.562458   0.000000
    7       10.534492   0.000000
    8       10.534497   0.000000
 
  0.2500000E+00  0.2000000E+00  0.0000000E+00  0.3000000E-02
    1       -7.126304   1.000000
    2        1.339441   1.000000
    3        3.039288   1.000000
    4        3.057134   1.000000
    5        7.187631   0.000000
    6        8.453070   0.000000
    7       10.628435   0.000000
    8       10.863339   0.000000
 
  0.3000000E+00  0.2000000E+00  0.0000000E+00  0.3000000E-02
    1       -6.937681   1.000000
    2        0.793439   1.000000
    3        2.809794   1.000000
    4        2.924574   1.000000
    5        7.187736   0.000000
    6        8.455887   0.000000
    7       10.473509   0.000000
    8       11.046758   0.000000
 
  0.3500000E+00  0.2000000E+00  0.0000000E+00  0.3000000E-02
    1       -6.722588   1.000000
    2        0.234654   1.000000
    3        2.538657   1.000000
    4        2.831712   1.000000
    5        7.190780   0.000000
    6        8.702462   0.000000
    7       10.303750   0.000000
    8       11.058649   0.000000
 
  0.4000000E+00  0.2000000E+00  0.0000000E+00  0.3000000E-02
    1       -6.497510   1.000000
    2       -0.286846   1.000000
    3        2.259648   1.000000
    4        2.782293   1.000000
    5        7.162023   0.000000
    6        9.163871   0.000000
    7       10.188903   0.000000
    8       10.946432   0.000000
 
  0.4500000E+00  0.2000000E+00  0.0000000E+00  0.3000000E-02
    1       -6.286935   1.000000
    2       -0.726641   1.000000
    3        2.001322   1.000000
    4        2.777924   1.000000
    5        7.142551   0.000000
    6        9.587414   0.000000
    7       10.317499   0.000000
    8       10.777360   0.000000
 
  0.5000000E+00  0.2000000E+00  0.0000000E+00  0.3000000E-02
    1       -6.123668   1.000000
    2       -1.039605   1.000000
    3        1.782187   1.000000
    4        2.818442   1.000000
    5        7.163543   0.000000
    6        9.661949   0.000000
    7       10.599302   0.000000
    8       10.943223   0.000000
 
 -0.4500000E+00  0.2000000E+00  0.0000000E+00  0.3000000E-02
    1       -6.042673   1.000000
    2       -1.184086   1.000000
    3        1.614356   1.000000
    4        2.901971   1.000000
    5        7.237529   0.000000
    6        9.630915   0.000000
    7       10.438326   0.000000
    8       11.766990   0.000000
 
 -0.4000000E+00  0.2000000E+00  0.0000000E+00  0.3000000E-02
    1       -6.065243   1.000000
    2       -1.137432   1.000000
    3        1.507437   1.000000
    4        3.024764   1.000000
    5        7.366477   0.000000
    6        9.611894   0.000000
    7       10.304695   0.000000
    8       12.470453   0.000000
 
 -0.3500000E+00  0.2000000E+00  0.0000000E+00  0.3000000E-02
    1       -6.184851   1.000000
    2       -0.911096   1.000000
    3        1.471929   1.000000
    4        3.180766   1.000000
    5        7.545329   0.000000
    6        9.625177   0.000000
    7       10.194614   0.000000
    8       12.206000   0.000000
 
 -0.3000000E+00  0.2000000E+00  0.0000000E+00  0.3000000E-02
    1       -6.372015   1.000000
    2       -0.548834   1.000000
    3        1.523167   1.000000
    4        3.360895   1.000000
    5        7.761434   0.000000
    6        9.667803   0.000000
    7       10.085621   0.000000
    8       11.462071   0.000000
 
 -0.2500000E+00  0.2000000E+00  0.0000000E+00  0.3000000E-02
    1       -6.591521   1.000000
    2       -0.114323   1.000000
    3        1.686068   1.000000
    4        3.551941   1.000000
    5        7.988660   0.000000
    6        9.694757   0.000000
    7        9.931729   0.000000
    8       10.765629   0.000000
 
 -0.2000000E+00  0.2000000E+00  0.0000000E+00  0.1500000E-02
    1       -6.814214   1.000000
    2        0.320916   1.000000
    3        1.993179   1.000000
    4        3.735482   1.000000
    5        8.164329   0.000000
    6        9.527903   0.000000
    7        9.697107   0.000000
    8       10.409446   0.000000
 
  0.2500000E+00  0.2500000E+00  0.0000000E+00  0.7500000E-03
    1       -6.992340   1.000000
    2        1.056138   1.000000
    3        2.879444   1.000000
    4        2.879444   1.000000
    5        6.881524   0.000000
    6        8.156274   0.000000
    7       11.316454   0.000000
    8       11.316476   0.000000
 
  0.3000000E+00  0.2500000E+00  0.0000000E+00  0.3000000E-02
    1       -6.821063   1.000000
    2        0.648449   1.000000
    3        2.681131   1.000000
    4        2.735426   1.000000
    5        6.771687   0.000000
    6        7.964667   0.000000
    7       11.391177   0.000000
    8       11.637478   0.000000
 
  0.3500000E+00  0.2500000E+00  0.0000000E+00  0.3000000E-02
    1       -6.621984   1.000000
    2        0.199533   1.000000
    3        2.397622   1.000000
    4        2.632158   1.000000
    5        6.789149   0.000000
    6        7.992773   0.000000
    7       11.251724   0.000000
    8       11.758669   0.000000
 
  0.4000000E+00  0.2500000E+00  0.0000000E+00  0.3000000E-02
    1       -6.409721   1.000000
    2       -0.236697   1.000000
    3        2.063124   1.000000
    4        2.573800   1.000000
    5        6.808112   0.000000
    6        8.318047   0.000000
    7       11.093427   0.000000
    8       11.703433   0.000000
 
  0.4500000E+00  0.2500000E+00  0.0000000E+00  0.3000000E-02
    1       -6.205712   1.000000
    2       -0.618170   1.000000
    3        1.728675   1.000000
    4        2.562342   1.000000
    5        6.814090   0.000000
    6        8.886493   0.000000
    7       10.958061   0.000000
    8       11.549909   0.000000
 
  0.5000000E+00  0.2500000E+00  0.0000000E+00  0.3000000E-02
    1       -6.038748   1.000000
    2       -0.903993   1.000000
    3        1.431361   1.000000
    4        2.597989   1.000000
    5        6.847645   0.000000
    6        9.578175   0.000000
    7       10.891285   0.000000
    8       11.361992   0.000000
 
 -0.4500000E+00  0.2500000E+00  0.0000000E+00  0.3000000E-02
    1       -5.940811   1.000000
    2       -1.055875   1.000000
    3        1.194599   1.000000
    4        2.679251   1.000000
    5        6.931728   0.000000
    6       10.166776   0.000000
    7       11.064970   0.000000
    8       11.174535   0.000000
 
 -0.4000000E+00  0.2500000E+00  0.0000000E+00  0.3000000E-02
    1       -5.935037   1.000000
    2       -1.051050   1.000000
    3        1.035936   1.000000
    4        2.802785   1.000000
    5        7.073275   0.000000
    6       10.355135   0.000000
    7       10.999700   0.000000
    8       11.708959   0.000000
 
 -0.3500000E+00  0.2500000E+00  0.0000000E+00  0.3000000E-02
    1       -6.022422   1.000000
    2       -0.899204   1.000000
    3        0.975130   1.000000
    4        2.962920   1.000000
    5        7.270254   0.000000
    6       10.380671   0.000000
    7       10.828175   0.000000
    8       12.090009   0.000000
 
 -0.3000000E+00  0.2500000E+00  0.0000000E+00  0.3000000E-02
    1       -6.181364   1.000000
    2       -0.648189   1.000000
    3        1.041735   1.000000
    4        3.150872   1.000000
    5        7.512406   0.000000
    6       10.376701   0.000000
    7       10.620942   0.000000
    8       11.433067   0.000000
 
 -0.2500000E+00  0.2500000E+00  0.0000000E+00  0.1500000E-02
    1       -6.380662   1.000000
    2       -0.368938   1.000000
    3        1.273493   1.000000
    4        3.353514   1.000000
    5        7.774533   0.000000
    6       10.219820   0.000000
    7       10.319007   0.000000
    8       10.841769   0.000000
 
  0.3000000E+00  0.3000000E+00  0.0000000E+00  0.7500000E-03
    1       -6.668251   1.000000
    2        0.355807   1.000000
    3        2.579317   1.000000
    4        2.579318   1.000000
    5        6.485289   0.000000
    6        7.621495   0.000000
    7       12.140137   0.000000
    8       12.140191   0.000000
 
  0.3500000E+00  0.3000000E+00  0.0000000E+00  0.3000000E-02
    1       -6.487973   1.000000
    2        0.002555   1.000000
    3        2.379366   1.000000
    4        2.464033   1.000000
    5        6.400623   0.000000
    6        7.468983   0.000000
    7       12.247063   0.000000
    8       12.440507   0.000000
 
  0.4000000E+00  0.3000000E+00  0.0000000E+00  0.3000000E-02
    1       -6.293494   1.000000
    2       -0.347395   1.000000
    3        2.058908   1.000000
    4        2.394281   1.000000
    5        6.438682   0.000000
    6        7.582305   0.000000
    7       12.126276   0.000000
    8       12.498419   0.000000
 
  0.4500000E+00  0.3000000E+00  0.0000000E+00  0.3000000E-02
    1       -6.103876   1.000000
    2       -0.651661   1.000000
    3        1.677189   1.000000
    4        2.372503   1.000000
    5        6.483956   0.000000
    6        8.003587   0.000000
    7       11.974957   0.000000
    8       12.390498   0.000000
 
  0.5000000E+00  0.3000000E+00  0.0000000E+00  0.3000000E-02
    1       -5.944232   1.000000
    2       -0.876486   1.000000
    3        1.301049   1.000000
    4        2.399323   1.000000
    5        6.536278   0.000000
    6        8.656789   0.000000
    7       11.836234   0.000000
    8       12.206867   0.000000
 