       N       E                     dE             d eps       ncg     rms          rms(c)
DAV:   1     0.145497376497E+02    0.14550E+02   -0.31214E+03  4120   0.753E+02
DAV:   2    -0.896847499783E+01   -0.23518E+02   -0.22990E+02  5360   0.906E+01
DAV:   3    -0.953315071096E+01   -0.56468E+00   -0.56468E+00  5248   0.188E+01
DAV:   4    -0.953536657793E+01   -0.22159E-02   -0.22159E-02  6416   0.129E+00
DAV:   5    -0.953537139851E+01   -0.48206E-05   -0.48206E-05  5360   0.518E-02    0.280E+00
RMM:   6    -0.933628933854E+01    0.19908E+00   -0.21123E-01  4117   0.248E+00    0.155E+00
RMM:   7    -0.929762597570E+01    0.38663E-01   -0.13589E-01  4291   0.210E+00    0.435E-01
RMM:   8    -0.929782149119E+01   -0.19552E-03   -0.57273E-03  4470   0.605E-01    0.508E-02
RMM:   9    -0.929805555385E+01   -0.23406E-03   -0.25284E-04  4827   0.131E-01    0.189E-02
RMM:  10    -0.929807590186E+01   -0.20348E-04   -0.38470E-05  4800   0.474E-02    0.419E-03
RMM:  11    -0.929807781037E+01   -0.19085E-05   -0.49968E-06  4664   0.185E-02    0.150E-03
RMM:  12    -0.929807760845E+01    0.20192E-06   -0.37021E-07  3650   0.420E-03
   1 F= -.92980776E+01 E0= -.92980776E+01  d E =0.000000E+00
