 running  128 mpi-ranks, with    1 threads/rank, on    1 nodes
 distrk:  each k-point on   32 cores,    4 groups
 distr:  one band on    1 cores,   32 groups
 vasp.6.4.3 19Mar24 (build Jun  3 2025 16:21:13) complex                         
 POSCAR found type information on POSCAR NaCl
 POSCAR found :  2 types and       8 ions
 Reading from existing POTCAR
 scaLAPACK will be used
 Reading from existing POTCAR
 LDA part: xc-table for (Slater+PW92), standard interpolation
 -----------------------------------------------------------------------------
|                                                                             |
|           W    W    AA    RRRRR   N    N  II  N    N   GGGG   !!!           |
|           W    W   A  A   R    R  NN   N  II  NN   N  G    G  !!!           |
|           W    W  A    A  R    R  N N  N  II  N N  N  G       !!!           |
|           W WW W  AAAAAA  RRRRR   N  N N  II  N  N N  G  GGG   !            |
|           WW  WW  A    A  R   R   N   NN  II  N   NN  G    G                |
|           W    W  A    A  R    R  N    N  II  N    N   GGGG   !!!           |
|                                                                             |
|     The number of bands has been changed from the values supplied in        |
|     the INCAR file. This is a result of running the parallel version.       |
|     The orbitals not found in the WAVECAR file will be initialized with     |
|     random numbers, which is usually adequate. For correlated               |
|     calculations, however, you should redo the groundstate calculation.     |
|     I found NBANDS = 42. Now, NBANDS = 64.                                  |
|                                                                             |
 -----------------------------------------------------------------------------

 POSCAR, INCAR and KPOINTS ok, starting setup
 FFT: planning ... GRIDC
 FFT: planning ... GRID_SOFT
 FFT: planning ... GRID
 WAVECAR not read
 entering main loop
       N       E                     dE             d eps       ncg     rms          rms(c)
DAV:   1     0.447152212895E+03    0.44715E+03   -0.31822E+04  4480   0.111E+03
DAV:   2     0.885938431706E+01   -0.43829E+03   -0.40109E+03  5024   0.295E+02
DAV:   3    -0.274032568924E+02   -0.36263E+02   -0.36041E+02  6400   0.713E+01
DAV:   4    -0.279192070021E+02   -0.51595E+00   -0.51586E+00  5056   0.921E+00
DAV:   5    -0.279289431330E+02   -0.97361E-02   -0.97356E-02  6272   0.132E+00    0.428E+00
DAV:   6    -0.271345604490E+02    0.79438E+00   -0.11206E+00  5728   0.288E+00    0.315E+00
DAV:   7    -0.270875915445E+02    0.46969E-01   -0.28054E-01  6240   0.141E+00    0.222E+00
DAV:   8    -0.271126119905E+02   -0.25020E-01   -0.44742E-02  5216   0.805E-01    0.732E-01
DAV:   9    -0.271115953113E+02    0.10167E-02   -0.14267E-03  6112   0.122E-01    0.303E-01
DAV:  10    -0.271121703473E+02   -0.57504E-03   -0.11421E-03  5440   0.116E-01    0.976E-02
DAV:  11    -0.271121560080E+02    0.14339E-04   -0.35863E-05  6336   0.285E-02    0.271E-02
DAV:  12    -0.271121561514E+02   -0.14341E-06   -0.74191E-06  5280   0.119E-02    0.635E-03
DAV:  13    -0.271121587369E+02   -0.25855E-05   -0.19621E-06  6048   0.403E-03    0.594E-03
DAV:  14    -0.271121581790E+02    0.55793E-06   -0.86789E-08  5472   0.873E-04    0.240E-04
DAV:  15    -0.271121581332E+02    0.45755E-07   -0.45876E-09  4832   0.207E-04
   1 F= -.27112158E+02 E0= -.27112158E+02  d E =-.119225E-13
 Found     2 degrees of freedom:
 Adding 6 more for cell shape distortion
 Finite differences POTIM= 0.00500 DOF=   8
 bond charge predicted
       N       E                     dE             d eps       ncg     rms          rms(c)
DAV:   1    -0.271569047803E+02   -0.44747E-01   -0.14489E+00 11968   0.577E+00    0.138E+00
DAV:   2    -0.271216120772E+02    0.35293E-01   -0.70525E-02 12384   0.115E+00    0.691E-01
DAV:   3    -0.271104618737E+02    0.11150E-01   -0.20223E-02 13632   0.577E-01    0.277E-01
DAV:   4    -0.271096380138E+02    0.82386E-03   -0.12311E-03 12096   0.143E-01    0.100E-01
DAV:   5    -0.271094761385E+02    0.16188E-03   -0.12117E-04 13184   0.539E-02    0.203E-02
DAV:   6    -0.271094777393E+02   -0.16009E-05   -0.13853E-05 11936   0.178E-02    0.109E-02
DAV:   7    -0.271094773289E+02    0.41044E-06   -0.22540E-06 13472   0.737E-03    0.147E-03
DAV:   8    -0.271094774361E+02   -0.10720E-06   -0.17102E-07 12128   0.192E-03    0.146E-03
DAV:   9    -0.271094776135E+02   -0.17738E-06   -0.31817E-08 12320   0.820E-04    0.361E-04
DAV:  10    -0.271094776028E+02    0.10705E-07   -0.35947E-09  7232   0.289E-04
   2 F= -.27109478E+02 E0= -.27109478E+02  d E =-.636506E-22
 Finite differences progress:
  Degree of freedom:   1/  8
  Displacement:        1/  4
  Total:               1/ 32
