       N       E                     dE             d eps       ncg     rms          rms(c)
DAV:   1     0.108427932913E+03    0.10843E+03   -0.61952E+03 23968   0.632E+02
DAV:   2     0.489417236050E+00   -0.10794E+03   -0.94917E+02 21864   0.186E+02
DAV:   3    -0.709254465662E+01   -0.75820E+01   -0.73450E+01 26216   0.436E+01
DAV:   4    -0.715652544650E+01   -0.63981E-01   -0.63904E-01 24376   0.405E+00
DAV:   5    -0.715665317003E+01   -0.12772E-03   -0.12761E-03 25360   0.174E-01    0.223E+01
DAV:   6    -0.119364812993E+02   -0.47798E+01   -0.31474E+01 24480   0.556E+01    0.248E+01
DAV:   7    -0.868835349977E+01    0.32481E+01   -0.60929E+00 24208   0.339E+01    0.888E+00
DAV:   8    -0.985636176361E+01   -0.11680E+01   -0.80836E-01 23384   0.927E+00    0.612E+00
DAV:   9    -0.100671033602E+02   -0.21074E+00   -0.11773E-01 23688   0.752E+00    0.256E+00
DAV:  10    -0.101060220239E+02   -0.38919E-01   -0.54156E-02 24832   0.493E+00    0.697E-01
DAV:  11    -0.101070124997E+02   -0.99048E-03   -0.19745E-02 24136   0.799E-01    0.436E-01
DAV:  12    -0.101075637317E+02   -0.55123E-03   -0.74132E-04 24800   0.325E-01    0.161E-01
DAV:  13    -0.101075949155E+02   -0.31184E-04   -0.15797E-04 25136   0.114E-01    0.829E-02
DAV:  14    -0.101076089094E+02   -0.13994E-04   -0.32895E-05 24776   0.526E-02    0.443E-02
DAV:  15    -0.101076107838E+02   -0.18744E-05   -0.38597E-06 26024   0.513E-02    0.261E-02
DAV:  16    -0.101076146935E+02   -0.39097E-05   -0.28453E-06 25752   0.576E-02    0.776E-03
DAV:  17    -0.101076148900E+02   -0.19646E-06   -0.10302E-06 25880   0.117E-02    0.357E-03
DAV:  18    -0.101076151039E+02   -0.21391E-06   -0.20193E-07 24824   0.121E-02    0.177E-03
DAV:  19    -0.101076151397E+02   -0.35848E-07   -0.16260E-07 21960   0.296E-03
   1 F= -.10107615E+02 E0= -.10107615E+02  d E =0.000000E+00  mag=     2.0000
