   2   2   1   0
  0.8840040E+01  0.2924151E-09  0.2924151E-09  0.2924151E-09  0.0000000E+00
   1.0000000000000000E-004
  CAR 
 unknown system                          
     41.83362050    -15.80677082  301      6.60826489      1.00000000
    -15.807  0.0000E+00  0.0000E+00  0.0000E+00  0.0000E+00
    -15.615  0.0000E+00  0.0000E+00  0.0000E+00  0.0000E+00
    -15.423  0.0000E+00  0.0000E+00  0.0000E+00  0.0000E+00
    -15.230  0.0000E+00  0.0000E+00  0.0000E+00  0.0000E+00
    -15.038  0.0000E+00  0.0000E+00  0.0000E+00  0.0000E+00
    -14.846  0.0000E+00  0.0000E+00  0.0000E+00  0.0000E+00
    -14.654  0.0000E+00  0.0000E+00  0.0000E+00  0.0000E+00
    -14.462  0.0000E+00  0.0000E+00  0.0000E+00  0.0000E+00
    -14.270  0.0000E+00  0.0000E+00  0.0000E+00  0.0000E+00
    -14.078  0.0000E+00  0.0000E+00  0.0000E+00  0.0000E+00
    -13.885  0.0000E+00  0.0000E+00  0.0000E+00  0.0000E+00
    -13.693  0.0000E+00  0.0000E+00  0.0000E+00  0.0000E+00
    -13.501  0.0000E+00  0.0000E+00  0.0000E+00  0.0000E+00
    -13.309  0.0000E+00  0.0000E+00  0.0000E+00  0.0000E+00
    -13.117  0.4994E-01  0.4995E-01  0.1814E-02  0.1814E-02
    -12.925  0.1366E+00  0.1366E+00  0.1762E-01  0.1762E-01
    -12.733  0.1706E+00  0.1706E+00  0.4433E-01  0.4433E-01
    -12.540  0.2316E+00  0.2316E+00  0.8235E-01  0.8236E-01
    -12.348  0.3210E+00  0.3210E+00  0.1344E+00  0.1344E+00
    -12.156  0.4491E+00  0.4491E+00  0.2066E+00  0.2066E+00
    -11.964  0.7233E+00  0.7233E+00  0.3134E+00  0.3134E+00
    -11.772  0.1554E+01  0.1554E+01  0.5046E+00  0.5046E+00
    -11.580  0.2874E+01  0.2874E+01  0.9965E+00  0.9965E+00
    -11.388  0.3570E-02  0.3570E-02  0.1000E+01  0.1000E+01
    -11.196  0.0000E+00  0.0000E+00  0.1000E+01  0.1000E+01
    -11.003  0.0000E+00  0.0000E+00  0.1000E+01  0.1000E+01
    -10.811  0.0000E+00  0.0000E+00  0.1000E+01  0.1000E+01
    -10.619  0.0000E+00  0.0000E+00  0.1000E+01  0.1000E+01
    -10.427  0.0000E+00  0.0000E+00  0.1000E+01  0.1000E+01
    -10.235  0.0000E+00  0.0000E+00  0.1000E+01  0.1000E+01
    -10.043  0.0000E+00  0.0000E+00  0.1000E+01  0.1000E+01
     -9.851  0.0000E+00  0.0000E+00  0.1000E+01  0.1000E+01
     -9.658  0.0000E+00  0.0000E+00  0.1000E+01  0.1000E+01
     -9.466  0.0000E+00  0.0000E+00  0.1000E+01  0.1000E+01
     -9.274  0.0000E+00  0.0000E+00  0.1000E+01  0.1000E+01
     -9.082  0.0000E+00  0.0000E+00  0.1000E+01  0.1000E+01
     -8.890  0.0000E+00  0.0000E+00  0.1000E+01  0.1000E+01
     -8.698  0.0000E+00  0.0000E+00  0.1000E+01  0.1000E+01
     -8.506  0.0000E+00  0.0000E+00  0.1000E+01  0.1000E+01
     -8.314  0.0000E+00  0.0000E+00  0.1000E+01  0.1000E+01
     -8.121  0.0000E+00  0.0000E+00  0.1000E+01  0.1000E+01
     -7.929  0.0000E+00  0.0000E+00  0.1000E+01  0.1000E+01
     -7.737  0.0000E+00  0.0000E+00  0.1000E+01  0.1000E+01
     -7.545  0.0000E+00  0.0000E+00  0.1000E+01  0.1000E+01
     -7.353  0.0000E+00  0.0000E+00  0.1000E+01  0.1000E+01
     -7.161  0.0000E+00  0.0000E+00  0.1000E+01  0.1000E+01
     -6.969  0.0000E+00  0.0000E+00  0.1000E+01  0.1000E+01
     -6.776  0.0000E+00  0.0000E+00  0.1000E+01  0.1000E+01
     -6.584  0.0000E+00  0.0000E+00  0.1000E+01  0.1000E+01
     -6.392  0.0000E+00  0.0000E+00  0.1000E+01  0.1000E+01
     -6.200  0.0000E+00  0.0000E+00  0.1000E+01  0.1000E+01
     -6.008  0.0000E+00  0.0000E+00  0.1000E+01  0.1000E+01
     -5.816  0.0000E+00  0.0000E+00  0.1000E+01  0.1000E+01
     -5.624  0.0000E+00  0.0000E+00  0.1000E+01  0.1000E+01
     -5.432  0.0000E+00  0.0000E+00  0.1000E+01  0.1000E+01
     -5.239  0.0000E+00  0.0000E+00  0.1000E+01  0.1000E+01
     -5.047  0.0000E+00  0.0000E+00  0.1000E+01  0.1000E+01
     -4.855  0.0000E+00  0.0000E+00  0.1000E+01  0.1000E+01
     -4.663  0.0000E+00  0.0000E+00  0.1000E+01  0.1000E+01
     -4.471  0.0000E+00  0.0000E+00  0.1000E+01  0.1000E+01
     -4.279  0.0000E+00  0.0000E+00  0.1000E+01  0.1000E+01
     -4.087  0.0000E+00  0.0000E+00  0.1000E+01  0.1000E+01
     -3.894  0.0000E+00  0.0000E+00  0.1000E+01  0.1000E+01
     -3.702  0.0000E+00  0.0000E+00  0.1000E+01  0.1000E+01
     -3.510  0.0000E+00  0.0000E+00  0.1000E+01  0.1000E+01
     -3.318  0.0000E+00  0.0000E+00  0.1000E+01  0.1000E+01
     -3.126  0.0000E+00  0.0000E+00  0.1000E+01  0.1000E+01
     -2.934  0.0000E+00  0.0000E+00  0.1000E+01  0.1000E+01
     -2.742  0.0000E+00  0.0000E+00  0.1000E+01  0.1000E+01
     -2.549  0.0000E+00  0.0000E+00  0.1000E+01  0.1000E+01
     -2.357  0.0000E+00  0.0000E+00  0.1000E+01  0.1000E+01
     -2.165  0.0000E+00  0.0000E+00  0.1000E+01  0.1000E+01
     -1.973  0.0000E+00  0.0000E+00  0.1000E+01  0.1000E+01
     -1.781  0.0000E+00  0.0000E+00  0.1000E+01  0.1000E+01
     -1.589  0.0000E+00  0.0000E+00  0.1000E+01  0.1000E+01
     -1.397  0.0000E+00  0.0000E+00  0.1000E+01  0.1000E+01
     -1.205  0.1613E-01  0.1613E-01  0.1000E+01  0.1000E+01
     -1.012  0.1470E+00  0.1470E+00  0.1017E+01  0.1017E+01
     -0.820  0.2032E+00  0.2032E+00  0.1049E+01  0.1049E+01
     -0.628  0.2858E+00  0.2858E+00  0.1096E+01  0.1096E+01
     -0.436  0.3913E+00  0.3913E+00  0.1160E+01  0.1160E+01
     -0.244  0.7767E+00  0.7767E+00  0.1257E+01  0.1257E+01
     -0.052  0.7982E+00  0.7982E+00  0.1402E+01  0.1402E+01
      0.140  0.1185E+01  0.1185E+01  0.1590E+01  0.1590E+01
      0.333  0.8780E+00  0.8780E+00  0.1751E+01  0.1751E+01
      0.525  0.3405E+00  0.3405E+00  0.1857E+01  0.1857E+01
      0.717  0.2357E+00  0.2357E+00  0.1901E+01  0.1901E+01
      0.909  0.7237E+00  0.7237E+00  0.1978E+01  0.1978E+01
      1.101  0.1700E+01  0.1700E+01  0.2191E+01  0.2191E+01
      1.293  0.2219E+01  0.2219E+01  0.2481E+01  0.2481E+01
      1.485  0.2428E+01  0.2428E+01  0.2924E+01  0.2924E+01
      1.677  0.1239E+01  0.1239E+01  0.3202E+01  0.3202E+01
      1.870  0.9766E+00  0.9766E+00  0.3410E+01  0.3410E+01
      2.062  0.7923E+00  0.7923E+00  0.3580E+01  0.3580E+01
      2.254  0.6494E+00  0.6494E+00  0.3716E+01  0.3716E+01
      2.446  0.5180E+00  0.5180E+00  0.3830E+01  0.3830E+01
      2.638  0.3774E+00  0.3774E+00  0.3913E+01  0.3913E+01
      2.830  0.1828E+00  0.1828E+00  0.3965E+01  0.3965E+01
      3.022  0.2469E+00  0.2469E+00  0.4000E+01  0.4000E+01
      3.215  0.5915E+00  0.5914E+00  0.4067E+01  0.4067E+01
      3.407  0.1074E+01  0.1074E+01  0.4211E+01  0.4211E+01
      3.599  0.1534E+01  0.1534E+01  0.4423E+01  0.4423E+01
      3.791  0.2547E+01  0.2547E+01  0.4748E+01  0.4748E+01
      3.983  0.6353E+01  0.6396E+01  0.5361E+01  0.5361E+01
      4.175  0.2979E+01  0.2972E+01  0.6008E+01  0.6008E+01
      4.367  0.2359E+01  0.2359E+01  0.6222E+01  0.6222E+01
      4.560  0.3980E+01  0.3980E+01  0.6834E+01  0.6834E+01
      4.752  0.9061E+00  0.9061E+00  0.7057E+01  0.7057E+01
      4.944  0.8988E+00  0.8989E+00  0.7197E+01  0.7197E+01
      5.136  0.1189E+01  0.1189E+01  0.7392E+01  0.7392E+01
      5.328  0.7912E+00  0.7912E+00  0.7572E+01  0.7572E+01
      5.520  0.7146E+00  0.7146E+00  0.7712E+01  0.7712E+01
      5.712  0.7274E+00  0.7274E+00  0.7852E+01  0.7852E+01
      5.904  0.7855E+00  0.7855E+00  0.7995E+01  0.7995E+01
      6.097  0.7432E+00  0.7432E+00  0.8141E+01  0.8141E+01
      6.289  0.7108E+00  0.7108E+00  0.8280E+01  0.8280E+01
      6.481  0.6812E+00  0.6812E+00  0.8413E+01  0.8413E+01
      6.673  0.6781E+00  0.6781E+00  0.8544E+01  0.8544E+01
      6.865  0.6518E+00  0.6518E+00  0.8672E+01  0.8672E+01
      7.057  0.6666E+00  0.6666E+00  0.8801E+01  0.8801E+01
      7.249  0.7343E+00  0.7343E+00  0.8927E+01  0.8927E+01
      7.442  0.1357E+00  0.1357E+00  0.9000E+01  0.9000E+01
      7.634  0.0000E+00  0.0000E+00  0.9000E+01  0.9000E+01
      7.826  0.0000E+00  0.0000E+00  0.9000E+01  0.9000E+01
      8.018  0.0000E+00  0.0000E+00  0.9000E+01  0.9000E+01
      8.210  0.0000E+00  0.0000E+00  0.9000E+01  0.9000E+01
      8.402  0.0000E+00  0.0000E+00  0.9000E+01  0.9000E+01
      8.594  0.0000E+00  0.0000E+00  0.9000E+01  0.9000E+01
      8.786  0.0000E+00  0.0000E+00  0.9000E+01  0.9000E+01
      8.979  0.0000E+00  0.0000E+00  0.9000E+01  0.9000E+01
      9.171  0.3709E-02  0.3710E-02  0.9000E+01  0.9000E+01
      9.363  0.7077E-02  0.7077E-02  0.9001E+01  0.9001E+01
      9.555  0.1015E-01  0.1015E-01  0.9003E+01  0.9003E+01
      9.747  0.1312E-01  0.1312E-01  0.9005E+01  0.9005E+01
      9.939  0.1584E-01  0.1584E-01  0.9008E+01  0.9008E+01
     10.131  0.1891E-01  0.1891E-01  0.9011E+01  0.9011E+01
     10.324  0.2220E-01  0.2220E-01  0.9015E+01  0.9015E+01
     10.516  0.2575E-01  0.2575E-01  0.9020E+01  0.9020E+01
     10.708  0.2951E-01  0.2951E-01  0.9025E+01  0.9025E+01
     10.900  0.3348E-01  0.3348E-01  0.9031E+01  0.9031E+01
     11.092  0.3815E-01  0.3815E-01  0.9038E+01  0.9038E+01
     11.284  0.4320E-01  0.4320E-01  0.9046E+01  0.9046E+01
     11.476  0.4864E-01  0.4864E-01  0.9055E+01  0.9055E+01
     11.668  0.5456E-01  0.5456E-01  0.9065E+01  0.9065E+01
     11.861  0.6172E-01  0.6172E-01  0.9076E+01  0.9076E+01
     12.053  0.6975E-01  0.6975E-01  0.9088E+01  0.9088E+01
     12.245  0.7872E-01  0.7873E-01  0.9103E+01  0.9103E+01
     12.437  0.8918E-01  0.8918E-01  0.9119E+01  0.9119E+01
     12.629  0.1030E+00  0.1030E+00  0.9137E+01  0.9137E+01
     12.821  0.1199E+00  0.1199E+00  0.9159E+01  0.9159E+01
     13.013  0.1477E+00  0.1477E+00  0.9184E+01  0.9184E+01
     13.206  0.2031E+00  0.2031E+00  0.9218E+01  0.9218E+01
     13.398  0.2194E+00  0.2194E+00  0.9256E+01  0.9256E+01
     13.590  0.2777E+00  0.2777E+00  0.9305E+01  0.9305E+01
     13.782  0.3458E+00  0.3458E+00  0.9366E+01  0.9366E+01
     13.974  0.3302E+00  0.3302E+00  0.9430E+01  0.9430E+01
     14.166  0.3238E+00  0.3238E+00  0.9492E+01  0.9492E+01
     14.358  0.3108E+00  0.3108E+00  0.9553E+01  0.9553E+01
     14.551  0.3010E+00  0.3010E+00  0.9612E+01  0.9612E+01
     14.743  0.2897E+00  0.2897E+00  0.9669E+01  0.9669E+01
     14.935  0.2759E+00  0.2759E+00  0.9723E+01  0.9723E+01
     15.127  0.2620E+00  0.2620E+00  0.9775E+01  0.9775E+01
     15.319  0.2474E+00  0.2474E+00  0.9824E+01  0.9824E+01
     15.511  0.2401E+00  0.2401E+00  0.9870E+01  0.9870E+01
     15.703  0.2584E+00  0.2584E+00  0.9917E+01  0.9917E+01
     15.895  0.2341E+00  0.2341E+00  0.9967E+01  0.9967E+01
     16.088  0.5018E-01  0.5017E-01  0.9999E+01  0.9999E+01
     16.280  0.0000E+00  0.0000E+00  0.1000E+02  0.1000E+02
     16.472  0.7643E-02  0.7648E-02  0.1000E+02  0.1000E+02
     16.664  0.3754E+00  0.3754E+00  0.1005E+02  0.1005E+02
     16.856  0.3414E+00  0.3414E+00  0.1011E+02  0.1011E+02
     17.048  0.4074E+00  0.4074E+00  0.1018E+02  0.1018E+02
     17.240  0.4665E+00  0.4665E+00  0.1026E+02  0.1026E+02
     17.433  0.4576E+00  0.4576E+00  0.1036E+02  0.1036E+02
     17.625  0.4048E+00  0.4048E+00  0.1044E+02  0.1044E+02
     17.817  0.4777E+00  0.4777E+00  0.1052E+02  0.1052E+02
     18.009  0.4869E+00  0.4869E+00  0.1061E+02  0.1061E+02
     18.201  0.1109E+01  0.1109E+01  0.1078E+02  0.1078E+02
     18.393  0.6741E+00  0.6741E+00  0.1092E+02  0.1092E+02
     18.585  0.6050E+00  0.6050E+00  0.1104E+02  0.1104E+02
     18.777  0.5687E+00  0.5687E+00  0.1115E+02  0.1115E+02
     18.970  0.4975E+00  0.4975E+00  0.1125E+02  0.1125E+02
     19.162  0.3949E+00  0.3949E+00  0.1134E+02  0.1134E+02
     19.354  0.3375E+00  0.3375E+00  0.1141E+02  0.1141E+02
     19.546  0.3006E+00  0.3006E+00  0.1147E+02  0.1147E+02
     19.738  0.2607E+00  0.2607E+00  0.1152E+02  0.1152E+02
     19.930  0.2362E+00  0.2362E+00  0.1157E+02  0.1157E+02
     20.122  0.2166E+00  0.2166E+00  0.1161E+02  0.1161E+02
     20.315  0.1975E+00  0.1975E+00  0.1165E+02  0.1165E+02
     20.507  0.1799E+00  0.1799E+00  0.1169E+02  0.1169E+02
     20.699  0.1680E+00  0.1680E+00  0.1172E+02  0.1172E+02
     20.891  0.1560E+00  0.1560E+00  0.1175E+02  0.1175E+02
     21.083  0.1613E+00  0.1613E+00  0.1178E+02  0.1178E+02
     21.275  0.1618E+00  0.1618E+00  0.1181E+02  0.1181E+02
     21.467  0.1630E+00  0.1630E+00  0.1185E+02  0.1185E+02
     21.659  0.2483E+00  0.2483E+00  0.1189E+02  0.1189E+02
     21.852  0.3217E+00  0.3217E+00  0.1194E+02  0.1194E+02
     22.044  0.4424E+00  0.4424E+00  0.1201E+02  0.1201E+02
     22.236  0.6500E+00  0.6500E+00  0.1212E+02  0.1212E+02
     22.428  0.6336E+00  0.6336E+00  0.1224E+02  0.1224E+02
     22.620  0.6310E+00  0.6310E+00  0.1236E+02  0.1236E+02
     22.812  0.4765E+00  0.4765E+00  0.1246E+02  0.1246E+02
     23.004  0.4094E+00  0.4094E+00  0.1255E+02  0.1255E+02
     23.197  0.3752E+00  0.3752E+00  0.1263E+02  0.1263E+02
     23.389  0.3512E+00  0.3512E+00  0.1270E+02  0.1270E+02
     23.581  0.3338E+00  0.3338E+00  0.1276E+02  0.1276E+02
     23.773  0.3244E+00  0.3244E+00  0.1282E+02  0.1282E+02
     23.965  0.2251E+00  0.2251E+00  0.1288E+02  0.1288E+02
     24.157  0.1792E+00  0.1792E+00  0.1291E+02  0.1291E+02
     24.349  0.1887E+00  0.1887E+00  0.1295E+02  0.1295E+02
     24.542  0.1945E+00  0.1945E+00  0.1299E+02  0.1299E+02
     24.734  0.1839E+00  0.1839E+00  0.1302E+02  0.1302E+02
     24.926  0.1794E+00  0.1794E+00  0.1306E+02  0.1306E+02
     25.118  0.1854E+00  0.1854E+00  0.1309E+02  0.1309E+02
     25.310  0.1831E+00  0.1831E+00  0.1313E+02  0.1313E+02
     25.502  0.1900E+00  0.1900E+00  0.1316E+02  0.1316E+02
     25.694  0.1743E+00  0.1743E+00  0.1320E+02  0.1320E+02
     25.886  0.1565E+00  0.1565E+00  0.1323E+02  0.1323E+02
     26.079  0.1623E+00  0.1623E+00  0.1326E+02  0.1326E+02
     26.271  0.1841E+00  0.1841E+00  0.1330E+02  0.1330E+02
     26.463  0.1858E+00  0.1858E+00  0.1333E+02  0.1333E+02
     26.655  0.1939E+00  0.1939E+00  0.1337E+02  0.1337E+02
     26.847  0.2004E+00  0.2004E+00  0.1340E+02  0.1340E+02
     27.039  0.2064E+00  0.2064E+00  0.1344E+02  0.1344E+02
     27.231  0.2225E+00  0.2225E+00  0.1348E+02  0.1348E+02
     27.424  0.2262E+00  0.2262E+00  0.1353E+02  0.1353E+02
     27.616  0.2042E+00  0.2042E+00  0.1357E+02  0.1357E+02
     27.808  0.2145E+00  0.2145E+00  0.1361E+02  0.1361E+02
     28.000  0.2128E+00  0.2128E+00  0.1365E+02  0.1365E+02
     28.192  0.2562E+00  0.2562E+00  0.1369E+02  0.1369E+02
     28.384  0.2895E+00  0.2895E+00  0.1375E+02  0.1375E+02
     28.576  0.3187E+00  0.3187E+00  0.1380E+02  0.1380E+02
     28.768  0.3109E+00  0.3109E+00  0.1387E+02  0.1387E+02
     28.961  0.2770E+00  0.2770E+00  0.1392E+02  0.1392E+02
     29.153  0.2232E+00  0.2232E+00  0.1397E+02  0.1397E+02
     29.345  0.2011E+00  0.2011E+00  0.1401E+02  0.1401E+02
     29.537  0.1842E+00  0.1842E+00  0.1405E+02  0.1405E+02
     29.729  0.2064E+00  0.2064E+00  0.1408E+02  0.1408E+02
     29.921  0.2363E+00  0.2363E+00  0.1413E+02  0.1413E+02
     30.113  0.2664E+00  0.2664E+00  0.1418E+02  0.1418E+02
     30.306  0.2914E+00  0.2914E+00  0.1423E+02  0.1423E+02
     30.498  0.3160E+00  0.3160E+00  0.1429E+02  0.1429E+02
     30.690  0.3537E+00  0.3537E+00  0.1435E+02  0.1435E+02
     30.882  0.3665E+00  0.3665E+00  0.1442E+02  0.1442E+02
     31.074  0.3831E+00  0.3831E+00  0.1450E+02  0.1450E+02
     31.266  0.3329E+00  0.3329E+00  0.1457E+02  0.1457E+02
     31.458  0.3293E+00  0.3293E+00  0.1463E+02  0.1463E+02
     31.650  0.3397E+00  0.3397E+00  0.1469E+02  0.1469E+02
     31.843  0.3235E+00  0.3235E+00  0.1476E+02  0.1476E+02
     32.035  0.3125E+00  0.3125E+00  0.1482E+02  0.1482E+02
     32.227  0.3152E+00  0.3152E+00  0.1488E+02  0.1488E+02
     32.419  0.3168E+00  0.3168E+00  0.1494E+02  0.1494E+02
     32.611  0.3123E+00  0.3123E+00  0.1500E+02  0.1500E+02
     32.803  0.2641E+00  0.2641E+00  0.1506E+02  0.1506E+02
     32.995  0.2487E+00  0.2487E+00  0.1510E+02  0.1510E+02
     33.188  0.2260E+00  0.2260E+00  0.1515E+02  0.1515E+02
     33.380  0.2146E+00  0.2146E+00  0.1519E+02  0.1519E+02
     33.572  0.2065E+00  0.2065E+00  0.1523E+02  0.1523E+02
     33.764  0.1991E+00  0.1991E+00  0.1527E+02  0.1527E+02
     33.956  0.1901E+00  0.1901E+00  0.1531E+02  0.1531E+02
     34.148  0.1816E+00  0.1816E+00  0.1534E+02  0.1534E+02
     34.340  0.1732E+00  0.1732E+00  0.1538E+02  0.1538E+02
     34.533  0.1632E+00  0.1632E+00  0.1541E+02  0.1541E+02
     34.725  0.1542E+00  0.1542E+00  0.1544E+02  0.1544E+02
     34.917  0.1473E+00  0.1473E+00  0.1547E+02  0.1547E+02
     35.109  0.1423E+00  0.1424E+00  0.1550E+02  0.1550E+02
     35.301  0.1387E+00  0.1388E+00  0.1553E+02  0.1553E+02
     35.493  0.1341E+00  0.1342E+00  0.1555E+02  0.1555E+02
     35.685  0.1310E+00  0.1311E+00  0.1558E+02  0.1558E+02
     35.877  0.1714E+00  0.1715E+00  0.1560E+02  0.1560E+02
     36.070  0.2038E+00  0.2039E+00  0.1564E+02  0.1564E+02
     36.262  0.9759E-01  0.9778E-01  0.1567E+02  0.1567E+02
     36.454  0.1466E+00  0.1468E+00  0.1569E+02  0.1569E+02
     36.646  0.3797E+00  0.3799E+00  0.1574E+02  0.1574E+02
     36.838  0.3241E+00  0.3242E+00  0.1581E+02  0.1581E+02
     37.030  0.2492E+00  0.2481E+00  0.1586E+02  0.1586E+02
     37.222  0.2035E+00  0.2028E+00  0.1590E+02  0.1590E+02
     37.415  0.2310E+00  0.2310E+00  0.1594E+02  0.1594E+02
     37.607  0.1449E+00  0.1449E+00  0.1598E+02  0.1598E+02
     37.799  0.8492E-02  0.8492E-02  0.1600E+02  0.1600E+02
     37.991  0.5209E-02  0.5209E-02  0.1600E+02  0.1600E+02
     38.183  0.3427E-02  0.3427E-02  0.1600E+02  0.1600E+02
     38.375  0.2268E-02  0.2268E-02  0.1600E+02  0.1600E+02
     38.567  0.1348E-02  0.1348E-02  0.1600E+02  0.1600E+02
     38.759  0.6655E-03  0.6656E-03  0.1600E+02  0.1600E+02
     38.952  0.2215E-03  0.2215E-03  0.1600E+02  0.1600E+02
     39.144  0.1575E-04  0.1575E-04  0.1600E+02  0.1600E+02
     39.336  0.0000E+00  0.0000E+00  0.1600E+02  0.1600E+02
     39.528  0.0000E+00  0.0000E+00  0.1600E+02  0.1600E+02
     39.720  0.0000E+00  0.0000E+00  0.1600E+02  0.1600E+02
     39.912  0.0000E+00  0.0000E+00  0.1600E+02  0.1600E+02
     40.104  0.0000E+00  0.0000E+00  0.1600E+02  0.1600E+02
     40.297  0.0000E+00  0.0000E+00  0.1600E+02  0.1600E+02
     40.489  0.0000E+00  0.0000E+00  0.1600E+02  0.1600E+02
     40.681  0.0000E+00  0.0000E+00  0.1600E+02  0.1600E+02
     40.873  0.0000E+00  0.0000E+00  0.1600E+02  0.1600E+02
     41.065  0.0000E+00  0.0000E+00  0.1600E+02  0.1600E+02
     41.257  0.0000E+00  0.0000E+00  0.1600E+02  0.1600E+02
     41.449  0.0000E+00  0.0000E+00  0.1600E+02  0.1600E+02
     41.641  0.0000E+00  0.0000E+00  0.1600E+02  0.1600E+02
     41.834  0.0000E+00  0.0000E+00  0.1600E+02  0.1600E+02
     41.83362050    -15.80677082  301      6.60826489      1.00000000
    -15.807  0.0000E+00  0.0000E+00  0.0000E+00  0.0000E+00  0.0000E+00  0.0000E+00  0.0000E+00  0.0000E+00  0.0000E+00  0.0000E+00  0.0000E+00  0.0000E+00  0.0000E+00  0.0000E+00  0.0000E+00  0.0000E+00  0.0000E+00  0.0000E+00
    -15.615  0.0000E+00  0.0000E+00  0.0000E+00  0.0000E+00  0.0000E+00  0.0000E+00  0.0000E+00  0.0000E+00  0.0000E+00  0.0000E+00  0.0000E+00  0.0000E+00  0.0000E+00  0.0000E+00  0.0000E+00  0.0000E+00  0.0000E+00  0.0000E+00
    -15.423  0.0000E+00  0.0000E+00  0.0000E+00  0.0000E+00  0.0000E+00  0.0000E+00  0.0000E+00  0.0000E+00  0.0000E+00  0.0000E+00  0.0000E+00  0.0000E+00  0.0000E+00  0.0000E+00  0.0000E+00  0.0000E+00  0.0000E+00  0.0000E+00
    -15.230  0.0000E+00  0.0000E+00  0.0000E+00  0.0000E+00  0.0000E+00  0.0000E+00  0.0000E+00  0.0000E+00  0.0000E+00  0.0000E+00  0.0000E+00  0.0000E+00  0.0000E+00  0.0000E+00  0.0000E+00  0.0000E+00  0.0000E+00  0.0000E+00
    -15.038  0.0000E+00  0.0000E+00  0.0000E+00  0.0000E+00  0.0000E+00  0.0000E+00  0.0000E+00  0.0000E+00  0.0000E+00  0.0000E+00  0.0000E+00  0.0000E+00  0.0000E+00  0.0000E+00  0.0000E+00  0.0000E+00  0.0000E+00  0.0000E+00
    -14.846  0.0000E+00  0.0000E+00  0.0000E+00  0.0000E+00  0.0000E+00  0.0000E+00  0.0000E+00  0.0000E+00  0.0000E+00  0.0000E+00  0.0000E+00  0.0000E+00  0.0000E+00  0.0000E+00  0.0000E+00  0.0000E+00  0.0000E+00  0.0000E+00
    -14.654  0.0000E+00  0.0000E+00  0.0000E+00  0.0000E+00  0.0000E+00  0.0000E+00  0.0000E+00  0.0000E+00  0.0000E+00  0.0000E+00  0.0000E+00  0.0000E+00  0.0000E+00  0.0000E+00  0.0000E+00  0.0000E+00  0.0000E+00  0.0000E+00
    -14.462  0.0000E+00  0.0000E+00  0.0000E+00  0.0000E+00  0.0000E+00  0.0000E+00  0.0000E+00  0.0000E+00  0.0000E+00  0.0000E+00  0.0000E+00  0.0000E+00  0.0000E+00  0.0000E+00  0.0000E+00  0.0000E+00  0.0000E+00  0.0000E+00
    -14.270  0.0000E+00  0.0000E+00  0.0000E+00  0.0000E+00  0.0000E+00  0.0000E+00  0.0000E+00  0.0000E+00  0.0000E+00  0.0000E+00  0.0000E+00  0.0000E+00  0.0000E+00  0.0000E+00  0.0000E+00  0.0000E+00  0.0000E+00  0.0000E+00
    -14.078  0.0000E+00  0.0000E+00  0.0000E+00  0.0000E+00  0.0000E+00  0.0000E+00  0.0000E+00  0.0000E+00  0.0000E+00  0.0000E+00  0.0000E+00  0.0000E+00  0.0000E+00  0.0000E+00  0.0000E+00  0.0000E+00  0.0000E+00  0.0000E+00
    -13.885  0.0000E+00  0.0000E+00  0.0000E+00  0.0000E+00  0.0000E+00  0.0000E+00  0.0000E+00  0.0000E+00  0.0000E+00  0.0000E+00  0.0000E+00  0.0000E+00  0.0000E+00  0.0000E+00  0.0000E+00  0.0000E+00  0.0000E+00  0.0000E+00
    -13.693  0.0000E+00  0.0000E+00  0.0000E+00  0.0000E+00  0.0000E+00  0.0000E+00  0.0000E+00  0.0000E+00  0.0000E+00  0.0000E+00  0.0000E+00  0.0000E+00  0.0000E+00  0.0000E+00  0.0000E+00  0.0000E+00  0.0000E+00  0.0000E+00
    -13.501  0.0000E+00  0.0000E+00  0.0000E+00  0.0000E+00  0.0000E+00  0.0000E+00  0.0000E+00  0.0000E+00  0.0000E+00  0.0000E+00  0.0000E+00  0.0000E+00  0.0000E+00  0.0000E+00  0.0000E+00  0.0000E+00  0.0000E+00  0.0000E+00
    -13.309  0.0000E+00  0.0000E+00  0.0000E+00  0.0000E+00  0.0000E+00  0.0000E+00  0.0000E+00  0.0000E+00  0.0000E+00  0.0000E+00  0.0000E+00  0.0000E+00  0.0000E+00  0.0000E+00  0.0000E+00  0.0000E+00  0.0000E+00  0.0000E+00
    -13.117  0.4960E-02  0.4960E-02  0.4287E-04  0.4287E-04  0.4287E-04  0.4287E-04  0.4287E-04  0.4287E-04  0.1664E-07  0.1665E-07  0.1664E-07  0.1665E-07  0.9924E-06  0.9926E-06  0.1664E-07  0.1665E-07  0.9924E-06  0.9926E-06
    -12.925  0.1204E-01  0.1204E-01  0.3703E-03  0.3703E-03  0.3703E-03  0.3703E-03  0.3703E-03  0.3703E-03  0.3771E-06  0.3771E-06  0.3771E-06  0.3771E-06  0.2556E-04  0.2556E-04  0.3771E-06  0.3771E-06  0.2556E-04  0.2556E-04
    -12.733  0.1268E-01  0.1268E-01  0.8180E-03  0.8180E-03  0.8180E-03  0.8180E-03  0.8180E-03  0.8180E-03  0.1302E-05  0.1302E-05  0.1302E-05  0.1302E-05  0.1133E-03  0.1133E-03  0.1302E-05  0.1302E-05  0.1133E-03  0.1133E-03
    -12.540  0.1421E-01  0.1421E-01  0.1507E-02  0.1507E-02  0.1507E-02  0.1507E-02  0.1507E-02  0.1507E-02  0.3034E-05  0.3034E-05  0.3034E-05  0.3034E-05  0.3284E-03  0.3284E-03  0.3034E-05  0.3034E-05  0.3284E-03  0.3284E-03
    -12.348  0.1559E-01  0.1559E-01  0.2539E-02  0.2539E-02  0.2539E-02  0.2539E-02  0.2539E-02  0.2539E-02  0.5646E-05  0.5646E-05  0.5646E-05  0.5646E-05  0.8343E-03  0.8343E-03  0.5646E-05  0.5646E-05  0.8343E-03  0.8343E-03
    -12.156  0.1593E-01  0.1593E-01  0.4052E-02  0.4052E-02  0.4052E-02  0.4052E-02  0.4052E-02  0.4052E-02  0.9133E-05  0.9133E-05  0.9133E-05  0.9133E-05  0.1928E-02  0.1928E-02  0.9133E-05  0.9133E-05  0.1928E-02  0.1928E-02
    -11.964  0.1636E-01  0.1636E-01  0.6918E-02  0.6918E-02  0.6918E-02  0.6918E-02  0.6918E-02  0.6918E-02  0.1373E-04  0.1373E-04  0.1373E-04  0.1373E-04  0.4960E-02  0.4960E-02  0.1373E-04  0.1373E-04  0.4960E-02  0.4960E-02
    -11.772  0.1510E-01  0.1509E-01  0.1508E-01  0.1508E-01  0.1508E-01  0.1508E-01  0.1508E-01  0.1508E-01  0.1926E-04  0.1926E-04  0.1926E-04  0.1926E-04  0.1566E-01  0.1566E-01  0.1926E-04  0.1926E-04  0.1566E-01  0.1566E-01
    -11.580  0.7870E-02  0.7870E-02  0.2054E-01  0.2054E-01  0.2054E-01  0.2054E-01  0.2054E-01  0.2054E-01  0.1520E-04  0.1520E-04  0.1520E-04  0.1520E-04  0.4773E-01  0.4772E-01  0.1520E-04  0.1520E-04  0.4773E-01  0.4772E-01
    -11.388  0.6878E-06  0.6878E-06  0.1868E-04  0.1868E-04  0.1868E-04  0.1868E-04  0.1868E-04  0.1868E-04  0.1766E-08  0.1767E-08  0.1766E-08  0.1767E-08  0.7419E-04  0.7419E-04  0.1766E-08  0.1767E-08  0.7419E-04  0.7419E-04
    -11.196  0.0000E+00  0.0000E+00  0.0000E+00  0.0000E+00  0.0000E+00  0.0000E+00  0.0000E+00  0.0000E+00  0.0000E+00  0.0000E+00  0.0000E+00  0.0000E+00  0.0000E+00  0.0000E+00  0.0000E+00  0.0000E+00  0.0000E+00  0.0000E+00
    -11.003  0.0000E+00  0.0000E+00  0.0000E+00  0.0000E+00  0.0000E+00  0.0000E+00  0.0000E+00  0.0000E+00  0.0000E+00  0.0000E+00  0.0000E+00  0.0000E+00  0.0000E+00  0.0000E+00  0.0000E+00  0.0000E+00  0.0000E+00  0.0000E+00
    -10.811  0.0000E+00  0.0000E+00  0.0000E+00  0.0000E+00  0.0000E+00  0.0000E+00  0.0000E+00  0.0000E+00  0.0000E+00  0.0000E+00  0.0000E+00  0.0000E+00  0.0000E+00  0.0000E+00  0.0000E+00  0.0000E+00  0.0000E+00  0.0000E+00
    -10.619  0.0000E+00  0.0000E+00  0.0000E+00  0.0000E+00  0.0000E+00  0.0000E+00  0.0000E+00  0.0000E+00  0.0000E+00  0.0000E+00  0.0000E+00  0.0000E+00  0.0000E+00  0.0000E+00  0.0000E+00  0.0000E+00  0.0000E+00  0.0000E+00
    -10.427  0.0000E+00  0.0000E+00  0.0000E+00  0.0000E+00  0.0000E+00  0.0000E+00  0.0000E+00  0.0000E+00  0.0000E+00  0.0000E+00  0.0000E+00  0.0000E+00  0.0000E+00  0.0000E+00  0.0000E+00  0.0000E+00  0.0000E+00  0.0000E+00
    -10.235  0.0000E+00  0.0000E+00  0.0000E+00  0.0000E+00  0.0000E+00  0.0000E+00  0.0000E+00  0.0000E+00  0.0000E+00  0.0000E+00  0.0000E+00  0.0000E+00  0.0000E+00  0.0000E+00  0.0000E+00  0.0000E+00  0.0000E+00  0.0000E+00
    -10.043  0.0000E+00  0.0000E+00  0.0000E+00  0.0000E+00  0.0000E+00  0.0000E+00  0.0000E+00  0.0000E+00  0.0000E+00  0.0000E+00  0.0000E+00  0.0000E+00  0.0000E+00  0.0000E+00  0.0000E+00  0.0000E+00  0.0000E+00  0.0000E+00
     -9.851  0.0000E+00  0.0000E+00  0.0000E+00  0.0000E+00  0.0000E+00  0.0000E+00  0.0000E+00  0.0000E+00  0.0000E+00  0.0000E+00  0.0000E+00  0.0000E+00  0.0000E+00  0.0000E+00  0.0000E+00  0.0000E+00  0.0000E+00  0.0000E+00
     -9.658  0.0000E+00  0.0000E+00  0.0000E+00  0.0000E+00  0.0000E+00  0.0000E+00  0.0000E+00  0.0000E+00  0.0000E+00  0.0000E+00  0.0000E+00  0.0000E+00  0.0000E+00  0.0000E+00  0.0000E+00  0.0000E+00  0.0000E+00  0.0000E+00
     -9.466  0.0000E+00  0.0000E+00  0.0000E+00  0.0000E+00  0.0000E+00  0.0000E+00  0.0000E+00  0.0000E+00  0.0000E+00  0.0000E+00  0.0000E+00  0.0000E+00  0.0000E+00  0.0000E+00  0.0000E+00  0.0000E+00  0.0000E+00  0.0000E+00
     -9.274  0.0000E+00  0.0000E+00  0.0000E+00  0.0000E+00  0.0000E+00  0.0000E+00  0.0000E+00  0.0000E+00  0.0000E+00  0.0000E+00  0.0000E+00  0.0000E+00  0.0000E+00  0.0000E+00  0.0000E+00  0.0000E+00  0.0000E+00  0.0000E+00
     -9.082  0.0000E+00  0.0000E+00  0.0000E+00  0.0000E+00  0.0000E+00  0.0000E+00  0.0000E+00  0.0000E+00  0.0000E+00  0.0000E+00  0.0000E+00  0.0000E+00  0.0000E+00  0.0000E+00  0.0000E+00  0.0000E+00  0.0000E+00  0.0000E+00
     -8.890  0.0000E+00  0.0000E+00  0.0000E+00  0.0000E+00  0.0000E+00  0.0000E+00  0.0000E+00  0.0000E+00  0.0000E+00  0.0000E+00  0.0000E+00  0.0000E+00  0.0000E+00  0.0000E+00  0.0000E+00  0.0000E+00  0.0000E+00  0.0000E+00
     -8.698  0.0000E+00  0.0000E+00  0.0000E+00  0.0000E+00  0.0000E+00  0.0000E+00  0.0000E+00  0.0000E+00  0.0000E+00  0.0000E+00  0.0000E+00  0.0000E+00  0.0000E+00  0.0000E+00  0.0000E+00  0.0000E+00  0.0000E+00  0.0000E+00
     -8.506  0.0000E+00  0.0000E+00  0.0000E+00  0.0000E+00  0.0000E+00  0.0000E+00  0.0000E+00  0.0000E+00  0.0000E+00  0.0000E+00  0.0000E+00  0.0000E+00  0.0000E+00  0.0000E+00  0.0000E+00  0.0000E+00  0.0000E+00  0.0000E+00
     -8.314  0.0000E+00  0.0000E+00  0.0000E+00  0.0000E+00  0.0000E+00  0.0000E+00  0.0000E+00  0.0000E+00  0.0000E+00  0.0000E+00  0.0000E+00  0.0000E+00  0.0000E+00  0.0000E+00  0.0000E+00  0.0000E+00  0.0000E+00  0.0000E+00
     -8.121  0.0000E+00  0.0000E+00  0.0000E+00  0.0000E+00  0.0000E+00  0.0000E+00  0.0000E+00  0.0000E+00  0.0000E+00  0.0000E+00  0.0000E+00  0.0000E+00  0.0000E+00  0.0000E+00  0.0000E+00  0.0000E+00  0.0000E+00  0.0000E+00
     -7.929  0.0000E+00  0.0000E+00  0.0000E+00  0.0000E+00  0.0000E+00  0.0000E+00  0.0000E+00  0.0000E+00  0.0000E+00  0.0000E+00  0.0000E+00  0.0000E+00  0.0000E+00  0.0000E+00  0.0000E+00  0.0000E+00  0.0000E+00  0.0000E+00
     -7.737  0.0000E+00  0.0000E+00  0.0000E+00  0.0000E+00  0.0000E+00  0.0000E+00  0.0000E+00  0.0000E+00  0.0000E+00  0.0000E+00  0.0000E+00  0.0000E+00  0.0000E+00  0.0000E+00  0.0000E+00  0.0000E+00  0.0000E+00  0.0000E+00
     -7.545  0.0000E+00  0.0000E+00  0.0000E+00  0.0000E+00  0.0000E+00  0.0000E+00  0.0000E+00  0.0000E+00  0.0000E+00  0.0000E+00  0.0000E+00  0.0000E+00  0.0000E+00  0.0000E+00  0.0000E+00  0.0000E+00  0.0000E+00  0.0000E+00
     -7.353  0.0000E+00  0.0000E+00  0.0000E+00  0.0000E+00  0.0000E+00  0.0000E+00  0.0000E+00  0.0000E+00  0.0000E+00  0.0000E+00  0.0000E+00  0.0000E+00  0.0000E+00  0.0000E+00  0.0000E+00  0.0000E+00  0.0000E+00  0.0000E+00
     -7.161  0.0000E+00  0.0000E+00  0.0000E+00  0.0000E+00  0.0000E+00  0.0000E+00  0.0000E+00  0.0000E+00  0.0000E+00  0.0000E+00  0.0000E+00  0.0000E+00  0.0000E+00  0.0000E+00  0.0000E+00  0.0000E+00  0.0000E+00  0.0000E+00
     -6.969  0.0000E+00  0.0000E+00  0.0000E+00  0.0000E+00  0.0000E+00  0.0000E+00  0.0000E+00  0.0000E+00  0.0000E+00  0.0000E+00  0.0000E+00  0.0000E+00  0.0000E+00  0.0000E+00  0.0000E+00  0.0000E+00  0.0000E+00  0.0000E+00
     -6.776  0.0000E+00  0.0000E+00  0.0000E+00  0.0000E+00  0.0000E+00  0.0000E+00  0.0000E+00  0.0000E+00  0.0000E+00  0.0000E+00  0.0000E+00  0.0000E+00  0.0000E+00  0.0000E+00  0.0000E+00  0.0000E+00  0.0000E+00  0.0000E+00
     -6.584  0.0000E+00  0.0000E+00  0.0000E+00  0.0000E+00  0.0000E+00  0.0000E+00  0.0000E+00  0.0000E+00  0.0000E+00  0.0000E+00  0.0000E+00  0.0000E+00  0.0000E+00  0.0000E+00  0.0000E+00  0.0000E+00  0.0000E+00  0.0000E+00
     -6.392  0.0000E+00  0.0000E+00  0.0000E+00  0.0000E+00  0.0000E+00  0.0000E+00  0.0000E+00  0.0000E+00  0.0000E+00  0.0000E+00  0.0000E+00  0.0000E+00  0.0000E+00  0.0000E+00  0.0000E+00  0.0000E+00  0.0000E+00  0.0000E+00
     -6.200  0.0000E+00  0.0000E+00  0.0000E+00  0.0000E+00  0.0000E+00  0.0000E+00  0.0000E+00  0.0000E+00  0.0000E+00  0.0000E+00  0.0000E+00  0.0000E+00  0.0000E+00  0.0000E+00  0.0000E+00  0.0000E+00  0.0000E+00  0.0000E+00