 ----------------------------------------------------
    OOO  PPPP  EEEEE N   N M   M PPPP
   O   O P   P E     NN  N MM MM P   P
   O   O PPPP  EEEEE N N N M M M PPPP   -- VERSION
   O   O P     E     N  NN M   M P
    OOO  P     EEEEE N   N M   M P
 ----------------------------------------------------
 running  128 mpi-ranks, with    1 threads/rank
 distrk:  each k-point on   32 cores,    4 groups
 distr:  one band on   16 cores,    2 groups
 vasp.6.3.2 27Jun22 (build Jun 30 2023 15:13:53) complex                         
 POSCAR found type information on POSCAR CuO 
 POSCAR found :  2 types and       2 ions
 Reading from existing POTCAR
 scaLAPACK will be used
 Reading from existing POTCAR
 LDA part: xc-table for Pade appr. of Perdew
 -----------------------------------------------------------------------------
|                                                                             |
|           W    W    AA    RRRRR   N    N  II  N    N   GGGG   !!!           |
|           W    W   A  A   R    R  NN   N  II  NN   N  G    G  !!!           |
|           W    W  A    A  R    R  N N  N  II  N N  N  G       !!!           |
|           W WW W  AAAAAA  RRRRR   N  N N  II  N  N N  G  GGG   !            |
|           WW  WW  A    A  R   R   N   NN  II  N   NN  G    G                |
|           W    W  A    A  R    R  N    N  II  N    N   GGGG   !!!           |
|                                                                             |
|     The requested file  could not be found or opened for reading            |
|     k-point information. Automatic k-point generation is used as a          |
|     fallback, which may lead to unwanted results.                           |
|                                                                             |
 -----------------------------------------------------------------------------

 INCAR ok, starting setup
 POSCAR ok, starting setup
 FFT: planning ... GRIDC
 FFT: planning ... GRID_SOFT
 FFT: planning ... GRID
 WAVECAR not read
 entering main loop
       N       E                     dE             d eps       ncg     rms          rms(c)
DAV:   1     0.941712034609E+02    0.94171E+02   -0.93175E+03 13992   0.182E+03
DAV:   2    -0.425796920591E+00   -0.94597E+02   -0.86042E+02 13400   0.294E+02
DAV:   3    -0.519907916319E+01   -0.47733E+01   -0.46659E+01 15072   0.658E+01
DAV:   4    -0.524296699519E+01   -0.43888E-01   -0.43885E-01 14808   0.610E+00
DAV:   5    -0.524349377606E+01   -0.52678E-03   -0.52686E-03 16016   0.691E-01    0.272E+01
DAV:   6    -0.905318823819E+01   -0.38097E+01   -0.15682E+01 16136   0.123E+02    0.105E+01
DAV:   7    -0.809091632368E+01    0.96227E+00   -0.45936E+00 15656   0.928E+01    0.147E+00
DAV:   8    -0.812133357830E+01   -0.30417E-01   -0.32590E-01 13952   0.539E+00    0.711E-01
DAV:   9    -0.811870100391E+01    0.26326E-02   -0.68323E-03 17952   0.291E+00    0.348E-01
DAV:  10    -0.812022414036E+01   -0.15231E-02   -0.16952E-03 18256   0.868E-01    0.178E-01
DAV:  11    -0.812100028342E+01   -0.77614E-03   -0.33655E-04 18816   0.758E-01    0.223E-01
DAV:  12    -0.812137130698E+01   -0.37102E-03   -0.64967E-05 19616   0.295E-01    0.230E-01
DAV:  13    -0.812032656139E+01    0.10447E-02   -0.72923E-04 17040   0.121E+00    0.229E-01
DAV:  14    -0.812207086077E+01   -0.17443E-02   -0.12869E-03 17272   0.171E+00    0.281E-01
DAV:  15    -0.811770763720E+01    0.43632E-02   -0.42687E-02 17200   0.992E+00    0.338E-01
DAV:  16    -0.811838751485E+01   -0.67988E-03   -0.28409E-03 17504   0.853E-01    0.289E-01
DAV:  17    -0.811760110472E+01    0.78641E-03   -0.56198E-04 16544   0.959E-01    0.203E-01
DAV:  18    -0.811737044312E+01    0.23066E-03   -0.90031E-05 18568   0.286E-01    0.168E-01
DAV:  19    -0.811722942222E+01    0.14102E-03   -0.29917E-05 19008   0.177E-01    0.145E-01
DAV:  20    -0.811670953000E+01    0.51989E-03   -0.35451E-04 15952   0.786E-01    0.615E-02
DAV:  21    -0.811652682141E+01    0.18271E-03   -0.26026E-04 18080   0.605E-01    0.823E-03
DAV:  22    -0.811653741849E+01   -0.10597E-04   -0.57334E-05 19064   0.242E-01    0.177E-02
DAV:  23    -0.811652865147E+01    0.87670E-05   -0.10594E-05 18136   0.127E-01    0.420E-03
DAV:  24    -0.811652781400E+01    0.83747E-06   -0.26262E-06 19024   0.495E-02    0.397E-03
DAV:  25    -0.811652807162E+01   -0.25762E-06   -0.13844E-06 18320   0.469E-02    0.398E-03
DAV:  26    -0.811652770237E+01    0.36925E-06   -0.96914E-07 16664   0.426E-02    0.489E-04
DAV:  27    -0.811652778816E+01   -0.85787E-07   -0.61376E-08  7344   0.539E-03
   1 F= -.81165278E+01 E0= -.81165278E+01  d E =0.000000E+00  mag=     0.0000
 -----------------------------------------------------------------------------
|                                                                             |
|           W    W    AA    RRRRR   N    N  II  N    N   GGGG   !!!           |
|           W    W   A  A   R    R  NN   N  II  NN   N  G    G  !!!           |
|           W    W  A    A  R    R  N N  N  II  N N  N  G       !!!           |
|           W WW W  AAAAAA  RRRRR   N  N N  II  N  N N  G  GGG   !            |
|           WW  WW  A    A  R   R   N   NN  II  N   NN  G    G                |
|           W    W  A    A  R    R  N    N  II  N    N   GGGG   !!!           |
|                                                                             |
|     Tetrahedron method does not include variations of the Fermi             |
|     occupations, so forces and stress will be inaccurate. We suggest        |
|     using a different smearing scheme ISMEAR = 1 or 2 for metals in         |
|     relaxations.                                                            |
|                                                                             |
 -----------------------------------------------------------------------------

 PROFILE, used timers:     369
