       N       E                     dE             d eps       ncg     rms          rms(c)
DAV:   1     0.107157424290E+03    0.10716E+03   -0.61769E+03 28744   0.643E+02
DAV:   2     0.242898370960E+00   -0.10691E+03   -0.94263E+02 25928   0.187E+02
DAV:   3    -0.700974266289E+01   -0.72526E+01   -0.70538E+01 30904   0.432E+01
DAV:   4    -0.706721111416E+01   -0.57468E-01   -0.57453E-01 28728   0.385E+00
DAV:   5    -0.706731427449E+01   -0.10316E-03   -0.10322E-03 29888   0.159E-01    0.236E+01
DAV:   6    -0.111763416051E+02   -0.41090E+01   -0.26283E+01 28480   0.523E+01    0.219E+01
DAV:   7    -0.897312302519E+01    0.22032E+01   -0.45630E+00 28440   0.329E+01    0.917E+00
DAV:   8    -0.992126887025E+01   -0.94815E+00   -0.68213E-01 27792   0.897E+00    0.679E+00
DAV:   9    -0.101120536344E+02   -0.19078E+00   -0.11327E-01 28216   0.747E+00    0.273E+00
DAV:  10    -0.101392932693E+02   -0.27240E-01   -0.54584E-02 29504   0.420E+00    0.691E-01
DAV:  11    -0.101389554543E+02    0.33782E-03   -0.14970E-02 28128   0.103E+00    0.313E-01
DAV:  12    -0.101394722760E+02   -0.51682E-03   -0.11470E-03 30112   0.327E-01    0.146E-01
DAV:  13    -0.101396488174E+02   -0.17654E-03   -0.29043E-04 29488   0.229E-01    0.799E-02
DAV:  14    -0.101396517350E+02   -0.29176E-05   -0.52750E-05 30528   0.747E-02    0.293E-02
DAV:  15    -0.101396601612E+02   -0.84263E-05   -0.71158E-06 29792   0.454E-02    0.190E-02
DAV:  16    -0.101396617211E+02   -0.15599E-05   -0.15561E-06 31264   0.444E-02    0.667E-03
DAV:  17    -0.101396618854E+02   -0.16427E-06   -0.68591E-07 30552   0.122E-02    0.278E-03
DAV:  18    -0.101396621443E+02   -0.25890E-06   -0.23148E-07 30752   0.630E-03    0.264E-03
DAV:  19    -0.101396621016E+02    0.42687E-07   -0.90047E-08 24296   0.492E-03
   1 F= -.10139662E+02 E0= -.10139662E+02  d E =0.000000E+00  mag=     2.0000
