Automatically generated mesh
     220
Reciprocal lattice
    0.00000000000000    0.00000000000000    0.00000000000000             1
    0.05555555555556    0.00000000000000    0.00000000000000             6
    0.11111111111112    0.00000000000000    0.00000000000000             6
    0.16666666666667    0.00000000000000    0.00000000000000             6
    0.22222222222222    0.00000000000000    0.00000000000000             6
    0.27777777777778    0.00000000000000    0.00000000000000             6
    0.33333333333334    0.00000000000000    0.00000000000000             6
    0.38888888888889    0.00000000000000    0.00000000000000             6
    0.44444444444444    0.00000000000000    0.00000000000000             6
    0.50000000000000    0.00000000000000    0.00000000000000             3
    0.05555555555556    0.05555555555556    0.00000000000000            12
    0.11111111111112    0.05555555555556    0.00000000000000            24
    0.16666666666667    0.05555555555556    0.00000000000000            24
    0.22222222222222    0.05555555555556    0.00000000000000            24
    0.27777777777778    0.05555555555556    0.00000000000000            24
    0.33333333333334    0.05555555555556    0.00000000000000            24
    0.38888888888889    0.05555555555556    0.00000000000000            24
    0.44444444444444    0.05555555555556    0.00000000000000            24
    0.50000000000000    0.05555555555556    0.00000000000000            12
    0.11111111111112    0.11111111111112    0.00000000000000            12
    0.16666666666667    0.11111111111112    0.00000000000000            24
    0.22222222222222    0.11111111111112    0.00000000000000            24
    0.27777777777778    0.11111111111112    0.00000000000000            24
    0.33333333333334    0.11111111111112    0.00000000000000            24
    0.38888888888889    0.11111111111112    0.00000000000000            24
    0.44444444444444    0.11111111111112    0.00000000000000            24
    0.50000000000000    0.11111111111112    0.00000000000000            12
    0.16666666666667    0.16666666666667    0.00000000000000            12
    0.22222222222222    0.16666666666667    0.00000000000000            24
    0.27777777777778    0.16666666666667    0.00000000000000            24
    0.33333333333334    0.16666666666667    0.00000000000000            24
    0.38888888888889    0.16666666666667    0.00000000000000            24
    0.44444444444444    0.16666666666667    0.00000000000000            24
    0.50000000000000    0.16666666666667    0.00000000000000            12
    0.22222222222222    0.22222222222222    0.00000000000000            12
    0.27777777777778    0.22222222222222    0.00000000000000            24
    0.33333333333334    0.22222222222222    0.00000000000000            24
    0.38888888888889    0.22222222222222    0.00000000000000            24
    0.44444444444444    0.22222222222222    0.00000000000000            24
    0.50000000000000    0.22222222222222    0.00000000000000            12
    0.27777777777778    0.27777777777778    0.00000000000000            12
    0.33333333333334    0.27777777777778    0.00000000000000            24
    0.38888888888889    0.27777777777778    0.00000000000000            24
    0.44444444444444    0.27777777777778    0.00000000000000            24
    0.50000000000000    0.27777777777778    0.00000000000000            12
    0.33333333333334    0.33333333333334    0.00000000000000            12
    0.38888888888889    0.33333333333334    0.00000000000000            24
    0.44444444444444    0.33333333333334    0.00000000000000            24
    0.50000000000000    0.33333333333334    0.00000000000000            12
    0.38888888888889    0.38888888888889    0.00000000000000            12
    0.44444444444444    0.38888888888889    0.00000000000000            24
    0.50000000000000    0.38888888888889    0.00000000000000            12
    0.44444444444444    0.44444444444444    0.00000000000000            12
    0.50000000000000    0.44444444444444    0.00000000000000            12
    0.50000000000000    0.50000000000000    0.00000000000000             3
    0.05555555555556    0.05555555555556    0.05555555555556             8
    0.11111111111112    0.05555555555556    0.05555555555556            24
    0.16666666666667    0.05555555555556    0.05555555555556            24
    0.22222222222222    0.05555555555556    0.05555555555556            24
    0.27777777777778    0.05555555555556    0.05555555555556            24
    0.33333333333334    0.05555555555556    0.05555555555556            24
    0.38888888888889    0.05555555555556    0.05555555555556            24
    0.44444444444444    0.05555555555556    0.05555555555556            24
    0.50000000000000    0.05555555555556    0.05555555555556            12
    0.11111111111112    0.11111111111112    0.05555555555556            24
    0.16666666666667    0.11111111111112    0.05555555555556            48
    0.22222222222222    0.11111111111112    0.05555555555556            48
    0.27777777777778    0.11111111111112    0.05555555555556            48
    0.33333333333334    0.11111111111112    0.05555555555556            48
    0.38888888888889    0.11111111111112    0.05555555555556            48
    0.44444444444444    0.11111111111112    0.05555555555556            48
    0.50000000000000    0.11111111111112    0.05555555555556            24
    0.16666666666667    0.16666666666667    0.05555555555556            24
    0.22222222222222    0.16666666666667    0.05555555555556            48
    0.27777777777778    0.16666666666667    0.05555555555556            48
    0.33333333333334    0.16666666666667    0.05555555555556            48
    0.38888888888889    0.16666666666667    0.05555555555556            48
    0.44444444444444    0.16666666666667    0.05555555555556            48
    0.50000000000000    0.16666666666667    0.05555555555556            24
    0.22222222222222    0.22222222222222    0.05555555555556            24
    0.27777777777778    0.22222222222222    0.05555555555556            48
    0.33333333333334    0.22222222222222    0.05555555555556            48
    0.38888888888889    0.22222222222222    0.05555555555556            48
    0.44444444444444    0.22222222222222    0.05555555555556            48
    0.50000000000000    0.22222222222222    0.05555555555556            24
    0.27777777777778    0.27777777777778    0.05555555555556            24
    0.33333333333334    0.27777777777778    0.05555555555556            48
    0.38888888888889    0.27777777777778    0.05555555555556            48
    0.44444444444444    0.27777777777778    0.05555555555556            48
    0.50000000000000    0.27777777777778    0.05555555555556            24
    0.33333333333334    0.33333333333334    0.05555555555556            24
    0.38888888888889    0.33333333333334    0.05555555555556            48
    0.44444444444444    0.33333333333334    0.05555555555556            48
    0.50000000000000    0.33333333333334    0.05555555555556            24
    0.38888888888889    0.38888888888889    0.05555555555556            24
    0.44444444444444    0.38888888888889    0.05555555555556            48
    0.50000000000000    0.38888888888889    0.05555555555556            24
    0.44444444444444    0.44444444444444    0.05555555555556            24
    0.50000000000000    0.44444444444444    0.05555555555556            24
    0.50000000000000    0.50000000000000    0.05555555555556             6
    0.11111111111112    0.11111111111112    0.11111111111112             8
    0.16666666666667    0.11111111111112    0.11111111111112            24
    0.22222222222222    0.11111111111112    0.11111111111112            24
    0.27777777777778    0.11111111111112    0.11111111111112            24
    0.33333333333334    0.11111111111112    0.11111111111112            24
    0.38888888888889    0.11111111111112    0.11111111111112            24
    0.44444444444444    0.11111111111112    0.11111111111112            24
    0.50000000000000    0.11111111111112    0.11111111111112            12
    0.16666666666667    0.16666666666667    0.11111111111112            24
    0.22222222222222    0.16666666666667    0.11111111111112            48
    0.27777777777778    0.16666666666667    0.11111111111112            48
    0.33333333333334    0.16666666666667    0.11111111111112            48
    0.38888888888889    0.16666666666667    0.11111111111112            48
    0.44444444444444    0.16666666666667    0.11111111111112            48
    0.50000000000000    0.16666666666667    0.11111111111112            24
    0.22222222222222    0.22222222222222    0.11111111111112            24
    0.27777777777778    0.22222222222222    0.11111111111112            48
    0.33333333333334    0.22222222222222    0.11111111111112            48
    0.38888888888889    0.22222222222222    0.11111111111112            48
    0.44444444444444    0.22222222222222    0.11111111111112            48
    0.50000000000000    0.22222222222222    0.11111111111112            24
    0.27777777777778    0.27777777777778    0.11111111111112            24
    0.33333333333334    0.27777777777778    0.11111111111112            48
    0.38888888888889    0.27777777777778    0.11111111111112            48
    0.44444444444444    0.27777777777778    0.11111111111112            48
    0.50000000000000    0.27777777777778    0.11111111111112            24
    0.33333333333334    0.33333333333334    0.11111111111112            24
    0.38888888888889    0.33333333333334    0.11111111111112            48
    0.44444444444444    0.33333333333334    0.11111111111112            48
    0.50000000000000    0.33333333333334    0.11111111111112            24
    0.38888888888889    0.38888888888889    0.11111111111112            24
    0.44444444444444    0.38888888888889    0.11111111111112            48
    0.50000000000000    0.38888888888889    0.11111111111112            24
    0.44444444444444    0.44444444444444    0.11111111111112            24
    0.50000000000000    0.44444444444444    0.11111111111112            24
    0.50000000000000    0.50000000000000    0.11111111111112             6
    0.16666666666667    0.16666666666667    0.16666666666667             8
    0.22222222222222    0.16666666666667    0.16666666666667            24
    0.27777777777778    0.16666666666667    0.16666666666667            24
    0.33333333333334    0.16666666666667    0.16666666666667            24
    0.38888888888889    0.16666666666667    0.16666666666667            24
    0.44444444444444    0.16666666666667    0.16666666666667            24
    0.50000000000000    0.16666666666667    0.16666666666667            12
    0.22222222222222    0.22222222222222    0.16666666666667            24
    0.27777777777778    0.22222222222222    0.16666666666667            48
    0.33333333333334    0.22222222222222    0.16666666666667            48
    0.38888888888889    0.22222222222222    0.16666666666667            48
    0.44444444444444    0.22222222222222    0.16666666666667            48
    0.50000000000000    0.22222222222222    0.16666666666667            24
    0.27777777777778    0.27777777777778    0.16666666666667            24
    0.33333333333334    0.27777777777778    0.16666666666667            48
    0.38888888888889    0.27777777777778    0.16666666666667            48
    0.44444444444444    0.27777777777778    0.16666666666667            48
    0.50000000000000    0.27777777777778    0.16666666666667            24
    0.33333333333334    0.33333333333334    0.16666666666667            24
    0.38888888888889    0.33333333333334    0.16666666666667            48
    0.44444444444444    0.33333333333334    0.16666666666667            48
    0.50000000000000    0.33333333333334    0.16666666666667            24
    0.38888888888889    0.38888888888889    0.16666666666667            24
    0.44444444444444    0.38888888888889    0.16666666666667            48
    0.50000000000000    0.38888888888889    0.16666666666667            24
    0.44444444444444    0.44444444444444    0.16666666666667            24
    0.50000000000000    0.44444444444444    0.16666666666667            24
    0.50000000000000    0.50000000000000    0.16666666666667             6
    0.22222222222222    0.22222222222222    0.22222222222222             8
    0.27777777777778    0.22222222222222    0.22222222222222            24
    0.33333333333334    0.22222222222222    0.22222222222222            24
    0.38888888888889    0.22222222222222    0.22222222222222            24
    0.44444444444444    0.22222222222222    0.22222222222222            24
    0.50000000000000    0.22222222222222    0.22222222222222            12
    0.27777777777778    0.27777777777778    0.22222222222222            24
    0.33333333333334    0.27777777777778    0.22222222222222            48
    0.38888888888889    0.27777777777778    0.22222222222222            48
    0.44444444444444    0.27777777777778    0.22222222222222            48
    0.50000000000000    0.27777777777778    0.22222222222222            24
    0.33333333333334    0.33333333333334    0.22222222222222            24
    0.38888888888889    0.33333333333334    0.22222222222222            48
    0.44444444444444    0.33333333333334    0.22222222222222            48
    0.50000000000000    0.33333333333334    0.22222222222222            24
    0.38888888888889    0.38888888888889    0.22222222222222            24
    0.44444444444444    0.38888888888889    0.22222222222222            48
    0.50000000000000    0.38888888888889    0.22222222222222            24
    0.44444444444444    0.44444444444444    0.22222222222222            24
    0.50000000000000    0.44444444444444    0.22222222222222            24
    0.50000000000000    0.50000000000000    0.22222222222222             6
    0.27777777777778    0.27777777777778    0.27777777777778             8
    0.33333333333334    0.27777777777778    0.27777777777778            24
    0.38888888888889    0.27777777777778    0.27777777777778            24
    0.44444444444444    0.27777777777778    0.27777777777778            24
    0.50000000000000    0.27777777777778    0.27777777777778            12
    0.33333333333334    0.33333333333334    0.27777777777778            24
    0.38888888888889    0.33333333333334    0.27777777777778            48
    0.44444444444444    0.33333333333334    0.27777777777778            48
    0.50000000000000    0.33333333333334    0.27777777777778            24
    0.38888888888889    0.38888888888889    0.27777777777778            24
    0.44444444444444    0.38888888888889    0.27777777777778            48
    0.50000000000000    0.38888888888889    0.27777777777778            24
    0.44444444444444    0.44444444444444    0.27777777777778            24
    0.50000000000000    0.44444444444444    0.27777777777778            24
    0.50000000000000    0.50000000000000    0.27777777777778             6
    0.33333333333334    0.33333333333334    0.33333333333334             8
    0.38888888888889    0.33333333333334    0.33333333333334            24
    0.44444444444444    0.33333333333334    0.33333333333334            24
    0.50000000000000    0.33333333333334    0.33333333333334            12
    0.38888888888889    0.38888888888889    0.33333333333334            24
    0.44444444444444    0.38888888888889    0.33333333333334            48
    0.50000000000000    0.38888888888889    0.33333333333334            24
    0.44444444444444    0.44444444444444    0.33333333333334            24
    0.50000000000000    0.44444444444444    0.33333333333334            24
    0.50000000000000    0.50000000000000    0.33333333333334             6
    0.38888888888889    0.38888888888889    0.38888888888889             8
    0.44444444444444    0.38888888888889    0.38888888888889            24
    0.50000000000000    0.38888888888889    0.38888888888889            12
    0.44444444444444    0.44444444444444    0.38888888888889            24
    0.50000000000000    0.44444444444444    0.38888888888889            24
    0.50000000000000    0.50000000000000    0.38888888888889             6
    0.44444444444444    0.44444444444444    0.44444444444444             8
    0.50000000000000    0.44444444444444    0.44444444444444            12
    0.50000000000000    0.50000000000000    0.44444444444444             6
    0.50000000000000    0.50000000000000    0.50000000000000             1
