unknown system                          
            1
     2.828254    0.000000    0.000000
     0.000000    2.828254    0.000000
     0.000000    0.000000    2.828254
   Fe
     2
Direct configuration=     1
   0.00000000  0.00000000  0.00000000
   0.50000000  0.50000000  0.50000000
unknown system                          
            1
     2.856536    0.000000    0.000000
     0.000000    2.828254    0.000000
     0.000000    0.000000    2.828254
   Fe
     2
Direct configuration=     2
   0.00000000  0.00000000  0.00000000
   0.50000000  0.50000000  0.50000000
unknown system                          
            1
     2.842395    0.000000    0.000000
     0.000000    2.828254    0.000000
     0.000000    0.000000    2.828254
   Fe
     2
Direct configuration=     3
   0.00000000  0.00000000  0.00000000
   0.50000000  0.50000000  0.50000000
unknown system                          
            1
     2.814112    0.000000    0.000000
     0.000000    2.828254    0.000000
     0.000000    0.000000    2.828254
   Fe
     2
Direct configuration=     4
   0.00000000  0.00000000  0.00000000
   0.50000000  0.50000000  0.50000000
unknown system                          
            1
     2.799971    0.000000    0.000000
     0.000000    2.828254    0.000000
     0.000000    0.000000    2.828254
   Fe
     2
Direct configuration=     5
   0.00000000  0.00000000  0.00000000
   0.50000000  0.50000000  0.50000000
unknown system                          
            1
     2.828254    0.000000    0.000000
     0.000000    2.856536    0.000000
     0.000000    0.000000    2.828254
   Fe
     2
Direct configuration=     6
   0.00000000  0.00000000  0.00000000
   0.50000000  0.50000000  0.50000000
unknown system                          
            1
     2.828254    0.000000    0.000000
     0.000000    2.842395    0.000000
     0.000000    0.000000    2.828254
   Fe
     2
Direct configuration=     7
   0.00000000  0.00000000  0.00000000
   0.50000000  0.50000000  0.50000000
unknown system                          
            1
     2.828254    0.000000    0.000000
     0.000000    2.814112    0.000000
     0.000000    0.000000    2.828254
   Fe
     2
Direct configuration=     8
   0.00000000  0.00000000  0.00000000
   0.50000000  0.50000000  0.50000000
unknown system                          
            1
     2.828254    0.000000    0.000000
     0.000000    2.799971    0.000000
     0.000000    0.000000    2.828254
   Fe
     2
Direct configuration=     9
   0.00000000  0.00000000  0.00000000
   0.50000000  0.50000000  0.50000000
unknown system                          
            1
     2.828254    0.000000    0.000000
     0.000000    2.828254    0.000000
     0.000000    0.000000    2.856536
   Fe
     2
Direct configuration=    10
   0.00000000  0.00000000  0.00000000
   0.50000000  0.50000000  0.50000000
unknown system                          
            1
     2.828254    0.000000    0.000000
     0.000000    2.828254    0.000000
     0.000000    0.000000    2.842395
   Fe
     2
Direct configuration=    11
   0.00000000  0.00000000  0.00000000
   0.50000000  0.50000000  0.50000000
unknown system                          
            1
     2.828254    0.000000    0.000000
     0.000000    2.828254    0.000000
     0.000000    0.000000    2.814112
   Fe
     2
Direct configuration=    12
   0.00000000  0.00000000  0.00000000
   0.50000000  0.50000000  0.50000000
unknown system                          
            1
     2.828254    0.000000    0.000000
     0.000000    2.828254    0.000000
     0.000000    0.000000    2.799971
   Fe
     2
Direct configuration=    13
   0.00000000  0.00000000  0.00000000
   0.50000000  0.50000000  0.50000000
unknown system                          
            1
     2.828254    0.028283    0.000000
     0.000000    2.828254    0.000000
     0.000000    0.000000    2.828254
   Fe
     2
Direct configuration=    14
   0.00000000  0.00000000  0.00000000
   0.50000000  0.50000000  0.50000000
unknown system                          
            1
     2.828254    0.014141    0.000000
     0.000000    2.828254    0.000000
     0.000000    0.000000    2.828254
   Fe
     2
Direct configuration=    15
   0.00000000  0.00000000  0.00000000
   0.50000000  0.50000000  0.50000000
unknown system                          
            1
     2.828254   -0.014141    0.000000
     0.000000    2.828254    0.000000
     0.000000    0.000000    2.828254
   Fe
     2
Direct configuration=    16
   0.00000000  0.00000000  0.00000000
   0.50000000  0.50000000  0.50000000
unknown system                          
            1
     2.828254   -0.028283    0.000000
     0.000000    2.828254    0.000000
     0.000000    0.000000    2.828254
   Fe
     2
Direct configuration=    17
   0.00000000  0.00000000  0.00000000
   0.50000000  0.50000000  0.50000000
unknown system                          
            1
     2.828254    0.000000    0.000000
     0.000000    2.828254    0.028283
     0.000000    0.000000    2.828254
   Fe
     2
Direct configuration=    18
   0.00000000  0.00000000  0.00000000
   0.50000000  0.50000000  0.50000000
unknown system                          
            1
     2.828254    0.000000    0.000000
     0.000000    2.828254    0.014141
     0.000000    0.000000    2.828254
   Fe
     2
Direct configuration=    19
   0.00000000  0.00000000  0.00000000
   0.50000000  0.50000000  0.50000000
unknown system                          
            1
     2.828254    0.000000    0.000000
     0.000000    2.828254   -0.014141
     0.000000    0.000000    2.828254
   Fe
     2
Direct configuration=    20
   0.00000000  0.00000000  0.00000000
   0.50000000  0.50000000  0.50000000
unknown system                          
            1
     2.828254    0.000000    0.000000
     0.000000    2.828254   -0.028283
     0.000000    0.000000    2.828254
   Fe
     2
Direct configuration=    21
   0.00000000  0.00000000  0.00000000
   0.50000000  0.50000000  0.50000000
unknown system                          
            1
     2.828254    0.000000    0.000000
     0.000000    2.828254    0.000000
     0.028283    0.000000    2.828254
   Fe
     2
Direct configuration=    22
   0.00000000  0.00000000  0.00000000
   0.50000000  0.50000000  0.50000000
unknown system                          
            1
     2.828254    0.000000    0.000000
     0.000000    2.828254    0.000000
     0.014141    0.000000    2.828254
   Fe
     2
Direct configuration=    23
   0.00000000  0.00000000  0.00000000
   0.50000000  0.50000000  0.50000000
unknown system                          
            1
     2.828254    0.000000    0.000000
     0.000000    2.828254    0.000000
    -0.014141    0.000000    2.828254
   Fe
     2
Direct configuration=    24
   0.00000000  0.00000000  0.00000000
   0.50000000  0.50000000  0.50000000
unknown system                          
            1
     2.828254    0.000000    0.000000
     0.000000    2.828254    0.000000
    -0.028283    0.000000    2.828254
   Fe
     2
Direct configuration=    25
   0.00000000  0.00000000  0.00000000
   0.50000000  0.50000000  0.50000000
unknown system                          
            1
     2.828254    0.000000    0.000000
     0.000000    2.828254    0.000000
     0.000000    0.000000    2.828254
   Fe
     2
Direct configuration=    26
   0.00353575  0.00000000 -0.00000000
   0.50000000  0.50000000  0.50000000
unknown system                          
            1
     2.828254    0.000000    0.000000
     0.000000    2.828254    0.000000
     0.000000    0.000000    2.828254
   Fe
     2
Direct configuration=    27
   0.00176788  0.00000000 -0.00000000
   0.50000000  0.50000000  0.50000000
unknown system                          
            1
     2.828254    0.000000    0.000000
     0.000000    2.828254    0.000000
     0.000000    0.000000    2.828254
   Fe
     2
Direct configuration=    28
  -0.00176788  0.00000000  0.00000000
   0.50000000  0.50000000  0.50000000
unknown system                          
            1
     2.828254    0.000000    0.000000
     0.000000    2.828254    0.000000
     0.000000    0.000000    2.828254
   Fe
     2
Direct configuration=    29
  -0.00353575  0.00000000  0.00000000
   0.50000000  0.50000000  0.50000000
