   2   2   0   0
  0.1565419E+02  0.3537734E-09  0.3537734E-09  0.3537734E-09  0.0000000E+00
  1.000000000000000E-004
  CAR 
 unknown system                          
     16.02569593    -10.68694255  301      4.80917034      1.00000000
    -10.687  0.0000E+00  0.0000E+00
    -10.598  0.0000E+00  0.0000E+00
    -10.509  0.0000E+00  0.0000E+00
    -10.420  0.0000E+00  0.0000E+00
    -10.331  0.0000E+00  0.0000E+00
    -10.242  0.0000E+00  0.0000E+00
    -10.153  0.0000E+00  0.0000E+00
    -10.064  0.0000E+00  0.0000E+00
     -9.975  0.0000E+00  0.0000E+00
     -9.886  0.0000E+00  0.0000E+00
     -9.797  0.0000E+00  0.0000E+00
     -9.707  0.0000E+00  0.0000E+00
     -9.618  0.0000E+00  0.0000E+00
     -9.529  0.0000E+00  0.0000E+00
     -9.440  0.5186E-01  0.7019E-03
     -9.351  0.9779E-01  0.7439E-02
     -9.262  0.1355E+00  0.1800E-01
     -9.173  0.1641E+00  0.3126E-01
     -9.084  0.1876E+00  0.4700E-01
     -8.995  0.2119E+00  0.6476E-01
     -8.906  0.2315E+00  0.8456E-01
     -8.817  0.2521E+00  0.1061E+00
     -8.728  0.2720E+00  0.1295E+00
     -8.639  0.2899E+00  0.1545E+00
     -8.550  0.3097E+00  0.1812E+00
     -8.461  0.3276E+00  0.2096E+00
     -8.372  0.3458E+00  0.2395E+00
     -8.283  0.3653E+00  0.2712E+00
     -8.194  0.3842E+00  0.3046E+00
     -8.105  0.4035E+00  0.3396E+00
     -8.016  0.4240E+00  0.3765E+00
     -7.927  0.4455E+00  0.4152E+00
     -7.838  0.4678E+00  0.4558E+00
     -7.749  0.4920E+00  0.4985E+00
     -7.660  0.5181E+00  0.5435E+00
     -7.570  0.5473E+00  0.5909E+00
     -7.481  0.5804E+00  0.6411E+00
     -7.392  0.6185E+00  0.6944E+00
     -7.303  0.6636E+00  0.7514E+00
     -7.214  0.7255E+00  0.8131E+00
     -7.125  0.8232E+00  0.8816E+00
     -7.036  0.9577E+00  0.9635E+00
     -6.947  0.9630E+00  0.1048E+01
     -6.858  0.9335E+00  0.1132E+01
     -6.769  0.9066E+00  0.1214E+01
     -6.680  0.9017E+00  0.1294E+01
     -6.591  0.8888E+00  0.1374E+01
     -6.502  0.8720E+00  0.1452E+01
     -6.413  0.8737E+00  0.1530E+01
     -6.324  0.8699E+00  0.1608E+01
     -6.235  0.8762E+00  0.1685E+01
     -6.146  0.9081E+00  0.1764E+01
     -6.057  0.9773E+00  0.1848E+01
     -5.968  0.1256E+01  0.1948E+01
     -5.879  0.6499E-01  0.2000E+01
     -5.790  0.0000E+00  0.2000E+01
     -5.701  0.0000E+00  0.2000E+01
     -5.612  0.0000E+00  0.2000E+01
     -5.522  0.0000E+00  0.2000E+01
     -5.433  0.0000E+00  0.2000E+01
     -5.344  0.0000E+00  0.2000E+01
     -5.255  0.0000E+00  0.2000E+01
     -5.166  0.0000E+00  0.2000E+01
     -5.077  0.0000E+00  0.2000E+01
     -4.988  0.0000E+00  0.2000E+01
     -4.899  0.0000E+00  0.2000E+01
     -4.810  0.0000E+00  0.2000E+01
     -4.721  0.0000E+00  0.2000E+01
     -4.632  0.0000E+00  0.2000E+01
     -4.543  0.0000E+00  0.2000E+01
     -4.454  0.0000E+00  0.2000E+01
     -4.365  0.0000E+00  0.2000E+01
     -4.276  0.0000E+00  0.2000E+01
     -4.187  0.0000E+00  0.2000E+01
     -4.098  0.0000E+00  0.2000E+01
     -4.009  0.0000E+00  0.2000E+01
     -3.920  0.0000E+00  0.2000E+01
     -3.831  0.0000E+00  0.2000E+01
     -3.742  0.0000E+00  0.2000E+01
     -3.653  0.0000E+00  0.2000E+01
     -3.564  0.0000E+00  0.2000E+01
     -3.475  0.0000E+00  0.2000E+01
     -3.385  0.0000E+00  0.2000E+01
     -3.296  0.0000E+00  0.2000E+01
     -3.207  0.0000E+00  0.2000E+01
     -3.118  0.0000E+00  0.2000E+01
     -3.029  0.2646E+00  0.2009E+01
     -2.940  0.5532E+00  0.2047E+01
     -2.851  0.8655E+00  0.2110E+01
     -2.762  0.1297E+01  0.2204E+01
     -2.673  0.2208E+01  0.2359E+01
     -2.584  0.1777E+01  0.2578E+01
     -2.495  0.1254E+01  0.2709E+01
     -2.406  0.9801E+00  0.2808E+01
     -2.317  0.8474E+00  0.2889E+01
     -2.228  0.7431E+00  0.2959E+01
     -2.139  0.6549E+00  0.3021E+01
     -2.050  0.6032E+00  0.3077E+01
     -1.961  0.5530E+00  0.3129E+01
     -1.872  0.5009E+00  0.3176E+01
     -1.783  0.4708E+00  0.3219E+01
     -1.694  0.4436E+00  0.3259E+01
     -1.605  0.4153E+00  0.3298E+01
     -1.516  0.3850E+00  0.3333E+01
     -1.427  0.3637E+00  0.3367E+01
     -1.338  0.3469E+00  0.3398E+01
     -1.248  0.3304E+00  0.3428E+01
     -1.159  0.3116E+00  0.3457E+01
     -1.070  0.2916E+00  0.3484E+01
     -0.981  0.2783E+00  0.3509E+01
     -0.892  0.2676E+00  0.3534E+01
     -0.803  0.2566E+00  0.3557E+01
     -0.714  0.2442E+00  0.3579E+01
     -0.625  0.2318E+00  0.3600E+01
     -0.536  0.2174E+00  0.3620E+01
     -0.447  0.3648E+00  0.3641E+01
     -0.358  0.5744E+00  0.3681E+01
     -0.269  0.7071E+00  0.3737E+01
     -0.180  0.9742E+00  0.3811E+01
     -0.091  0.1090E+01  0.3907E+01
     -0.002  0.1014E+01  0.4000E+01
      0.087  0.9434E+00  0.4087E+01
      0.176  0.9157E+00  0.4169E+01
      0.265  0.8785E+00  0.4249E+01
      0.354  0.8655E+00  0.4326E+01
      0.443  0.8739E+00  0.4403E+01
      0.532  0.9088E+00  0.4483E+01
      0.621  0.9117E+00  0.4565E+01
      0.710  0.9439E+00  0.4647E+01
      0.799  0.9584E+00  0.4732E+01
      0.889  0.1021E+01  0.4820E+01
      0.978  0.1052E+01  0.4913E+01
      1.067  0.1095E+01  0.5009E+01
      1.156  0.1264E+01  0.5113E+01
      1.245  0.1342E+01  0.5230E+01
      1.334  0.1342E+01  0.5350E+01
      1.423  0.1312E+01  0.5468E+01
      1.512  0.1296E+01  0.5584E+01
      1.601  0.1272E+01  0.5698E+01
      1.690  0.1260E+01  0.5811E+01
      1.779  0.1246E+01  0.5923E+01
      1.868  0.1221E+01  0.6033E+01
      1.957  0.1209E+01  0.6141E+01
      2.046  0.1188E+01  0.6247E+01
      2.135  0.1174E+01  0.6352E+01
      2.224  0.1160E+01  0.6456E+01
      2.313  0.1146E+01  0.6559E+01
      2.402  0.1124E+01  0.6660E+01
      2.491  0.1108E+01  0.6759E+01
      2.580  0.1099E+01  0.6857E+01
      2.669  0.1085E+01  0.6955E+01
      2.758  0.1072E+01  0.7051E+01
      2.847  0.1058E+01  0.7146E+01
      2.937  0.1053E+01  0.7239E+01
      3.026  0.1035E+01  0.7332E+01
      3.115  0.9973E+00  0.7423E+01
      3.204  0.7798E+00  0.7501E+01
      3.293  0.6753E+00  0.7565E+01
      3.382  0.6020E+00  0.7622E+01
      3.471  0.5374E+00  0.7673E+01
      3.560  0.4862E+00  0.7718E+01
      3.649  0.4426E+00  0.7760E+01
      3.738  0.3982E+00  0.7797E+01
      3.827  0.3574E+00  0.7831E+01
      3.916  0.3197E+00  0.7861E+01
      4.005  0.2852E+00  0.7888E+01
      4.094  0.2548E+00  0.7912E+01
      4.183  0.2217E+00  0.7933E+01
      4.272  0.1890E+00  0.7951E+01
      4.361  0.1666E+00  0.7967E+01
      4.450  0.1332E+00  0.7980E+01
      4.539  0.1030E+00  0.7991E+01
      4.628  0.5490E-01  0.7997E+01
      4.717  0.7684E-03  0.8000E+01
      4.806  0.0000E+00  0.8000E+01
      4.895  0.0000E+00  0.8000E+01
      4.984  0.0000E+00  0.8000E+01
      5.074  0.0000E+00  0.8000E+01
      5.163  0.0000E+00  0.8000E+01
      5.252  0.0000E+00  0.8000E+01
      5.341  0.0000E+00  0.8000E+01
      5.430  0.0000E+00  0.8000E+01
      5.519  0.0000E+00  0.8000E+01
      5.608  0.0000E+00  0.8000E+01
      5.697  0.0000E+00  0.8000E+01
      5.786  0.0000E+00  0.8000E+01
      5.875  0.0000E+00  0.8000E+01
      5.964  0.0000E+00  0.8000E+01
      6.053  0.6260E-02  0.8000E+01
      6.142  0.9255E-01  0.8004E+01
      6.231  0.1530E+00  0.8015E+01
      6.320  0.2146E+00  0.8032E+01
      6.409  0.2787E+00  0.8053E+01
      6.498  0.3505E+00  0.8082E+01
      6.587  0.3883E+00  0.8114E+01
      6.676  0.4318E+00  0.8151E+01
      6.765  0.5171E+00  0.8193E+01
      6.854  0.6353E+00  0.8244E+01
      6.943  0.7099E+00  0.8303E+01
      7.032  0.8014E+00  0.8371E+01
      7.121  0.8818E+00  0.8446E+01
      7.211  0.9794E+00  0.8528E+01
      7.300  0.1101E+01  0.8621E+01
      7.389  0.1256E+01  0.8725E+01
      7.478  0.1505E+01  0.8847E+01
      7.567  0.2042E+01  0.9004E+01
      7.656  0.1840E+01  0.9185E+01
      7.745  0.1469E+01  0.9329E+01
      7.834  0.1362E+01  0.9456E+01
      7.923  0.1304E+01  0.9574E+01
      8.012  0.1285E+01  0.9689E+01
      8.101  0.1224E+01  0.9800E+01
      8.190  0.1022E+01  0.9900E+01
      8.279  0.9289E+00  0.9984E+01
      8.368  0.8901E+00  0.1007E+02
      8.457  0.8467E+00  0.1014E+02
      8.546  0.8194E+00  0.1022E+02
      8.635  0.8319E+00  0.1029E+02
      8.724  0.9060E+00  0.1037E+02
      8.813  0.9160E+00  0.1045E+02
      8.902  0.1011E+01  0.1054E+02
      8.991  0.1163E+01  0.1063E+02
      9.080  0.1680E+01  0.1075E+02
      9.169  0.2086E+01  0.1092E+02
      9.258  0.1966E+01  0.1111E+02
      9.348  0.1636E+01  0.1128E+02
      9.437  0.1409E+01  0.1141E+02
      9.526  0.1350E+01  0.1154E+02
      9.615  0.1286E+01  0.1165E+02
      9.704  0.1283E+01  0.1177E+02
      9.793  0.1214E+01  0.1188E+02
      9.882  0.1093E+01  0.1199E+02
      9.971  0.1043E+01  0.1208E+02
     10.060  0.1006E+01  0.1217E+02
     10.149  0.9699E+00  0.1226E+02
     10.238  0.9132E+00  0.1234E+02
     10.327  0.1037E+01  0.1243E+02
     10.416  0.1160E+01  0.1253E+02
     10.505  0.1295E+01  0.1264E+02
     10.594  0.1433E+01  0.1276E+02
     10.683  0.1308E+01  0.1288E+02
     10.772  0.1354E+01  0.1300E+02
     10.861  0.1306E+01  0.1312E+02
     10.950  0.1281E+01  0.1323E+02
     11.039  0.1357E+01  0.1335E+02
     11.128  0.1222E+01  0.1346E+02
     11.217  0.1202E+01  0.1357E+02
     11.306  0.1149E+01  0.1368E+02
     11.396  0.1072E+01  0.1378E+02
     11.485  0.1103E+01  0.1387E+02
     11.574  0.1041E+01  0.1397E+02
     11.663  0.8090E+00  0.1404E+02
     11.752  0.7926E+00  0.1412E+02
     11.841  0.7689E+00  0.1418E+02
     11.930  0.7600E+00  0.1425E+02
     12.019  0.7589E+00  0.1432E+02
     12.108  0.7771E+00  0.1439E+02
     12.197  0.8210E+00  0.1446E+02
     12.286  0.8586E+00  0.1453E+02
     12.375  0.8883E+00  0.1461E+02
     12.464  0.9370E+00  0.1469E+02
     12.553  0.1014E+01  0.1478E+02
     12.642  0.1115E+01  0.1487E+02
     12.731  0.1371E+01  0.1498E+02
     12.820  0.1590E+01  0.1512E+02
     12.909  0.1182E+01  0.1525E+02
     12.998  0.9963E+00  0.1535E+02
     13.087  0.9304E+00  0.1543E+02
     13.176  0.8363E+00  0.1551E+02
     13.265  0.1142E+01  0.1559E+02
     13.354  0.4524E+00  0.1566E+02
     13.443  0.4148E+00  0.1570E+02
     13.533  0.3924E+00  0.1573E+02
     13.622  0.3689E+00  0.1577E+02
     13.711  0.3420E+00  0.1580E+02
     13.800  0.3137E+00  0.1583E+02
     13.889  0.2850E+00  0.1585E+02
     13.978  0.2577E+00  0.1588E+02
     14.067  0.2335E+00  0.1590E+02
     14.156  0.2136E+00  0.1592E+02
     14.245  0.1945E+00  0.1594E+02
     14.334  0.1767E+00  0.1595E+02
     14.423  0.1424E+00  0.1597E+02
     14.512  0.1145E+00  0.1598E+02
     14.601  0.9076E-01  0.1599E+02
     14.690  0.7547E-01  0.1600E+02
     14.779  0.5366E-02  0.1600E+02
     14.868  0.0000E+00  0.1600E+02
     14.957  0.0000E+00  0.1600E+02
     15.046  0.0000E+00  0.1600E+02
     15.135  0.0000E+00  0.1600E+02
     15.224  0.0000E+00  0.1600E+02
     15.313  0.0000E+00  0.1600E+02
     15.402  0.0000E+00  0.1600E+02
     15.491  0.0000E+00  0.1600E+02
     15.580  0.0000E+00  0.1600E+02
     15.670  0.0000E+00  0.1600E+02
     15.759  0.0000E+00  0.1600E+02
     15.848  0.0000E+00  0.1600E+02
     15.937  0.0000E+00  0.1600E+02
     16.026  0.0000E+00  0.1600E+02
