    2    2    1    1
  0.1565419E+02  0.3537734E-09  0.3537734E-09  0.3537734E-09  0.0000000E+00
  1.000000000000000E-004
  CAR 
 unknown system                          
      8    328      8
 
  0.0000000E+00  0.0000000E+00  0.0000000E+00  0.9391435E-04
    1       -9.472732   1.000000
    2        4.727581   1.000000
    3        4.727581   1.000000
    4        4.727581   1.000000
    5        7.757241   0.000000
    6        7.835429   0.000000
    7        7.835429   0.000000
    8        7.835429   0.000000
 
  0.4545455E-01  0.0000000E+00  0.0000000E+00  0.7513148E-03
    1       -9.442916   1.000000
    2        4.372058   1.000000
    3        4.668516   1.000000
    4        4.668516   1.000000
    5        7.702996   0.000000
    6        7.913573   0.000000
    7        7.913573   0.000000
    8        8.181848   0.000000
 
  0.9090909E-01  0.0000000E+00  0.0000000E+00  0.7513148E-03
    1       -9.353767   1.000000
    2        3.572298   1.000000
    3        4.511410   1.000000
    4        4.511410   1.000000
    5        7.604715   0.000000
    6        8.123038   0.000000
    7        8.123038   0.000000
    8        8.899472   0.000000
 
  0.1363636E+00  0.0000000E+00  0.0000000E+00  0.7513148E-03
    1       -9.206487   1.000000
    2        2.620421   1.000000
    3        4.297968   1.000000
    4        4.297968   1.000000
    5        7.468639   0.000000
    6        8.407455   0.000000
    7        8.407455   0.000000
    8        9.715107   0.000000
 
  0.1818182E+00  0.0000000E+00  0.0000000E+00  0.7513148E-03
    1       -9.003234   1.000000
    2        1.633749   1.000000
    3        4.065471   1.000000
    4        4.065471   1.000000
    5        7.314796   0.000000
    6        8.706462   0.000000
    7        8.706462   0.000000
    8       10.523715   0.000000
 
  0.2272727E+00  0.0000000E+00  0.0000000E+00  0.7513148E-03
    1       -8.747786   1.000000
    2        0.662132   1.000000
    3        3.838948   1.000000
    4        3.838948   1.000000
    5        7.160756   0.000000
    6        8.968927   0.000000
    7        8.968927   0.000000
    8       11.287358   0.000000
 
  0.2727273E+00  0.0000000E+00  0.0000000E+00  0.7513148E-03
    1       -8.446455   1.000000
    2       -0.265638   1.000000
    3        3.633574   1.000000
    4        3.633574   1.000000
    5        7.018754   0.000000
    6        9.161238   0.000000
    7        9.161238   0.000000
    8       11.978388   0.000000
 
  0.3181818E+00  0.0000000E+00  0.0000000E+00  0.7513148E-03
    1       -8.110125   1.000000
    2       -1.125994   1.000000
    3        3.458272   1.000000
    4        3.458272   1.000000
    5        6.896459   0.000000
    6        9.274841   0.000000
    7        9.274841   0.000000
    8       12.551870   0.000000
 
  0.3636364E+00  0.0000000E+00  0.0000000E+00  0.7513148E-03
    1       -7.758157   1.000000
    2       -1.891737   1.000000
    3        3.318301   1.000000
    4        3.318301   1.000000
    5        6.798449   0.000000
    6        9.324317   0.000000
    7        9.324317   0.000000
    8       12.949157   0.000000
 
  0.4090909E+00  0.0000000E+00  0.0000000E+00  0.7513148E-03
    1       -7.425469   1.000000
    2       -2.522982   1.000000
    3        3.216694   1.000000
    4        3.216694   1.000000
    5        6.727219   0.000000
    6        9.335173   0.000000
    7        9.335173   0.000000
    8       13.157145   0.000000
 
  0.4545455E+00  0.0000000E+00  0.0000000E+00  0.7513148E-03
    1       -7.171557   1.000000
    2       -2.957174   1.000000
    3        3.155164   1.000000
    4        3.155164   1.000000
    5        6.684089   0.000000
    6        9.331296   0.000000
    7        9.331296   0.000000
    8       13.237376   0.000000
 
  0.5000000E+00  0.0000000E+00  0.0000000E+00  0.3756574E-03
    1       -7.073287   1.000000
    2       -3.115685   1.000000
    3        3.134590   1.000000
    4        3.134591   1.000000
    5        6.669679   0.000000
    6        9.328259   0.000000
    7        9.328259   0.000000
    8       13.256168   0.000000
 
  0.4545455E-01  0.4545455E-01  0.0000000E+00  0.5634861E-03
    1       -9.432961   1.000000
    2        4.444886   1.000000
    3        4.549880   1.000000
    4        4.549880   1.000000
    5        7.654609   0.000000
    6        8.056618   0.000000
    7        8.056618   0.000000
    8        8.100673   0.000000
 
  0.9090909E-01  0.4545455E-01  0.0000000E+00  0.2253944E-02
    1       -9.363549   1.000000
    2        3.809031   1.000000
    3        4.351688   1.000000
    4        4.487633   1.000000
    5        7.629862   0.000000
    6        8.036649   0.000000
    7        8.314331   0.000000
    8        8.725468   0.000000
 
  0.1363636E+00  0.4545455E-01  0.0000000E+00  0.2253944E-02
    1       -9.235586   1.000000
    2        2.914286   1.000000
    3        4.116110   1.000000
    4        4.348352   1.000000
    5        7.622439   0.000000
    6        8.103702   0.000000
    7        8.631139   0.000000
    8        9.503159   0.000000
 
  0.1818182E+00  0.4545455E-01  0.0000000E+00  0.2253944E-02
    1       -9.050837   1.000000
    2        1.948486   1.000000
    3        3.875637   1.000000
    4        4.143199   1.000000
    5        7.527285   0.000000
    6        8.324652   0.000000
    7        8.952030   0.000000
    8       10.278715   0.000000
 
  0.2272727E+00  0.4545455E-01  0.0000000E+00  0.2253944E-02
    1       -8.812503   1.000000
    2        0.979030   1.000000
    3        3.651183   1.000000
    4        3.911992   1.000000
    5        7.391040   0.000000
    6        8.597681   0.000000
    7        9.228933   0.000000
    8       11.002487   0.000000
 
  0.2727273E+00  0.4545455E-01  0.0000000E+00  0.2253944E-02
    1       -8.525869   1.000000
    2        0.041460   1.000000
    3        3.455327   1.000000
    4        3.681664   1.000000
    5        7.251439   0.000000
    6        8.841696   0.000000
    7        9.427253   0.000000
    8       11.657838   0.000000
 
  0.3181818E+00  0.4545455E-01  0.0000000E+00  0.2253944E-02
    1       -8.200020   1.000000
    2       -0.838733   1.000000
    3        3.295514   1.000000
    4        3.468443   1.000000
    5        7.124726   0.000000
    6        9.019054   0.000000
    7        9.535086   0.000000
    8       12.234680   0.000000
 
  0.3636364E+00  0.4545455E-01  0.0000000E+00  0.2253944E-02
    1       -7.850864   1.000000
    2       -1.635729   1.000000
    3        3.175908   1.000000
    4        3.282061   1.000000
    5        7.018890   0.000000
    6        9.128305   0.000000
    7        9.564741   0.000000
    8       12.707166   0.000000
 
  0.4090909E+00  0.4545455E-01  0.0000000E+00  0.2253944E-02
    1       -7.507119   1.000000
    2       -2.314628   1.000000
    3        3.098693   1.000000
    4        3.128533   1.000000
    5        6.938174   0.000000
    6        9.190837   0.000000
    7        9.542583   0.000000
    8       13.035525   0.000000
 
  0.4545455E+00  0.4545455E-01  0.0000000E+00  0.2253944E-02
    1       -7.219306   1.000000
    2       -2.821007   1.000000
    3        3.011791   1.000000
    4        3.064681   1.000000
    5        6.884763   0.000000
    6        9.232866   0.000000
    7        9.495523   0.000000
    8       13.213879   0.000000
 
  0.5000000E+00  0.4545455E-01  0.0000000E+00  0.2253944E-02
    1       -7.061664   1.000000
    2       -3.078373   1.000000
    3        2.934524   1.000000
    4        3.073737   1.000000
    5        6.859735   0.000000
    6        9.273972   0.000000
    7        9.442989   0.000000
    8       13.283356   0.000000
 
 -0.4545455E+00  0.4545455E-01  0.0000000E+00  0.2253944E-02
    1       -7.095014   1.000000
    2       -3.024967   1.000000
    3        2.898637   1.000000
    4        3.124991   1.000000
    5        6.863473   0.000000
    6        9.323211   0.000000
    7        9.394264   0.000000
    8       13.278502   0.000000
 
 -0.4090909E+00  0.4545455E-01  0.0000000E+00  0.2253944E-02
    1       -7.304956   1.000000
    2       -2.675341   1.000000
    3        2.905438   1.000000
    4        3.216952   1.000000
    5        6.895905   0.000000
    6        9.348099   0.000000
    7        9.378554   0.000000
    8       13.192498   0.000000
 
 -0.3636364E+00  0.4545455E-01  0.0000000E+00  0.2253944E-02
    1       -7.618757   1.000000
    2       -2.103680   1.000000
    3        2.955654   1.000000
    4        3.347370   1.000000
    5        6.956485   0.000000
    6        9.292937   0.000000
    7        9.426587   0.000000
    8       12.980459   0.000000
 
 -0.3181818E+00  0.4545455E-01  0.0000000E+00  0.2253944E-02
    1       -7.968631   1.000000
    2       -1.380505   1.000000
    3        3.049323   1.000000
    4        3.513047   1.000000
    5        7.043928   0.000000
    6        9.208577   0.000000
    7        9.442761   0.000000
    8       12.604198   0.000000
 
 -0.2727273E+00  0.4545455E-01  0.0000000E+00  0.2253944E-02
    1       -8.312401   1.000000
    2       -0.552703   1.000000
    3        3.185568   1.000000
    4        3.709261   1.000000
    5        7.155823   0.000000
    6        9.072056   0.000000
    7        9.394696   0.000000
    8       12.083367   0.000000
 
 -0.2272727E+00  0.4545455E-01  0.0000000E+00  0.2253944E-02
    1       -8.626479   1.000000
    2        0.348701   1.000000
    3        3.362187   1.000000
    4        3.928651   1.000000
    5        7.287676   0.000000
    6        8.869505   0.000000
    7        9.253537   0.000000
    8       11.467444   0.000000
 
 -0.1818182E+00  0.4545455E-01  0.0000000E+00  0.2253944E-02
    1       -8.897769   1.000000
    2        1.298266   1.000000
    3        3.575071   1.000000
    4        4.159401   1.000000
    5        7.431548   0.000000
    6        8.609382   0.000000
    7        9.012291   0.000000
    8       10.787876   0.000000
 
 -0.1363636E+00  0.4545455E-01  0.0000000E+00  0.2253944E-02
    1       -9.118666   1.000000
    2        2.266508   1.000000
    3        3.817590   1.000000
    4        4.382323   1.000000
    5        7.573383   0.000000
    6        8.326774   0.000000
    7        8.697346   0.000000
    8       10.058323   0.000000
 
 -0.9090909E-01  0.4545455E-01  0.0000000E+00  0.2253944E-02
    1       -9.284733   1.000000
    2        3.203158   1.000000
    3        4.081558   1.000000
    4        4.567227   1.000000
    5        7.686838   0.000000
    6        8.076791   0.000000
    7        8.364934   0.000000
    8        9.303184   0.000000
 
 -0.4545455E-01  0.4545455E-01  0.0000000E+00  0.1126972E-02
    1       -9.393295   1.000000
    2        3.982249   1.000000
    3        4.374993   1.000000
    4        4.673946   1.000000
    5        7.721630   0.000000
    6        7.922615   0.000000
    7        8.100588   0.000000
    8        8.603163   0.000000
 
  0.9090909E-01  0.9090909E-01  0.0000000E+00  0.5634861E-03
    1       -9.313959   1.000000
    2        3.777553   1.000000
    3        4.126782   1.000000
    4        4.126782   1.000000
    5        7.438699   0.000000
    6        8.609161   0.000000
    7        8.609161   0.000000
    8        8.625770   0.000000
 
  0.1363636E+00  0.9090909E-01  0.0000000E+00  0.2253944E-02
    1       -9.205594   1.000000
    2        3.094605   1.000000
    3        3.876167   1.000000
    4        4.008044   1.000000
    5        7.400675   0.000000
    6        8.516669   0.000000
    7        8.955783   0.000000
    8        9.357809   0.000000
 
  0.1818182E+00  0.9090909E-01  0.0000000E+00  0.2253944E-02
    1       -9.039928   1.000000
    2        2.204570   1.000000
    3        3.628817   1.000000
    4        3.859608   1.000000
    5        7.497868   0.000000
    6        8.446110   0.000000
    7        9.303961   0.000000
    8       10.071037   0.000000
 
  0.2272727E+00  0.9090909E-01  0.0000000E+00  0.2253944E-02
    1       -8.819651   1.000000
    2        1.271124   1.000000
    3        3.403332   1.000000
    4        3.646292   1.000000
    5        7.595128   0.000000
    6        8.474973   0.000000
    7        9.607142   0.000000
    8       10.682916   0.000000
 
  0.2727273E+00  0.9090909E-01  0.0000000E+00  0.2253944E-02
    1       -8.549234   1.000000
    2        0.346982   1.000000
    3        3.211207   1.000000
    4        3.404990   1.000000
    5        7.591962   0.000000
    6        8.630018   0.000000
    7        9.828277   0.000000
    8       11.189551   0.000000
 
  0.3181818E+00  0.9090909E-01  0.0000000E+00  0.2253944E-02
    1       -8.236303   1.000000
    2       -0.535714   1.000000
    3        3.059293   1.000000
    4        3.163272   1.000000
    5        7.519391   0.000000
    6        8.821181   0.000000
    7        9.949652   0.000000
    8       11.647851   0.000000
 
  0.3636364E+00  0.9090909E-01  0.0000000E+00  0.2253944E-02
    1       -7.894018   1.000000
    2       -1.349523   1.000000
    3        2.938085   1.000000
    4        2.951541   1.000000
    5        7.430977   0.000000
    6        8.970527   0.000000
    7        9.978563   0.000000
    8       12.114935   0.000000
 
  0.4090909E+00  0.9090909E-01  0.0000000E+00  0.2253944E-02
    1       -7.545971   1.000000
    2       -2.062093   1.000000
    3        2.739825   1.000000
    4        2.889903   1.000000
    5        7.352729   0.000000
    6        9.067539   0.000000
    7        9.940126   0.000000
    8       12.583671   0.000000
 
  0.4545455E+00  0.9090909E-01  0.0000000E+00  0.2253944E-02
    1       -7.234266   1.000000
    2       -2.625814   1.000000
    3        2.575249   1.000000
    4        2.874921   1.000000
    5        7.295675   0.000000
    6        9.135405   0.000000
    7        9.863287   0.000000
    8       12.985417   0.000000
 
  0.5000000E+00  0.9090909E-01  0.0000000E+00  0.2253944E-02
    1       -7.026242   1.000000
    2       -2.970116   1.000000
    3        2.449124   1.000000
    4        2.906040   1.000000
    5        7.264562   0.000000
    6        9.199336   0.000000
    7        9.770951   0.000000
    8       13.245228   0.000000
 
 -0.4545455E+00  0.9090909E-01  0.0000000E+00  0.2253944E-02
    1       -6.993777   1.000000
    2       -3.021478   1.000000
    3        2.365000   1.000000
    4        2.981771   1.000000
    5        7.261135   0.000000
    6        9.274577   0.000000
    7        9.676087   0.000000
    8       13.331995   0.000000
 
 -0.4090909E+00  0.9090909E-01  0.0000000E+00  0.2253944E-02
    1       -7.150786   1.000000
    2       -2.765870   1.000000
    3        2.325635   1.000000
    4        3.099680   1.000000
    5        7.285516   0.000000
    6        9.364493   0.000000
    7        9.580971   0.000000
    8       13.240067   0.000000
 
 -0.3636364E+00  0.9090909E-01  0.0000000E+00  0.2253944E-02
    1       -7.436980   1.000000
    2       -2.264831   1.000000
    3        2.333215   1.000000
    4        3.256335   1.000000
    5        7.336776   0.000000
    6        9.460043   0.000000
    7        9.477674   0.000000
    8       12.964064   0.000000
 
 -0.3181818E+00  0.9090909E-01  0.0000000E+00  0.2253944E-02
    1       -7.778865   1.000000
    2       -1.594917   1.000000
    3        2.389475   1.000000
    4        3.446885   1.000000
    5        7.412918   0.000000
    6        9.349572   0.000000
    7        9.537559   0.000000
    8       12.531876   0.000000
 
 -0.2727273E+00  0.9090909E-01  0.0000000E+00  0.2253944E-02
    1       -8.126262   1.000000
    2       -0.811770   1.000000
    3        2.495917   1.000000
    4        3.664500   1.000000
    5        7.510377   0.000000
    6        9.177142   0.000000
    7        9.556223   0.000000
    8       12.017056   0.000000
 
 -0.2272727E+00  0.9090909E-01  0.0000000E+00  0.2253944E-02
    1       -8.450608   1.000000
    2        0.046465   1.000000
    3        2.654334   1.000000
    4        3.899048   1.000000
    5        7.622576   0.000000
    6        8.949728   0.000000
    7        9.463910   0.000000
    8       11.492654   0.000000
 
 -0.1818182E+00  0.9090909E-01  0.0000000E+00  0.2253944E-02
    1       -8.735990   1.000000
    2        0.946110   1.000000
    3        2.868772   1.000000
    4        4.135034   1.000000
    5        7.736650   0.000000
    6        8.679088   0.000000
    7        9.230694   0.000000
    8       10.984355   0.000000
 
 -0.1363636E+00  0.9090909E-01  0.0000000E+00  0.2253944E-02
    1       -8.973336   1.000000
    2        1.840517   1.000000
    3        3.152444   1.000000
    4        4.348624   1.000000
    5        7.824595   0.000000
    6        8.404029   0.000000
    7        8.896613   0.000000
    8       10.458248   0.000000
 
 -0.9090909E-01  0.9090909E-01  0.0000000E+00  0.1126972E-02
    1       -9.157308   1.000000
    2        2.635630   1.000000
    3        3.547701   1.000000
    4        4.505581   1.000000
    5        7.823574   0.000000
    6        8.182879   0.000000
    7        8.576507   0.000000
    8        9.880862   0.000000
 
  0.1363636E+00  0.1363636E+00  0.0000000E+00  0.5634861E-03
    1       -9.116870   1.000000
    2        2.948581   1.000000
    3        3.615597   1.000000
    4        3.615597   1.000000
    5        7.151904   0.000000
    6        9.116603   0.000000
    7        9.332799   0.000000
    8        9.332799   0.000000
 
  0.1818182E+00  0.1363636E+00  0.0000000E+00  0.2253944E-02
    1       -8.970614   1.000000
    2        2.303253   1.000000
    3        3.361683   1.000000
    4        3.435359   1.000000
    5        7.106685   0.000000
    6        9.050463   0.000000
    7        9.714677   0.000000
    8        9.935526   0.000000
 
  0.2272727E+00  0.1363636E+00  0.0000000E+00  0.2253944E-02
    1       -8.769057   1.000000
    2        1.474151   1.000000
    3        3.132279   1.000000
    4        3.244873   1.000000
    5        7.230176   0.000000
    6        8.954575   0.000000
    7       10.055753   0.000000
    8       10.438925   0.000000
 
  0.2727273E+00  0.1363636E+00  0.0000000E+00  0.2253944E-02
    1       -8.516036   1.000000
    2        0.604990   1.000000
    3        2.938672   1.000000
    4        3.001873   1.000000
    5        7.407518   0.000000
    6        8.935269   0.000000
    7       10.315856   0.000000
    8       10.767058   0.000000
 
  0.3181818E+00  0.1363636E+00  0.0000000E+00  0.2253944E-02
    1       -8.218001   1.000000
    2       -0.251190   1.000000
    3        2.736714   1.000000
    4        2.787791   1.000000
    5        7.527641   0.000000
    6        9.016551   0.000000
    7       10.470205   0.000000
    8       11.024547   0.000000
 
  0.3636364E+00  0.1363636E+00  0.0000000E+00  0.2253944E-02
    1       -7.885954   1.000000
    2       -1.059620   1.000000
    3        2.475522   1.000000
    4        2.683719   1.000000
    5        7.562303   0.000000
    6        9.144738   0.000000
    7       10.518603   0.000000
    8       11.350639   0.000000
 
  0.4090909E+00  0.1363636E+00  0.0000000E+00  0.2253944E-02
    1       -7.539374   1.000000
    2       -1.786772   1.000000
    3        2.234939   1.000000
    4        2.628568   1.000000
    5        7.551047   0.000000
    6        9.245876   0.000000
    7       10.482594   0.000000
    8       11.808555   0.000000
 
  0.4545455E+00  0.1363636E+00  0.0000000E+00  0.2253944E-02
    1       -7.213081   1.000000
    2       -2.389171   1.000000
    3        2.025494   1.000000
    4        2.622955   1.000000
    5        7.533415   0.000000
    6        9.307868   0.000000
    7       10.391992   0.000000
    8       12.355530   0.000000
 
  0.5000000E+00  0.1363636E+00  0.0000000E+00  0.2253944E-02
    1       -6.965664   1.000000
    2       -2.803042   1.000000
    3        1.854350   1.000000
    4        2.666313   1.000000
    5        7.530417   0.000000
    6        9.356012   0.000000
    7       10.272766   0.000000
    8       12.879054   0.000000
 
 -0.4545455E+00  0.1363636E+00  0.0000000E+00  0.2253944E-02
    1       -6.871629   1.000000
    2       -2.951125   1.000000
    3        1.726775   1.000000
    4        2.756961   1.000000
    5        7.550498   0.000000
    6        9.413976   0.000000
    7       10.141272   0.000000
    8       13.223292   0.000000
 
 -0.4090909E+00  0.1363636E+00  0.0000000E+00  0.2253944E-02
    1       -6.969451   1.000000
    2       -2.794292   1.000000
    3        1.647030   1.000000
    4        2.892042   1.000000
    5        7.595247   0.000000
    6        9.493664   0.000000
    7       10.002849   0.000000
    8       13.245760   0.000000
 
 -0.3636364E+00  0.1363636E+00  0.0000000E+00  0.2253944E-02
    1       -7.219048   1.000000
    2       -2.374056   1.000000
    3        1.618954   1.000000
    4        3.067327   1.000000
    5        7.662545   0.000000
    6        9.594480   0.000000
    7        9.852262   0.000000
    8       12.940162   0.000000
 
 -0.3181818E+00  0.1363636E+00  0.0000000E+00  0.2253944E-02
    1       -7.545937   1.000000
    2       -1.769034   1.000000
    3        1.646622   1.000000
    4        3.276780   1.000000
    5        7.747792   0.000000
    6        9.675683   0.000000
    7        9.700164   0.000000
    8       12.434129   0.000000
 
 -0.2727273E+00  0.1363636E+00  0.0000000E+00  0.2253944E-02
    1       -7.892207   1.000000
    2       -1.045607   1.000000
    3        1.735653   1.000000
    4        3.511784   1.000000
    5        7.843685   0.000000
    6        9.457144   0.000000
    7        9.769148   0.000000
    8       11.874211   0.000000
 
 -0.2272727E+00  0.1363636E+00  0.0000000E+00  0.2253944E-02
    1       -8.223514   1.000000
    2       -0.255085   1.000000
    3        1.896516   1.000000
    4        3.759665   1.000000
    5        7.937613   0.000000
    6        9.190855   0.000000
    7        9.722726   0.000000
    8       11.388334   0.000000
 
 -0.1818182E+00  0.1363636E+00  0.0000000E+00  0.2253944E-02
    1       -8.520651   1.000000
    2        0.546996   1.000000
    3        2.153356   1.000000
    4        4.001572   1.000000
    5        8.004110   0.000000
    6        8.894464   0.000000
    7        9.492941   0.000000
    8       11.052166   0.000000
 
 -0.1363636E+00  0.1363636E+00  0.0000000E+00  0.1126972E-02
    1       -8.772722   1.000000
    2        1.275012   1.000000
    3        2.558854   1.000000
    4        4.209966   1.000000
    5        7.989281   0.000000
    6        8.612110   0.000000
    7        9.161771   0.000000
    8       10.787072   0.000000
 
  0.1818182E+00  0.1818182E+00  0.0000000E+00  0.5634861E-03
    1       -8.843795   1.000000
    2        2.057733   1.000000
    3        3.101349   1.000000
    4        3.101350   1.000000
    5        6.846496   0.000000
    6        9.319923   0.000000
    7       10.138021   0.000000
    8       10.138021   0.000000
 
  0.2272727E+00  0.1818182E+00  0.0000000E+00  0.2253944E-02
    1       -8.661355   1.000000
    2        1.465479   1.000000
    3        2.865925   1.000000
    4        2.878338   1.000000
    5        6.810365   0.000000
    6        9.229899   0.000000
    7       10.528464   0.000000
    8       10.547204   0.000000
 
  0.2727273E+00  0.1818182E+00  0.0000000E+00  0.2253944E-02
    1       -8.426618   1.000000
    2        0.726640   1.000000
    3        2.628238   1.000000
    4        2.667065   1.000000
    5        6.953315   0.000000
    6        9.144986   0.000000
    7       10.780187   0.000000
    8       10.842978   0.000000
 
  0.3181818E+00  0.1818182E+00  0.0000000E+00  0.2253944E-02
    1       -8.145088   1.000000
    2       -0.051801   1.000000
    3        2.336544   1.000000
    4        2.512079   1.000000
    5        7.155565   0.000000
    6        9.183153   0.000000
    7       10.858635   0.000000
    8       11.049312   0.000000
 
  0.3636364E+00  0.1818182E+00  0.0000000E+00  0.2253944E-02
    1       -7.826118   1.000000
    2       -0.816848   1.000000
    3        2.033445   1.000000
    4        2.405427   1.000000
    5        7.307329   0.000000
    6        9.375659   0.000000
    7       10.919857   0.000000
    8       11.137692   0.000000
 
  0.4090909E+00  0.1818182E+00  0.0000000E+00  0.2253944E-02
    1       -7.485955   1.000000
    2       -1.528351   1.000000
    3        1.744109   1.000000
    4        2.349514   1.000000
    5        7.383818   0.000000
    6        9.627628   0.000000
    7       11.113934   0.000000
    8       11.123329   0.000000
 
  0.4545455E+00  0.1818182E+00  0.0000000E+00  0.2253944E-02
    1       -7.153480   1.000000
    2       -2.142874   1.000000
    3        1.484533   1.000000
    4        2.345240   1.000000
    5        7.423498   0.000000
    6        9.794285   0.000000
    7       11.035351   0.000000
    8       11.545162   0.000000
 
  0.5000000E+00  0.1818182E+00  0.0000000E+00  0.2253944E-02
    1       -6.878473   1.000000
    2       -2.601733   1.000000
    3        1.264951   1.000000
    4        2.392195   1.000000
    5        7.464264   0.000000
    6        9.864871   0.000000
    7       10.902284   0.000000
    8       12.152908   0.000000
 
 -0.4545455E+00  0.1818182E+00  0.0000000E+00  0.2253944E-02
    1       -6.731836   1.000000
    2       -2.829156   1.000000
    3        1.092615   1.000000
    4        2.488770   1.000000
    5        7.525556   0.000000
    6        9.902031   0.000000
    7       10.743682   0.000000
    8       12.762356   0.000000
 
 -0.4090909E+00  0.1818182E+00  0.0000000E+00  0.2253944E-02
    1       -6.768833   1.000000
    2       -2.768312   1.000000
    3        0.973545   1.000000
    4        2.632031   1.000000
    5        7.613194   0.000000
    6        9.945953   0.000000
    7       10.567412   0.000000
    8       13.095961   0.000000
 
 -0.3636364E+00  0.1818182E+00  0.0000000E+00  0.2253944E-02
    1       -6.973718   1.000000
    2       -2.436992   1.000000
    3        0.913887   1.000000
    4        2.817446   1.000000
    5        7.724434   0.000000
    6       10.012864   0.000000
    7       10.370071   0.000000
    8       12.897470   0.000000
 
 -0.3181818E+00  0.1818182E+00  0.0000000E+00  0.2253944E-02
    1       -7.277696   1.000000
    2       -1.910978   1.000000
    3        0.921880   1.000000
    4        3.038346   1.000000
    5        7.850291   0.000000
    6       10.101655   0.000000
    7       10.139674   0.000000
    8       12.350613   0.000000
 
 -0.2727273E+00  0.1818182E+00  0.0000000E+00  0.2253944E-02
    1       -7.616863   1.000000
    2       -1.270380   1.000000
    3        1.011832   1.000000
    4        3.285027   1.000000
    5        7.975634   0.000000
    6        9.863643   0.000000
    7       10.183150   0.000000
    8       11.726628   0.000000
 
 -0.2272727E+00  0.1818182E+00  0.0000000E+00  0.2253944E-02
    1       -7.950729   1.000000
    2       -0.590510   1.000000
    3        1.213081   1.000000
    4        3.543231   1.000000
    5        8.075982   0.000000
    6        9.542718   0.000000
    7       10.150751   0.000000
    8       11.234711   0.000000
 
 -0.1818182E+00  0.1818182E+00  0.0000000E+00  0.1126972E-02
    1       -8.256355   1.000000
    2        0.040261   1.000000
    3        1.579878   1.000000
    4        3.791988   1.000000
    5        8.108189   0.000000
    6        9.202869   0.000000
    7        9.861226   0.000000
    8       11.061634   0.000000
 
  0.2272727E+00  0.2272727E+00  0.0000000E+00  0.5634861E-03
    1       -8.498138   1.000000
    2        1.146340   1.000000
    3        2.623258   1.000000
    4        2.623258   1.000000
    5        6.561604   0.000000
    6        9.103138   0.000000
    7       10.979473   0.000000
    8       10.979473   0.000000
 
  0.2727273E+00  0.2272727E+00  0.0000000E+00  0.2253944E-02
    1       -8.282263   1.000000
    2        0.602925   1.000000
    3        2.379755   1.000000
    4        2.416706   1.000000
    5        6.546508   0.000000
    6        8.912967   0.000000
    7       11.299526   0.000000
    8       11.363303   0.000000
 
  0.3181818E+00  0.2272727E+00  0.0000000E+00  0.2253944E-02
    1       -8.018545   1.000000
    2       -0.038672   1.000000
    3        2.072557   1.000000
    4        2.254186   1.000000
    5        6.710134   0.000000
    6        8.826007   0.000000
    7       11.399697   0.000000
    8       11.640510   0.000000
 
  0.3636364E+00  0.2272727E+00  0.0000000E+00  0.2253944E-02
    1       -7.715094   1.000000
    2       -0.707727   1.000000
    3        1.722901   1.000000
    4        2.140641   1.000000
    5        6.920112   0.000000
    6        8.938952   0.000000
    7       11.375299   0.000000
    8       11.790089   0.000000
 
  0.4090909E+00  0.2272727E+00  0.0000000E+00  0.2253944E-02
    1       -7.385728   1.000000
    2       -1.357856   1.000000
    3        1.371433   1.000000
    4        2.078880   1.000000
    5        7.069752   0.000000
    6        9.292554   0.000000
    7       11.326410   0.000000
    8       11.817810   0.000000
 
  0.4545455E+00  0.2272727E+00  0.0000000E+00  0.2253944E-02
    1       -7.054719   1.000000
    2       -1.944432   1.000000
    3        1.046788   1.000000
    4        2.070125   1.000000
    5        7.155953   0.000000
    6        9.804089   0.000000
    7       11.339852   0.000000
    8       11.749387   0.000000
 
  0.5000000E+00  0.2272727E+00  0.0000000E+00  0.2253944E-02
    1       -6.764098   1.000000
    2       -2.412090   1.000000
    3        0.765958   1.000000
    4        2.114257   1.000000
    5        7.225387   0.000000
    6       10.268582   0.000000
    7       11.555121   0.000000
    8       11.614959   0.000000
 