       N       E                     dE             d eps       ncg     rms          rms(c)
DAV:   1     0.949437277755E+01    0.94944E+01   -0.38012E+03  5256   0.857E+02
DAV:   2    -0.113642275020E+02   -0.20859E+02   -0.20423E+02  8264   0.996E+01
DAV:   3    -0.116626902631E+02   -0.29846E+00   -0.29846E+00  6136   0.142E+01
DAV:   4    -0.116631108829E+02   -0.42062E-03   -0.42062E-03  7768   0.576E-01
DAV:   5    -0.116631111004E+02   -0.21743E-06   -0.21743E-06  6080   0.885E-03    0.335E+00
RMM:   6    -0.112786467401E+02    0.38446E+00   -0.43639E-01  5304   0.412E+00    0.149E+00
RMM:   7    -0.112443955346E+02    0.34251E-01   -0.59499E-02  5611   0.157E+00    0.710E-01
RMM:   8    -0.112397685884E+02    0.46269E-02   -0.18295E-02  5572   0.104E+00    0.810E-02
RMM:   9    -0.112402035437E+02   -0.43496E-03   -0.13547E-03  5861   0.257E-01    0.546E-02
RMM:  10    -0.112400804181E+02    0.12313E-03   -0.10480E-04  5803   0.749E-02    0.166E-02
RMM:  11    -0.112400830498E+02   -0.26317E-05   -0.84948E-05  5694   0.556E-02    0.120E-02
RMM:  12    -0.112400745678E+02    0.84820E-05   -0.93245E-06  5703   0.204E-02    0.720E-04
RMM:  13    -0.112400746002E+02   -0.32444E-07   -0.19870E-07  3907   0.334E-03
   1 F= -.11240075E+02 E0= -.11240075E+02  d E =0.000000E+00
