   3   3   0   0
  0.2140360E+02  0.4494772E-09  0.4494772E-09  0.4494772E-09  0.5000000E-15
  1.000000000000000E-004
  CAR
 unknown system
     13.42421580    -25.04874458  301      8.98457823      1.00000000
    -25.049  0.0000E+00  0.0000E+00
    -24.921  0.0000E+00  0.0000E+00
    -24.792  0.0000E+00  0.0000E+00
    -24.664  0.0000E+00  0.0000E+00
    -24.536  0.0000E+00  0.0000E+00
    -24.408  0.0000E+00  0.0000E+00
    -24.279  0.0000E+00  0.0000E+00
    -24.151  0.0000E+00  0.0000E+00
    -24.023  0.0000E+00  0.0000E+00
    -23.895  0.0000E+00  0.0000E+00
    -23.766  0.0000E+00  0.0000E+00
    -23.638  0.0000E+00  0.0000E+00
    -23.510  0.0000E+00  0.0000E+00
    -23.382  0.0000E+00  0.0000E+00
    -23.253  0.4679E+02  0.6000E+01
    -23.125  0.0000E+00  0.6000E+01
    -22.997  0.0000E+00  0.6000E+01
    -22.869  0.0000E+00  0.6000E+01
    -22.740  0.0000E+00  0.6000E+01
    -22.612  0.0000E+00  0.6000E+01
    -22.484  0.0000E+00  0.6000E+01
    -22.356  0.0000E+00  0.6000E+01
    -22.227  0.0000E+00  0.6000E+01
    -22.099  0.0000E+00  0.6000E+01
    -21.971  0.0000E+00  0.6000E+01
    -21.843  0.0000E+00  0.6000E+01
    -21.714  0.0000E+00  0.6000E+01
    -21.586  0.0000E+00  0.6000E+01
    -21.458  0.0000E+00  0.6000E+01
    -21.330  0.0000E+00  0.6000E+01
    -21.201  0.0000E+00  0.6000E+01
    -21.073  0.0000E+00  0.6000E+01
    -20.945  0.0000E+00  0.6000E+01
    -20.817  0.0000E+00  0.6000E+01
    -20.688  0.0000E+00  0.6000E+01
    -20.560  0.0000E+00  0.6000E+01
    -20.432  0.0000E+00  0.6000E+01
    -20.304  0.0000E+00  0.6000E+01
    -20.176  0.0000E+00  0.6000E+01
    -20.047  0.0000E+00  0.6000E+01
    -19.919  0.0000E+00  0.6000E+01
    -19.791  0.0000E+00  0.6000E+01
    -19.663  0.0000E+00  0.6000E+01
    -19.534  0.0000E+00  0.6000E+01
    -19.406  0.0000E+00  0.6000E+01
    -19.278  0.0000E+00  0.6000E+01
    -19.150  0.0000E+00  0.6000E+01
    -19.021  0.0000E+00  0.6000E+01
    -18.893  0.0000E+00  0.6000E+01
    -18.765  0.0000E+00  0.6000E+01
    -18.637  0.0000E+00  0.6000E+01
    -18.508  0.0000E+00  0.6000E+01
    -18.380  0.0000E+00  0.6000E+01
    -18.252  0.0000E+00  0.6000E+01
    -18.124  0.0000E+00  0.6000E+01
    -17.995  0.0000E+00  0.6000E+01
    -17.867  0.0000E+00  0.6000E+01
    -17.739  0.0000E+00  0.6000E+01
    -17.611  0.0000E+00  0.6000E+01
    -17.482  0.0000E+00  0.6000E+01
    -17.354  0.0000E+00  0.6000E+01
    -17.226  0.0000E+00  0.6000E+01
    -17.098  0.0000E+00  0.6000E+01
    -16.969  0.0000E+00  0.6000E+01
    -16.841  0.0000E+00  0.6000E+01
    -16.713  0.0000E+00  0.6000E+01
    -16.585  0.0000E+00  0.6000E+01
    -16.456  0.0000E+00  0.6000E+01
    -16.328  0.0000E+00  0.6000E+01
    -16.200  0.0000E+00  0.6000E+01
    -16.072  0.0000E+00  0.6000E+01
    -15.943  0.0000E+00  0.6000E+01
    -15.815  0.0000E+00  0.6000E+01
    -15.687  0.0000E+00  0.6000E+01
    -15.559  0.0000E+00  0.6000E+01
    -15.431  0.0000E+00  0.6000E+01
    -15.302  0.0000E+00  0.6000E+01
    -15.174  0.0000E+00  0.6000E+01
    -15.046  0.0000E+00  0.6000E+01
    -14.918  0.0000E+00  0.6000E+01
    -14.789  0.0000E+00  0.6000E+01
    -14.661  0.0000E+00  0.6000E+01
    -14.533  0.0000E+00  0.6000E+01
    -14.405  0.0000E+00  0.6000E+01
    -14.276  0.0000E+00  0.6000E+01
    -14.148  0.0000E+00  0.6000E+01
    -14.020  0.0000E+00  0.6000E+01
    -13.892  0.0000E+00  0.6000E+01
    -13.763  0.0000E+00  0.6000E+01
    -13.635  0.0000E+00  0.6000E+01
    -13.507  0.0000E+00  0.6000E+01
    -13.379  0.0000E+00  0.6000E+01
    -13.250  0.0000E+00  0.6000E+01
    -13.122  0.0000E+00  0.6000E+01
    -12.994  0.0000E+00  0.6000E+01
    -12.866  0.0000E+00  0.6000E+01
    -12.737  0.0000E+00  0.6000E+01
    -12.609  0.0000E+00  0.6000E+01
    -12.481  0.0000E+00  0.6000E+01
    -12.353  0.0000E+00  0.6000E+01
    -12.224  0.0000E+00  0.6000E+01
    -12.096  0.0000E+00  0.6000E+01
    -11.968  0.0000E+00  0.6000E+01
    -11.840  0.0000E+00  0.6000E+01
    -11.711  0.0000E+00  0.6000E+01
    -11.583  0.0000E+00  0.6000E+01
    -11.455  0.0000E+00  0.6000E+01
    -11.327  0.0000E+00  0.6000E+01
    -11.198  0.0000E+00  0.6000E+01
    -11.070  0.0000E+00  0.6000E+01
    -10.942  0.0000E+00  0.6000E+01
    -10.814  0.0000E+00  0.6000E+01
    -10.686  0.0000E+00  0.6000E+01
    -10.557  0.0000E+00  0.6000E+01
    -10.429  0.0000E+00  0.6000E+01
    -10.301  0.0000E+00  0.6000E+01
    -10.173  0.0000E+00  0.6000E+01
    -10.044  0.0000E+00  0.6000E+01
     -9.916  0.0000E+00  0.6000E+01
     -9.788  0.0000E+00  0.6000E+01
     -9.660  0.0000E+00  0.6000E+01
     -9.531  0.0000E+00  0.6000E+01
     -9.403  0.0000E+00  0.6000E+01
     -9.275  0.0000E+00  0.6000E+01
     -9.147  0.0000E+00  0.6000E+01
     -9.018  0.0000E+00  0.6000E+01
     -8.890  0.0000E+00  0.6000E+01
     -8.762  0.0000E+00  0.6000E+01
     -8.634  0.0000E+00  0.6000E+01
     -8.505  0.0000E+00  0.6000E+01
     -8.377  0.0000E+00  0.6000E+01
     -8.249  0.0000E+00  0.6000E+01
     -8.121  0.0000E+00  0.6000E+01
     -7.992  0.0000E+00  0.6000E+01
     -7.864  0.0000E+00  0.6000E+01
     -7.736  0.0000E+00  0.6000E+01
     -7.608  0.0000E+00  0.6000E+01
     -7.479  0.0000E+00  0.6000E+01
     -7.351  0.0000E+00  0.6000E+01
     -7.223  0.0000E+00  0.6000E+01
     -7.095  0.0000E+00  0.6000E+01
     -6.966  0.0000E+00  0.6000E+01
     -6.838  0.0000E+00  0.6000E+01
     -6.710  0.0000E+00  0.6000E+01
     -6.582  0.0000E+00  0.6000E+01
     -6.453  0.0000E+00  0.6000E+01
     -6.325  0.0000E+00  0.6000E+01
     -6.197  0.0000E+00  0.6000E+01
     -6.069  0.0000E+00  0.6000E+01
     -5.941  0.0000E+00  0.6000E+01
     -5.812  0.0000E+00  0.6000E+01
     -5.684  0.0000E+00  0.6000E+01
     -5.556  0.0000E+00  0.6000E+01
     -5.428  0.0000E+00  0.6000E+01
     -5.299  0.0000E+00  0.6000E+01
     -5.171  0.0000E+00  0.6000E+01
     -5.043  0.0000E+00  0.6000E+01
     -4.915  0.0000E+00  0.6000E+01
     -4.786  0.0000E+00  0.6000E+01
     -4.658  0.0000E+00  0.6000E+01
     -4.530  0.0000E+00  0.6000E+01
     -4.402  0.0000E+00  0.6000E+01
     -4.273  0.0000E+00  0.6000E+01
     -4.145  0.0000E+00  0.6000E+01
     -4.017  0.0000E+00  0.6000E+01
     -3.889  0.1455E-08  0.6000E+01
     -3.760  0.9132E-01  0.6013E+01
     -3.632  0.9420E-01  0.6026E+01
     -3.504  0.4234E-01  0.6059E+01
     -3.376  0.1874E+00  0.6105E+01
     -3.247  0.2272E+00  0.6154E+01
     -3.119  0.5537E+00  0.6236E+01
     -2.991  0.3407E+00  0.6301E+01
     -2.863  0.5248E+00  0.6376E+01
     -2.734  0.2242E+00  0.6490E+01
     -2.606  0.7798E+00  0.6654E+01
     -2.478  0.1196E+01  0.6857E+01
     -2.350  0.2140E+01  0.7224E+01
     -2.221  0.4189E+01  0.7936E+01
     -2.093  0.0000E+00  0.8000E+01
     -1.965  0.0000E+00  0.8000E+01
     -1.837  0.0000E+00  0.8000E+01
     -1.708  0.0000E+00  0.8000E+01
     -1.580  0.0000E+00  0.8000E+01
     -1.452  0.0000E+00  0.8000E+01
     -1.324  0.0000E+00  0.8000E+01
     -1.196  0.0000E+00  0.8000E+01
     -1.067  0.0000E+00  0.8000E+01
     -0.939  0.0000E+00  0.8000E+01
     -0.811  0.0000E+00  0.8000E+01
     -0.683  0.0000E+00  0.8000E+01
     -0.554  0.0000E+00  0.8000E+01
     -0.426  0.0000E+00  0.8000E+01
     -0.298  0.0000E+00  0.8000E+01
     -0.170  0.0000E+00  0.8000E+01
     -0.041  0.0000E+00  0.8000E+01
      0.087  0.0000E+00  0.8000E+01
      0.215  0.0000E+00  0.8000E+01
      0.343  0.0000E+00  0.8000E+01
      0.472  0.0000E+00  0.8000E+01
      0.600  0.0000E+00  0.8000E+01
      0.728  0.0000E+00  0.8000E+01
      0.856  0.0000E+00  0.8000E+01
      0.985  0.0000E+00  0.8000E+01
      1.113  0.0000E+00  0.8000E+01
      1.241  0.6655E-05  0.8000E+01
      1.369  0.1998E+00  0.8055E+01
      1.498  0.7134E+00  0.8208E+01
      1.626  0.2943E+01  0.8840E+01
      1.754  0.2289E+01  0.9302E+01
      1.882  0.1154E+01  0.9594E+01
      2.011  0.9185E+00  0.9800E+01
      2.139  0.2555E+00  0.9868E+01
      2.267  0.3957E+00  0.9919E+01
      2.395  0.1680E+00  0.9946E+01
      2.524  0.6825E+00  0.1003E+02
      2.652  0.2618E+01  0.1048E+02
      2.780  0.3137E+01  0.1148E+02
      2.908  0.3144E+01  0.1216E+02
      3.037  0.3610E+01  0.1284E+02
      3.165  0.2584E+01  0.1338E+02
      3.293  0.2033E+01  0.1373E+02
      3.421  0.9014E+00  0.1397E+02
      3.549  0.9699E+00  0.1414E+02
      3.678  0.1897E+01  0.1441E+02
      3.806  0.2878E+01  0.1498E+02
      3.934  0.5805E+01  0.1616E+02
      4.062  0.5480E+01  0.1719E+02
      4.191  0.2890E+01  0.1804E+02
      4.319  0.2536E+01  0.1874E+02
      4.447  0.1539E+01  0.1923E+02
      4.575  0.1377E+01  0.1951E+02
      4.704  0.5848E+00  0.1965E+02
      4.832  0.6886E+00  0.1978E+02
      4.960  0.6817E+00  0.1994E+02
      5.088  0.5990E+00  0.2006E+02
      5.217  0.1535E+01  0.2030E+02
      5.345  0.4735E+00  0.2050E+02
      5.473  0.6279E+00  0.2063E+02
      5.601  0.1415E+01  0.2085E+02
      5.730  0.1023E+01  0.2106E+02
      5.858  0.1554E+01  0.2132E+02
      5.986  0.1535E+01  0.2155E+02
      6.114  0.3411E+01  0.2206E+02
      6.243  0.1991E+01  0.2255E+02
      6.371  0.1793E+01  0.2288E+02
      6.499  0.1477E+01  0.2323E+02
      6.627  0.1102E+01  0.2356E+02
      6.756  0.5991E+00  0.2371E+02
      6.884  0.3092E+00  0.2382E+02
      7.012  0.4259E+00  0.2392E+02
      7.140  0.3691E+00  0.2397E+02
      7.269  0.1987E+00  0.2400E+02
      7.397  0.0000E+00  0.2400E+02
      7.525  0.0000E+00  0.2400E+02
      7.653  0.0000E+00  0.2400E+02
      7.782  0.0000E+00  0.2400E+02
      7.910  0.0000E+00  0.2400E+02
      8.038  0.7098E-02  0.2400E+02
      8.166  0.0000E+00  0.2400E+02
      8.294  0.6132E-01  0.2401E+02
      8.423  0.3993E+00  0.2407E+02
      8.551  0.9922E+00  0.2422E+02
      8.679  0.6314E+00  0.2437E+02
      8.807  0.1118E+01  0.2458E+02
      8.936  0.7326E+00  0.2480E+02
      9.064  0.1362E+01  0.2518E+02
      9.192  0.3210E+01  0.2572E+02
      9.320  0.1516E+01  0.2606E+02
      9.449  0.1854E+01  0.2641E+02
      9.577  0.2486E+01  0.2684E+02
      9.705  0.2095E+01  0.2737E+02
      9.833  0.3090E+01  0.2821E+02
      9.962  0.1861E+01  0.2859E+02
     10.090  0.3204E+01  0.2924E+02
     10.218  0.1748E+01  0.2977E+02
     10.346  0.3935E+00  0.2991E+02
     10.475  0.2249E+01  0.3027E+02
     10.603  0.1821E+01  0.3058E+02
     10.731  0.2265E+01  0.3101E+02
     10.859  0.2036E+01  0.3137E+02
     10.988  0.1533E+01  0.3171E+02
     11.116  0.2883E+00  0.3186E+02
     11.244  0.7807E+00  0.3197E+02
     11.372  0.1704E+00  0.3199E+02
     11.501  0.0000E+00  0.3199E+02
     11.629  0.1207E-11  0.3199E+02
     11.757  0.0000E+00  0.3200E+02
     11.885  0.0000E+00  0.3200E+02
     12.014  0.0000E+00  0.3200E+02
     12.142  0.0000E+00  0.3200E+02
     12.270  0.0000E+00  0.3200E+02
     12.398  0.0000E+00  0.3200E+02
     12.527  0.0000E+00  0.3200E+02
     12.655  0.0000E+00  0.3200E+02
     12.783  0.0000E+00  0.3200E+02
     12.911  0.0000E+00  0.3200E+02
     13.039  0.0000E+00  0.3200E+02
     13.168  0.0000E+00  0.3200E+02
     13.296  0.0000E+00  0.3200E+02
     13.424  0.0000E+00  0.3200E+02
