    3    3    1    1
  0.2140360E+02  0.4494772E-09  0.4494772E-09  0.4494772E-09  0.5000000E-15
  1.000000000000000E-004
  CAR
 unknown system
     25     84     16

  0.0000000E+00  0.0000000E+00  0.0000000E+00  0.4551661E-03
    1      -23.281275   1.000000
    2      -23.281275   1.000000
    3      -23.281275   1.000000
    4       -3.852806   1.000000
    5        2.893233   1.000000
    6        2.893233   1.000000
    7        2.893233   1.000000
    8        3.707791   1.000000
    9        3.707791   1.000000
   10        7.307727   1.000000
   11        7.307727   1.000000
   12        7.307727   1.000000
   13        7.989774   1.000000
   14        9.855201   0.000000
   15        9.855201   0.000000
   16        9.855201   0.000000

  0.7692308E-01  0.5874382E-18 -0.1050232E-17  0.3641329E-02
    1      -23.282335   1.000000
    2      -23.281220   1.000000
    3      -23.281220   1.000000
    4       -3.787883   1.000000
    5        2.814389   1.000000
    6        2.865254   1.000000
    7        2.865254   1.000000
    8        3.748413   1.000000
    9        3.748413   1.000000
   10        6.755377   1.000000
   11        7.241880   1.000000
   12        7.241880   1.000000
   13        8.231225   1.000000
   14        9.690875   0.000000
   15        9.690875   0.000000
   16       10.236951   0.000000

  0.1538462E+00  0.3230704E-17 -0.4156292E-17  0.3641329E-02
    1      -23.285267   1.000000
    2      -23.281092   1.000000
    3      -23.281092   1.000000
    4       -3.599740   1.000000
    5        2.595229   1.000000
    6        2.805823   1.000000
    7        2.805823   1.000000
    8        3.838542   1.000000
    9        3.838542   1.000000
   10        5.894820   1.000000
   11        7.076977   1.000000
   12        7.076977   1.000000
   13        8.459993   1.000000
   14        9.590994   0.000000
   15        9.590994   0.000000
   16       11.024370   0.000000

  0.2307692E+00 -0.3309108E-17  0.1920726E-17  0.3641329E-02
    1      -23.289344   1.000000
    2      -23.280905   1.000000
    3      -23.280905   1.000000
    4       -3.309691   1.000000
    5        2.272557   1.000000
    6        2.752602   1.000000
    7        2.752602   1.000000
    8        3.922324   1.000000
    9        3.922324   1.000000
   10        5.106649   1.000000
   11        6.884829   1.000000
   12        6.884829   1.000000
   13        8.639097   1.000000
   14        9.622075   0.000000
   15        9.622075   0.000000
   16       11.675445   0.000000

  0.3076923E+00  0.6461408E-17 -0.8312583E-17  0.3641329E-02
    1      -23.293642   1.000000
    2      -23.280717   1.000000
    3      -23.280717   1.000000
    4       -2.958605   1.000000
    5        1.888851   1.000000
    6        2.723896   1.000000
    7        2.723896   1.000000
    8        3.963690   1.000000
    9        3.963690   1.000000
   10        4.499992   1.000000
   11        6.728052   1.000000
   12        6.728052   1.000000
   13        8.801394   1.000000
   14        9.751786   0.000000
   15        9.751786   0.000000
   16       11.223308   0.000000

  0.3846154E+00  0.1665028E-16  0.3089522E-17  0.3641329E-02
    1      -23.297181   1.000000
    2      -23.280562   1.000000
    3      -23.280562   1.000000
    4       -2.616905   1.000000
    5        1.513958   1.000000
    6        2.718521   1.000000
    7        2.718521   1.000000
    8        3.961689   1.000000
    9        3.961689   1.000000
   10        4.109960   1.000000
   11        6.632553   1.000000
   12        6.632553   1.000000
   13        8.964302   0.997931
   14        9.930025   0.000000
   15        9.930025   0.000000
   16       10.481068   0.000000

  0.4615385E+00  0.1254301E-16 -0.1531978E-16  0.3641329E-02
    1      -23.299148   1.000000
    2      -23.280461   1.000000
    3      -23.280461   1.000000
    4       -2.392724   1.000000
    5        1.267129   1.000000
    6        2.722812   1.000000
    7        2.722812   1.000000
    8        3.925220   1.000000
    9        3.945581   1.000000
   10        3.945581   1.000000
   11        6.591744   1.000000
   12        6.591744   1.000000
   13        9.117559   0.000000
   14        9.997772   0.000000
   15       10.070249   0.000000
   16       10.070249   0.000000

  0.7692308E-01  0.7692308E-01 -0.3289805E-18  0.2730997E-02
    1      -23.282309   1.000000
    2      -23.281395   1.000000
    3      -23.281395   1.000000
    4       -3.766600   1.000000
    5        2.673683   1.000000
    6        2.923974   1.000000
    7        2.923974   1.000000
    8        3.740967   1.000000
    9        3.765511   1.000000
   10        6.794529   1.000000
   11        7.111801   1.000000
   12        7.111801   1.000000
   13        8.303545   1.000000
   14        9.556367   0.000000
   15       10.138088   0.000000
   16       10.138215   0.000000

  0.1538462E+00  0.7692308E-01  0.1481796E-17  0.1092399E-01
    1      -23.284479   1.000000
    2      -23.281468   1.000000
    3      -23.281276   1.000000
    4       -3.620694   1.000000
    5        2.461476   1.000000
    6        2.900202   1.000000
    7        2.926976   1.000000
    8        3.805776   1.000000
    9        3.823487   1.000000
   10        6.144846   1.000000
   11        6.920550   1.000000
   12        6.988002   1.000000
   13        8.541024   1.000000
   14        9.411904   0.000000
   15        9.850450   0.000000
   16       10.623671   0.000000

  0.2307692E+00  0.7692308E-01 -0.2230979E-17  0.1092399E-01
    1      -23.288110   1.000000
    2      -23.281414   1.000000
    3      -23.281097   1.000000
    4       -3.366570   1.000000
    5        2.214135   1.000000
    6        2.808017   1.000000
    7        2.896906   1.000000
    8        3.893637   1.000000
    9        3.900186   1.000000
   10        5.366686   1.000000
   11        6.737243   1.000000
   12        6.815426   1.000000
   13        8.808204   1.000000
   14        9.407618   0.000000
   15        9.736334   0.000000
   16       11.191198   0.000000

  0.3076923E+00  0.7692308E-01  0.1413499E-17  0.1092399E-01
    1      -23.292234   1.000000
    2      -23.281241   1.000000
    3      -23.280991   1.000000
    4       -3.038295   1.000000
    5        1.922763   1.000000
    6        2.720093   1.000000
    7        2.861452   1.000000
    8        3.950319   1.000000
    9        3.957266   1.000000
   10        4.704609   1.000000
   11        6.606781   1.000000
   12        6.642071   1.000000
   13        8.916199   1.000000
   14        9.658385   0.000000
   15        9.750501   0.000000
   16       11.302284   0.000000

  0.3846154E+00  0.7692308E-01 -0.3536371E-17  0.1092399E-01
    1      -23.295919   1.000000
    2      -23.281005   1.000000
    3      -23.281001   1.000000
    4       -2.695071   1.000000
    5        1.607881   1.000000
    6        2.677514   1.000000
    7        2.827507   1.000000
    8        3.963051   1.000000
    9        3.969398   1.000000
   10        4.243849   1.000000
   11        6.513536   1.000000
   12        6.540128   1.000000
   13        8.983660   0.551671
   14        9.872384   0.000000
   15        9.966553   0.000000
   16       10.660503   0.000000

  0.4615385E+00  0.7692308E-01 -0.5593693E-17  0.1092399E-01
    1      -23.298340   1.000000
    2      -23.281118   1.000000
    3      -23.280756   1.000000
    4       -2.429928   1.000000
    5        1.353387   1.000000
    6        2.683464   1.000000
    7        2.787020   1.000000
    8        3.916845   1.000000
    9        3.959873   1.000000
   10        4.026837   1.000000
   11        6.437941   1.000000
   12        6.521954   1.000000
   13        9.101210   0.000000
   14        9.954813   0.000000
   15       10.031900   0.000000
   16       10.340706   0.000000

 -0.4615385E+00  0.7692308E-01  0.2504586E-16  0.1092399E-01
    1      -23.298961   1.000000
    2      -23.281300   1.000000
    3      -23.280538   1.000000
    4       -2.351918   1.000000
    5        1.277988   1.000000
    6        2.723639   1.000000
    7        2.734139   1.000000
    8        3.870219   1.000000
    9        3.971696   1.000000
   10        3.993654   1.000000
   11        6.398037   1.000000
   12        6.538702   1.000000
   13        9.191362   0.000000
   14        9.766569   0.000000
   15       10.098949   0.000000
   16       10.394773   0.000000

 -0.3846154E+00  0.7692308E-01 -0.4767041E-17  0.1092399E-01
    1      -23.297670   1.000000
    2      -23.281512   1.000000
    3      -23.280411   1.000000
    4       -2.501993   1.000000
    5        1.428940   1.000000
    6        2.679115   1.000000
    7        2.781816   1.000000
    8        3.908565   1.000000
    9        3.997685   1.000000
   10        4.075588   1.000000
   11        6.376372   1.000000
   12        6.596731   1.000000
   13        9.098743   0.000000
   14        9.983584   0.000000
   15        9.997567   0.000000
   16       10.391851   0.000000

 -0.3076923E+00  0.7692308E-01 -0.4015110E-17  0.1092399E-01
    1      -23.294742   1.000000
    2      -23.281695   1.000000
    3      -23.280401   1.000000
    4       -2.805410   1.000000
    5        1.728368   1.000000
    6        2.643301   1.000000
    7        2.847061   1.000000
    8        3.928051   1.000000
    9        4.009507   1.000000
   10        4.379400   1.000000
   11        6.378385   1.000000
   12        6.714064   1.000000
   13        9.014895   0.000009
   14        9.794791   0.000000
   15        9.909300   0.000000
   16       10.889145   0.000000

 -0.2307692E+00  0.7692308E-01 -0.6072432E-17  0.1092399E-01
    1      -23.290840   1.000000
    2      -23.281803   1.000000
    3      -23.280520   1.000000
    4       -3.152317   1.000000
    5        2.066811   1.000000
    6        2.644958   1.000000
    7        2.911426   1.000000
    8        3.905902   1.000000
    9        3.980984   1.000000
   10        4.908041   1.000000
   11        6.434703   1.000000
   12        6.893941   1.000000
   13        8.953743   0.999994
   14        9.586237   0.000000
   15        9.736922   0.000000
   16       11.190875   0.000000

 -0.1538462E+00  0.7692308E-01 -0.2846314E-17  0.1092399E-01
    1      -23.286849   1.000000
    2      -23.281772   1.000000
    3      -23.280725   1.000000
    4       -3.461184   1.000000
    5        2.379699   1.000000
    6        2.691017   1.000000
    7        2.958249   1.000000
    8        3.842941   1.000000
    9        3.910003   1.000000
   10        5.609489   1.000000
   11        6.582693   1.000000
   12        7.097715   1.000000
   13        8.787635   1.000000
   14        9.448186   0.000000
   15        9.720331   0.000000
   16       10.708198   0.000000

 -0.7692308E-01  0.7692308E-01  0.1174876E-17  0.5461994E-02
    1      -23.283772   1.000000
    2      -23.281572   1.000000
    3      -23.280986   1.000000
    4       -3.682254   1.000000
    5        2.639720   1.000000
    6        2.773411   1.000000
    7        2.949789   1.000000
    8        3.776146   1.000000
    9        3.819345   1.000000
   10        6.322142   1.000000
   11        6.875257   1.000000
   12        7.240036   1.000000
   13        8.481869   1.000000
   14        9.461921   0.000000
   15        9.844795   0.000000
   16       10.271301   0.000000

  0.1538462E+00  0.1538462E+00 -0.6579609E-18  0.2730997E-02
    1      -23.285229   1.000000
    2      -23.281758   1.000000
    3      -23.281758   1.000000
    4       -3.521678   1.000000
    5        2.214505   1.000000
    6        3.010985   1.000000
    7        3.010985   1.000000
    8        3.804399   1.000000
    9        3.836035   1.000000
   10        6.094181   1.000000
   11        6.710614   1.000000
   12        6.710614   1.000000
   13        8.504313   1.000000
   14        9.429781   0.000000
   15        9.904913   0.000000
   16       10.741113   0.000000

  0.2307692E+00  0.1538462E+00  0.5462937E-17  0.1092399E-01
    1      -23.287887   1.000000
    2      -23.281888   1.000000
    3      -23.281823   1.000000
    4       -3.315023   1.000000
    5        1.981645   1.000000
    6        3.002961   1.000000
    7        3.039141   1.000000
    8        3.824672   1.000000
    9        3.912568   1.000000
   10        5.574445   1.000000
   11        6.522114   1.000000
   12        6.522580   1.000000
   13        8.710028   1.000000
   14        9.411135   0.000000
   15        9.765248   0.000000
   16       11.083832   0.000000

  0.3076923E+00  0.1538462E+00 -0.6007467E-17  0.1092399E-01
    1      -23.291372   1.000000
    2      -23.281948   1.000000
    3      -23.281854   1.000000
    4       -3.029659   1.000000
    5        1.777755   1.000000
    6        2.900329   1.000000
    7        3.026830   1.000000
    8        3.883918   1.000000
    9        3.979641   1.000000
   10        4.945334   1.000000
   11        6.331014   1.000000
   12        6.401106   1.000000
   13        8.934398   1.000000
   14        9.617683   0.000000
   15        9.696603   0.000000
   16       11.209962   0.000000

  0.3846154E+00  0.1538462E+00 -0.8106436E-17  0.1092399E-01
    1      -23.294654   1.000000
    2      -23.282293   1.000000
    3      -23.281646   1.000000
    4       -2.715685   1.000000
    5        1.603118   1.000000
    6        2.775007   1.000000
    7        2.986532   1.000000
    8        3.933967   1.000000
    9        4.006846   1.000000
   10        4.423487   1.000000
   11        6.169123   1.000000
   12        6.353974   1.000000
   13        8.954599   0.999989
   14        9.765310   0.000000
   15       10.107747   0.000000
   16       10.747063   0.000000

  0.4615385E+00  0.1538462E+00 -0.1016376E-16  0.1092399E-01
    1      -23.296980   1.000000
    2      -23.282818   1.000000
    3      -23.281312   1.000000
    4       -2.448522   1.000000
    5        1.464880   1.000000
    6        2.688672   1.000000
    7        2.916399   1.000000
    8        3.905854   1.000000
    9        4.015033   1.000000
   10        4.138208   1.000000
   11        6.055605   1.000000
   12        6.354686   1.000000
   13        9.001497   0.008363
   14        9.947782   0.000000
   15       10.114637   0.000000
   16       10.593139   0.000000

 -0.4615385E+00  0.1538462E+00  0.1477399E-16  0.1092399E-01
    1      -23.297856   1.000000
    2      -23.283366   1.000000
    3      -23.280929   1.000000
    4       -2.318486   1.000000
    5        1.400303   1.000000
    6        2.680990   1.000000
    7        2.819064   1.000000
    8        3.815696   1.000000
    9        4.034298   1.000000
   10        4.099744   1.000000
   11        5.977998   1.000000
   12        6.383519   1.000000
   13        9.141146   0.000000
   14        9.729337   0.000000
   15       10.112117   0.000000
   16       10.854424   0.000000

 -0.3846154E+00  0.1538462E+00  0.2412027E-16  0.1092399E-01
    1      -23.297155   1.000000
    2      -23.283771   1.000000
    3      -23.280596   1.000000
    4       -2.382204   1.000000
    5        1.452248   1.000000
    6        2.715104   1.000000
    7        2.758410   1.000000
    8        3.823548   1.000000
    9        4.062973   1.000000
   10        4.158317   1.000000
   11        5.908589   1.000000
   12        6.449737   1.000000
   13        9.217411   0.000000
   14        9.785797   0.000000
   15       10.092893   0.000000
   16       10.836909   0.000000

 -0.3076923E+00  0.1538462E+00  0.1346860E-16  0.1092399E-01
    1      -23.295079   1.000000
    2      -23.283876   1.000000
    3      -23.280374   1.000000
    4       -2.611318   1.000000
    5        1.613028   1.000000
    6        2.633295   1.000000
    7        2.887728   1.000000
    8        3.876621   1.000000
    9        4.075224   1.000000
   10        4.365962   1.000000
   11        5.843042   1.000000
   12        6.575268   1.000000
   13        9.225370   0.000000
   14        9.913886   0.000000
   15       10.167443   0.000000
   16       10.696917   0.000000

 -0.2307692E+00  0.1538462E+00 -0.4940698E-17  0.1092399E-01
    1      -23.292179   1.000000
    2      -23.283573   1.000000
    3      -23.280312   1.000000
    4       -2.919537   1.000000
    5        1.841708   1.000000
    6        2.596437   1.000000
    7        3.004592   1.000000
    8        3.888293   1.000000
    9        4.050437   1.000000
   10        4.776724   1.000000
   11        5.838123   1.000000
   12        6.761924   1.000000
   13        9.325726   0.000000
   14        9.686843   0.000000
   15        9.996777   0.000000
   16       10.847602   0.000000

 -0.1538462E+00  0.1538462E+00  0.6461408E-17  0.5461994E-02
    1      -23.289217   1.000000
    2      -23.282808   1.000000
    3      -23.280446   1.000000
    4       -3.222546   1.000000
    5        2.106232   1.000000
    6        2.616016   1.000000
    7        3.042226   1.000000
    8        3.862990   1.000000
    9        3.989368   1.000000
   10        5.261165   1.000000
   11        6.041880   1.000000
   12        6.966079   1.000000
   13        9.287071   0.000000
   14        9.501147   0.000000
   15        9.705219   0.000000
   16       10.672231   0.000000

  0.2307692E+00  0.2307692E+00 -0.9869414E-18  0.2730997E-02
    1      -23.289411   1.000000
    2      -23.282263   1.000000
    3      -23.282263   1.000000
    4       -3.163110   1.000000
    5        1.762517   1.000000
    6        3.138143   1.000000
    7        3.138143   1.000000
    8        3.738538   1.000000
    9        3.978949   1.000000
   10        5.468456   1.000000
   11        6.318269   1.000000
   12        6.318269   1.000000
   13        8.501605   1.000000
   14        9.529712   0.000000
   15        9.653862   0.000000
   16       11.206374   0.000000

  0.3076923E+00  0.2307692E+00 -0.3693788E-18  0.1092399E-01
    1      -23.291995   1.000000
    2      -23.282585   1.000000
    3      -23.282413   1.000000
    4       -2.935446   1.000000
    5        1.605385   1.000000
    6        3.119454   1.000000
    7        3.177973   1.000000
    8        3.742661   1.000000
    9        4.053282   1.000000
   10        5.056288   1.000000
   11        6.110053   1.000000
   12        6.183636   1.000000
   13        8.618009   1.000000
   14        9.544762   0.000000
   15        9.676261   0.000000
   16       11.212336   0.000000

  0.3846154E+00  0.2307692E+00  0.1619646E-17  0.1092399E-01
    1      -23.294520   1.000000
    2      -23.283276   1.000000
    3      -23.282336   1.000000
    4       -2.674478   1.000000
    5        1.528925   1.000000
    6        2.974138   1.000000
    7        3.161165   1.000000
    8        3.833684   1.000000
    9        4.093140   1.000000
   10        4.570346   1.000000
   11        5.870716   1.000000
   12        6.135456   1.000000
   13        8.746139   1.000000
   14        9.564117   0.000000
   15       10.102229   0.000000
   16       10.841568   0.000000

  0.4615385E+00  0.2307692E+00 -0.6139477E-17  0.1092399E-01
    1      -23.296184   1.000000
    2      -23.284386   1.000000
    3      -23.282035   1.000000
    4       -2.439284   1.000000
    5        1.532511   1.000000
    6        2.801593   1.000000
    7        3.087007   1.000000
    8        3.872216   1.000000
    9        4.107210   1.000000
   10        4.229407   1.000000
   11        5.667267   1.000000
   12        6.144046   1.000000
   13        8.801354   1.000000
   14        9.759287   0.000000
   15       10.299184   0.000000
   16       10.672899   0.000000

 -0.4615385E+00  0.2307692E+00 -0.1960748E-16  0.1092399E-01
    1      -23.296641   1.000000
    2      -23.285646   1.000000
    3      -23.281573   1.000000
    4       -2.294801   1.000000
    5        1.580991   1.000000
    6        2.671291   1.000000
    7        2.963540   1.000000
    8        3.745948   1.000000
    9        4.124816   1.000000
   10        4.217052   1.000000
   11        5.518988   1.000000
   12        6.179284   1.000000
   13        8.914447   1.000000
   14        9.871479   0.000000
   15       10.058264   0.000000
   16       10.952006   0.000000

 -0.3846154E+00  0.2307692E+00  0.2244275E-16  0.1092399E-01
    1      -23.295962   1.000000
    2      -23.286606   1.000000
    3      -23.281065   1.000000
    4       -2.288071   1.000000
    5        1.609144   1.000000
    6        2.665541   1.000000
    7        2.820486   1.000000
    8        3.709037   1.000000
    9        4.144928   1.000000
   10        4.313729   1.000000
   11        5.413768   1.000000
   12        6.248737   1.000000
   13        9.112501   0.000000
   14        9.689387   0.000000
   15       10.196131   0.000000
   16       10.892359   0.000000

 -0.3076923E+00  0.2307692E+00  0.2319468E-16  0.1092399E-01
    1      -23.294659   1.000000
    2      -23.286693   1.000000
    3      -23.280633   1.000000
    4       -2.422826   1.000000
    5        1.619089   1.000000
    6        2.694684   1.000000
    7        2.793242   1.000000
    8        3.786071   1.000000
    9        4.144801   1.000000
   10        4.459886   1.000000
   11        5.352162   1.000000
   12        6.376354   1.000000
   13        9.241341   0.000000
   14        9.955309   0.000000
   15       10.079734   0.000000
   16       10.792939   0.000000

 -0.2307692E+00  0.2307692E+00 -0.6618216E-17  0.5461994E-02
    1      -23.293378   1.000000
    2      -23.285523   1.000000
    3      -23.280362   1.000000
    4       -2.655616   1.000000
    5        1.685369   1.000000
    6        2.614561   1.000000
    7        2.945281   1.000000
    8        3.862728   1.000000
    9        4.111040   1.000000
   10        4.644756   1.000000
   11        5.439273   1.000000
   12        6.562205   1.000000
   13        9.324276   0.000000
   14        9.876580   0.000000
   15       10.459326   0.000000
   16       10.668447   0.000000

  0.3076923E+00  0.3076923E+00 -0.1315922E-17  0.2730997E-02
    1      -23.293944   1.000000
    2      -23.282801   1.000000
    3      -23.282801   1.000000
    4       -2.775237   1.000000
    5        1.493772   1.000000
    6        3.277971   1.000000
    7        3.277971   1.000000
    8        3.596026   1.000000
    9        4.144386   1.000000
   10        4.864347   1.000000
   11        6.019956   1.000000
   12        6.019956   1.000000
   13        8.430167   1.000000
   14        9.373856   0.000000
   15        9.733063   0.000000
   16       11.157129   0.000000

  0.3846154E+00  0.3076923E+00 -0.2090039E-17  0.1092399E-01
    1      -23.295950   1.000000
    2      -23.283333   1.000000
    3      -23.282925   1.000000
    4       -2.583685   1.000000
    5        1.479769   1.000000
    6        3.193907   1.000000
    7        3.309132   1.000000
    8        3.658369   1.000000
    9        4.204344   1.000000
   10        4.501025   1.000000
   11        5.817018   1.000000
   12        5.947149   1.000000
   13        8.485143   1.000000
   14        9.311312   0.000000
   15        9.959502   0.000000
   16       10.887859   0.000000

  0.4615385E+00  0.3076923E+00  0.3173454E-18  0.1092399E-01
    1      -23.297041   1.000000
    2      -23.284562   1.000000
    3      -23.282742   1.000000
    4       -2.404616   1.000000
    5        1.570324   1.000000
    6        2.991185   1.000000
    7        3.262088   1.000000
    8        3.781782   1.000000
    9        4.172799   1.000000
   10        4.222760   1.000000
   11        5.520114   1.000000
   12        5.947819   1.000000
   13        8.571189   1.000000
   14        9.453314   0.000000
   15       10.360789   0.000000
   16       10.608018   0.000000

 -0.4615385E+00  0.3076923E+00  0.2563181E-16  0.1092399E-01
    1      -23.296821   1.000000
    2      -23.286390   1.000000
    3      -23.282309   1.000000
    4       -2.279601   1.000000
    5        1.726894   1.000000
    6        2.777440   1.000000
    7        3.140773   1.000000
    8        3.647779   1.000000
    9        4.222998   1.000000
   10        4.228003   1.000000
   11        5.244054   1.000000
   12        5.984096   1.000000
   13        8.670786   1.000000
   14        9.821120   0.000000
   15       10.034059   0.000000
   16       10.725605   0.000000

 -0.3846154E+00  0.3076923E+00 -0.2053307E-16  0.1092399E-01
    1      -23.295485   1.000000
    2      -23.288254   1.000000
    3      -23.281724   1.000000
    4       -2.236891   1.000000
    5        1.825338   1.000000
    6        2.612212   1.000000
    7        2.977595   1.000000
    8        3.570647   1.000000
    9        4.225627   1.000000
   10        4.430698   1.000000
   11        5.044172   1.000000
   12        6.056975   1.000000
   13        8.854834   1.000000
   14        9.765518   0.000000
   15       10.253938   0.000000
   16       10.712937   0.000000

 -0.3076923E+00  0.3076923E+00  0.1292282E-16  0.5461994E-02
    1      -23.294327   1.000000
    2      -23.288751   1.000000
    3      -23.281118   1.000000
    4       -2.287498   1.000000
    5        1.737766   1.000000
    6        2.648830   1.000000
    7        2.816964   1.000000
    8        3.655541   1.000000
    9        4.199394   1.000000
   10        4.548139   1.000000
   11        5.035714   1.000000
   12        6.188852   1.000000
   13        9.100053   0.000000
   14        9.711548   0.000000
   15       10.243413   0.000000
   16       10.658773   0.000000

  0.3846154E+00  0.3846154E+00 -0.1644902E-17  0.2730997E-02
    1      -23.297777   1.000000
    2      -23.283256   1.000000
    3      -23.283256   1.000000
    4       -2.468140   1.000000
    5        1.510345   1.000000
    6        3.395932   1.000000
    7        3.395932   1.000000
    8        3.454069   1.000000
    9        4.221913   1.000000
   10        4.294906   1.000000
   11        5.837360   1.000000
   12        5.837360   1.000000
   13        8.357260   1.000000
   14        9.128594   0.000000
   15        9.855501   0.000000
   16       10.824448   0.000000

  0.4615385E+00  0.3846154E+00 -0.7733998E-17  0.1092399E-01
    1      -23.298801   1.000000
    2      -23.283859   1.000000
    3      -23.283273   1.000000
    4       -2.357155   1.000000
    5        1.628908   1.000000
    6        3.205516   1.000000
    7        3.399302   1.000000
    8        3.625508   1.000000
    9        3.919265   1.000000
   10        4.329405   1.000000
   11        5.657867   1.000000
   12        5.812687   1.000000
   13        8.387726   1.000000
   14        9.141076   0.000000
   15       10.035793   0.000000
   16       10.605683   0.000000

 -0.4615385E+00  0.3846154E+00  0.2395429E-16  0.1092399E-01
    1      -23.298455   1.000000
    2      -23.285329   1.000000
    3      -23.282966   1.000000
    4       -2.274485   1.000000
    5        1.792650   1.000000
    6        2.992853   1.000000
    7        3.311608   1.000000
    8        3.534471   1.000000
    9        3.999850   1.000000
   10        4.321128   1.000000
   11        5.342620   1.000000
   12        5.842018   1.000000
   13        8.475774   1.000000
   14        9.411222   0.000000
   15       10.163877   0.000000
   16       10.567197   0.000000

 -0.3846154E+00  0.3846154E+00 -0.1080698E-16  0.5461994E-02
    1      -23.296940   1.000000
    2      -23.287252   1.000000
    3      -23.282421   1.000000
    4       -2.232840   1.000000
    5        1.902966   1.000000
    6        2.745690   1.000000
    7        3.155785   1.000000
    8        3.470527   1.000000
    9        4.277880   1.000000
   10        4.286797   1.000000
   11        5.063502   1.000000
   12        5.918317   1.000000
   13        8.625046   1.000000
   14        9.899441   0.000000
   15        9.942046   0.000000
   16       10.490607   0.000000

  0.4615385E+00  0.4615385E+00 -0.1973883E-17  0.2730997E-02
    1      -23.299974   1.000000
    2      -23.283510   1.000000
    3      -23.283510   1.000000
    4       -2.313168   1.000000
    5        1.715828   1.000000
    6        3.406776   1.000000
    7        3.462294   1.000000
    8        3.462294   1.000000
    9        3.652031   1.000000
   10        4.386510   1.000000
   11        5.757640   1.000000
   12        5.757640   1.000000
   13        8.312153   1.000000
   14        8.983624   0.553655
   15        9.818159   0.000000
   16       10.579990   0.000000

 -0.4615385E+00  0.4615385E+00  0.2508602E-16  0.5461994E-02
    1      -23.299844   1.000000
    2      -23.284060   1.000000
    3      -23.283405   1.000000
    4       -2.284475   1.000000
    5        1.785612   1.000000
    6        3.233367   1.000000
    7        3.430617   1.000000
    8        3.488911   1.000000
    9        3.713592   1.000000
   10        4.379973   1.000000
   11        5.610330   1.000000
   12        5.769176   1.000000
   13        8.352659   1.000000
   14        9.079912   0.000000
   15        9.991280   0.000000
   16       10.500286   0.000000

  0.2307692E+00  0.1538462E+00  0.7692308E-01  0.1092399E-01
    1      -23.286625   1.000000
    2      -23.282040   1.000000
    3      -23.281055   1.000000
    4       -3.443134   1.000000
    5        2.221390   1.000000
    6        2.830648   1.000000
    7        3.021002   1.000000
    8        3.833967   1.000000
    9        3.892512   1.000000
   10        5.737704   1.000000
   11        6.455166   1.000000
   12        6.946220   1.000000
   13        8.831793   1.000000
   14        9.346974   0.000000
   15        9.807048   0.000000
   16       10.681077   0.000000

  0.3076923E+00  0.1538462E+00  0.7692308E-01  0.2184797E-01
    1      -23.289877   1.000000
    2      -23.282474   1.000000
    3      -23.280833   1.000000
    4       -3.172238   1.000000
    5        1.978806   1.000000
    6        2.745988   1.000000
    7        3.026306   1.000000
    8        3.880766   1.000000