       N       E                     dE             d eps       ncg     rms          rms(c)
DAV:   1     0.138427751172E+03    0.13843E+03   -0.14188E+04  2688   0.174E+03
DAV:   2    -0.201171493232E+02   -0.15854E+03   -0.15696E+03  3360   0.339E+02
DAV:   3    -0.249227135314E+02   -0.48056E+01   -0.47263E+01  3648   0.517E+01
DAV:   4    -0.249949872711E+02   -0.72274E-01   -0.72163E-01  3280   0.660E+00
DAV:   5    -0.249965296345E+02   -0.15424E-02   -0.15421E-02  3680   0.917E-01    0.427E+01
DAV:   6    -0.242313760561E+02    0.76515E+00   -0.16845E+00  3488   0.926E+00    0.259E+01
DAV:   7    -0.240942840075E+02    0.13709E+00   -0.10062E+00  3816   0.557E+00    0.387E+00
DAV:   8    -0.240682053666E+02    0.26079E-01   -0.39123E-01  3520   0.351E+00    0.951E-01
DAV:   9    -0.240590732755E+02    0.91321E-02   -0.56114E-02  2920   0.183E+00    0.350E-01
DAV:  10    -0.240589178665E+02    0.15541E-03   -0.75961E-03  3664   0.449E-01    0.267E-01
DAV:  11    -0.240587975569E+02    0.12031E-03   -0.55753E-04  3264   0.150E-01    0.793E-02
DAV:  12    -0.240587958242E+02    0.17326E-05   -0.80544E-05  3608   0.549E-02    0.202E-02
DAV:  13    -0.240587944370E+02    0.13872E-05   -0.37770E-06  3144   0.142E-02    0.682E-03
DAV:  14    -0.240587944835E+02   -0.46450E-07   -0.15082E-07  2768   0.342E-03
   1 F= -.24058794E+02 E0= -.24058660E+02  d E =-.268557E-03
