 vasp.6.0.8 29Jun18 (build Jun 13 2019 12:54:44) complex

 executed on      IFC18_CrayMPICH date 2021.12.05  14:21:51
 running   64 mpi-ranks, with    1 threads/rank
 distrk:  each k-point on   16 cores,    4 groups
 distr:  one band on NCORES_PER_BAND=   4 cores,    4 groups


--------------------------------------------------------------------------------------------------------


 INCAR:
 POTCAR:    PAW_PBE Hf_pv 06Sep2000
 POTCAR:    PAW_PBE Sb 06Sep2000
 POTCAR:    PAW_PBE Pt 04Feb2005
 POTCAR:    PAW_PBE Hf_pv 06Sep2000
   VRHFIN =Hf: 5p6s5d
   LEXCH  = PE
   EATOM  =   860.9206 eV,   63.2759 Ry

   TITEL  = PAW_PBE Hf_pv 06Sep2000
   LULTRA =        F    use ultrasoft PP ?
   IUNSCR =        1    unscreen: 0-lin 1-nonlin 2-no
   RPACOR =    2.500    partial core radius
   POMASS =  178.490; ZVAL   =   10.000    mass and valenz
   RCORE  =    2.600    outmost cutoff radius
   RWIGS  =    3.050; RWIGS  =    1.614    wigner-seitz radius (au A)
   ENMAX  =  220.334; ENMIN  =  165.250 eV
   RCLOC  =    2.212    cutoff for local pot
   LCOR   =        T    correct aug charges
   LPAW   =        T    paw PP
   EAUG   =  380.878
   DEXC   =    0.000
   RMAX   =    2.665    core radius for proj-oper
   RAUG   =    1.300    factor for augmentation sphere
   RDEP   =    2.681    radius for radial grids
   RDEPT  =    2.139    core radius for aug-charge

   Atomic configuration
   15 entries
     n  l   j            E        occ.
     1  0  0.50    -65259.4397   2.0000
     2  0  0.50    -11157.9884   2.0000
     2  1  1.50     -9795.2114   6.0000
     3  0  0.50     -2541.4060   2.0000
     3  1  1.50     -2134.4772   6.0000
     3  2  2.50     -1653.5420  10.0000
     4  0  0.50      -510.9577   2.0000
     4  1  1.50      -377.5024   6.0000
     4  2  2.50      -205.2086  10.0000
     4  3  3.50       -15.4906  14.0000
     5  0  0.50       -65.6020   2.0000
     5  1  1.50       -34.2798   6.0000
     5  2  2.50        -1.9877   3.0000
     6  0  0.50        -4.7357   1.0000
     5  3  2.50        -1.3606   0.0000
   Description
     l       E           TYP  RCUT    TYP  RCUT
     1    -34.2797769     23  2.500
     1    -35.6403595     23  2.500
     2     -1.9876655     23  2.500
     2      0.0744675     23  2.500
     0     -4.7356889     23  2.600
     0      3.2364748     23  2.600
  local pseudopotential read in
  partial core-charges read in
  partial kinetic energy density read in
  atomic valenz-charges read in
  non local Contribution for L=           1  read in
    real space projection operators read in
  non local Contribution for L=           1  read in
    real space projection operators read in
  non local Contribution for L=           2  read in
    real space projection operators read in
  non local Contribution for L=           2  read in
    real space projection operators read in
  non local Contribution for L=           0  read in
    real space projection operators read in
  non local Contribution for L=           0  read in
    real space projection operators read in
    PAW grid and wavefunctions read in

   number of l-projection  operators is LMAX  =           6
   number of lm-projection operators is LMMAX =          18

 POTCAR:    PAW_PBE Sb 06Sep2000
   VRHFIN =Sb: s2p3
   LEXCH  = PE
   EATOM  =   149.9515 eV,   11.0211 Ry

   TITEL  = PAW_PBE Sb 06Sep2000
   LULTRA =        F    use ultrasoft PP ?
   IUNSCR =        1    unscreen: 0-lin 1-nonlin 2-no
   RPACOR =    2.200    partial core radius
   POMASS =  121.750; ZVAL   =    5.000    mass and valenz
   RCORE  =    2.300    outmost cutoff radius
   RWIGS  =    2.980; RWIGS  =    1.577    wigner-seitz radius (au A)
   ENMAX  =  172.069; ENMIN  =  129.052 eV
   ICORE  =        3    local potential
   LCOR   =        T    correct aug charges
   LPAW   =        T    paw PP
   EAUG   =  380.513
   DEXC   =    0.000
   RMAX   =    2.346    core radius for proj-oper
   RAUG   =    1.300    factor for augmentation sphere
   RDEP   =    2.360    radius for radial grids
   RDEPT  =    2.192    core radius for aug-charge

   Atomic configuration
   13 entries
     n  l   j            E        occ.
     1  0  0.50    -30298.2797   2.0000
     2  0  0.50     -4610.2252   2.0000
     2  1  1.50     -4138.3407   6.0000
     3  0  0.50      -903.8815   2.0000
     3  1  1.50      -750.1337   6.0000
     3  2  2.50      -515.7092  10.0000
     4  0  0.50      -148.8034   2.0000
     4  1  1.50      -101.7581   6.0000
     4  2  2.50       -33.5048  10.0000
     5  0  0.50       -12.8298   2.0000
     5  1  0.50        -4.8276   3.0000
     5  2  1.50        -4.0817   0.0000
     4  3  2.50        -4.0817   0.0000
   Description
     l       E           TYP  RCUT    TYP  RCUT
     0    -12.8297861     23  2.300
     0     13.6058260     23  2.300
     1     -4.8275512     23  2.300
     1     -0.7245443     23  2.300
     2     -4.0817478     23  2.300
     3     -1.3605826     23  2.300
  local pseudopotential read in
  partial core-charges read in
  partial kinetic energy density read in
  atomic valenz-charges read in
  non local Contribution for L=           0  read in
    real space projection operators read in
  non local Contribution for L=           0  read in
    real space projection operators read in
  non local Contribution for L=           1  read in
    real space projection operators read in
  non local Contribution for L=           1  read in
    real space projection operators read in
  non local Contribution for L=           2  read in
    real space projection operators read in
    PAW grid and wavefunctions read in

   number of l-projection  operators is LMAX  =           5
   number of lm-projection operators is LMMAX =          13

 POTCAR:    PAW_PBE Pt 04Feb2005
   VRHFIN =Pt: s1d9
   LEXCH  = PE
   EATOM  =   729.1176 eV,   53.5886 Ry

   TITEL  = PAW_PBE Pt 04Feb2005
   LULTRA =        F    use ultrasoft PP ?
   IUNSCR =        1    unscreen: 0-lin 1-nonlin 2-no
   RPACOR =    2.330    partial core radius
   POMASS =  195.080; ZVAL   =   10.000    mass and valenz
   RCORE  =    2.600    outmost cutoff radius
   RWIGS  =    2.750; RWIGS  =    1.455    wigner-seitz radius (au A)
   ENMAX  =  230.283; ENMIN  =  172.712 eV
   ICORE  =        3    local potential
   LCOR   =        T    correct aug charges
   LPAW   =        T    paw PP
   EAUG   =  358.966
   DEXC   =    0.000
   RMAX   =    2.658    core radius for proj-oper
   RAUG   =    1.300    factor for augmentation sphere
   RDEP   =    2.761    radius for radial grids
   RDEPT  =    2.203    core radius for aug-charge

   Atomic configuration
   16 entries
     n  l   j            E        occ.
     1  0  0.50    -78401.1885   2.0000
     2  0  0.50    -13770.7750   2.0000
     2  1  1.50    -11931.0468   6.0000
     3  0  0.50     -3234.7234   2.0000
     3  1  1.50     -2699.2216   6.0000
     3  2  2.50     -2119.5714  10.0000
     4  0  0.50      -695.1528   2.0000
     4  1  1.50      -519.6034   6.0000
     4  2  2.50      -306.6786  10.0000
     4  3  3.50       -70.1041  14.0000
     5  0  0.50      -101.7747   2.0000
     5  1  1.50       -55.9873   6.0000
     5  2  2.50        -6.1423   9.0000
     6  0  0.50        -5.6573   1.0000
     6  1  1.50        -6.8029   0.0000
     5  3  2.50        -1.3606   0.0000
   Description
     l       E           TYP  RCUT    TYP  RCUT
     2     -6.1423404     23  2.500
     2     -7.5029230     23  2.500
     0     -5.6573207     23  2.500
     0      0.7416693     23  2.500
     1     -2.7211652     23  2.600
     1     20.4087390     23  2.600
     3     -1.3605826     23  2.500
  local pseudopotential read in
  partial core-charges read in
  partial kinetic energy density read in
  atomic valenz-charges read in
  non local Contribution for L=           2  read in
    real space projection operators read in
  non local Contribution for L=           2  read in
    real space projection operators read in
  non local Contribution for L=           0  read in
    real space projection operators read in
  non local Contribution for L=           0  read in
    real space projection operators read in
  non local Contribution for L=           1  read in
    real space projection operators read in
  non local Contribution for L=           1  read in
    real space projection operators read in
    PAW grid and wavefunctions read in

   number of l-projection  operators is LMAX  =           6
   number of lm-projection operators is LMMAX =          18


 -----------------------------------------------------------------------------
|                                                                             |
|  ADVICE TO THIS USER RUNNING 'VASP/VAMP'   (HEAR YOUR MASTER'S VOICE ...):  |
|                                                                             |
|      You enforced a specific xc-type in the INCAR file,                     |
|      a different type was found on the POTCAR file                          |
|          I HOPE YOU KNOW, WHAT YOU ARE  DOING                               |
|                                                                             |
 -----------------------------------------------------------------------------

  PAW_PBE Hf_pv 06Sep2000               :
 energy of atom  1       EATOM= -860.9206
 kinetic energy error for atom=    0.0004 (will be added to EATOM!!)
  PAW_PBE Sb 06Sep2000                  :
 energy of atom  2       EATOM= -149.9515
 kinetic energy error for atom=    0.0002 (will be added to EATOM!!)
  PAW_PBE Pt 04Feb2005                  :
 energy of atom  3       EATOM= -729.1176
 kinetic energy error for atom=    0.0010 (will be added to EATOM!!)


 POSCAR: Hf1 Sb1 Pt1
  positions in direct lattice
  No initial velocities read in
 exchange correlation table for  LEXCH =       14
   RHO(1)=    0.500       N(1)  =     2000
   RHO(2)=  100.500       N(2)  =     4000



--------------------------------------------------------------------------------------------------------


 ion  position               nearest neighbor table
   1  0.750  0.750  0.750-   3 2.75   3 2.75   3 2.75   3 2.75   2 3.18   2 3.18   2 3.18   2 3.18
                             2 3.18   2 3.18
   2  0.250  0.250  0.250-   3 2.75   3 2.75   3 2.75   3 2.75   1 3.18   1 3.18   1 3.18   1 3.18
                             1 3.18   1 3.18
   3  0.000  0.000  0.000-   1 2.75   1 2.75   1 2.75   2 2.75   2 2.75   2 2.75   2 2.75   1 2.75


  LATTYP: Found a face centered cubic cell.
 ALAT       =     6.3565680000

  Lattice vectors:

 A1 = (   0.0000000000,   3.1782840000,   3.1782840000)
 A2 = (   3.1782840000,   0.0000000000,   3.1782840000)
 A3 = (   3.1782840000,   3.1782840000,   0.0000000000)


Analysis of symmetry for initial positions (statically):
=====================================================================
 Subroutine PRICEL returns:
 Original cell was already a primitive cell.


 Routine SETGRP: Setting up the symmetry group for a
 face centered cubic supercell.


 Subroutine GETGRP returns: Found 24 space group operations
 (whereof 24 operations were pure point group operations)
 out of a pool of 48 trial point group operations.


The static configuration has the point symmetry T_d .


Analysis of symmetry for dynamics (positions and initial velocities):
=====================================================================
 Subroutine PRICEL returns:
 Original cell was already a primitive cell.


 Routine SETGRP: Setting up the symmetry group for a
 face centered cubic supercell.


 Subroutine GETGRP returns: Found 24 space group operations
 (whereof 24 operations were pure point group operations)
 out of a pool of 48 trial point group operations.


The dynamic configuration has the point symmetry T_d .


 Subroutine INISYM returns: Found 24 space group operations
 (whereof 24 operations are pure point group operations),
 and found     1 'primitive' translations


----------------------------------------------------------------------------------------

                                     Primitive cell

  volume of cell :      64.2108

  direct lattice vectors                    reciprocal lattice vectors
     0.000000000  3.178284000  3.178284000    -0.157317597  0.157317597  0.157317597
     3.178284000  0.000000000  3.178284000     0.157317597 -0.157317597  0.157317597
     3.178284000  3.178284000  0.000000000     0.157317597  0.157317597 -0.157317597

  length of vectors
     4.494772338  4.494772338  4.494772338     0.272482070  0.272482070  0.272482070

  position of ions in fractional coordinates (direct lattice)
     0.750000000  0.750000000  0.750000000
     0.250000000  0.250000000  0.250000000
     0.000000000  0.000000000  0.000000000

  ion indices of the primitive-cell ions
   primitive index   ion index
                 1           1
                 2           2
                 3           3

----------------------------------------------------------------------------------------



 KPOINTS: KPOINTS

Automatic generation of k-mesh.
Space group operators:
 irot       det(A)        alpha          n_x          n_y          n_z        tau_x        tau_y        tau_z
    1     1.000000     0.000000     1.000000     0.000000     0.000000     0.000000     0.000000     0.000000
    2     1.000000   120.000000    -0.577350    -0.577350    -0.577350     0.000000     0.000000     0.000000
    3     1.000000   120.000000     0.577350     0.577350     0.577350     0.000000     0.000000     0.000000
    4    -1.000000    90.000000    -0.000000    -0.000000    -1.000000     0.000000     0.000000     0.000000
    5    -1.000000   180.000000     0.000000     0.707107     0.707107     0.000000     0.000000     0.000000
    6    -1.000000    90.000000    -0.000000     1.000000    -0.000000     0.000000     0.000000     0.000000
    7     1.000000   180.000000    -0.000000     0.000000     1.000000     0.000000     0.000000     0.000000
    8     1.000000   120.000000    -0.577350     0.577350     0.577350     0.000000     0.000000     0.000000
    9     1.000000   120.000000    -0.577350     0.577350    -0.577350     0.000000     0.000000     0.000000
   10    -1.000000    90.000000     0.000000     0.000000     1.000000     0.000000     0.000000     0.000000
   11    -1.000000    90.000000    -1.000000     0.000000     0.000000     0.000000     0.000000     0.000000
   12    -1.000000   180.000000     0.707107     0.000000     0.707107     0.000000     0.000000     0.000000
   13     1.000000   120.000000     0.577350    -0.577350     0.577350     0.000000     0.000000     0.000000
   14     1.000000   120.000000    -0.577350    -0.577350     0.577350     0.000000     0.000000     0.000000
   15     1.000000   180.000000     1.000000     0.000000     0.000000     0.000000     0.000000     0.000000
   16    -1.000000    90.000000     0.000000    -1.000000     0.000000     0.000000     0.000000     0.000000
   17    -1.000000   180.000000     0.707107     0.707107    -0.000000     0.000000     0.000000     0.000000
   18    -1.000000    90.000000     1.000000     0.000000     0.000000     0.000000     0.000000     0.000000
   19     1.000000   120.000000     0.577350    -0.577350    -0.577350     0.000000     0.000000     0.000000
   20     1.000000   180.000000    -0.000000    -1.000000    -0.000000     0.000000     0.000000     0.000000
   21     1.000000   120.000000     0.577350     0.577350    -0.577350     0.000000     0.000000     0.000000
   22    -1.000000   180.000000    -0.000000    -0.707107     0.707107     0.000000     0.000000     0.000000
   23    -1.000000   180.000000     0.707107    -0.707107     0.000000     0.000000     0.000000     0.000000
   24    -1.000000   180.000000     0.707107     0.000000    -0.707107     0.000000     0.000000     0.000000

 Subroutine IBZKPT returns following result:
 ===========================================

 Found     84 irreducible k-points:

 Following reciprocal coordinates:
            Coordinates               Weight
  0.000000  0.000000  0.000000      1.000000
  0.076923  0.000000 -0.000000      8.000000
  0.153846  0.000000 -0.000000      8.000000
  0.230769 -0.000000  0.000000      8.000000
  0.307692  0.000000 -0.000000      8.000000
  0.384615  0.000000  0.000000      8.000000
  0.461538  0.000000 -0.000000      8.000000
  0.076923  0.076923 -0.000000      6.000000
  0.153846  0.076923  0.000000     24.000000
  0.230769  0.076923 -0.000000     24.000000
  0.307692  0.076923  0.000000     24.000000
  0.384615  0.076923 -0.000000     24.000000
  0.461538  0.076923 -0.000000     24.000000
 -0.461538  0.076923  0.000000     24.000000
 -0.384615  0.076923 -0.000000     24.000000
 -0.307692  0.076923 -0.000000     24.000000
 -0.230769  0.076923 -0.000000     24.000000
 -0.153846  0.076923 -0.000000     24.000000
 -0.076923  0.076923  0.000000     12.000000
  0.153846  0.153846 -0.000000      6.000000
  0.230769  0.153846  0.000000     24.000000
  0.307692  0.153846 -0.000000     24.000000
  0.384615  0.153846 -0.000000     24.000000
  0.461538  0.153846 -0.000000     24.000000
 -0.461538  0.153846  0.000000     24.000000
 -0.384615  0.153846  0.000000     24.000000
 -0.307692  0.153846  0.000000     24.000000
 -0.230769  0.153846 -0.000000     24.000000
 -0.153846  0.153846  0.000000     12.000000
  0.230769  0.230769 -0.000000      6.000000
  0.307692  0.230769 -0.000000     24.000000
  0.384615  0.230769  0.000000     24.000000
  0.461538  0.230769 -0.000000     24.000000
 -0.461538  0.230769 -0.000000     24.000000
 -0.384615  0.230769  0.000000     24.000000
 -0.307692  0.230769  0.000000     24.000000
 -0.230769  0.230769 -0.000000     12.000000
  0.307692  0.307692 -0.000000      6.000000
  0.384615  0.307692 -0.000000     24.000000
  0.461538  0.307692  0.000000     24.000000
 -0.461538  0.307692  0.000000     24.000000
 -0.384615  0.307692 -0.000000     24.000000
 -0.307692  0.307692  0.000000     12.000000
  0.384615  0.384615 -0.000000      6.000000
  0.461538  0.384615 -0.000000     24.000000
 -0.461538  0.384615  0.000000     24.000000
 -0.384615  0.384615 -0.000000     12.000000
  0.461538  0.461538 -0.000000      6.000000
 -0.461538  0.461538  0.000000     12.000000
  0.230769  0.153846  0.076923     24.000000
  0.307692  0.153846  0.076923     48.000000
  0.384615  0.153846  0.076923     48.000000
  0.461538  0.153846  0.076923     48.000000
 -0.461538  0.153846  0.076923     48.000000
  0.307692  0.230769  0.076923     24.000000
  0.384615  0.230769  0.076923     48.000000
  0.461538  0.230769  0.076923     48.000000
 -0.461538  0.230769  0.076923     48.000000
 -0.384615  0.230769  0.076923     48.000000
 -0.307692  0.230769  0.076923     48.000000
 -0.230769  0.230769  0.076923     48.000000
 -0.153846  0.230769  0.076923     24.000000
  0.384615  0.307692  0.076923     24.000000
  0.461538  0.307692  0.076923     48.000000
 -0.461538  0.307692  0.076923     48.000000
 -0.384615  0.307692  0.076923     48.000000
 -0.307692  0.307692  0.076923     48.000000
 -0.230769  0.307692  0.076923     24.000000
  0.461538  0.384615  0.076923     24.000000
 -0.461538  0.384615  0.076923     48.000000
 -0.384615  0.384615  0.076923     48.000000
 -0.307692  0.384615  0.076923     24.000000
 -0.461538  0.461538  0.076923     24.000000
 -0.384615  0.461538  0.076923     24.000000
  0.461538  0.307692  0.153846     24.000000
 -0.461538  0.307692  0.153846     48.000000
 -0.384615  0.307692  0.153846     48.000000
 -0.461538  0.384615  0.153846     24.000000
 -0.384615  0.384615  0.153846     48.000000
 -0.307692  0.384615  0.153846     48.000000
 -0.230769  0.384615  0.153846     24.000000
 -0.384615  0.461538  0.153846     24.000000
 -0.307692  0.461538  0.153846     24.000000
 -0.307692  0.461538  0.230769     24.000000

 Following cartesian coordinates:
            Coordinates               Weight
  0.000000  0.000000  0.000000      1.000000
 -0.012101  0.012101  0.012101      8.000000
 -0.024203  0.024203  0.024203      8.000000
 -0.036304  0.036304  0.036304      8.000000
 -0.048405  0.048405  0.048405      8.000000
 -0.060507  0.060507  0.060507      8.000000
 -0.072608  0.072608  0.072608      8.000000
 -0.000000  0.000000  0.024203      6.000000
 -0.012101  0.012101  0.036304     24.000000
 -0.024203  0.024203  0.048405     24.000000
 -0.036304  0.036304  0.060507     24.000000
 -0.048405  0.048405  0.072608     24.000000
 -0.060507  0.060507  0.084709     24.000000
  0.084709 -0.084709 -0.060507     24.000000
  0.072608 -0.072608 -0.048405     24.000000
  0.060507 -0.060507 -0.036304     24.000000
  0.048405 -0.048405 -0.024203     24.000000
  0.036304 -0.036304 -0.012101     24.000000
  0.024203 -0.024203 -0.000000     12.000000
  0.000000 -0.000000  0.048405      6.000000
 -0.012101  0.012101  0.060507     24.000000
 -0.024203  0.024203  0.072608     24.000000
 -0.036304  0.036304  0.084709     24.000000
 -0.048405  0.048405  0.096811     24.000000
  0.096811 -0.096811 -0.048405     24.000000
  0.084709 -0.084709 -0.036304     24.000000
  0.072608 -0.072608 -0.024203     24.000000
  0.060507 -0.060507 -0.012101     24.000000
  0.048405 -0.048405 -0.000000     12.000000
 -0.000000  0.000000  0.072608      6.000000
 -0.012101  0.012101  0.084709     24.000000
 -0.024203  0.024203  0.096811     24.000000
 -0.036304  0.036304  0.108912     24.000000
  0.108912 -0.108912 -0.036304     24.000000
  0.096811 -0.096811 -0.024203     24.000000
  0.084709 -0.084709 -0.012101     24.000000
  0.072608 -0.072608 -0.000000     12.000000
  0.000000 -0.000000  0.096811      6.000000
 -0.012101  0.012101  0.108912     24.000000
 -0.024203  0.024203  0.121014     24.000000
  0.121014 -0.121014 -0.024203     24.000000
  0.108912 -0.108912 -0.012101     24.000000
  0.096811 -0.096811 -0.000000     12.000000
 -0.000000  0.000000  0.121014      6.000000
 -0.012101  0.012101  0.133115     24.000000
  0.133115 -0.133115 -0.012101     24.000000
  0.121014 -0.121014 -0.000000     12.000000
  0.000000 -0.000000  0.145216      6.000000
  0.145216 -0.145216 -0.000000     12.000000
 -0.000000  0.024203  0.048405     24.000000
 -0.012101  0.036304  0.060507     48.000000
 -0.024203  0.048405  0.072608     48.000000
 -0.036304  0.060507  0.084709     48.000000
  0.108912 -0.084709 -0.060507     48.000000
  0.000000  0.024203  0.072608     24.000000
 -0.012101  0.036304  0.084709     48.000000
 -0.024203  0.048405  0.096811     48.000000
  0.121014 -0.096811 -0.048405     48.000000
  0.108912 -0.084709 -0.036304     48.000000
  0.096811 -0.072608 -0.024203     48.000000
  0.084709 -0.060507 -0.012101     48.000000
  0.072608 -0.048405  0.000000     24.000000
  0.000000  0.024203  0.096811     24.000000
 -0.012101  0.036304  0.108912     48.000000
  0.133115 -0.108912 -0.036304     48.000000
  0.121014 -0.096811 -0.024203     48.000000
  0.108912 -0.084709 -0.012101     48.000000
  0.096811 -0.072608 -0.000000     24.000000
  0.000000  0.024203  0.121014     24.000000
  0.145216 -0.121014 -0.024203     48.000000
  0.133115 -0.108912 -0.012101     48.000000
  0.121014 -0.096811  0.000000     24.000000
  0.157318 -0.133115 -0.012101     24.000000
  0.145216 -0.121014 -0.000000     24.000000
  0.000000  0.048405  0.096811     24.000000
  0.145216 -0.096811 -0.048405     48.000000
  0.133115 -0.084709 -0.036304     48.000000
  0.157318 -0.108912 -0.036304     24.000000
  0.145216 -0.096811 -0.024203     48.000000
  0.133115 -0.084709 -0.012101     48.000000
  0.121014 -0.072608  0.000000     24.000000
  0.157318 -0.108912 -0.012101     24.000000
  0.145216 -0.096811 -0.000000     24.000000
  0.157318 -0.084709 -0.012101     24.000000



--------------------------------------------------------------------------------------------------------




 Dimension of arrays:
   k-points           NKPTS =     84   k-points in BZ     NKDIM =     84   number of bands    NBANDS=     16
   number of dos      NEDOS =    301   number of ions     NIONS =      3
   non local maximal  LDIM  =      6   non local SUM 2l+1 LMDIM =     18
   total plane-waves  NPLWV =  64000
   max r-space proj   IRMAX =      1   max aug-charges    IRDMAX= 483092
   dimension x,y,z NGX =    40 NGY =   40 NGZ =   40
   dimension x,y,z NGXF=    80 NGYF=   80 NGZF=   80
   support grid    NGXF=   160 NGYF=  160 NGZF=  160
   ions per type =               1   1   1
   NGX,Y,Z   is equivalent  to a cutoff of  14.79, 14.79, 14.79 a.u.
   NGXF,Y,Z  is equivalent  to a cutoff of  29.59, 29.59, 29.59 a.u.

 SYSTEM =  unknown system
 POSCAR =  Hf1 Sb1 Pt1

 Startparameter for this run:
   NWRITE =      2    write-flag & timer
   PREC   = acc       normal or accurate (medium, high low for compatibility)
   ISTART =      0    job   : 0-new  1-cont  2-samecut
   ICHARG =      2    charge: 1-file 2-atom 10-const
   ISPIN  =      1    spin polarized calculation?
   LNONCOLLINEAR =      F non collinear calculations
   LSORBIT =      F    spin-orbit coupling
   INIWAV =      1    electr: 0-lowe 1-rand  2-diag
   LASPH  =      F    aspherical Exc in radial PAW
   METAGGA=      F    non-selfconsistent MetaGGA calc.

 Electronic Relaxation 1
   ENCUT  =  700.0 eV  51.45 Ry    7.17 a.u.   9.70  9.70  9.70*2*pi/ulx,y,z
   ENINI  =  700.0     initial cutoff
   ENAUG  =  380.9 eV  augmentation charge cutoff
   NELM   =     60;   NELMIN=  5; NELMDL= -5     # of ELM steps
   EDIFF  = 0.1E-06   stopping-criterion for ELM
   LREAL  =      F    real-space projection
   NLSPLINE    = F    spline interpolate recip. space projectors
   LCOMPAT=      F    compatible to vasp.4.4
   GGA_COMPAT  = T    GGA compatible to vasp.4.4-vasp.4.6
   LMAXPAW     = -100 max onsite density
   LMAXMIX     =    2 max onsite mixed and CHGCAR
   VOSKOWN=      0    Vosko Wilk Nusair interpolation
   ROPT   =    0.00000   0.00000   0.00000
 Ionic relaxation
   EDIFFG = 0.1E-05   stopping-criterion for IOM
   NSW    =      0    number of steps for IOM
   NBLOCK =      1;   KBLOCK =      1    inner block; outer block
   IBRION =     -1    ionic relax: 0-MD 1-quasi-New 2-CG
   NFREE  =      0    steps in history (QN), initial steepest desc. (CG)
   ISIF   =      3    stress and relaxation
   IWAVPR =     10    prediction:  0-non 1-charg 2-wave 3-comb
   ISYM   =      2    0-nonsym 1-usesym 2-fastsym
   LCORR  =      T    Harris-Foulkes like correction to forces

   POTIM  = 0.5000    time-step for ionic-motion
   TEIN   =    0.0    initial temperature
   TEBEG  =    0.0;   TEEND  =   0.0 temperature during run
   SMASS  =  -3.00    Nose mass-parameter (am)
   estimated Nose-frequenzy (Omega)   =  0.10E-29 period in steps = 0.13E+47 mass=  -0.462E-27a.u.
   SCALEE = 1.0000    scale energy and forces
   NPACO  =    256;   APACO  = 16.0  distance and # of slots for P.C.
   PSTRESS=    0.0 pullay stress

  Mass of Ions in am
   POMASS = 178.49121.75195.08
  Ionic Valenz
   ZVAL   =  10.00  5.00 10.00
  Atomic Wigner-Seitz radii
   RWIGS  =  -1.00 -1.00 -1.00
  virtual crystal weights
   VCA    =   1.00  1.00  1.00
   NELECT =      25.0000    total number of electrons
   NUPDOWN=      -1.0000    fix difference up-down

 DOS related values:
   EMIN   =  10.00;   EMAX   =-10.00  energy-range for DOS
   EFERMI =   0.00
   ISMEAR =     0;   SIGMA  =   0.01  broadening in eV -4-tet -1-fermi 0-gaus

 Electronic relaxation 2 (details)
   IALGO  =     38    algorithm
   LDIAG  =      T    sub-space diagonalisation (order eigenvalues)
   LSUBROT=      F    optimize rotation matrix (better conditioning)
   TURBO    =      0    0=normal 1=particle mesh
   IRESTART =      0    0=no restart 2=restart with 2 vectors
   NREBOOT  =      0    no. of reboots
   NMIN     =      0    reboot dimension
   EREF     =   0.00    reference energy to select bands
   IMIX   =      4    mixing-type and parameters
     AMIX     =   0.40;   BMIX     =  1.00
     AMIX_MAG =   1.60;   BMIX_MAG =  1.00
     AMIN     =   0.10
     WC   =   100.;   INIMIX=   1;  MIXPRE=   1;  MAXMIX= -45

 Intra band minimization:
   WEIMIN = 0.0000     energy-eigenvalue tresh-hold
   EBREAK =  0.16E-08  absolut break condition
   DEPER  =   0.30     relativ break condition

   TIME   =   0.40     timestep for ELM

  volume/ion in A,a.u.               =      21.40       144.44
  Fermi-wavevector in a.u.,A,eV,Ry     =   1.195415  2.259007 19.442966  1.429018
  Thomas-Fermi vector in A             =   2.331381

 Write flags
   LWAVE        =      F    write WAVECAR
   LDOWNSAMPLE  =      F    k-point downsampling of WAVECAR
   LCHARG       =      F    write CHGCAR
   LVTOT        =      F    write LOCPOT, total local potential
   LVHAR        =      F    write LOCPOT, Hartree potential only
   LELF         =      F    write electronic localiz. function (ELF)
   LORBIT       =      0    0 simple, 1 ext, 2 COOP (PROOUT), +10 PAW based schemes


 Dipole corrections
   LMONO  =      F    monopole corrections only (constant potential shift)
   LDIPOL =      F    correct potential (dipole corrections)
   IDIPOL =      0    1-x, 2-y, 3-z, 4-all directions
   EPSILON=  1.0000000 bulk dielectric constant

 Exchange correlation treatment:
   GGA     =    PS    GGA type
   LEXCH   =    14    internal setting for exchange type
   VOSKOWN=      0    Vosko Wilk Nusair interpolation
   LHFCALC =     F    Hartree Fock is set to
   LHFONE  =     F    Hartree Fock one center treatment
   AEXX    =    0.0000 exact exchange contribution

 Linear response parameters
   LEPSILON=     F    determine dielectric tensor
   LRPA    =     F    only Hartree local field effects (RPA)
   LNABLA  =     F    use nabla operator in PAW spheres
   LVEL    =     F    velocity operator in full k-point grid
   LINTERFAST=   F  fast interpolation
   KINTER  =     0    interpolate to denser k-point grid
   CSHIFT  =0.1000    complex shift for real part using Kramers Kronig
   OMEGAMAX=  -1.0    maximum frequency
   DEG_THRESHOLD= 0.2000000E-02 threshold for treating states as degnerate
   RTIME   =   -0.100 relaxation time in fs
  (WPLASMAI=    0.000 imaginary part of plasma frequency in eV, 0.658/RTIME)
   DFIELD  = 0.0000000 0.0000000 0.0000000 field for delta impulse in time

 Orbital magnetization related:
   ORBITALMAG=     F  switch on orbital magnetization
   LCHIMAG   =     F  perturbation theory with respect to B field
   DQ        =  0.001000  dq finite difference perturbation B field
   LLRAUG    =     F  two centre corrections for induced B field



--------------------------------------------------------------------------------------------------------


 Static calculation
 charge density and potential will be updated during run
 non-spin polarized calculation
 Variant of blocked Davidson
 Davidson routine will perform the subspace rotation
 perform sub-space diagonalisation
    after iterative eigenvector-optimisation
 modified Broyden-mixing scheme, WC =      100.0
 initial mixing is a Kerker type mixing with AMIX =  0.4000 and BMIX =      1.0000
 Hartree-type preconditioning will be used
 using additional bands            3
 reciprocal scheme for non local part
 use partial core corrections
 calculate Harris-corrections to forces
   (improved forces if not selfconsistent)
 use gradient corrections
 use of overlap-Matrix (Vanderbilt PP)
 Gauss-broadening in eV      SIGMA  =   0.01


--------------------------------------------------------------------------------------------------------


  energy-cutoff  :      700.00
  volume of cell :       64.21
      direct lattice vectors                 reciprocal lattice vectors
     0.000000000  3.178284000  3.178284000    -0.157317597  0.157317597  0.157317597
     3.178284000  0.000000000  3.178284000     0.157317597 -0.157317597  0.157317597
     3.178284000  3.178284000  0.000000000     0.157317597  0.157317597 -0.157317597

  length of vectors
     4.494772338  4.494772338  4.494772338     0.272482070  0.272482070  0.272482070



 k-points in units of 2pi/SCALE and weight: KPOINTS
   0.00000000  0.00000000  0.00000000       0.000
  -0.01210135  0.01210135  0.01210135       0.004
  -0.02420271  0.02420271  0.02420271       0.004
  -0.03630406  0.03630406  0.03630406       0.004
  -0.04840541  0.04840541  0.04840541       0.004
  -0.06050677  0.06050677  0.06050677       0.004
  -0.07260812  0.07260812  0.07260812       0.004
  -0.00000000  0.00000000  0.02420271       0.003
  -0.01210135  0.01210135  0.03630406       0.011
  -0.02420271  0.02420271  0.04840541       0.011
  -0.03630406  0.03630406  0.06050677       0.011
  -0.04840541  0.04840541  0.07260812       0.011
  -0.06050677  0.06050677  0.08470948       0.011
   0.08470948 -0.08470948 -0.06050677       0.011
   0.07260812 -0.07260812 -0.04840541       0.011
   0.06050677 -0.06050677 -0.03630406       0.011
   0.04840541 -0.04840541 -0.02420271       0.011
   0.03630406 -0.03630406 -0.01210135       0.011
   0.02420271 -0.02420271 -0.00000000       0.005
   0.00000000 -0.00000000  0.04840541       0.003
  -0.01210135  0.01210135  0.06050677       0.011
  -0.02420271  0.02420271  0.07260812       0.011
  -0.03630406  0.03630406  0.08470948       0.011
  -0.04840541  0.04840541  0.09681083       0.011
   0.09681083 -0.09681083 -0.04840541       0.011
   0.08470948 -0.08470948 -0.03630406       0.011
   0.07260812 -0.07260812 -0.02420271       0.011
   0.06050677 -0.06050677 -0.01210135       0.011
   0.04840541 -0.04840541 -0.00000000       0.005
  -0.00000000  0.00000000  0.07260812       0.003
  -0.01210135  0.01210135  0.08470948       0.011
  -0.02420271  0.02420271  0.09681083       0.011
  -0.03630406  0.03630406  0.10891218       0.011
   0.10891218 -0.10891218 -0.03630406       0.011
   0.09681083 -0.09681083 -0.02420271       0.011
   0.08470948 -0.08470948 -0.01210135       0.011
   0.07260812 -0.07260812 -0.00000000       0.005
   0.00000000 -0.00000000  0.09681083       0.003
  -0.01210135  0.01210135  0.10891218       0.011
  -0.02420271  0.02420271  0.12101354       0.011
   0.12101354 -0.12101354 -0.02420271       0.011
   0.10891218 -0.10891218 -0.01210135       0.011
   0.09681083 -0.09681083 -0.00000000       0.005
  -0.00000000  0.00000000  0.12101354       0.003
  -0.01210135  0.01210135  0.13311489       0.011
   0.13311489 -0.13311489 -0.01210135       0.011
   0.12101354 -0.12101354 -0.00000000       0.005
   0.00000000 -0.00000000  0.14521624       0.003
   0.14521624 -0.14521624 -0.00000000       0.005
  -0.00000000  0.02420271  0.04840541       0.011
  -0.01210135  0.03630406  0.06050677       0.022
  -0.02420271  0.04840541  0.07260812       0.022
  -0.03630406  0.06050677  0.08470948       0.022
   0.10891218 -0.08470948 -0.06050677       0.022
   0.00000000  0.02420271  0.07260812       0.011
  -0.01210135  0.03630406  0.08470948       0.022
  -0.02420271  0.04840541  0.09681083       0.022
   0.12101354 -0.09681083 -0.04840541       0.022
   0.10891218 -0.08470948 -0.03630406       0.022
   0.09681083 -0.07260812 -0.02420271       0.022
   0.08470948 -0.06050677 -0.01210135       0.022
   0.07260812 -0.04840541  0.00000000       0.011
   0.00000000  0.02420271  0.09681083       0.011
  -0.01210135  0.03630406  0.10891218       0.022
   0.13311489 -0.10891218 -0.03630406       0.022
   0.12101354 -0.09681083 -0.02420271       0.022
   0.10891218 -0.08470948 -0.01210135       0.022
   0.09681083 -0.07260812 -0.00000000       0.011
   0.00000000  0.02420271  0.12101354       0.011
   0.14521624 -0.12101354 -0.02420271       0.022
   0.13311489 -0.10891218 -0.01210135       0.022
   0.12101354 -0.09681083  0.00000000       0.011
   0.15731760 -0.13311489 -0.01210135       0.011
   0.14521624 -0.12101354 -0.00000000       0.011
   0.00000000  0.04840541  0.09681083       0.011
   0.14521624 -0.09681083 -0.04840541       0.022
   0.13311489 -0.08470948 -0.03630406       0.022
   0.15731760 -0.10891218 -0.03630406       0.011
   0.14521624 -0.09681083 -0.02420271       0.022
   0.13311489 -0.08470948 -0.01210135       0.022
   0.12101354 -0.07260812  0.00000000       0.011
   0.15731760 -0.10891218 -0.01210135       0.011
   0.14521624 -0.09681083 -0.00000000       0.011
   0.15731760 -0.08470948 -0.01210135       0.011

 k-points in reciprocal lattice and weights: KPOINTS
   0.00000000  0.00000000  0.00000000       0.000
   0.07692308  0.00000000 -0.00000000       0.004
   0.15384615  0.00000000 -0.00000000       0.004
   0.23076923 -0.00000000  0.00000000       0.004
   0.30769231  0.00000000 -0.00000000       0.004
   0.38461538  0.00000000  0.00000000       0.004
   0.46153846  0.00000000 -0.00000000       0.004
   0.07692308  0.07692308 -0.00000000       0.003
   0.15384615  0.07692308  0.00000000       0.011
   0.23076923  0.07692308 -0.00000000       0.011
   0.30769231  0.07692308  0.00000000       0.011
   0.38461538  0.07692308 -0.00000000       0.011
   0.46153846  0.07692308 -0.00000000       0.011
  -0.46153846  0.07692308  0.00000000       0.011
  -0.38461538  0.07692308 -0.00000000       0.011
  -0.30769231  0.07692308 -0.00000000       0.011
  -0.23076923  0.07692308 -0.00000000       0.011
  -0.15384615  0.07692308 -0.00000000       0.011
  -0.07692308  0.07692308  0.00000000       0.005
   0.15384615  0.15384615 -0.00000000       0.003
   0.23076923  0.15384615  0.00000000       0.011
   0.30769231  0.15384615 -0.00000000       0.011
   0.38461538  0.15384615 -0.00000000       0.011
   0.46153846  0.15384615 -0.00000000       0.011
  -0.46153846  0.15384615  0.00000000       0.011
  -0.38461538  0.15384615  0.00000000       0.011
  -0.30769231  0.15384615  0.00000000       0.011
  -0.23076923  0.15384615 -0.00000000       0.011
  -0.15384615  0.15384615  0.00000000       0.005
   0.23076923  0.23076923 -0.00000000       0.003
   0.30769231  0.23076923 -0.00000000       0.011
   0.38461538  0.23076923  0.00000000       0.011
   0.46153846  0.23076923 -0.00000000       0.011
  -0.46153846  0.23076923 -0.00000000       0.011
  -0.38461538  0.23076923  0.00000000       0.011
  -0.30769231  0.23076923  0.00000000       0.011
  -0.23076923  0.23076923 -0.00000000       0.005
   0.30769231  0.30769231 -0.00000000       0.003
   0.38461538  0.30769231 -0.00000000       0.011
   0.46153846  0.30769231  0.00000000       0.011
  -0.46153846  0.30769231  0.00000000       0.011
  -0.38461538  0.30769231 -0.00000000       0.011
  -0.30769231  0.30769231  0.00000000       0.005
   0.38461538  0.38461538 -0.00000000       0.003
   0.46153846  0.38461538 -0.00000000       0.011
  -0.46153846  0.38461538  0.00000000       0.011
  -0.38461538  0.38461538 -0.00000000       0.005
   0.46153846  0.46153846 -0.00000000       0.003
  -0.46153846  0.46153846  0.00000000       0.005
   0.23076923  0.15384615  0.07692308       0.011
   0.30769231  0.15384615  0.07692308       0.022
   0.38461538  0.15384615  0.07692308       0.022
   0.46153846  0.15384615  0.07692308       0.022
  -0.46153846  0.15384615  0.07692308       0.022
   0.30769231  0.23076923  0.07692308       0.011
   0.38461538  0.23076923  0.07692308       0.022
   0.46153846  0.23076923  0.07692308       0.022
  -0.46153846  0.23076923  0.07692308       0.022
  -0.38461538  0.23076923  0.07692308       0.022
  -0.30769231  0.23076923  0.07692308       0.022
  -0.23076923  0.23076923  0.07692308       0.022
  -0.15384615  0.23076923  0.07692308       0.011
   0.38461538  0.30769231  0.07692308       0.011
   0.46153846  0.30769231  0.07692308       0.022
  -0.46153846  0.30769231  0.07692308       0.022
  -0.38461538  0.30769231  0.07692308       0.022
  -0.30769231  0.30769231  0.07692308       0.022
  -0.23076923  0.30769231  0.07692308       0.011
   0.46153846  0.38461538  0.07692308       0.011
  -0.46153846  0.38461538  0.07692308       0.022
  -0.38461538  0.38461538  0.07692308       0.022
  -0.30769231  0.38461538  0.07692308       0.011
  -0.46153846  0.46153846  0.07692308       0.011
  -0.38461538  0.46153846  0.07692308       0.011
   0.46153846  0.30769231  0.15384615       0.011
  -0.46153846  0.30769231  0.15384615       0.022
  -0.38461538  0.30769231  0.15384615       0.022
  -0.46153846  0.38461538  0.15384615       0.011
  -0.38461538  0.38461538  0.15384615       0.022
  -0.30769231  0.38461538  0.15384615       0.022
  -0.23076923  0.38461538  0.15384615       0.011
  -0.38461538  0.46153846  0.15384615       0.011
  -0.30769231  0.46153846  0.15384615       0.011
  -0.30769231  0.46153846  0.23076923       0.011

 position of ions in fractional coordinates (direct lattice)
   0.75000000  0.75000000  0.75000000
   0.25000000  0.25000000  0.25000000
   0.00000000  0.00000000  0.00000000

 position of ions in cartesian coordinates  (Angst):
   4.76742600  4.76742600  4.76742600
   1.58914200  1.58914200  1.58914200
   0.00000000  0.00000000  0.00000000



--------------------------------------------------------------------------------------------------------


 k-point  1 :   0.0000 0.0000 0.0000  plane waves:    2733
 k-point  2 :   0.0769 0.0000-0.0000  plane waves:    2715
 k-point  3 :   0.1538 0.0000-0.0000  plane waves:    2704
 k-point  4 :   0.2308-0.0000 0.0000  plane waves:    2701
 k-point  5 :   0.3077 0.0000-0.0000  plane waves:    2695
 k-point  6 :   0.3846 0.0000 0.0000  plane waves:    2707
 k-point  7 :   0.4615 0.0000-0.0000  plane waves:    2719
 k-point  8 :   0.0769 0.0769-0.0000  plane waves:    2717
 k-point  9 :   0.1538 0.0769 0.0000  plane waves:    2701
 k-point 10 :   0.2308 0.0769-0.0000  plane waves:    2700
 k-point 11 :   0.3077 0.0769 0.0000  plane waves:    2709
 k-point 12 :   0.3846 0.0769-0.0000  plane waves:    2708
 k-point 13 :   0.4615 0.0769-0.0000  plane waves:    2699
 k-point 14 :  -0.4615 0.0769 0.0000  plane waves:    2712
 k-point 15 :  -0.3846 0.0769-0.0000  plane waves:    2697
 k-point 16 :  -0.3077 0.0769-0.0000  plane waves:    2702
 k-point 17 :  -0.2308 0.0769-0.0000  plane waves:    2702
 k-point 18 :  -0.1538 0.0769-0.0000  plane waves:    2718
 k-point 19 :  -0.0769 0.0769 0.0000  plane waves:    2707
 k-point 20 :   0.1538 0.1538-0.0000  plane waves:    2714
 k-point 21 :   0.2308 0.1538 0.0000  plane waves:    2702
 k-point 22 :   0.3077 0.1538-0.0000  plane waves:    2705
 k-point 23 :   0.3846 0.1538-0.0000  plane waves:    2697
 k-point 24 :   0.4615 0.1538-0.0000  plane waves:    2707
 k-point 25 :  -0.4615 0.1538 0.0000  plane waves:    2701
 k-point 26 :  -0.3846 0.1538 0.0000  plane waves:    2702
 k-point 27 :  -0.3077 0.1538 0.0000  plane waves:    2695
 k-point 28 :  -0.2308 0.1538-0.0000  plane waves:    2692
 k-point 29 :  -0.1538 0.1538 0.0000  plane waves:    2712
 k-point 30 :   0.2308 0.2308-0.0000  plane waves:    2698
 k-point 31 :   0.3077 0.2308-0.0000  plane waves:    2692
 k-point 32 :   0.3846 0.2308 0.0000  plane waves:    2712
 k-point 33 :   0.4615 0.2308-0.0000  plane waves:    2696
 k-point 34 :  -0.4615 0.2308-0.0000  plane waves:    2688
 k-point 35 :  -0.3846 0.2308 0.0000  plane waves:    2691
 k-point 36 :  -0.3077 0.2308 0.0000  plane waves:    2698
 k-point 37 :  -0.2308 0.2308-0.0000  plane waves:    2706
 k-point 38 :   0.3077 0.3077-0.0000  plane waves:    2702
 k-point 39 :   0.3846 0.3077-0.0000  plane waves:    2702
 k-point 40 :   0.4615 0.3077 0.0000  plane waves:    2708
 k-point 41 :  -0.4615 0.3077 0.0000  plane waves:    2695
 k-point 42 :  -0.3846 0.3077-0.0000  plane waves:    2695
 k-point 43 :  -0.3077 0.3077 0.0000  plane waves:    2690
 k-point 44 :   0.3846 0.3846-0.0000  plane waves:    2710
 k-point 45 :   0.4615 0.3846-0.0000  plane waves:    2711
 k-point 46 :  -0.4615 0.3846 0.0000  plane waves:    2697
 k-point 47 :  -0.3846 0.3846-0.0000  plane waves:    2694
 k-point 48 :   0.4615 0.4615-0.0000  plane waves:    2714
 k-point 49 :  -0.4615 0.4615 0.0000  plane waves:    2702
 k-point 50 :   0.2308 0.1538 0.0769  plane waves:    2715
 k-point 51 :   0.3077 0.1538 0.0769  plane waves:    2701
 k-point 52 :   0.3846 0.1538 0.0769  plane waves:    2709
 k-point 53 :   0.4615 0.1538 0.0769  plane waves:    2705
 k-point 54 :  -0.4615 0.1538 0.0769  plane waves:    2698
 k-point 55 :   0.3077 0.2308 0.0769  plane waves:    2700
 k-point 56 :   0.3846 0.2308 0.0769  plane waves:    2712
 k-point 57 :   0.4615 0.2308 0.0769  plane waves:    2713
 k-point 58 :  -0.4615 0.2308 0.0769  plane waves:    2692
 k-point 59 :  -0.3846 0.2308 0.0769  plane waves:    2697
 k-point 60 :  -0.3077 0.2308 0.0769  plane waves:    2690
 k-point 61 :  -0.2308 0.2308 0.0769  plane waves:    2704
 k-point 62 :  -0.1538 0.2308 0.0769  plane waves:    2695
 k-point 63 :   0.3846 0.3077 0.0769  plane waves:    2704
 k-point 64 :   0.4615 0.3077 0.0769  plane waves:    2700
 k-point 65 :  -0.4615 0.3077 0.0769  plane waves:    2697
 k-point 66 :  -0.3846 0.3077 0.0769  plane waves:    2699
 k-point 67 :  -0.3077 0.3077 0.0769  plane waves:    2696
 k-point 68 :  -0.2308 0.3077 0.0769  plane waves:    2698
 k-point 69 :   0.4615 0.3846 0.0769  plane waves:    2699
 k-point 70 :  -0.4615 0.3846 0.0769  plane waves:    2698
 k-point 71 :  -0.3846 0.3846 0.0769  plane waves:    2687
 k-point 72 :  -0.3077 0.3846 0.0769  plane waves:    2690
 k-point 73 :  -0.4615 0.4615 0.0769  plane waves:    2708
 k-point 74 :  -0.3846 0.4615 0.0769  plane waves:    2697
 k-point 75 :   0.4615 0.3077 0.1538  plane waves:    2699
 k-point 76 :  -0.4615 0.3077 0.1538  plane waves:    2698
 k-point 77 :  -0.3846 0.3077 0.1538  plane waves:    2699
 k-point 78 :  -0.4615 0.3846 0.1538  plane waves:    2695
 k-point 79 :  -0.3846 0.3846 0.1538  plane waves:    2704
 k-point 80 :  -0.3077 0.3846 0.1538  plane waves:    2693
 k-point 81 :  -0.2308 0.3846 0.1538  plane waves:    2705
 k-point 82 :  -0.3846 0.4615 0.1538  plane waves:    2698
 k-point 83 :  -0.3077 0.4615 0.1538  plane waves:    2691
 k-point 84 :  -0.3077 0.4615 0.2308  plane waves:    2701

 maximum and minimum number of plane-waves per node :       689      664

 maximum number of plane-waves:      2733
 maximum index in each direction:
   IXMAX=   10   IYMAX=    9   IZMAX=    9
   IXMIN=  -10   IYMIN=  -10   IZMIN=   -9


 parallel 3D FFT for wavefunctions:
    minimum data exchange during FFTs selected (reduces bandwidth)
 parallel 3D FFT for charge:
    minimum data exchange during FFTs selected (reduces bandwidth)


 total amount of memory used by VASP MPI-rank0    66756. kBytes
=======================================================================

   base      :      30000. kBytes
   nonl-proj :      24999. kBytes
   fftplans  :       5204. kBytes
   grid      :       2732. kBytes
   one-center:         15. kBytes
   wavefun   :       3806. kBytes

     INWAV:  cpu time    0.0003: real time    0.0046
 Broyden mixing: mesh for mixing (old mesh)
   NGX = 19   NGY = 19   NGZ = 19
  (NGX  = 80   NGY  = 80   NGZ  = 80)
  gives a total of   6859 points

 initial charge density was supplied:
 charge density of overlapping atoms calculated
 number of electron      25.0000000 magnetization
 keeping initial charge density in first step


--------------------------------------------------------------------------------------------------------


 Maximum index for augmentation-charges        29427 (set IRDMAX)


--------------------------------------------------------------------------------------------------------


 First call to EWALD:  gamma=   0.443
 Maximum number of real-space cells 3x 3x 3
 Maximum number of reciprocal cells 3x 3x 3

    FEWALD:  cpu time    0.0053: real time    0.0059


--------------------------------------- Iteration      1(   1)  ---------------------------------------


    POTLOK:  cpu time    0.0535: real time    0.1444
    SETDIJ:  cpu time    0.0852: real time    0.0855
     EDDAV:  cpu time    0.9043: real time    0.9300
       DOS:  cpu time    0.0038: real time    0.0043
    --------------------------------------------
      LOOP:  cpu time    1.0472: real time    1.1648

 eigenvalue-minimisations  :  2688
 total energy-change (2. order) : 0.1384278E+03  (-0.1418795E+04)
 number of electron      25.0000000 magnetization
 augmentation part       25.0000000 magnetization

 Free energy of the ion-electron system (eV)
  ---------------------------------------------------
  alpha Z        PSCENC =       106.09980279
  Ewald energy   TEWEN  =     -1564.38492109
  -Hartree energ DENC   =      -323.83127478
  -exchange      EXHF   =         0.00000000
  -V(xc)+E(xc)   XCENC  =       -18.98576271
  PAW double counting   =      1514.36848356    -1421.27055995
  entropy T*S    EENTRO =        -0.00012018
  eigenvalues    EBANDS =       105.32759233
  atomic energy  EATOM  =      1741.10451121
  Solvation  Ediel_sol  =         0.00000000
  ---------------------------------------------------
  free energy    TOTEN  =       138.42775117 eV

  energy without entropy =      138.42787136  energy(sigma->0) =      138.42781126


--------------------------------------------------------------------------------------------------------




--------------------------------------- Iteration      1(   2)  ---------------------------------------


     EDDAV:  cpu time    1.0791: real time    1.1024
       DOS:  cpu time    0.0026: real time    0.0031
    --------------------------------------------
      LOOP:  cpu time    1.0818: real time    1.1090

 eigenvalue-minimisations  :  3360
 total energy-change (2. order) :-0.1585449E+03  (-0.1569633E+03)
 number of electron      25.0000000 magnetization
 augmentation part       25.0000000 magnetization

 Free energy of the ion-electron system (eV)
  ---------------------------------------------------
  alpha Z        PSCENC =       106.09980279
  Ewald energy   TEWEN  =     -1564.38492109
  -Hartree energ DENC   =      -323.83127478
  -exchange      EXHF   =         0.00000000
  -V(xc)+E(xc)   XCENC  =       -18.98576271
  PAW double counting   =      1514.36848356    -1421.27055995
  entropy T*S    EENTRO =        -0.00016920
  eigenvalues    EBANDS =       -53.21725915
  atomic energy  EATOM  =      1741.10451121
  Solvation  Ediel_sol  =         0.00000000
  ---------------------------------------------------
  free energy    TOTEN  =       -20.11714932 eV

  energy without entropy =      -20.11698013  energy(sigma->0) =      -20.11706472


--------------------------------------------------------------------------------------------------------




--------------------------------------- Iteration      1(   3)  ---------------------------------------


     EDDAV:  cpu time    1.1664: real time    1.1853
       DOS:  cpu time    0.0021: real time    0.0024
    --------------------------------------------
      LOOP:  cpu time    1.1685: real time    1.1851

 eigenvalue-minimisations  :  3648
 total energy-change (2. order) :-0.4805564E+01  (-0.4726303E+01)
 number of electron      25.0000000 magnetization
 augmentation part       25.0000000 magnetization

 Free energy of the ion-electron system (eV)
  ---------------------------------------------------
  alpha Z        PSCENC =       106.09980279
  Ewald energy   TEWEN  =     -1564.38492109
  -Hartree energ DENC   =      -323.83127478
  -exchange      EXHF   =         0.00000000
  -V(xc)+E(xc)   XCENC  =       -18.98576271
  PAW double counting   =      1514.36848356    -1421.27055995
  entropy T*S    EENTRO =        -0.00014126
  eigenvalues    EBANDS =       -58.02285130
  atomic energy  EATOM  =      1741.10451121
  Solvation  Ediel_sol  =         0.00000000
  ---------------------------------------------------
  free energy    TOTEN  =       -24.92271353 eV

  energy without entropy =      -24.92257228  energy(sigma->0) =      -24.92264290


--------------------------------------------------------------------------------------------------------




--------------------------------------- Iteration      1(   4)  ---------------------------------------


     EDDAV:  cpu time    1.0809: real time    1.0995
       DOS:  cpu time    0.0025: real time    0.0028
    --------------------------------------------
      LOOP:  cpu time    1.0834: real time    1.1046

 eigenvalue-minimisations  :  3280
 total energy-change (2. order) :-0.7227374E-01  (-0.7216348E-01)
 number of electron      25.0000000 magnetization
 augmentation part       25.0000000 magnetization

 Free energy of the ion-electron system (eV)
  ---------------------------------------------------
  alpha Z        PSCENC =       106.09980279
  Ewald energy   TEWEN  =     -1564.38492109
  -Hartree energ DENC   =      -323.83127478
  -exchange      EXHF   =         0.00000000
  -V(xc)+E(xc)   XCENC  =       -18.98576271
  PAW double counting   =      1514.36848356    -1421.27055995
  entropy T*S    EENTRO =        -0.00015131
  eigenvalues    EBANDS =       -58.09511499
  atomic energy  EATOM  =      1741.10451121
  Solvation  Ediel_sol  =         0.00000000
  ---------------------------------------------------
  free energy    TOTEN  =       -24.99498727 eV

  energy without entropy =      -24.99483596  energy(sigma->0) =      -24.99491161


--------------------------------------------------------------------------------------------------------




--------------------------------------- Iteration      1(   5)  ---------------------------------------


     EDDAV:  cpu time    1.1832: real time    1.2036
       DOS:  cpu time    0.0026: real time    0.0029
    CHARGE:  cpu time    0.2333: real time    0.2339
    MIXING:  cpu time    0.0047: real time    0.0052
    --------------------------------------------
      LOOP:  cpu time    1.4237: real time    1.4466

 eigenvalue-minimisations  :  3680
 total energy-change (2. order) :-0.1542363E-02  (-0.1542063E-02)
 number of electron      25.0000000 magnetization
 augmentation part        4.7720488 magnetization

 Broyden mixing:
  rms(total) = 0.42692E+01    rms(broyden)= 0.42692E+01
  rms(prec ) = 0.44725E+01
  weight for this iteration     100.00

 Free energy of the ion-electron system (eV)
  ---------------------------------------------------
  alpha Z        PSCENC =       106.09980279
  Ewald energy   TEWEN  =     -1564.38492109
  -Hartree energ DENC   =      -323.83127478
  -exchange      EXHF   =         0.00000000
  -V(xc)+E(xc)   XCENC  =       -18.98576271
  PAW double counting   =      1514.36848356    -1421.27055995
  entropy T*S    EENTRO =        -0.00015174
  eigenvalues    EBANDS =       -58.09665692
  atomic energy  EATOM  =      1741.10451121
  Solvation  Ediel_sol  =         0.00000000
  ---------------------------------------------------
  free energy    TOTEN  =       -24.99652963 eV

  energy without entropy =      -24.99637789  energy(sigma->0) =      -24.99645376


--------------------------------------------------------------------------------------------------------




--------------------------------------- Iteration      1(   6)  ---------------------------------------


    POTLOK:  cpu time    0.0515: real time    0.0719
    SETDIJ:  cpu time    0.0798: real time    0.0800
     EDDAV:  cpu time    1.0947: real time    1.0949
       DOS:  cpu time    0.0026: real time    0.0030
    CHARGE:  cpu time    0.1899: real time    0.1900
    MIXING:  cpu time    0.0054: real time    0.0056
    --------------------------------------------
      LOOP:  cpu time    1.4239: real time    1.4448

 eigenvalue-minimisations  :  3488
 total energy-change (2. order) : 0.7651536E+00  (-0.1684478E+00)
 number of electron      25.0000000 magnetization
 augmentation part        4.9457103 magnetization

 Broyden mixing:
  rms(total) = 0.25870E+01    rms(broyden)= 0.25870E+01
  rms(prec ) = 0.26446E+01
  weight for this iteration     100.00

 eigenvalues of (default mixing * dielectric matrix)
  average eigenvalue GAMMA=   2.4808
  2.4808

 Free energy of the ion-electron system (eV)
  ---------------------------------------------------
  alpha Z        PSCENC =       106.09980279
  Ewald energy   TEWEN  =     -1564.38492109
  -Hartree energ DENC   =      -309.25873287
  -exchange      EXHF   =         0.00000000
  -V(xc)+E(xc)   XCENC  =       -19.48347349
  PAW double counting   =      1943.58077909    -1852.99235995
  entropy T*S    EENTRO =        -0.00020182
  eigenvalues    EBANDS =       -68.89677993
  atomic energy  EATOM  =      1741.10451121
  Solvation  Ediel_sol  =         0.00000000
  ---------------------------------------------------
  free energy    TOTEN  =       -24.23137606 eV

  energy without entropy =      -24.23117424  energy(sigma->0) =      -24.23127515


--------------------------------------------------------------------------------------------------------




--------------------------------------- Iteration      1(   7)  ---------------------------------------


    POTLOK:  cpu time    0.0510: real time    0.0702
    SETDIJ:  cpu time    0.0722: real time    0.0723
     EDDAV:  cpu time    1.1594: real time    1.1597
       DOS:  cpu time    0.0026: real time    0.0028
    CHARGE:  cpu time    0.1865: real time    0.1866
    MIXING:  cpu time    0.0040: real time    0.0042
    --------------------------------------------
      LOOP:  cpu time    1.4757: real time    1.4961

 eigenvalue-minimisations  :  3816
 total energy-change (2. order) : 0.1370920E+00  (-0.1006232E+00)
 number of electron      25.0000000 magnetization
 augmentation part        4.9880405 magnetization

 Broyden mixing:
  rms(total) = 0.38675E+00    rms(broyden)= 0.38675E+00
  rms(prec ) = 0.49984E+00
  weight for this iteration     100.00

 eigenvalues of (default mixing * dielectric matrix)
  average eigenvalue GAMMA=   1.9123
  1.1902  2.6345

 Free energy of the ion-electron system (eV)
  ---------------------------------------------------
  alpha Z        PSCENC =       106.09980279
  Ewald energy   TEWEN  =     -1564.38492109
  -Hartree energ DENC   =      -300.86612955
  -exchange      EXHF   =         0.00000000
  -V(xc)+E(xc)   XCENC  =       -19.70344989
  PAW double counting   =      2578.83276502    -2491.19642029
  entropy T*S    EENTRO =        -0.00032363
  eigenvalues    EBANDS =       -73.98011858
  atomic energy  EATOM  =      1741.10451121
  Solvation  Ediel_sol  =         0.00000000
  ---------------------------------------------------
  free energy    TOTEN  =       -24.09428401 eV

  energy without entropy =      -24.09396038  energy(sigma->0) =      -24.09412219


--------------------------------------------------------------------------------------------------------




--------------------------------------- Iteration      1(   8)  ---------------------------------------


    POTLOK:  cpu time    0.0771: real time    0.1103
    SETDIJ:  cpu time    0.0716: real time    0.0718
     EDDAV:  cpu time    1.0907: real time    1.0909
       DOS:  cpu time    0.0026: real time    0.0028
    CHARGE:  cpu time    0.2232: real time    0.2234
    MIXING:  cpu time    0.0039: real time    0.0041
    --------------------------------------------
      LOOP:  cpu time    1.4690: real time    1.5049

 eigenvalue-minimisations  :  3520
 total energy-change (2. order) : 0.2607864E-01  (-0.3912334E-01)
 number of electron      25.0000000 magnetization
 augmentation part        5.0296569 magnetization

 Broyden mixing:
  rms(total) = 0.95079E-01    rms(broyden)= 0.95079E-01
  rms(prec ) = 0.20458E+00
  weight for this iteration     100.00

 eigenvalues of (default mixing * dielectric matrix)
  average eigenvalue GAMMA=   1.5265
  2.5147  1.4338  0.6310

 Free energy of the ion-electron system (eV)
  ---------------------------------------------------
  alpha Z        PSCENC =       106.09980279
  Ewald energy   TEWEN  =     -1564.38492109
  -Hartree energ DENC   =      -301.14313099
  -exchange      EXHF   =         0.00000000
  -V(xc)+E(xc)   XCENC  =       -19.66261751
  PAW double counting   =      2635.72645737    -2548.22597362
  entropy T*S    EENTRO =        -0.00021254
  eigenvalues    EBANDS =       -73.58212098
  atomic energy  EATOM  =      1741.10451121
  Solvation  Ediel_sol  =         0.00000000
  ---------------------------------------------------
  free energy    TOTEN  =       -24.06820537 eV

  energy without entropy =      -24.06799283  energy(sigma->0) =      -24.06809910


--------------------------------------------------------------------------------------------------------




--------------------------------------- Iteration      1(   9)  ---------------------------------------


    POTLOK:  cpu time    0.0428: real time    0.0663
    SETDIJ:  cpu time    0.0715: real time    0.0717
     EDDAV:  cpu time    0.9414: real time    0.9417
       DOS:  cpu time    0.0026: real time    0.0035
    CHARGE:  cpu time    0.1696: real time    0.1701
    MIXING:  cpu time    0.0038: real time    0.0042
    --------------------------------------------
      LOOP:  cpu time    1.2317: real time    1.2563

 eigenvalue-minimisations  :  2920
 total energy-change (2. order) : 0.9132091E-02  (-0.5611437E-02)
 number of electron      25.0000000 magnetization
 augmentation part        4.9963760 magnetization

 Broyden mixing:
  rms(total) = 0.34970E-01    rms(broyden)= 0.34970E-01
  rms(prec ) = 0.52076E-01
  weight for this iteration     100.00

 eigenvalues of (default mixing * dielectric matrix)
  average eigenvalue GAMMA=   1.4317
  2.4095  1.3397  1.3397  0.6378

 Free energy of the ion-electron system (eV)
  ---------------------------------------------------
  alpha Z        PSCENC =       106.09980279
  Ewald energy   TEWEN  =     -1564.38492109
  -Hartree energ DENC   =      -302.59206480
  -exchange      EXHF   =         0.00000000
  -V(xc)+E(xc)   XCENC  =       -19.61153493
  PAW double counting   =      2624.70093040    -2537.11008102
  entropy T*S    EENTRO =        -0.00023135
  eigenvalues    EBANDS =       -72.26548449
  atomic energy  EATOM  =      1741.10451121
  Solvation  Ediel_sol  =         0.00000000
  ---------------------------------------------------
  free energy    TOTEN  =       -24.05907328 eV

  energy without entropy =      -24.05884193  energy(sigma->0) =      -24.05895760


--------------------------------------------------------------------------------------------------------




--------------------------------------- Iteration      1(  10)  ---------------------------------------


    POTLOK:  cpu time    0.0357: real time    0.0673
    SETDIJ:  cpu time    0.0715: real time    0.0716
     EDDAV:  cpu time    1.1270: real time    1.1273
       DOS:  cpu time    0.0026: real time    0.0030
    CHARGE:  cpu time    0.1684: real time    0.1686
    MIXING:  cpu time    0.0039: real time    0.0052
    --------------------------------------------
      LOOP:  cpu time    1.4092: real time    1.4433

 eigenvalue-minimisations  :  3664
 total energy-change (2. order) : 0.1554091E-03  (-0.7596093E-03)
 number of electron      25.0000000 magnetization
 augmentation part        4.9922558 magnetization

 Broyden mixing:
  rms(total) = 0.26674E-01    rms(broyden)= 0.26674E-01
  rms(prec ) = 0.33650E-01
  weight for this iteration     100.00

 eigenvalues of (default mixing * dielectric matrix)
  average eigenvalue GAMMA=   1.3737
  2.4718  1.7998  1.0864  0.6988  0.8116

 Free energy of the ion-electron system (eV)
  ---------------------------------------------------
  alpha Z        PSCENC =       106.09980279
  Ewald energy   TEWEN  =     -1564.38492109
  -Hartree energ DENC   =      -302.53129819
  -exchange      EXHF   =         0.00000000
  -V(xc)+E(xc)   XCENC  =       -19.61442278
  PAW double counting   =      2627.61624054    -2539.95770975
  entropy T*S    EENTRO =        -0.00028405
  eigenvalues    EBANDS =       -72.39083655
  atomic energy  EATOM  =      1741.10451121
  Solvation  Ediel_sol  =         0.00000000
  ---------------------------------------------------
  free energy    TOTEN  =       -24.05891787 eV

  energy without entropy =      -24.05863381  energy(sigma->0) =      -24.05877584


--------------------------------------------------------------------------------------------------------




--------------------------------------- Iteration      1(  11)  ---------------------------------------


    POTLOK:  cpu time    0.0354: real time    0.0654
    SETDIJ:  cpu time    0.0724: real time    0.0725
     EDDAV:  cpu time    1.0286: real time    1.0289
       DOS:  cpu time    0.0026: real time    0.0028
    CHARGE:  cpu time    0.1698: real time    0.1700
    MIXING:  cpu time    0.0047: real time    0.0048
    --------------------------------------------
      LOOP:  cpu time    1.3135: real time    1.3428

 eigenvalue-minimisations  :  3264
 total energy-change (2. order) : 0.1203096E-03  (-0.5575285E-04)
 number of electron      25.0000000 magnetization
 augmentation part        4.9943546 magnetization

 Broyden mixing:
  rms(total) = 0.79301E-02    rms(broyden)= 0.79301E-02
  rms(prec ) = 0.92054E-02
  weight for this iteration     100.00

 eigenvalues of (default mixing * dielectric matrix)
  average eigenvalue GAMMA=   1.4462
  2.5538  2.2812  1.0740  1.0422  1.0422  0.6840

 Free energy of the ion-electron system (eV)
  ---------------------------------------------------
  alpha Z        PSCENC =       106.09980279
  Ewald energy   TEWEN  =     -1564.38492109
  -Hartree energ DENC   =      -302.58588283
  -exchange      EXHF   =         0.00000000
  -V(xc)+E(xc)   XCENC  =       -19.61052216
  PAW double counting   =      2630.50666334    -2542.83335111
  entropy T*S    EENTRO =        -0.00027183
  eigenvalues    EBANDS =       -72.35482586
  atomic energy  EATOM  =      1741.10451121
  Solvation  Ediel_sol  =         0.00000000
  ---------------------------------------------------
  free energy    TOTEN  =       -24.05879756 eV

  energy without entropy =      -24.05852572  energy(sigma->0) =      -24.05866164


--------------------------------------------------------------------------------------------------------




--------------------------------------- Iteration      1(  12)  ---------------------------------------


    POTLOK:  cpu time    0.0640: real time    0.0792
    SETDIJ:  cpu time    0.0730: real time    0.0732
     EDDAV:  cpu time    1.1124: real time    1.1125
       DOS:  cpu time    0.0025: real time    0.0036
    CHARGE:  cpu time    0.1685: real time    0.1686
    MIXING:  cpu time    0.0050: real time    0.0053
    --------------------------------------------
      LOOP:  cpu time    1.4254: real time    1.4449

 eigenvalue-minimisations  :  3608
 total energy-change (2. order) : 0.1732644E-05  (-0.8054383E-05)
 number of electron      25.0000000 magnetization
 augmentation part        4.9942737 magnetization

 Broyden mixing:
  rms(total) = 0.20209E-02    rms(broyden)= 0.20209E-02
  rms(prec ) = 0.21808E-02
  weight for this iteration     100.00

 eigenvalues of (default mixing * dielectric matrix)
  average eigenvalue GAMMA=   1.4679
  2.3466  2.3466  1.9088  1.0395  1.0395  0.6890  0.9057

 Free energy of the ion-electron system (eV)
  ---------------------------------------------------
  alpha Z        PSCENC =       106.09980279
  Ewald energy   TEWEN  =     -1564.38492109
  -Hartree energ DENC   =      -302.64511985
  -exchange      EXHF   =         0.00000000
  -V(xc)+E(xc)   XCENC  =       -19.60761784
  PAW double counting   =      2630.91783953    -2543.23139163
  entropy T*S    EENTRO =        -0.00026797
  eigenvalues    EBANDS =       -72.31163098
  atomic energy  EATOM  =      1741.10451121
  Solvation  Ediel_sol  =         0.00000000
  ---------------------------------------------------
  free energy    TOTEN  =       -24.05879582 eV

  energy without entropy =      -24.05852786  energy(sigma->0) =      -24.05866184


--------------------------------------------------------------------------------------------------------




--------------------------------------- Iteration      1(  13)  ---------------------------------------


    POTLOK:  cpu time    0.0337: real time    0.0653
    SETDIJ:  cpu time    0.0727: real time    0.0728
     EDDAV:  cpu time    1.0179: real time    1.0183
       DOS:  cpu time    0.0026: real time    0.0029
    CHARGE:  cpu time    0.1704: real time    0.1706
    MIXING:  cpu time    0.0056: real time    0.0058
    --------------------------------------------
      LOOP:  cpu time    1.3028: real time    1.3363

 eigenvalue-minimisations  :  3144
 total energy-change (2. order) : 0.1387200E-05  (-0.3777006E-06)
 number of electron      25.0000000 magnetization
 augmentation part        4.9943811 magnetization

 Broyden mixing:
  rms(total) = 0.68241E-03    rms(broyden)= 0.68240E-03
  rms(prec ) = 0.74755E-03
  weight for this iteration     100.00

 eigenvalues of (default mixing * dielectric matrix)
  average eigenvalue GAMMA=   1.5022
  2.5774  2.5774  1.9921  1.2481  0.6884  0.9443  0.9949  0.9949

 Free energy of the ion-electron system (eV)
  ---------------------------------------------------
  alpha Z        PSCENC =       106.09980279
  Ewald energy   TEWEN  =     -1564.38492109
  -Hartree energ DENC   =      -302.63125923
  -exchange      EXHF   =         0.00000000
  -V(xc)+E(xc)   XCENC  =       -19.60828173
  PAW double counting   =      2630.55318987    -2542.86458626
  entropy T*S    EENTRO =        -0.00026859
  eigenvalues    EBANDS =       -72.32698141
  atomic energy  EATOM  =      1741.10451121
  Solvation  Ediel_sol  =         0.00000000
  ---------------------------------------------------
  free energy    TOTEN  =       -24.05879444 eV

  energy without entropy =      -24.05852585  energy(sigma->0) =      -24.05866014


--------------------------------------------------------------------------------------------------------




--------------------------------------- Iteration      1(  14)  ---------------------------------------


    POTLOK:  cpu time    0.0349: real time    0.0733
    SETDIJ:  cpu time    0.0709: real time    0.0710
     EDDAV:  cpu time    0.9174: real time    0.9176
       DOS:  cpu time    0.0025: real time    0.0027
    --------------------------------------------
      LOOP:  cpu time    1.0257: real time    1.0582

 eigenvalue-minimisations  :  2768
 total energy-change (2. order) :-0.4644971E-07  (-0.1508204E-07)
 number of electron      25.0000000 magnetization
 augmentation part        4.9943811 magnetization

 Free energy of the ion-electron system (eV)
  ---------------------------------------------------
  alpha Z        PSCENC =       106.09980279
  Ewald energy   TEWEN  =     -1564.38492109
  -Hartree energ DENC   =      -302.63558095
  -exchange      EXHF   =         0.00000000
  -V(xc)+E(xc)   XCENC  =       -19.60803069
  PAW double counting   =      2630.76102607    -2543.07068454
  entropy T*S    EENTRO =        -0.00026856
  eigenvalues    EBANDS =       -72.32464873
  atomic energy  EATOM  =      1741.10451121
  Solvation  Ediel_sol  =         0.00000000
  ---------------------------------------------------
  free energy    TOTEN  =       -24.05879448 eV

  energy without entropy =      -24.05852593  energy(sigma->0) =      -24.05866021


--------------------------------------------------------------------------------------------------------




 average (electrostatic) potential at core
  the test charge radii are     1.1707  1.1712  1.2059
  (the norm of the test charge is              1.0000)
       1 -34.7666       2 -84.6330       3 -66.3916



 E-fermi :   8.9846     XC(G=0): -11.3494     alpha+bet :-13.6330


 k-point     1 :       0.0000    0.0000    0.0000
  band No.  band energies     occupation
      1     -23.2813      2.00000
      2     -23.2813      2.00000
      3     -23.2813      2.00000
      4      -3.8528      2.00000
      5       2.8932      2.00000
      6       2.8932      2.00000
      7       2.8932      2.00000
      8       3.7078      2.00000
      9       3.7078      2.00000
     10       7.3077      2.00000
     11       7.3077      2.00000
     12       7.3077      2.00000
     13       7.9898      2.00000
     14       9.8552      0.00000
     15       9.8552      0.00000
     16       9.8552      0.00000

 k-point     2 :       0.0769    0.0000   -0.0000
  band No.  band energies     occupation
      1     -23.2823      2.00000
      2     -23.2812      2.00000
      3     -23.2812      2.00000
      4      -3.7879      2.00000
      5       2.8144      2.00000
      6       2.8653      2.00000
      7       2.8653      2.00000
      8       3.7484      2.00000
      9       3.7484      2.00000
     10       6.7554      2.00000
     11       7.2419      2.00000
     12       7.2419      2.00000
     13       8.2312      2.00000
     14       9.6909      0.00000
     15       9.6909      0.00000
     16      10.2370      0.00000

 k-point     3 :       0.1538    0.0000   -0.0000
  band No.  band energies     occupation
      1     -23.2853      2.00000
      2     -23.2811      2.00000
      3     -23.2811      2.00000
      4      -3.5997      2.00000
      5       2.5952      2.00000
      6       2.8058      2.00000
      7       2.8058      2.00000
      8       3.8385      2.00000
      9       3.8385      2.00000
     10       5.8948      2.00000
     11       7.0770      2.00000
     12       7.0770      2.00000
     13       8.4600      2.00000
     14       9.5910      0.00000
     15       9.5910      0.00000
     16      11.0244      0.00000

 k-point     4 :       0.2308   -0.0000    0.0000
  band No.  band energies     occupation
      1     -23.2893      2.00000
      2     -23.2809      2.00000
      3     -23.2809      2.00000
      4      -3.3097      2.00000
      5       2.2726      2.00000
      6       2.7526      2.00000
      7       2.7526      2.00000
      8       3.9223      2.00000
      9       3.9223      2.00000
     10       5.1066      2.00000
     11       6.8848      2.00000
     12       6.8848      2.00000
     13       8.6391      2.00000
     14       9.6221      0.00000
     15       9.6221      0.00000
     16      11.6754      0.00000

 k-point     5 :       0.3077    0.0000   -0.0000
  band No.  band energies     occupation
      1     -23.2936      2.00000
      2     -23.2807      2.00000
      3     -23.2807      2.00000
      4      -2.9586      2.00000
      5       1.8889      2.00000
      6       2.7239      2.00000
      7       2.7239      2.00000
      8       3.9637      2.00000
      9       3.9637      2.00000
     10       4.5000      2.00000
     11       6.7281      2.00000
     12       6.7281      2.00000
     13       8.8014      2.00000
     14       9.7518      0.00000
     15       9.7518      0.00000
     16      11.2233      0.00000

 k-point     6 :       0.3846    0.0000    0.0000
  band No.  band energies     occupation
      1     -23.2972      2.00000
      2     -23.2806      2.00000
      3     -23.2806      2.00000
      4      -2.6169      2.00000
      5       1.5140      2.00000
      6       2.7185      2.00000
      7       2.7185      2.00000
      8       3.9617      2.00000
      9       3.9617      2.00000
     10       4.1100      2.00000
     11       6.6326      2.00000
     12       6.6326      2.00000
     13       8.9643      1.99586
     14       9.9300      0.00000
     15       9.9300      0.00000
     16      10.4811      0.00000

 k-point     7 :       0.4615    0.0000   -0.0000
  band No.  band energies     occupation
      1     -23.2991      2.00000
      2     -23.2805      2.00000
      3     -23.2805      2.00000
      4      -2.3927      2.00000
      5       1.2671      2.00000
      6       2.7228      2.00000
      7       2.7228      2.00000
      8       3.9252      2.00000
      9       3.9456      2.00000
     10       3.9456      2.00000
     11       6.5917      2.00000
     12       6.5917      2.00000
     13       9.1176      0.00000
     14       9.9978      0.00000
     15      10.0702      0.00000
     16      10.0702      0.00000

 k-point     8 :       0.0769    0.0769   -0.0000
  band No.  band energies     occupation
      1     -23.2823      2.00000
      2     -23.2814      2.00000
      3     -23.2814      2.00000
      4      -3.7666      2.00000
      5       2.6737      2.00000
      6       2.9240      2.00000
      7       2.9240      2.00000
      8       3.7410      2.00000
      9       3.7655      2.00000
     10       6.7945      2.00000
     11       7.1118      2.00000
     12       7.1118      2.00000
     13       8.3035      2.00000
     14       9.5564      0.00000
     15      10.1381      0.00000
     16      10.1382      0.00000

 k-point     9 :       0.1538    0.0769    0.0000
  band No.  band energies     occupation
      1     -23.2845      2.00000
      2     -23.2815      2.00000
      3     -23.2813      2.00000
      4      -3.6207      2.00000
      5       2.4615      2.00000
      6       2.9002      2.00000
      7       2.9270      2.00000
      8       3.8058      2.00000
      9       3.8235      2.00000
     10       6.1448      2.00000
     11       6.9206      2.00000
     12       6.9880      2.00000
     13       8.5410      2.00000
     14       9.4119      0.00000
     15       9.8505      0.00000
     16      10.6237      0.00000

 k-point    10 :       0.2308    0.0769   -0.0000
  band No.  band energies     occupation
      1     -23.2881      2.00000
      2     -23.2814      2.00000
      3     -23.2811      2.00000
      4      -3.3666      2.00000
      5       2.2141      2.00000
      6       2.8080      2.00000
      7       2.8969      2.00000
      8       3.8936      2.00000
      9       3.9002      2.00000
     10       5.3667      2.00000
     11       6.7372      2.00000
     12       6.8154      2.00000
     13       8.8082      2.00000
     14       9.4076      0.00000
     15       9.7363      0.00000
     16      11.1912      0.00000

 k-point    11 :       0.3077    0.0769    0.0000
  band No.  band energies     occupation
      1     -23.2922      2.00000
      2     -23.2812      2.00000
      3     -23.2810      2.00000
      4      -3.0383      2.00000
      5       1.9228      2.00000
      6       2.7201      2.00000
      7       2.8615      2.00000
      8       3.9503      2.00000
      9       3.9573      2.00000
     10       4.7046      2.00000
     11       6.6068      2.00000
     12       6.6421      2.00000
     13       8.9162      2.00000
     14       9.6584      0.00000
     15       9.7505      0.00000
     16      11.3023      0.00000

 k-point    12 :       0.3846    0.0769   -0.0000
  band No.  band energies     occupation
      1     -23.2959      2.00000
      2     -23.2810      2.00000
      3     -23.2810      2.00000
      4      -2.6951      2.00000
      5       1.6079      2.00000
      6       2.6775      2.00000
      7       2.8275      2.00000
      8       3.9631      2.00000
      9       3.9694      2.00000
     10       4.2438      2.00000
     11       6.5135      2.00000
     12       6.5401      2.00000
     13       8.9837      1.10334
     14       9.8724      0.00000
     15       9.9666      0.00000
     16      10.6605      0.00000

 k-point    13 :       0.4615    0.0769   -0.0000
  band No.  band energies     occupation
      1     -23.2983      2.00000
      2     -23.2811      2.00000
      3     -23.2808      2.00000
      4      -2.4299      2.00000
      5       1.3534      2.00000
      6       2.6835      2.00000
      7       2.7870      2.00000
      8       3.9168      2.00000
      9       3.9599      2.00000
     10       4.0268      2.00000
     11       6.4379      2.00000
     12       6.5220      2.00000
     13       9.1012      0.00000
     14       9.9548      0.00000
     15      10.0319      0.00000
     16      10.3407      0.00000

 k-point    14 :      -0.4615    0.0769    0.0000
  band No.  band energies     occupation
      1     -23.2990      2.00000
      2     -23.2813      2.00000
      3     -23.2805      2.00000
      4      -2.3519      2.00000
      5       1.2780      2.00000
      6       2.7236      2.00000
      7       2.7341      2.00000
      8       3.8702      2.00000
[...]
  212              fftbas_plan_mpi                       0.064560                     12   6
  213                dfftw_execute                         0.025817                   36   7
  214                map_backward                          0.004660                   12   7
  215                  map_gather                            0.000730                  6   8
  216                  m_alltoallv_z                         0.002544                  6   8
  217                  map_scatter                           0.001097                  6   8
  218                map_forward                           0.030839                   12   7
  219                  map_gather                            0.018331                  6   8
  220                  m_alltoallv_z                         0.006021                  6   8
  221                  map_scatter                           0.006184                  6   8
  222            M_sumb_d                              0.005480                        6   5
  223          M_sumb_d                              0.000024                          1   4
  224        setdij_                               1.265284                           20   3
  225          fft3d_mpi                             0.222181                         40   4
  226            fftbas_plan_mpi                       0.204891                       40   5
  227              dfftw_execute                         0.086841                    120   6
  228              map_backward                          0.012818                     40   6
  229                map_gather                            0.002625                   20   7
  230                m_alltoallv_z                         0.005501                   20   7
  231                map_scatter                           0.003752                   20   7
  232              map_forward                           0.094913                     40   6
  233                map_gather                            0.053010                   20   7
  234                m_alltoallv_z                         0.018900                   20   7
  235                map_scatter                           0.021918                   20   7
  236          M_sumb_d                              0.011771                         20   4
  237        set_dd_magatom                        0.000004                            1   3
  238        set_dd_paw                            0.005743                            1   3
  239          set_rsgf_all                          0.000004                          1   4
  240          M_sumb_d                              0.005573                          8   4
  241        strkin                                0.001181                            1   3
  242          M_sumb_d                              0.000740                          1   4
  243        strelo                                0.002536                            1   3
  244          M_sumb_d                              0.000351                          2   4
  245        strenl                                0.691621                            1   3
  246          spher                                 0.547855                         19   4
  247          phase                                 0.011336                        189   4
  248          proj1                                 0.115806                        756   4
  249            crexp_mul_wave                        0.017597                     2268   5
  250            M_sumb_d                              0.034010                      756   5
  251          M_sumb_d                              0.004777                          1   4
  252        M_sumb_d                              0.000340                            6   3
  253        fft3d_mpi                             0.015056                           11   3
  254          fftbas_plan_mpi                       0.014058                         11   4
  255            dfftw_execute                         0.004976                       33   5
  256            map_forward                           0.002723                       10   5
  257              map_gather                            0.000586                      5   6
  258              m_alltoallv_z                         0.001287                      5   6
  259              map_scatter                           0.000620                      5   6
  260            map_backward                          0.003681                       12   5
  261              map_gather                            0.000769                      6   6
  262              m_alltoallv_z                         0.001495                      6   6
  263              map_scatter                           0.001123                      6   6
  264        ggaall_grid                           0.001580                            1   3
  265        forhar                                0.006343                            2   3
  266          M_sumb_d                              0.000435                          2   4
  267        strehar                               0.002662                            1   3
  268          M_sumb_d                              0.000140                          1   4
  269        chggra                                0.005700                            1   3
  270          fft3d_mpi                             0.004010                          3   4
  271            fftbas_plan_mpi                       0.003740                        3   5
  272              dfftw_execute                         0.001412                      9   6
  273              map_backward                          0.000586                      2   6
  274                map_gather                            0.000119                    1   7
  275                m_alltoallv_z                         0.000242                    1   7
  276                map_scatter                           0.000173                    1   7
  277              map_forward                           0.001037                      4   6
  278                map_gather                            0.000222                    2   7
  279                m_alltoallv_z                         0.000482                    2   7
  280                map_scatter                           0.000240                    2   7
  281          M_sumb_d                              0.000149                          3   4
  282        brmix                                 0.006346                            1   3
  283          M_sumb_d                              0.000261                          6   4
  284          brpre                                 0.000051                          1   4
  285          setg0                                 0.001147                          1   4
  286          broyd                                 0.001727                          1   4
  287            M_sumb_d                              0.000498                       16   5
  288            brget                                 0.000248                       54   5
  289            brsav                                 0.000063                       14   5
  290          M_bcast_z                             0.002222                          1   4
  291          M_bcast_d                             0.000044                          1   4
  292        M_bcast_d                             0.000375                            2   3
  293      potlok                                0.026689                              1   2
  294        fft3d_mpi                             0.018314                           13   3
  295          fftbas_plan_mpi                       0.017122                         13   4
  296            dfftw_execute                         0.005888                       39   5
  297            map_forward                           0.003887                       14   5
  298              map_gather                            0.000758                      8   6
  299              m_alltoallv_z                         0.001897                      8   6
  300              map_scatter                           0.000869                      8   6
  301            map_backward                          0.004353                       12   5
  302              map_gather                            0.000902                      6   6
  303              m_alltoallv_z                         0.001857                      6   6
  304              map_scatter                           0.001282                      6   6
  305        ggaall_grid                           0.001513                            1   3
  306        M_sumb_d                              0.000276                            6   3
  307        M_bcast_d                             0.000108                            1   3
  308      potlok_metagga                        0.000003                              1   2
  309      set_dd_magatom                        0.000004                              1   2
  310      set_dd_paw                            0.000377                              1   2
  311        set_rsgf_all                          0.000004                            1   3
  312        M_sumb_d                              0.000235                            8   3
  313      densta                                0.002052                              1   2
  314        M_sumb_d                              0.000790                           41   3
  315      lprj_proall                           0.000007                              1   2

 Flat profile
 ============

             routine name                   CPU           calls
 ---------------------------------------------------------------
 total_time                             13.541976           1
 dfftw_execute                           2.764683       27783
 eddav                                   2.760348          14
 setdij_                                 2.068003          38
 fftbas_plan_mpi                         1.859341        9263
 M_sumb_d                                1.401152       26311
 elmin                                   1.216887           1
 m_alltoallv_z                           1.046263        9282
 set_charge                              1.037085          10
 M_alltoall_d                            0.621012       30450
 spher                                   0.617391          20
 pdssyex_zheevx                          0.596659         294
 orth1                                   0.458205        6204
 vhamil                                  0.419296        4122
 map_gather                              0.392827        9282
 proj1                                   0.382806        3786
 fftwav_mpi                              0.353498        4885
 map_forward                             0.350010       10016
 map_scatter                             0.341214        9282
 gemm                                    0.320551       12366
 M_bcast_z                               0.319866        3768
 vnlac0                                  0.269678        4122
 redis_pw                                0.250850       11820
 crpa_reader                             0.249761           1
 hamiltmu                                0.224375        2061
 redis_proj                              0.223182       14787
 fft3d_mpi                               0.171273        9261
 w1_copy                                 0.162263       12366
 map_backward                            0.150494        8506
 work_mul_crexp                          0.132744       12366
 fftext_mpi                              0.128374        4122
 eccp                                    0.105781        1176
 crexp_mul_wave                          0.098366       11358
 kinhamil                                0.080663        4122
 potlok                                  0.078930          11
 overl                                   0.076846        7089
 force_and_stress                        0.071189           1
 M_bcast_d                               0.067867        2089
 overl1                                  0.049894        4122
 pw_charge                               0.046671         763
 lincom                                  0.041431         315
 apply_precond                           0.039475        2946
 setup_precond                           0.038490        1176
 phase                                   0.031672         526
 w1_projall                              0.031291        1473
 fornl                                   0.019937           1
 soft_charge                             0.019308          10
 ggaall_grid                             0.018513          12
 truncate_high_frequency_w1              0.017978        5298
 densta                                  0.017644          15
 setg0                                   0.012012          11
 strenl                                  0.011847           1
 brmix                                   0.009600          10
 broyd                                   0.005953          10
 forhar                                  0.005908           2
 forloc                                  0.003028           1
 strehar                                 0.002522           1
 depsum                                  0.002406          10
 strelo                                  0.002185           1
 set_dd_paw                              0.002060          12
 orthch                                  0.001867           1
 brget                                   0.001547         309
 chggra                                  0.001540           1
 brgrid                                  0.001145           1
 proj                                    0.000980          21
 choleski                                0.000786          21
 brpre                                   0.000636          10
 brsav                                   0.000500          96
 strkin                                  0.000441           1
 fordep                                  0.000129           1
 set_rsgf_all                            0.000059          12
 vectorpot                               0.000054          11
 set_dd_magatom                          0.000047          12
 potlok_metagga                          0.000046          11
 set_kineden                             0.000033           9
 rotate_active_occupied_orbital          0.000015           1
 lprj_proall                             0.000007           1
 redis_pw_over_bands                     0.000003           1
 ---------------------------------------------------------------
  summed up times    35.8513720035553

 Accumulative profile
 ====================

             routine name                   CPU           calls
 ---------------------------------------------------------------
 total_time                             35.851372           1
 elmin                                  18.801048           1
 eddav                                  14.828917          14
 fft3d_mpi                               7.047210        9261
 fftbas_plan_mpi                         6.904832        9263
 hamiltmu                                4.657334        2061
 fftwav_mpi                              3.828181        4885
 kinhamil                                2.986558        4122
 fftext_mpi                              2.905895        4122
 dfftw_execute                           2.764683       27783
 force_and_stress                        2.672547           1
 setdij_                                 2.543539          38
 set_charge                              1.839991          10
 M_sumb_d                                1.401152       26311
 map_forward                             1.353283       10016
 m_alltoallv_z                           1.046263        9282
 vnlac0                                  0.977210        4122
 map_backward                            0.927525        8506
 strenl                                  0.691621           1
 proj1                                   0.681490        3786
 soft_charge                             0.665028          10
 M_alltoall_d                            0.621012       30450
 spher                                   0.617391          20
 redis_pw                                0.597842       11820
 pdssyex_zheevx                          0.596659         294
 w1_projall                              0.584569        1473
 redis_proj                              0.497202       14787
 orth1                                   0.458205        6204
 vhamil                                  0.419296        4122
 fordep                                  0.400448           1
 map_gather                              0.392827        9282
 map_scatter                             0.341214        9282
 gemm                                    0.320551       12366
 M_bcast_z                               0.319866        3768
 potlok                                  0.297337          11
 crpa_reader                             0.249761           1
 eccp                                    0.175903        1176
 w1_copy                                 0.162263       12366
 work_mul_crexp                          0.132744       12366
 crexp_mul_wave                          0.098366       11358
 overl                                   0.076846        7089
 M_bcast_d                               0.067867        2089
 setup_precond                           0.067034        1176
 set_dd_paw                              0.063083          12
 overl1                                  0.049894        4122
 pw_charge                               0.046671         763
 brmix                                   0.045486          10
 lincom                                  0.041431         315
 apply_precond                           0.039475        2946
 phase                                   0.031672         526
 fornl                                   0.029154           1
 densta                                  0.028500          15
 orthch                                  0.022902           1
 ggaall_grid                             0.018513          12
 truncate_high_frequency_w1              0.017978        5298
 proj                                    0.013385          21
 broyd                                   0.012148          10
 setg0                                   0.012012          11
 forhar                                  0.006343           2
 chggra                                  0.005700           1
 depsum                                  0.005285          10
 forloc                                  0.003104           1
 strehar                                 0.002662           1
 strelo                                  0.002536           1
 brget                                   0.001547         309
 strkin                                  0.001181           1
 brgrid                                  0.001145           1
 choleski                                0.000786          21
 brpre                                   0.000636          10
 brsav                                   0.000500          96
 set_rsgf_all                            0.000059          12
 vectorpot                               0.000054          11
 set_dd_magatom                          0.000047          12
 potlok_metagga                          0.000046          11
 set_kineden                             0.000033           9
 rotate_active_occupied_orbital          0.000015           1
 lprj_proall                             0.000007           1
 redis_pw_over_bands                     0.000003           1
 ---------------------------------------------------------------

Profiling took   0.723141  0.882272  0.005730  0.004346 seconds
Profiling took   0.700376 seconds
