<?xml version="1.0" encoding="ISO-8859-1"?>
<modeling>
 <generator>
  <i name="program" type="string">vasp </i>
  <i name="version" type="string">6.0.8  </i>
  <i name="subversion" type="string">29Jun18 (build Jun 13 2019 12:54:44) complex                          parallel </i>
  <i name="platform" type="string">IFC18_CrayMPICH </i>
  <i name="date" type="string">2021 12 05 </i>
  <i name="time" type="string">14:21:51 </i>
 </generator>
 <incar>
  <i type="int" name="KPAR">     4</i>
  <i type="int" name="NPAR">     4</i>
  <i type="int" name="ISTART">     0</i>
  <i type="string" name="PREC"> ACC</i>
  <i type="string" name="ALGO"> Normal</i>
  <i type="logical" name="ADDGRID"> T  </i>
  <i type="int" name="ISPIN">     1</i>
  <i type="int" name="NELMIN">     5</i>
  <i type="int" name="IBRION">    -1</i>
  <i name="EDIFF">      0.00000010</i>
  <i type="int" name="NSW">     0</i>
  <i type="int" name="ISIF">     3</i>
  <i name="ENCUT">    700.00000000</i>
  <i type="logical" name="LREAL"> F  </i>
  <i type="int" name="ISMEAR">     0</i>
  <i name="SIGMA">      0.01000000</i>
  <i type="logical" name="LWAVE"> F  </i>
  <i type="logical" name="LCHARG"> F  </i>
  <i type="logical" name="LVTOT"> F  </i>
  <i type="string" name="ALGO"> Normal</i>
  <i type="string" name="GGA"> PS</i>
  <i name="EDIFF">      0.00000010</i>
  <i type="int" name="ISPIN">     1</i>
 </incar>
 <structure name="primitive_cell" >
  <crystal>
   <varray name="basis" >
    <v>       0.00000000       3.17828400       3.17828400 </v>
    <v>       3.17828400       0.00000000       3.17828400 </v>
    <v>       3.17828400       3.17828400       0.00000000 </v>
   </varray>
   <i name="volume">     64.21080290 </i>
   <varray name="rec_basis" >
    <v>      -0.15731760       0.15731760       0.15731760 </v>
    <v>       0.15731760      -0.15731760       0.15731760 </v>
    <v>       0.15731760       0.15731760      -0.15731760 </v>
   </varray>
  </crystal>
  <varray name="positions" >
   <v>       0.75000000       0.75000000       0.75000000 </v>
   <v>       0.25000000       0.25000000       0.25000000 </v>
   <v>       0.00000000       0.00000000       0.00000000 </v>
  </varray>
 </structure>
 <varray name="primitive_index" >
  <v type="int" >        1 </v>
  <v type="int" >        2 </v>
  <v type="int" >        3 </v>
 </varray>
 <kpoints>
  <generation param="Gamma">
   <v type="int" name="divisions">      13       13       13 </v>
   <v name="usershift">      0.00000000       0.00000000       0.00000000 </v>
   <v name="genvec1">      0.07692308       0.00000000      -0.00000000 </v>
   <v name="genvec2">      0.00000000       0.07692308       0.00000000 </v>
   <v name="genvec3">     -0.00000000      -0.00000000       0.07692308 </v>
   <v name="shift">      0.00000000       0.00000000       0.00000000 </v>
  </generation>
  <varray name="kpointlist" >
   <v>       0.00000000       0.00000000       0.00000000 </v>
   <v>       0.07692308       0.00000000      -0.00000000 </v>
   <v>       0.15384615       0.00000000      -0.00000000 </v>
   <v>       0.23076923      -0.00000000       0.00000000 </v>
   <v>       0.30769231       0.00000000      -0.00000000 </v>
   <v>       0.38461538       0.00000000       0.00000000 </v>
   <v>       0.46153846       0.00000000      -0.00000000 </v>
   <v>       0.07692308       0.07692308      -0.00000000 </v>
   <v>       0.15384615       0.07692308       0.00000000 </v>
   <v>       0.23076923       0.07692308      -0.00000000 </v>
   <v>       0.30769231       0.07692308       0.00000000 </v>
   <v>       0.38461538       0.07692308      -0.00000000 </v>
   <v>       0.46153846       0.07692308      -0.00000000 </v>
   <v>      -0.46153846       0.07692308       0.00000000 </v>
   <v>      -0.38461538       0.07692308      -0.00000000 </v>
   <v>      -0.30769231       0.07692308      -0.00000000 </v>
   <v>      -0.23076923       0.07692308      -0.00000000 </v>
   <v>      -0.15384615       0.07692308      -0.00000000 </v>
   <v>      -0.07692308       0.07692308       0.00000000 </v>
   <v>       0.15384615       0.15384615      -0.00000000 </v>
   <v>       0.23076923       0.15384615       0.00000000 </v>
   <v>       0.30769231       0.15384615      -0.00000000 </v>
   <v>       0.38461538       0.15384615      -0.00000000 </v>
   <v>       0.46153846       0.15384615      -0.00000000 </v>
   <v>      -0.46153846       0.15384615       0.00000000 </v>
   <v>      -0.38461538       0.15384615       0.00000000 </v>
   <v>      -0.30769231       0.15384615       0.00000000 </v>
   <v>      -0.23076923       0.15384615      -0.00000000 </v>
   <v>      -0.15384615       0.15384615       0.00000000 </v>
   <v>       0.23076923       0.23076923      -0.00000000 </v>
   <v>       0.30769231       0.23076923      -0.00000000 </v>
   <v>       0.38461538       0.23076923       0.00000000 </v>
   <v>       0.46153846       0.23076923      -0.00000000 </v>
   <v>      -0.46153846       0.23076923      -0.00000000 </v>
   <v>      -0.38461538       0.23076923       0.00000000 </v>
   <v>      -0.30769231       0.23076923       0.00000000 </v>
   <v>      -0.23076923       0.23076923      -0.00000000 </v>
   <v>       0.30769231       0.30769231      -0.00000000 </v>
   <v>       0.38461538       0.30769231      -0.00000000 </v>
   <v>       0.46153846       0.30769231       0.00000000 </v>
   <v>      -0.46153846       0.30769231       0.00000000 </v>
   <v>      -0.38461538       0.30769231      -0.00000000 </v>
   <v>      -0.30769231       0.30769231       0.00000000 </v>
   <v>       0.38461538       0.38461538      -0.00000000 </v>
   <v>       0.46153846       0.38461538      -0.00000000 </v>
   <v>      -0.46153846       0.38461538       0.00000000 </v>
   <v>      -0.38461538       0.38461538      -0.00000000 </v>
   <v>       0.46153846       0.46153846      -0.00000000 </v>
   <v>      -0.46153846       0.46153846       0.00000000 </v>
   <v>       0.23076923       0.15384615       0.07692308 </v>
   <v>       0.30769231       0.15384615       0.07692308 </v>
   <v>       0.38461538       0.15384615       0.07692308 </v>
   <v>       0.46153846       0.15384615       0.07692308 </v>
   <v>      -0.46153846       0.15384615       0.07692308 </v>
   <v>       0.30769231       0.23076923       0.07692308 </v>
   <v>       0.38461538       0.23076923       0.07692308 </v>
   <v>       0.46153846       0.23076923       0.07692308 </v>
   <v>      -0.46153846       0.23076923       0.07692308 </v>
   <v>      -0.38461538       0.23076923       0.07692308 </v>
   <v>      -0.30769231       0.23076923       0.07692308 </v>
   <v>      -0.23076923       0.23076923       0.07692308 </v>
   <v>      -0.15384615       0.23076923       0.07692308 </v>
   <v>       0.38461538       0.30769231       0.07692308 </v>
   <v>       0.46153846       0.30769231       0.07692308 </v>
   <v>      -0.46153846       0.30769231       0.07692308 </v>
   <v>      -0.38461538       0.30769231       0.07692308 </v>
   <v>      -0.30769231       0.30769231       0.07692308 </v>
   <v>      -0.23076923       0.30769231       0.07692308 </v>
   <v>       0.46153846       0.38461538       0.07692308 </v>
   <v>      -0.46153846       0.38461538       0.07692308 </v>
   <v>      -0.38461538       0.38461538       0.07692308 </v>
   <v>      -0.30769231       0.38461538       0.07692308 </v>
   <v>      -0.46153846       0.46153846       0.07692308 </v>
   <v>      -0.38461538       0.46153846       0.07692308 </v>
   <v>       0.46153846       0.30769231       0.15384615 </v>
   <v>      -0.46153846       0.30769231       0.15384615 </v>
   <v>      -0.38461538       0.30769231       0.15384615 </v>
   <v>      -0.46153846       0.38461538       0.15384615 </v>
   <v>      -0.38461538       0.38461538       0.15384615 </v>
   <v>      -0.30769231       0.38461538       0.15384615 </v>
   <v>      -0.23076923       0.38461538       0.15384615 </v>
   <v>      -0.38461538       0.46153846       0.15384615 </v>
   <v>      -0.30769231       0.46153846       0.15384615 </v>
   <v>      -0.30769231       0.46153846       0.23076923 </v>
  </varray>
  <varray name="weights" >
   <v>       0.00045517 </v>
   <v>       0.00364133 </v>
   <v>       0.00364133 </v>
   <v>       0.00364133 </v>
   <v>       0.00364133 </v>
   <v>       0.00364133 </v>
   <v>       0.00364133 </v>
   <v>       0.00273100 </v>
   <v>       0.01092399 </v>
   <v>       0.01092399 </v>
   <v>       0.01092399 </v>
   <v>       0.01092399 </v>
   <v>       0.01092399 </v>
   <v>       0.01092399 </v>
   <v>       0.01092399 </v>
   <v>       0.01092399 </v>
   <v>       0.01092399 </v>
   <v>       0.01092399 </v>
   <v>       0.00546199 </v>
   <v>       0.00273100 </v>
   <v>       0.01092399 </v>
   <v>       0.01092399 </v>
   <v>       0.01092399 </v>
   <v>       0.01092399 </v>
   <v>       0.01092399 </v>
   <v>       0.01092399 </v>
   <v>       0.01092399 </v>
   <v>       0.01092399 </v>
   <v>       0.00546199 </v>
   <v>       0.00273100 </v>
   <v>       0.01092399 </v>
   <v>       0.01092399 </v>
   <v>       0.01092399 </v>
   <v>       0.01092399 </v>
   <v>       0.01092399 </v>
   <v>       0.01092399 </v>
   <v>       0.00546199 </v>
   <v>       0.00273100 </v>
   <v>       0.01092399 </v>
   <v>       0.01092399 </v>
   <v>       0.01092399 </v>
   <v>       0.01092399 </v>
   <v>       0.00546199 </v>
   <v>       0.00273100 </v>
   <v>       0.01092399 </v>
   <v>       0.01092399 </v>
   <v>       0.00546199 </v>
   <v>       0.00273100 </v>
   <v>       0.00546199 </v>
   <v>       0.01092399 </v>
   <v>       0.02184797 </v>
   <v>       0.02184797 </v>
   <v>       0.02184797 </v>
   <v>       0.02184797 </v>
   <v>       0.01092399 </v>
   <v>       0.02184797 </v>
   <v>       0.02184797 </v>
   <v>       0.02184797 </v>
   <v>       0.02184797 </v>
   <v>       0.02184797 </v>
   <v>       0.02184797 </v>
   <v>       0.01092399 </v>
   <v>       0.01092399 </v>
   <v>       0.02184797 </v>
   <v>       0.02184797 </v>
   <v>       0.02184797 </v>
   <v>       0.02184797 </v>
   <v>       0.01092399 </v>
   <v>       0.01092399 </v>
   <v>       0.02184797 </v>
   <v>       0.02184797 </v>
   <v>       0.01092399 </v>
   <v>       0.01092399 </v>
   <v>       0.01092399 </v>
   <v>       0.01092399 </v>
   <v>       0.02184797 </v>
   <v>       0.02184797 </v>
   <v>       0.01092399 </v>
   <v>       0.02184797 </v>
   <v>       0.02184797 </v>
   <v>       0.01092399 </v>
   <v>       0.01092399 </v>
   <v>       0.01092399 </v>
   <v>       0.01092399 </v>
  </varray>
 </kpoints>
 <parameters>
  <separator name="general" >
   <i type="string" name="SYSTEM">unknown system</i>
   <i type="logical" name="LCOMPAT"> F  </i>
  </separator>
  <separator name="electronic" >
   <i type="string" name="PREC">acc</i>
   <i name="ENMAX">    700.00000000</i>
   <i name="ENAUG">    380.87800000</i>
   <i name="EDIFF">      0.00000010</i>
   <i type="int" name="IALGO">    38</i>
   <i type="int" name="IWAVPR">    10</i>
   <i type="int" name="NBANDS">    16</i>
   <i type="int" name="NBANDSLOW">    -1</i>
   <i type="int" name="NBANDSHIGH">    -1</i>
   <i name="NELECT">     25.00000000</i>
   <i type="int" name="TURBO">     0</i>
   <i type="int" name="IRESTART">     0</i>
   <i type="int" name="NREBOOT">     0</i>
   <i type="int" name="NMIN">     0</i>
   <i name="EREF">      0.00000000</i>
   <separator name="electronic smearing" >
    <i type="int" name="ISMEAR">     0</i>
    <i name="SIGMA">      0.01000000</i>
    <i name="KSPACING">      0.50000000</i>
    <i type="logical" name="KGAMMA"> T  </i>
    <i type="logical" name="KBLOWUP"> T  </i>
   </separator>
   <separator name="electronic projectors" >
    <i type="logical" name="LREAL"> F  </i>
    <v name="ROPT">      0.00000000      0.00000000      0.00000000</v>
    <i type="int" name="LMAXPAW">  -100</i>
    <i type="int" name="LMAXMIX">     2</i>
    <i type="logical" name="NLSPLINE"> F  </i>
   </separator>
   <separator name="electronic startup" >
    <i type="int" name="ISTART">     0</i>
    <i type="int" name="ICHARG">     2</i>
    <i type="int" name="INIWAV">     1</i>
   </separator>
   <separator name="electronic spin" >
    <i type="int" name="ISPIN">     1</i>
    <i type="logical" name="LNONCOLLINEAR"> F  </i>
    <v name="MAGMOM">      1.00000000      1.00000000      1.00000000</v>
    <i name="NUPDOWN">     -1.00000000</i>
    <i type="logical" name="LSORBIT"> F  </i>
    <v name="SAXIS">      0.00000000      0.00000000      1.00000000</v>
    <i type="logical" name="LSPIRAL"> F  </i>
    <v name="QSPIRAL">      0.00000000      0.00000000      0.00000000</v>
    <i type="logical" name="LZEROZ"> F  </i>
   </separator>
   <separator name="electronic exchange-correlation" >
    <i type="logical" name="LASPH"> F  </i>
    <i type="logical" name="LMETAGGA"> F  </i>
   </separator>
   <separator name="electronic convergence" >
    <i type="int" name="NELM">    60</i>
    <i type="int" name="NELMDL">    -5</i>
    <i type="int" name="NELMIN">     5</i>
    <i name="ENINI">    700.00000000</i>
    <separator name="electronic convergence detail" >
     <i type="logical" name="LDIAG"> T  </i>
     <i type="logical" name="LSUBROT"> F  </i>
     <i name="WEIMIN">      0.00000000</i>
     <i name="EBREAK">      0.00000000</i>
     <i name="DEPER">      0.30000000</i>
     <i type="int" name="NRMM">     4</i>
     <i name="TIME">      0.40000000</i>
    </separator>
   </separator>
   <separator name="electronic mixer" >
    <i name="AMIX">      0.40000000</i>
    <i name="BMIX">      1.00000000</i>
    <i name="AMIN">      0.10000000</i>
    <i name="AMIX_MAG">      1.60000000</i>
    <i name="BMIX_MAG">      1.00000000</i>
    <separator name="electronic mixer details" >
     <i type="int" name="IMIX">     4</i>
     <i type="logical" name="MIXFIRST"> F  </i>
     <i type="int" name="MAXMIX">   -45</i>
     <i name="WC">    100.00000000</i>
     <i type="int" name="INIMIX">     1</i>
     <i type="int" name="MIXPRE">     1</i>
     <i type="int" name="MREMOVE">     5</i>
    </separator>
   </separator>
   <separator name="electronic dipolcorrection" >
    <i type="logical" name="LDIPOL"> F  </i>
    <i type="logical" name="LMONO"> F  </i>
    <i type="int" name="IDIPOL">     0</i>
    <i name="EPSILON">      1.00000000</i>
    <v name="DIPOL">   -100.00000000   -100.00000000   -100.00000000</v>
    <i name="EFIELD">      0.00000000</i>
   </separator>
  </separator>
  <separator name="grids" >
   <i type="int" name="NGX">    40</i>
   <i type="int" name="NGY">    40</i>
   <i type="int" name="NGZ">    40</i>
   <i type="int" name="NGXF">    80</i>
   <i type="int" name="NGYF">    80</i>
   <i type="int" name="NGZF">    80</i>
   <i type="logical" name="ADDGRID"> T  </i>
  </separator>
  <separator name="ionic" >
   <i type="int" name="NSW">     0</i>
   <i type="int" name="IBRION">    -1</i>
   <i type="int" name="MDALGO">     0</i>
   <i type="int" name="ISIF">     3</i>
   <i name="PSTRESS">      0.00000000</i>
   <i name="EDIFFG">      0.00000100</i>
   <i type="int" name="NFREE">     0</i>
   <i name="POTIM">      0.50000000</i>
   <i name="SMASS">     -3.00000000</i>
   <i name="SCALEE">      1.00000000</i>
  </separator>
  <separator name="ionic md" >
   <i name="TEBEG">      0.00010000</i>
   <i name="TEEND">      0.00010000</i>
   <i type="int" name="NBLOCK">     1</i>
   <i type="int" name="KBLOCK">     1</i>
   <i type="int" name="NPACO">   256</i>
   <i name="APACO">     16.00000000</i>
  </separator>
  <separator name="symmetry" >
   <i type="int" name="ISYM">     2</i>
   <i name="SYMPREC">      0.00001000</i>
  </separator>
  <separator name="dos" >
   <i type="int" name="LORBIT">     0</i>
   <v name="RWIGS">     -1.00000000     -1.00000000     -1.00000000</v>
   <i type="int" name="NEDOS">   301</i>
   <i name="EMIN">     10.00000000</i>
   <i name="EMAX">    -10.00000000</i>
   <i name="EFERMI">      0.00000000</i>
  </separator>
  <separator name="writing" >
   <i type="int" name="NWRITE">     2</i>
   <i type="logical" name="LWAVE"> F  </i>
   <i type="logical" name="LDOWNSAMPLE"> F  </i>
   <i type="logical" name="LCHARG"> F  </i>
   <i type="logical" name="LPARD"> F  </i>
   <i type="logical" name="LVTOT"> F  </i>
   <i type="logical" name="LVHAR"> F  </i>
   <i type="logical" name="LELF"> F  </i>
   <i type="logical" name="LOPTICS"> F  </i>
   <v name="STM">      0.00000000      0.00000000      0.00000000      0.00000000      0.00000000      0.00000000      0.00000000</v>
  </separator>
  <separator name="performance" >
   <i type="int" name="NPAR">     4</i>
   <i type="int" name="NSIM">     4</i>
   <i type="int" name="NBLK">    -1</i>
   <i type="logical" name="LPLANE"> T  </i>
   <i type="logical" name="LSCALAPACK"> T  </i>
   <i type="logical" name="LSCAAWARE"> F  </i>
   <i type="logical" name="LSCALU"> F  </i>
   <i type="logical" name="LASYNC"> F  </i>
   <i type="logical" name="LORBITALREAL"> F  </i>
  </separator>
  <separator name="miscellaneous" >
   <i type="int" name="IDIOT">     3</i>
   <i type="int" name="PHON_NSTRUCT">    -1</i>
   <i type="logical" name="LMUSIC"> F  </i>
   <v name="POMASS">    178.49000000    121.75000000    195.08000000</v>
   <v name="DARWINR">      0.00000000      0.00000000      0.00000000</v>
   <v name="DARWINV">      1.00000000      1.00000000      1.00000000</v>
   <i type="logical" name="LCORR"> T  </i>
  </separator>
  <i type="logical" name="GGA_COMPAT"> T  </i>
  <i type="logical" name="LBERRY"> F  </i>
  <i type="int" name="ICORELEVEL">     0</i>
  <i type="logical" name="LDAU"> F  </i>
  <i type="int" name="I_CONSTRAINED_M">     0</i>
  <separator name="electronic exchange-correlation" >
   <i type="string" name="GGA">PS</i>
   <i type="int" name="VOSKOWN">     0</i>
   <i type="logical" name="LHFCALC"> F  </i>
   <i type="string" name="PRECFOCK"></i>
   <i type="logical" name="LSYMGRAD"> F  </i>
   <i type="logical" name="LHFONE"> F  </i>
   <i type="logical" name="LRHFCALC"> F  </i>
   <i type="logical" name="LTHOMAS"> F  </i>
   <i type="logical" name="LMODELHF"> F  </i>
   <i type="logical" name="LFOCKACE"> F  </i>
   <i name="ENCUT4O">     -1.00000000</i>
   <i type="int" name="EXXOEP">     0</i>
   <i type="int" name="FOURORBIT">     0</i>
   <i name="AEXX">      0.00000000</i>
   <i name="HFALPHA">      0.00000000</i>
   <i name="MCALPHA">      0.00000000</i>
   <i name="ALDAX">      1.00000000</i>
   <i name="AGGAX">      1.00000000</i>
   <i name="ALDAC">      1.00000000</i>
   <i name="AGGAC">      1.00000000</i>
   <i type="int" name="NKREDX">     1</i>
   <i type="int" name="NKREDY">     1</i>
   <i type="int" name="NKREDZ">     1</i>
   <i type="logical" name="SHIFTRED"> F  </i>
   <i type="logical" name="ODDONLY"> F  </i>
   <i type="logical" name="EVENONLY"> F  </i>
   <i type="int" name="LMAXFOCK">     0</i>
   <i type="int" name="NMAXFOCKAE">     0</i>
   <i type="logical" name="LFOCKAEDFT"> F  </i>
   <i name="HFSCREEN">      0.00000000</i>
   <i name="HFSCREENC">      0.00000000</i>
   <i type="int" name="NBANDSGWLOW">     0</i>
  </separator>
  <separator name="vdW DFT" >
   <i type="logical" name="LUSE_VDW"> F  </i>
   <i name="Zab_VDW">     -0.84910000</i>
   <i name="PARAM1">      0.12340000</i>
   <i name="PARAM2">      1.00000000</i>
   <i name="PARAM3">      0.00000000</i>
  </separator>
  <separator name="model GW" >
   <i type="int" name="MODEL_GW">     0</i>
   <i name="MODEL_EPS0">     12.84216058</i>
   <i name="MODEL_ALPHA">      1.00000000</i>
  </separator>
  <separator name="linear response parameters" >
   <i type="logical" name="LEPSILON"> F  </i>
   <i type="logical" name="LRPA"> F  </i>
   <i type="logical" name="LNABLA"> F  </i>
   <i type="logical" name="LVEL"> F  </i>
   <i type="int" name="KINTER">     0</i>
   <i name="CSHIFT">      0.10000000</i>
   <i name="OMEGAMAX">     -1.00000000</i>
   <i name="DEG_THRESHOLD">      0.00200000</i>
   <i name="RTIME">     -0.10000000</i>
   <i name="WPLASMAI">      0.00000000</i>
   <v name="DFIELD">      0.00000000      0.00000000      0.00000000</v>
   <v name="WPLASMA">      0.00000000      0.00000000      0.00000000      0.00000000      0.00000000      0.00000000      0.00000000      0.00000000      0.00000000</v>
  </separator>
  <separator name="orbital magnetization" >
   <i type="logical" name="NUCIND"> F  </i>
   <v name="MAGPOS">      0.00000000      0.00000000      0.00000000</v>
   <i type="logical" name="LNICSALL"> T  </i>
   <i type="logical" name="ORBITALMAG"> F  </i>
   <i type="logical" name="LMAGBLOCH"> F  </i>
   <i type="logical" name="LCHIMAG"> F  </i>
   <i type="logical" name="LGAUGE"> T  </i>
   <i type="int" name="MAGATOM">     0</i>
   <v name="MAGDIPOL">      0.00000000      0.00000000      0.00000000</v>
   <v name="AVECCONST">      0.00000000      0.00000000      0.00000000</v>
  </separator>
  <separator name="response functions" >
   <i type="logical" name="LFINITE_TEMPERATURE"> F  </i>
   <i type="logical" name="LADDER"> F  </i>
   <i type="logical" name="LRPAFORCE"> F  </i>
   <i type="logical" name="LFXC"> F  </i>
   <i type="logical" name="LHARTREE"> T  </i>
   <i type="int" name="IBSE">     0</i>
   <v type="int" name="KPOINT">    -1     0     0     0</v>
   <i type="logical" name="LTCTC"> F  </i>
   <i type="logical" name="LTCTE"> F  </i>
   <i type="logical" name="LTETE"> F  </i>
   <i type="logical" name="LTRIPLET"> F  </i>
   <i type="logical" name="LFXCEPS"> F  </i>
   <i type="logical" name="LFXHEG"> F  </i>
   <i type="int" name="NATURALO">     2</i>
   <i type="logical" name="L2ORDER"> F  </i>
   <i type="logical" name="LDMP1"> F  </i>
   <i type="logical" name="LMP2LT"> F  </i>
   <i type="logical" name="LSMP2LT"> F  </i>
   <i type="logical" name="LUSEW"> F  </i>
   <i name="ENCUTGW">     -2.00000000</i>
   <i name="ENCUTGWSOFT">     -2.00000000</i>
   <i name="ENCUTLF">     -1.00000000</i>
   <i type="int" name="LMAXMP2">    -1</i>
   <i name="SCISSOR">      0.00000000</i>
   <i type="int" name="NOMEGA">     0</i>
   <i type="int" name="NOMEGAR">     0</i>
   <i type="int" name="NBANDSGW">    -1</i>
   <i type="int" name="NBANDSO">    -1</i>
   <i type="int" name="NBANDSV">    -1</i>
   <i type="int" name="NELM">     1</i>
   <i type="int" name="NELMHF">     1</i>
   <i type="int" name="DIM">     3</i>
   <i type="int" name="IESPILON">     4</i>
   <i type="int" name="ANTIRES">     0</i>
   <i name="OMEGAMAX">    -30.00000000</i>
   <i name="OMEGAMIN">    -30.00000000</i>
   <i name="OMEGATL">   -200.00000000</i>
   <i type="int" name="OMEGAGRID">   145</i>
   <i name="CSHIFT">     -0.10000000</i>
   <i type="logical" name="LSELFENERGY"> F  </i>
   <i type="logical" name="LSPECTRAL"> F  </i>
   <i type="logical" name="LSPECTRALGW"> F  </i>
   <i type="logical" name="LSINGLES"> F  </i>
   <i type="logical" name="LFERMIGW"> F  </i>
   <i type="logical" name="ODDONLYGW"> F  </i>
   <i type="logical" name="EVENONLYGW"> F  </i>
   <i type="int" name="NKREDLFX">     1</i>
   <i type="int" name="NKREDLFY">     1</i>
   <i type="int" name="NKREDLFZ">     1</i>
   <i type="int" name="MAXMEM">  2800</i>
   <i type="int" name="TELESCOPE">     0</i>
   <i type="int" name="NTAUPAR">     1</i>
   <i type="int" name="NOMEGAPAR">    -1</i>
   <i name="LAMBDA">      1.00000000</i>
  </separator>
  <separator name="External order field" >
   <i name="OFIELD_KAPPA">      0.00000000</i>
   <v name="OFIELD_K">      0.00000000      0.00000000      0.00000000</v>
   <i name="OFIELD_Q6_NEAR">      0.00000000</i>
   <i name="OFIELD_Q6_FAR">      0.00000000</i>
   <i name="OFIELD_A">      0.00000000</i>
  </separator>
 </parameters>
 <atominfo>
  <atoms>       3 </atoms>
  <types>       3 </types>
  <array name="atoms" >
   <dimension dim="1">ion</dimension>
   <field type="string">element</field>
   <field type="int">atomtype</field>
   <set>
    <rc><c>Hf</c><c>   1</c></rc>
    <rc><c>Sb</c><c>   2</c></rc>
    <rc><c>Pt</c><c>   3</c></rc>
   </set>
  </array>
  <array name="atomtypes" >
   <dimension dim="1">type</dimension>
   <field type="int">atomspertype</field>
   <field type="string">element</field>
   <field>mass</field>
   <field>valence</field>
   <field type="string">pseudopotential</field>
   <set>
    <rc><c>   1</c><c>Hf</c><c>    178.49000000</c><c>     10.00000000</c><c>  PAW_PBE Hf_pv 06Sep2000               </c></rc>
    <rc><c>   1</c><c>Sb</c><c>    121.75000000</c><c>      5.00000000</c><c>  PAW_PBE Sb 06Sep2000                  </c></rc>
    <rc><c>   1</c><c>Pt</c><c>    195.08000000</c><c>     10.00000000</c><c>  PAW_PBE Pt 04Feb2005                  </c></rc>
   </set>
  </array>
 </atominfo>
 <structure name="initialpos" >
  <crystal>
   <varray name="basis" >
    <v>       0.00000000       3.17828400       3.17828400 </v>
    <v>       3.17828400       0.00000000       3.17828400 </v>
    <v>       3.17828400       3.17828400       0.00000000 </v>
   </varray>
   <i name="volume">     64.21080290 </i>
   <varray name="rec_basis" >
    <v>      -0.15731760       0.15731760       0.15731760 </v>
    <v>       0.15731760      -0.15731760       0.15731760 </v>
    <v>       0.15731760       0.15731760      -0.15731760 </v>
   </varray>
  </crystal>
  <varray name="positions" >
   <v>       0.75000000       0.75000000       0.75000000 </v>
   <v>       0.25000000       0.25000000       0.25000000 </v>
   <v>       0.00000000       0.00000000       0.00000000 </v>
  </varray>
 </structure>
 <calculation>
  <scstep>
   <time name="dav">    0.90    0.93</time>
   <time name="total">    1.05    1.16</time>
   <energy>
    <i name="alphaZ">    106.09980279 </i>
    <i name="ewald">  -1564.38492109 </i>
    <i name="hartreedc">   -323.83127478 </i>
    <i name="XCdc">    -18.98576271 </i>
    <i name="pawpsdc">   1514.36848356 </i>
    <i name="pawaedc">  -1421.27055995 </i>
    <i name="eentropy">     -0.00012018 </i>
    <i name="bandstr">    105.32759233 </i>
    <i name="atom">   1741.10451121 </i>
    <i name="e_fr_energy">    138.42775117 </i>
    <i name="e_wo_entrp">    138.42787136 </i>
    <i name="e_0_energy">    138.42781126 </i>
   </energy>
  </scstep>
  <scstep>
   <time name="dav">    1.08    1.10</time>
   <time name="total">    1.08    1.11</time>
   <energy>
    <i name="e_fr_energy">    -20.11714932 </i>
    <i name="e_wo_entrp">    -20.11698013 </i>
    <i name="e_0_energy">    -20.11706472 </i>
   </energy>
  </scstep>
  <scstep>
   <time name="dav">    1.17    1.19</time>
   <time name="total">    1.17    1.19</time>
   <energy>
    <i name="e_fr_energy">    -24.92271353 </i>
    <i name="e_wo_entrp">    -24.92257228 </i>
    <i name="e_0_energy">    -24.92264290 </i>
   </energy>
  </scstep>
  <scstep>
   <time name="dav">    1.08    1.10</time>
   <time name="total">    1.08    1.10</time>
   <energy>
    <i name="e_fr_energy">    -24.99498727 </i>
    <i name="e_wo_entrp">    -24.99483596 </i>
    <i name="e_0_energy">    -24.99491161 </i>
   </energy>
  </scstep>
  <scstep>
   <time name="dav">    1.18    1.20</time>
   <time name="total">    1.42    1.45</time>
   <energy>
    <i name="e_fr_energy">    -24.99652963 </i>
    <i name="e_wo_entrp">    -24.99637789 </i>
    <i name="e_0_energy">    -24.99645376 </i>
   </energy>
  </scstep>
  <scstep>
   <time name="dav">    1.09    1.09</time>
   <time name="total">    1.42    1.44</time>
   <energy>
    <i name="e_fr_energy">    -24.23137606 </i>
    <i name="e_wo_entrp">    -24.23117424 </i>
    <i name="e_0_energy">    -24.23127515 </i>
   </energy>
  </scstep>
  <scstep>
   <time name="dav">    1.16    1.16</time>
   <time name="total">    1.48    1.50</time>
   <energy>
    <i name="e_fr_energy">    -24.09428401 </i>
    <i name="e_wo_entrp">    -24.09396038 </i>
    <i name="e_0_energy">    -24.09412219 </i>
   </energy>
  </scstep>
  <scstep>
   <time name="dav">    1.09    1.09</time>
   <time name="total">    1.47    1.50</time>
   <energy>
    <i name="e_fr_energy">    -24.06820537 </i>
    <i name="e_wo_entrp">    -24.06799283 </i>
    <i name="e_0_energy">    -24.06809910 </i>
   </energy>
  </scstep>
  <scstep>
   <time name="dav">    0.94    0.94</time>
   <time name="total">    1.23    1.26</time>
   <energy>
    <i name="e_fr_energy">    -24.05907328 </i>
    <i name="e_wo_entrp">    -24.05884193 </i>
    <i name="e_0_energy">    -24.05895760 </i>
   </energy>
  </scstep>
  <scstep>
   <time name="dav">    1.13    1.13</time>
   <time name="total">    1.41    1.44</time>
   <energy>
    <i name="e_fr_energy">    -24.05891787 </i>
    <i name="e_wo_entrp">    -24.05863381 </i>
    <i name="e_0_energy">    -24.05877584 </i>
   </energy>
  </scstep>
  <scstep>
   <time name="dav">    1.03    1.03</time>
   <time name="total">    1.31    1.34</time>
   <energy>
    <i name="e_fr_energy">    -24.05879756 </i>
    <i name="e_wo_entrp">    -24.05852572 </i>
    <i name="e_0_energy">    -24.05866164 </i>
   </energy>
  </scstep>
  <scstep>
   <time name="dav">    1.11    1.11</time>
   <time name="total">    1.43    1.44</time>
   <energy>
    <i name="e_fr_energy">    -24.05879582 </i>
    <i name="e_wo_entrp">    -24.05852786 </i>
    <i name="e_0_energy">    -24.05866184 </i>
   </energy>
  </scstep>
  <scstep>
   <time name="dav">    1.02    1.02</time>
   <time name="total">    1.30    1.34</time>
   <energy>
    <i name="e_fr_energy">    -24.05879444 </i>
    <i name="e_wo_entrp">    -24.05852585 </i>
    <i name="e_0_energy">    -24.05866014 </i>
   </energy>
  </scstep>
  <scstep>
   <time name="dav">    0.92    0.92</time>
   <time name="total">    1.03    1.06</time>
   <energy>
    <i name="alphaZ">    106.09980279 </i>
    <i name="ewald">  -1564.38492109 </i>
    <i name="hartreedc">   -302.63558095 </i>
    <i name="XCdc">    -19.60803069 </i>
    <i name="pawpsdc">   2630.76102607 </i>
    <i name="pawaedc">  -2543.07068454 </i>
    <i name="eentropy">     -0.00026856 </i>
    <i name="bandstr">    -72.32464873 </i>
    <i name="atom">   1741.10451121 </i>
    <i name="e_fr_energy">    -24.05879448 </i>
    <i name="e_wo_entrp">    -24.05852593 </i>
    <i name="e_0_energy">    -24.05866021 </i>
   </energy>
  </scstep>
  <structure>
   <crystal>
    <varray name="basis" >
     <v>       0.00000000       3.17828400       3.17828400 </v>
     <v>       3.17828400       0.00000000       3.17828400 </v>
     <v>       3.17828400       3.17828400       0.00000000 </v>
    </varray>
    <i name="volume">     64.21080290 </i>
    <varray name="rec_basis" >
     <v>      -0.15731760       0.15731760       0.15731760 </v>
     <v>       0.15731760      -0.15731760       0.15731760 </v>
     <v>       0.15731760       0.15731760      -0.15731760 </v>
    </varray>
   </crystal>
   <varray name="positions" >
    <v>       0.75000000       0.75000000       0.75000000 </v>
    <v>       0.25000000       0.25000000       0.25000000 </v>
    <v>       0.00000000       0.00000000       0.00000000 </v>
   </varray>
  </structure>
  <varray name="forces" >
   <v>      -0.00000000      -0.00000000      -0.00000000 </v>
   <v>      -0.00000000      -0.00000000      -0.00000000 </v>
   <v>       0.00000000       0.00000000       0.00000000 </v>
  </varray>
  <varray name="stress" >
   <v>       0.52197337       0.00000000       0.00000000 </v>
   <v>       0.00000000       0.52197337       0.00000000 </v>
   <v>      -0.00000000      -0.00000000       0.52197337 </v>
  </varray>
  <energy>
   <i name="e_fr_energy">    -24.05879448 </i>
   <i name="e_wo_entrp">    -24.05866021 </i>
   <i name="e_0_energy">     -0.00026856 </i>
  </energy>
  <time name="totalsc">   20.73   21.65</time>
  <eigenvalues>
   <array>
    <dimension dim="1">band</dimension>
    <dimension dim="2">kpoint</dimension>
    <dimension dim="3">spin</dimension>
    <field>eigene</field>
    <field>occ</field>
    <set>
     <set comment="spin 1">
      <set comment="kpoint 1">
       <r>  -23.2813    1.0000 </r>
       <r>  -23.2813    1.0000 </r>
       <r>  -23.2813    1.0000 </r>
       <r>   -3.8528    1.0000 </r>
       <r>    2.8932    1.0000 </r>
       <r>    2.8932    1.0000 </r>
       <r>    2.8932    1.0000 </r>
       <r>    3.7078    1.0000 </r>
       <r>    3.7078    1.0000 </r>
       <r>    7.3077    1.0000 </r>
       <r>    7.3077    1.0000 </r>
       <r>    7.3077    1.0000 </r>
       <r>    7.9898    1.0000 </r>
       <r>    9.8552    0.0000 </r>
       <r>    9.8552    0.0000 </r>
       <r>    9.8552    0.0000 </r>
      </set>
      <set comment="kpoint 2">
       <r>  -23.2823    1.0000 </r>
       <r>  -23.2812    1.0000 </r>
       <r>  -23.2812    1.0000 </r>
       <r>   -3.7879    1.0000 </r>
       <r>    2.8144    1.0000 </r>
       <r>    2.8653    1.0000 </r>
       <r>    2.8653    1.0000 </r>
       <r>    3.7484    1.0000 </r>
       <r>    3.7484    1.0000 </r>
       <r>    6.7554    1.0000 </r>
       <r>    7.2419    1.0000 </r>
       <r>    7.2419    1.0000 </r>
       <r>    8.2312    1.0000 </r>
       <r>    9.6909    0.0000 </r>
       <r>    9.6909    0.0000 </r>
       <r>   10.2370    0.0000 </r>
      </set>
      <set comment="kpoint 3">
       <r>  -23.2853    1.0000 </r>
       <r>  -23.2811    1.0000 </r>
       <r>  -23.2811    1.0000 </r>
       <r>   -3.5997    1.0000 </r>
       <r>    2.5952    1.0000 </r>
       <r>    2.8058    1.0000 </r>
       <r>    2.8058    1.0000 </r>
       <r>    3.8385    1.0000 </r>
       <r>    3.8385    1.0000 </r>
       <r>    5.8948    1.0000 </r>
       <r>    7.0770    1.0000 </r>
       <r>    7.0770    1.0000 </r>
       <r>    8.4600    1.0000 </r>
       <r>    9.5910    0.0000 </r>
       <r>    9.5910    0.0000 </r>
       <r>   11.0244    0.0000 </r>
      </set>
      <set comment="kpoint 4">
       <r>  -23.2893    1.0000 </r>
       <r>  -23.2809    1.0000 </r>
       <r>  -23.2809    1.0000 </r>
       <r>   -3.3097    1.0000 </r>
       <r>    2.2726    1.0000 </r>
       <r>    2.7526    1.0000 </r>
       <r>    2.7526    1.0000 </r>
       <r>    3.9223    1.0000 </r>
       <r>    3.9223    1.0000 </r>
       <r>    5.1066    1.0000 </r>
       <r>    6.8848    1.0000 </r>
       <r>    6.8848    1.0000 </r>
       <r>    8.6391    1.0000 </r>
       <r>    9.6221    0.0000 </r>
       <r>    9.6221    0.0000 </r>
       <r>   11.6754    0.0000 </r>
      </set>
      <set comment="kpoint 5">
       <r>  -23.2936    1.0000 </r>
       <r>  -23.2807    1.0000 </r>
       <r>  -23.2807    1.0000 </r>
       <r>   -2.9586    1.0000 </r>
       <r>    1.8889    1.0000 </r>
       <r>    2.7239    1.0000 </r>
       <r>    2.7239    1.0000 </r>
       <r>    3.9637    1.0000 </r>
       <r>    3.9637    1.0000 </r>
       <r>    4.5000    1.0000 </r>
       <r>    6.7281    1.0000 </r>
       <r>    6.7281    1.0000 </r>
       <r>    8.8014    1.0000 </r>
       <r>    9.7518    0.0000 </r>
       <r>    9.7518    0.0000 </r>
       <r>   11.2233    0.0000 </r>
      </set>
      <set comment="kpoint 6">
       <r>  -23.2972    1.0000 </r>
       <r>  -23.2806    1.0000 </r>
       <r>  -23.2806    1.0000 </r>
       <r>   -2.6169    1.0000 </r>
       <r>    1.5140    1.0000 </r>
       <r>    2.7185    1.0000 </r>
       <r>    2.7185    1.0000 </r>
       <r>    3.9617    1.0000 </r>
       <r>    3.9617    1.0000 </r>
       <r>    4.1100    1.0000 </r>
       <r>    6.6326    1.0000 </r>
       <r>    6.6326    1.0000 </r>
       <r>    8.9643    0.9979 </r>
       <r>    9.9300    0.0000 </r>
       <r>    9.9300    0.0000 </r>
       <r>   10.4811    0.0000 </r>
      </set>
      <set comment="kpoint 7">
       <r>  -23.2991    1.0000 </r>
       <r>  -23.2805    1.0000 </r>
       <r>  -23.2805    1.0000 </r>
       <r>   -2.3927    1.0000 </r>
       <r>    1.2671    1.0000 </r>
       <r>    2.7228    1.0000 </r>
       <r>    2.7228    1.0000 </r>
       <r>    3.9252    1.0000 </r>
       <r>    3.9456    1.0000 </r>
       <r>    3.9456    1.0000 </r>
       <r>    6.5917    1.0000 </r>
       <r>    6.5917    1.0000 </r>
       <r>    9.1176    0.0000 </r>
       <r>    9.9978    0.0000 </r>
       <r>   10.0702    0.0000 </r>
       <r>   10.0702    0.0000 </r>
      </set>
      <set comment="kpoint 8">
       <r>  -23.2823    1.0000 </r>
       <r>  -23.2814    1.0000 </r>
       <r>  -23.2814    1.0000 </r>
       <r>   -3.7666    1.0000 </r>
       <r>    2.6737    1.0000 </r>
       <r>    2.9240    1.0000 </r>
       <r>    2.9240    1.0000 </r>
       <r>    3.7410    1.0000 </r>
       <r>    3.7655    1.0000 </r>
       <r>    6.7945    1.0000 </r>
       <r>    7.1118    1.0000 </r>
       <r>    7.1118    1.0000 </r>
       <r>    8.3035    1.0000 </r>
       <r>    9.5564    0.0000 </r>
       <r>   10.1381    0.0000 </r>
       <r>   10.1382    0.0000 </r>
      </set>
      <set comment="kpoint 9">
       <r>  -23.2845    1.0000 </r>
       <r>  -23.2815    1.0000 </r>
       <r>  -23.2813    1.0000 </r>
       <r>   -3.6207    1.0000 </r>
       <r>    2.4615    1.0000 </r>
       <r>    2.9002    1.0000 </r>
       <r>    2.9270    1.0000 </r>
       <r>    3.8058    1.0000 </r>
       <r>    3.8235    1.0000 </r>
       <r>    6.1448    1.0000 </r>
       <r>    6.9206    1.0000 </r>
       <r>    6.9880    1.0000 </r>
       <r>    8.5410    1.0000 </r>
       <r>    9.4119    0.0000 </r>
       <r>    9.8505    0.0000 </r>
       <r>   10.6237    0.0000 </r>
      </set>
      <set comment="kpoint 10">
       <r>  -23.2881    1.0000 </r>
       <r>  -23.2814    1.0000 </r>
       <r>  -23.2811    1.0000 </r>
       <r>   -3.3666    1.0000 </r>
       <r>    2.2141    1.0000 </r>
       <r>    2.8080    1.0000 </r>
       <r>    2.8969    1.0000 </r>
       <r>    3.8936    1.0000 </r>
       <r>    3.9002    1.0000 </r>
       <r>    5.3667    1.0000 </r>
       <r>    6.7372    1.0000 </r>
       <r>    6.8154    1.0000 </r>
       <r>    8.8082    1.0000 </r>
       <r>    9.4076    0.0000 </r>
       <r>    9.7363    0.0000 </r>
       <r>   11.1912    0.0000 </r>
      </set>
      <set comment="kpoint 11">
       <r>  -23.2922    1.0000 </r>
       <r>  -23.2812    1.0000 </r>
       <r>  -23.2810    1.0000 </r>
       <r>   -3.0383    1.0000 </r>
       <r>    1.9228    1.0000 </r>
       <r>    2.7201    1.0000 </r>
       <r>    2.8615    1.0000 </r>
       <r>    3.9503    1.0000 </r>
       <r>    3.9573    1.0000 </r>
       <r>    4.7046    1.0000 </r>
       <r>    6.6068    1.0000 </r>
       <r>    6.6421    1.0000 </r>
       <r>    8.9162    1.0000 </r>
       <r>    9.6584    0.0000 </r>
       <r>    9.7505    0.0000 </r>
       <r>   11.3023    0.0000 </r>
      </set>
      <set comment="kpoint 12">
       <r>  -23.2959    1.0000 </r>
       <r>  -23.2810    1.0000 </r>
       <r>  -23.2810    1.0000 </r>
       <r>   -2.6951    1.0000 </r>
       <r>    1.6079    1.0000 </r>
       <r>    2.6775    1.0000 </r>
       <r>    2.8275    1.0000 </r>
       <r>    3.9631    1.0000 </r>
       <r>    3.9694    1.0000 </r>
       <r>    4.2438    1.0000 </r>
       <r>    6.5135    1.0000 </r>
       <r>    6.5401    1.0000 </r>
       <r>    8.9837    0.5517 </r>
       <r>    9.8724    0.0000 </r>
       <r>    9.9666    0.0000 </r>
       <r>   10.6605    0.0000 </r>
      </set>
      <set comment="kpoint 13">
       <r>  -23.2983    1.0000 </r>
       <r>  -23.2811    1.0000 </r>
       <r>  -23.2808    1.0000 </r>
       <r>   -2.4299    1.0000 </r>
       <r>    1.3534    1.0000 </r>
       <r>    2.6835    1.0000 </r>
       <r>    2.7870    1.0000 </r>
       <r>    3.9168    1.0000 </r>
       <r>    3.9599    1.0000 </r>
       <r>    4.0268    1.0000 </r>
       <r>    6.4379    1.0000 </r>
       <r>    6.5220    1.0000 </r>
       <r>    9.1012    0.0000 </r>
       <r>    9.9548    0.0000 </r>
       <r>   10.0319    0.0000 </r>
       <r>   10.3407    0.0000 </r>
      </set>
      <set comment="kpoint 14">
       <r>  -23.2990    1.0000 </r>
       <r>  -23.2813    1.0000 </r>
       <r>  -23.2805    1.0000 </r>
       <r>   -2.3519    1.0000 </r>
       <r>    1.2780    1.0000 </r>
       <r>    2.7236    1.0000 </r>
       <r>    2.7341    1.0000 </r>
       <r>    3.8702    1.0000 </r>
       <r>    3.9717    1.0000 </r>
       <r>    3.9937    1.0000 </r>
       <r>    6.3980    1.0000 </r>
       <r>    6.5387    1.0000 </r>
       <r>    9.1914    0.0000 </r>
       <r>    9.7666    0.0000 </r>
       <r>   10.0989    0.0000 </r>
       <r>   10.3948    0.0000 </r>
      </set>
      <set comment="kpoint 15">
       <r>  -23.2977    1.0000 </r>
       <r>  -23.2815    1.0000 </r>
       <r>  -23.2804    1.0000 </r>
       <r>   -2.5020    1.0000 </r>
       <r>    1.4289    1.0000 </r>
       <r>    2.6791    1.0000 </r>
       <r>    2.7818    1.0000 </r>
       <r>    3.9086    1.0000 </r>
       <r>    3.9977    1.0000 </r>
       <r>    4.0756    1.0000 </r>
       <r>    6.3764    1.0000 </r>
       <r>    6.5967    1.0000 </r>
       <r>    9.0987    0.0000 </r>
       <r>    9.9836    0.0000 </r>
       <r>    9.9976    0.0000 </r>
       <r>   10.3919    0.0000 </r>
      </set>
      <set comment="kpoint 16">
       <r>  -23.2947    1.0000 </r>
       <r>  -23.2817    1.0000 </r>
       <r>  -23.2804    1.0000 </r>
       <r>   -2.8054    1.0000 </r>
       <r>    1.7284    1.0000 </r>
       <r>    2.6433    1.0000 </r>
       <r>    2.8471    1.0000 </r>
       <r>    3.9281    1.0000 </r>
       <r>    4.0095    1.0000 </r>
       <r>    4.3794    1.0000 </r>
       <r>    6.3784    1.0000 </r>
       <r>    6.7141    1.0000 </r>
       <r>    9.0149    0.0000 </r>
       <r>    9.7948    0.0000 </r>
       <r>    9.9093    0.0000 </r>
       <r>   10.8891    0.0000 </r>
      </set>
      <set comment="kpoint 17">
       <r>  -23.2908    1.0000 </r>
       <r>  -23.2818    1.0000 </r>
       <r>  -23.2805    1.0000 </r>
       <r>   -3.1523    1.0000 </r>
       <r>    2.0668    1.0000 </r>
       <r>    2.6450    1.0000 </r>
       <r>    2.9114    1.0000 </r>
       <r>    3.9059    1.0000 </r>
       <r>    3.9810    1.0000 </r>
       <r>    4.9080    1.0000 </r>
       <r>    6.4347    1.0000 </r>
       <r>    6.8939    1.0000 </r>
       <r>    8.9537    1.0000 </r>
       <r>    9.5862    0.0000 </r>
       <r>    9.7369    0.0000 </r>
       <r>   11.1909    0.0000 </r>
      </set>
      <set comment="kpoint 18">
       <r>  -23.2868    1.0000 </r>
       <r>  -23.2818    1.0000 </r>
       <r>  -23.2807    1.0000 </r>
       <r>   -3.4612    1.0000 </r>
       <r>    2.3797    1.0000 </r>
       <r>    2.6910    1.0000 </r>
       <r>    2.9582    1.0000 </r>
       <r>    3.8429    1.0000 </r>
       <r>    3.9100    1.0000 </r>
       <r>    5.6095    1.0000 </r>
       <r>    6.5827    1.0000 </r>
       <r>    7.0977    1.0000 </r>
       <r>    8.7876    1.0000 </r>
       <r>    9.4482    0.0000 </r>
       <r>    9.7203    0.0000 </r>
       <r>   10.7082    0.0000 </r>
      </set>
      <set comment="kpoint 19">
       <r>  -23.2838    1.0000 </r>
       <r>  -23.2816    1.0000 </r>
       <r>  -23.2810    1.0000 </r>
       <r>   -3.6823    1.0000 </r>
       <r>    2.6397    1.0000 </r>
       <r>    2.7734    1.0000 </r>
       <r>    2.9498    1.0000 </r>
       <r>    3.7761    1.0000 </r>
       <r>    3.8193    1.0000 </r>
       <r>    6.3221    1.0000 </r>
       <r>    6.8753    1.0000 </r>
       <r>    7.2400    1.0000 </r>
       <r>    8.4819    1.0000 </r>
       <r>    9.4619    0.0000 </r>
       <r>    9.8448    0.0000 </r>
       <r>   10.2713    0.0000 </r>
      </set>
      <set comment="kpoint 20">
       <r>  -23.2852    1.0000 </r>
       <r>  -23.2818    1.0000 </r>
       <r>  -23.2818    1.0000 </r>
       <r>   -3.5217    1.0000 </r>
       <r>    2.2145    1.0000 </r>
       <r>    3.0110    1.0000 </r>
       <r>    3.0110    1.0000 </r>
       <r>    3.8044    1.0000 </r>
       <r>    3.8360    1.0000 </r>
       <r>    6.0942    1.0000 </r>
       <r>    6.7106    1.0000 </r>
       <r>    6.7106    1.0000 </r>
       <r>    8.5043    1.0000 </r>
       <r>    9.4298    0.0000 </r>
       <r>    9.9049    0.0000 </r>
       <r>   10.7411    0.0000 </r>
      </set>
      <set comment="kpoint 21">
       <r>  -23.2879    1.0000 </r>
       <r>  -23.2819    1.0000 </r>
       <r>  -23.2818    1.0000 </r>
       <r>   -3.3150    1.0000 </r>
       <r>    1.9816    1.0000 </r>
       <r>    3.0030    1.0000 </r>
       <r>    3.0391    1.0000 </r>
       <r>    3.8247    1.0000 </r>
       <r>    3.9126    1.0000 </r>
       <r>    5.5744    1.0000 </r>
       <r>    6.5221    1.0000 </r>
       <r>    6.5226    1.0000 </r>
       <r>    8.7100    1.0000 </r>
       <r>    9.4111    0.0000 </r>
       <r>    9.7652    0.0000 </r>
       <r>   11.0838    0.0000 </r>
      </set>
      <set comment="kpoint 22">
       <r>  -23.2914    1.0000 </r>
       <r>  -23.2819    1.0000 </r>
       <r>  -23.2819    1.0000 </r>
       <r>   -3.0297    1.0000 </r>
       <r>    1.7778    1.0000 </r>
       <r>    2.9003    1.0000 </r>
       <r>    3.0268    1.0000 </r>
       <r>    3.8839    1.0000 </r>
       <r>    3.9796    1.0000 </r>
       <r>    4.9453    1.0000 </r>
       <r>    6.3310    1.0000 </r>
       <r>    6.4011    1.0000 </r>
       <r>    8.9344    1.0000 </r>
       <r>    9.6177    0.0000 </r>
       <r>    9.6966    0.0000 </r>
       <r>   11.2100    0.0000 </r>
      </set>
      <set comment="kpoint 23">
       <r>  -23.2947    1.0000 </r>
       <r>  -23.2823    1.0000 </r>
       <r>  -23.2816    1.0000 </r>
       <r>   -2.7157    1.0000 </r>
       <r>    1.6031    1.0000 </r>
       <r>    2.7750    1.0000 </r>
       <r>    2.9865    1.0000 </r>
       <r>    3.9340    1.0000 </r>
       <r>    4.0068    1.0000 </r>
       <r>    4.4235    1.0000 </r>
       <r>    6.1691    1.0000 </r>
       <r>    6.3540    1.0000 </r>
       <r>    8.9546    1.0000 </r>
       <r>    9.7653    0.0000 </r>
       <r>   10.1077    0.0000 </r>
       <r>   10.7471    0.0000 </r>
      </set>
      <set comment="kpoint 24">
       <r>  -23.2970    1.0000 </r>
       <r>  -23.2828    1.0000 </r>
       <r>  -23.2813    1.0000 </r>
       <r>   -2.4485    1.0000 </r>
       <r>    1.4649    1.0000 </r>
       <r>    2.6887    1.0000 </r>
       <r>    2.9164    1.0000 </r>
       <r>    3.9059    1.0000 </r>
       <r>    4.0150    1.0000 </r>
       <r>    4.1382    1.0000 </r>
       <r>    6.0556    1.0000 </r>
       <r>    6.3547    1.0000 </r>
       <r>    9.0015    0.0084 </r>
       <r>    9.9478    0.0000 </r>
       <r>   10.1146    0.0000 </r>
       <r>   10.5931    0.0000 </r>
      </set>
      <set comment="kpoint 25">
       <r>  -23.2979    1.0000 </r>
       <r>  -23.2834    1.0000 </r>
       <r>  -23.2809    1.0000 </r>
       <r>   -2.3185    1.0000 </r>
       <r>    1.4003    1.0000 </r>
       <r>    2.6810    1.0000 </r>
       <r>    2.8191    1.0000 </r>
       <r>    3.8157    1.0000 </r>
       <r>    4.0343    1.0000 </r>
       <r>    4.0997    1.0000 </r>
       <r>    5.9780    1.0000 </r>
       <r>    6.3835    1.0000 </r>
       <r>    9.1411    0.0000 </r>
       <r>    9.7293    0.0000 </r>
       <r>   10.1121    0.0000 </r>
       <r>   10.8544    0.0000 </r>
      </set>
      <set comment="kpoint 26">
       <r>  -23.2972    1.0000 </r>
       <r>  -23.2838    1.0000 </r>
       <r>  -23.2806    1.0000 </r>
       <r>   -2.3822    1.0000 </r>
       <r>    1.4522    1.0000 </r>
       <r>    2.7151    1.0000 </r>
       <r>    2.7584    1.0000 </r>
       <r>    3.8235    1.0000 </r>
       <r>    4.0630    1.0000 </r>
       <r>    4.1583    1.0000 </r>
       <r>    5.9086    1.0000 </r>
       <r>    6.4497    1.0000 </r>
       <r>    9.2174    0.0000 </r>
       <r>    9.7858    0.0000 </r>
       <r>   10.0929    0.0000 </r>
       <r>   10.8369    0.0000 </r>
      </set>
      <set comment="kpoint 27">
       <r>  -23.2951    1.0000 </r>
       <r>  -23.2839    1.0000 </r>
       <r>  -23.2804    1.0000 </r>
       <r>   -2.6113    1.0000 </r>
       <r>    1.6130    1.0000 </r>
       <r>    2.6333    1.0000 </r>
       <r>    2.8877    1.0000 </r>
       <r>    3.8766    1.0000 </r>
       <r>    4.0752    1.0000 </r>
       <r>    4.3660    1.0000 </r>
       <r>    5.8430    1.0000 </r>
       <r>    6.5753    1.0000 </r>
       <r>    9.2254    0.0000 </r>
       <r>    9.9139    0.0000 </r>
       <r>   10.1674    0.0000 </r>
       <r>   10.6969    0.0000 </r>
      </set>
      <set comment="kpoint 28">
       <r>  -23.2922    1.0000 </r>
       <r>  -23.2836    1.0000 </r>
       <r>  -23.2803    1.0000 </r>
       <r>   -2.9195    1.0000 </r>
       <r>    1.8417    1.0000 </r>
       <r>    2.5964    1.0000 </r>
       <r>    3.0046    1.0000 </r>
       <r>    3.8883    1.0000 </r>
       <r>    4.0504    1.0000 </r>
       <r>    4.7767    1.0000 </r>
       <r>    5.8381    1.0000 </r>
       <r>    6.7619    1.0000 </r>
       <r>    9.3257    0.0000 </r>
       <r>    9.6868    0.0000 </r>
       <r>    9.9968    0.0000 </r>
       <r>   10.8476    0.0000 </r>
      </set>
      <set comment="kpoint 29">
       <r>  -23.2892    1.0000 </r>
       <r>  -23.2828    1.0000 </r>
       <r>  -23.2804    1.0000 </r>
       <r>   -3.2225    1.0000 </r>
       <r>    2.1062    1.0000 </r>
       <r>    2.6160    1.0000 </r>
       <r>    3.0422    1.0000 </r>
       <r>    3.8630    1.0000 </r>
       <r>    3.9894    1.0000 </r>
       <r>    5.2612    1.0000 </r>
       <r>    6.0419    1.0000 </r>
       <r>    6.9661    1.0000 </r>
       <r>    9.2871    0.0000 </r>
       <r>    9.5011    0.0000 </r>
       <r>    9.7052    0.0000 </r>
       <r>   10.6722    0.0000 </r>
      </set>
      <set comment="kpoint 30">
       <r>  -23.2894    1.0000 </r>
       <r>  -23.2823    1.0000 </r>
       <r>  -23.2823    1.0000 </r>
       <r>   -3.1631    1.0000 </r>
       <r>    1.7625    1.0000 </r>
       <r>    3.1381    1.0000 </r>
       <r>    3.1381    1.0000 </r>
       <r>    3.7385    1.0000 </r>
       <r>    3.9789    1.0000 </r>
       <r>    5.4685    1.0000 </r>
       <r>    6.3183    1.0000 </r>
       <r>    6.3183    1.0000 </r>
       <r>    8.5016    1.0000 </r>
       <r>    9.5297    0.0000 </r>
       <r>    9.6539    0.0000 </r>
       <r>   11.2064    0.0000 </r>
      </set>
      <set comment="kpoint 31">
       <r>  -23.2920    1.0000 </r>
       <r>  -23.2826    1.0000 </r>
       <r>  -23.2824    1.0000 </r>
       <r>   -2.9354    1.0000 </r>
       <r>    1.6054    1.0000 </r>
       <r>    3.1195    1.0000 </r>
       <r>    3.1780    1.0000 </r>
       <r>    3.7427    1.0000 </r>
       <r>    4.0533    1.0000 </r>
       <r>    5.0563    1.0000 </r>
       <r>    6.1101    1.0000 </r>
       <r>    6.1836    1.0000 </r>
       <r>    8.6180    1.0000 </r>
       <r>    9.5448    0.0000 </r>
       <r>    9.6763    0.0000 </r>
       <r>   11.2123    0.0000 </r>
      </set>
      <set comment="kpoint 32">
       <r>  -23.2945    1.0000 </r>
       <r>  -23.2833    1.0000 </r>
       <r>  -23.2823    1.0000 </r>
       <r>   -2.6745    1.0000 </r>
       <r>    1.5289    1.0000 </r>
       <r>    2.9741    1.0000 </r>
       <r>    3.1612    1.0000 </r>
       <r>    3.8337    1.0000 </r>
       <r>    4.0931    1.0000 </r>
       <r>    4.5703    1.0000 </r>
       <r>    5.8707    1.0000 </r>
       <r>    6.1355    1.0000 </r>
       <r>    8.7461    1.0000 </r>
       <r>    9.5641    0.0000 </r>
       <r>   10.1022    0.0000 </r>
       <r>   10.8416    0.0000 </r>
      </set>
      <set comment="kpoint 33">
       <r>  -23.2962    1.0000 </r>
       <r>  -23.2844    1.0000 </r>
       <r>  -23.2820    1.0000 </r>
       <r>   -2.4393    1.0000 </r>
       <r>    1.5325    1.0000 </r>
       <r>    2.8016    1.0000 </r>
       <r>    3.0870    1.0000 </r>
       <r>    3.8722    1.0000 </r>
       <r>    4.1072    1.0000 </r>
       <r>    4.2294    1.0000 </r>
       <r>    5.6673    1.0000 </r>
       <r>    6.1440    1.0000 </r>
       <r>    8.8014    1.0000 </r>
       <r>    9.7593    0.0000 </r>
       <r>   10.2992    0.0000 </r>
       <r>   10.6729    0.0000 </r>
      </set>
      <set comment="kpoint 34">
       <r>  -23.2966    1.0000 </r>
       <r>  -23.2856    1.0000 </r>
       <r>  -23.2816    1.0000 </r>
       <r>   -2.2948    1.0000 </r>
       <r>    1.5810    1.0000 </r>
       <r>    2.6713    1.0000 </r>
       <r>    2.9635    1.0000 </r>
       <r>    3.7459    1.0000 </r>
       <r>    4.1248    1.0000 </r>
       <r>    4.2171    1.0000 </r>
       <r>    5.5190    1.0000 </r>
       <r>    6.1793    1.0000 </r>
       <r>    8.9144    1.0000 </r>
       <r>    9.8715    0.0000 </r>
       <r>   10.0583    0.0000 </r>
       <r>   10.9520    0.0000 </r>
      </set>
      <set comment="kpoint 35">
       <r>  -23.2960    1.0000 </r>
       <r>  -23.2866    1.0000 </r>
       <r>  -23.2811    1.0000 </r>
       <r>   -2.2881    1.0000 </r>
       <r>    1.6091    1.0000 </r>
       <r>    2.6655    1.0000 </r>
       <r>    2.8205    1.0000 </r>
       <r>    3.7090    1.0000 </r>
       <r>    4.1449    1.0000 </r>
       <r>    4.3137    1.0000 </r>
       <r>    5.4138    1.0000 </r>
       <r>    6.2487    1.0000 </r>
       <r>    9.1125    0.0000 </r>
       <r>    9.6894    0.0000 </r>
       <r>   10.1961    0.0000 </r>
       <r>   10.8924    0.0000 </r>
      </set>
      <set comment="kpoint 36">
       <r>  -23.2947    1.0000 </r>
       <r>  -23.2867    1.0000 </r>
       <r>  -23.2806    1.0000 </r>
       <r>   -2.4228    1.0000 </r>
       <r>    1.6191    1.0000 </r>
       <r>    2.6947    1.0000 </r>
       <r>    2.7932    1.0000 </r>
       <r>    3.7861    1.0000 </r>
       <r>    4.1448    1.0000 </r>
       <r>    4.4599    1.0000 </r>
       <r>    5.3522    1.0000 </r>
       <r>    6.3764    1.0000 </r>
       <r>    9.2413    0.0000 </r>
       <r>    9.9553    0.0000 </r>
       <r>   10.0797    0.0000 </r>
       <r>   10.7929    0.0000 </r>
      </set>
      <set comment="kpoint 37">
       <r>  -23.2934    1.0000 </r>
       <r>  -23.2855    1.0000 </r>
       <r>  -23.2804    1.0000 </r>
       <r>   -2.6556    1.0000 </r>
       <r>    1.6854    1.0000 </r>
       <r>    2.6146    1.0000 </r>
       <r>    2.9453    1.0000 </r>
       <r>    3.8627    1.0000 </r>
       <r>    4.1110    1.0000 </r>
       <r>    4.6448    1.0000 </r>
       <r>    5.4393    1.0000 </r>
       <r>    6.5622    1.0000 </r>
       <r>    9.3243    0.0000 </r>
       <r>    9.8766    0.0000 </r>
       <r>   10.4593    0.0000 </r>
       <r>   10.6684    0.0000 </r>
      </set>
      <set comment="kpoint 38">
       <r>  -23.2939    1.0000 </r>
       <r>  -23.2828    1.0000 </r>
       <r>  -23.2828    1.0000 </r>
       <r>   -2.7752    1.0000 </r>
       <r>    1.4938    1.0000 </r>
       <r>    3.2780    1.0000 </r>
       <r>    3.2780    1.0000 </r>
       <r>    3.5960    1.0000 </r>
       <r>    4.1444    1.0000 </r>
       <r>    4.8643    1.0000 </r>
       <r>    6.0200    1.0000 </r>
       <r>    6.0200    1.0000 </r>
       <r>    8.4302    1.0000 </r>
       <r>    9.3739    0.0000 </r>
       <r>    9.7331    0.0000 </r>
       <r>   11.1571    0.0000 </r>
      </set>
      <set comment="kpoint 39">
       <r>  -23.2959    1.0000 </r>
       <r>  -23.2833    1.0000 </r>
       <r>  -23.2829    1.0000 </r>
       <r>   -2.5837    1.0000 </r>
       <r>    1.4798    1.0000 </r>
       <r>    3.1939    1.0000 </r>
       <r>    3.3091    1.0000 </r>
       <r>    3.6584    1.0000 </r>
       <r>    4.2043    1.0000 </r>
       <r>    4.5010    1.0000 </r>
       <r>    5.8170    1.0000 </r>
       <r>    5.9471    1.0000 </r>
       <r>    8.4851    1.0000 </r>
       <r>    9.3113    0.0000 </r>
       <r>    9.9595    0.0000 </r>
       <r>   10.8879    0.0000 </r>
      </set>
      <set comment="kpoint 40">
       <r>  -23.2970    1.0000 </r>
       <r>  -23.2846    1.0000 </r>
       <r>  -23.2827    1.0000 </r>
       <r>   -2.4046    1.0000 </r>
       <r>    1.5703    1.0000 </r>
       <r>    2.9912    1.0000 </r>
       <r>    3.2621    1.0000 </r>
       <r>    3.7818    1.0000 </r>
       <r>    4.1728    1.0000 </r>
       <r>    4.2228    1.0000 </r>
       <r>    5.5201    1.0000 </r>
       <r>    5.9478    1.0000 </r>
       <r>    8.5712    1.0000 </r>
       <r>    9.4533    0.0000 </r>
       <r>   10.3608    0.0000 </r>
       <r>   10.6080    0.0000 </r>
      </set>
      <set comment="kpoint 41">
       <r>  -23.2968    1.0000 </r>
       <r>  -23.2864    1.0000 </r>
       <r>  -23.2823    1.0000 </r>
       <r>   -2.2796    1.0000 </r>
       <r>    1.7269    1.0000 </r>
       <r>    2.7774    1.0000 </r>
       <r>    3.1408    1.0000 </r>
       <r>    3.6478    1.0000 </r>
       <r>    4.2230    1.0000 </r>
       <r>    4.2280    1.0000 </r>
       <r>    5.2441    1.0000 </r>
       <r>    5.9841    1.0000 </r>
       <r>    8.6708    1.0000 </r>
       <r>    9.8211    0.0000 </r>
       <r>   10.0341    0.0000 </r>
       <r>   10.7256    0.0000 </r>
      </set>
      <set comment="kpoint 42">
       <r>  -23.2955    1.0000 </r>
       <r>  -23.2883    1.0000 </r>
       <r>  -23.2817    1.0000 </r>
       <r>   -2.2369    1.0000 </r>
       <r>    1.8253    1.0000 </r>
       <r>    2.6122    1.0000 </r>
       <r>    2.9776    1.0000 </r>
       <r>    3.5706    1.0000 </r>
       <r>    4.2256    1.0000 </r>
       <r>    4.4307    1.0000 </r>
       <r>    5.0442    1.0000 </r>
       <r>    6.0570    1.0000 </r>
       <r>    8.8548    1.0000 </r>
       <r>    9.7655    0.0000 </r>
       <r>   10.2539    0.0000 </r>
       <r>   10.7129    0.0000 </r>
      </set>
      <set comment="kpoint 43">
       <r>  -23.2943    1.0000 </r>
       <r>  -23.2888    1.0000 </r>
       <r>  -23.2811    1.0000 </r>
       <r>   -2.2875    1.0000 </r>
       <r>    1.7378    1.0000 </r>
       <r>    2.6488    1.0000 </r>
       <r>    2.8170    1.0000 </r>
       <r>    3.6555    1.0000 </r>
       <r>    4.1994    1.0000 </r>
       <r>    4.5481    1.0000 </r>
       <r>    5.0357    1.0000 </r>
       <r>    6.1889    1.0000 </r>
       <r>    9.1001    0.0000 </r>
       <r>    9.7115    0.0000 </r>
       <r>   10.2434    0.0000 </r>
       <r>   10.6588    0.0000 </r>
      </set>
      <set comment="kpoint 44">
       <r>  -23.2978    1.0000 </r>
       <r>  -23.2833    1.0000 </r>
       <r>  -23.2833    1.0000 </r>
       <r>   -2.4681    1.0000 </r>
       <r>    1.5103    1.0000 </r>
       <r>    3.3959    1.0000 </r>
       <r>    3.3959    1.0000 </r>
       <r>    3.4541    1.0000 </r>
       <r>    4.2219    1.0000 </r>
       <r>    4.2949    1.0000 </r>
       <r>    5.8374    1.0000 </r>
       <r>    5.8374    1.0000 </r>
       <r>    8.3573    1.0000 </r>
       <r>    9.1286    0.0000 </r>
       <r>    9.8555    0.0000 </r>
       <r>   10.8244    0.0000 </r>
      </set>
      <set comment="kpoint 45">
       <r>  -23.2988    1.0000 </r>
       <r>  -23.2839    1.0000 </r>
       <r>  -23.2833    1.0000 </r>
       <r>   -2.3572    1.0000 </r>
       <r>    1.6289    1.0000 </r>
       <r>    3.2055    1.0000 </r>
       <r>    3.3993    1.0000 </r>
       <r>    3.6255    1.0000 </r>
       <r>    3.9193    1.0000 </r>
       <r>    4.3294    1.0000 </r>
       <r>    5.6579    1.0000 </r>
       <r>    5.8127    1.0000 </r>
       <r>    8.3877    1.0000 </r>
       <r>    9.1411    0.0000 </r>
       <r>   10.0358    0.0000 </r>
       <r>   10.6057    0.0000 </r>
      </set>
      <set comment="kpoint 46">
       <r>  -23.2985    1.0000 </r>
       <r>  -23.2853    1.0000 </r>
       <r>  -23.2830    1.0000 </r>
       <r>   -2.2745    1.0000 </r>
       <r>    1.7926    1.0000 </r>
       <r>    2.9929    1.0000 </r>
       <r>    3.3116    1.0000 </r>
       <r>    3.5345    1.0000 </r>
       <r>    3.9999    1.0000 </r>
       <r>    4.3211    1.0000 </r>
       <r>    5.3426    1.0000 </r>
       <r>    5.8420    1.0000 </r>
       <r>    8.4758    1.0000 </r>
       <r>    9.4112    0.0000 </r>
       <r>   10.1639    0.0000 </r>
       <r>   10.5672    0.0000 </r>
      </set>
      <set comment="kpoint 47">
       <r>  -23.2969    1.0000 </r>
       <r>  -23.2873    1.0000 </r>
       <r>  -23.2824    1.0000 </r>
       <r>   -2.2328    1.0000 </r>
       <r>    1.9030    1.0000 </r>
       <r>    2.7457    1.0000 </r>
       <r>    3.1558    1.0000 </r>
       <r>    3.4705    1.0000 </r>
       <r>    4.2779    1.0000 </r>
       <r>    4.2868    1.0000 </r>
       <r>    5.0635    1.0000 </r>
       <r>    5.9183    1.0000 </r>
       <r>    8.6250    1.0000 </r>
       <r>    9.8994    0.0000 </r>
       <r>    9.9420    0.0000 </r>
       <r>   10.4906    0.0000 </r>
      </set>
      <set comment="kpoint 48">
       <r>  -23.3000    1.0000 </r>
       <r>  -23.2835    1.0000 </r>
       <r>  -23.2835    1.0000 </r>
       <r>   -2.3132    1.0000 </r>
       <r>    1.7158    1.0000 </r>
       <r>    3.4068    1.0000 </r>
       <r>    3.4623    1.0000 </r>
       <r>    3.4623    1.0000 </r>
       <r>    3.6520    1.0000 </r>
       <r>    4.3865    1.0000 </r>
       <r>    5.7576    1.0000 </r>
       <r>    5.7576    1.0000 </r>
       <r>    8.3122    1.0000 </r>
       <r>    8.9836    0.5537 </r>
       <r>    9.8182    0.0000 </r>
       <r>   10.5800    0.0000 </r>
      </set>
      <set comment="kpoint 49">
       <r>  -23.2998    1.0000 </r>
       <r>  -23.2841    1.0000 </r>
       <r>  -23.2834    1.0000 </r>
       <r>   -2.2845    1.0000 </r>
       <r>    1.7856    1.0000 </r>
       <r>    3.2334    1.0000 </r>
       <r>    3.4306    1.0000 </r>
       <r>    3.4889    1.0000 </r>
       <r>    3.7136    1.0000 </r>
       <r>    4.3800    1.0000 </r>
       <r>    5.6103    1.0000 </r>
       <r>    5.7692    1.0000 </r>
       <r>    8.3527    1.0000 </r>
       <r>    9.0799    0.0000 </r>
       <r>    9.9913    0.0000 </r>
       <r>   10.5003    0.0000 </r>
      </set>
      <set comment="kpoint 50">
       <r>  -23.2866    1.0000 </r>
       <r>  -23.2820    1.0000 </r>
       <r>  -23.2811    1.0000 </r>
       <r>   -3.4431    1.0000 </r>
       <r>    2.2214    1.0000 </r>
       <r>    2.8306    1.0000 </r>
       <r>    3.0210    1.0000 </r>
       <r>    3.8340    1.0000 </r>
       <r>    3.8925    1.0000 </r>
       <r>    5.7377    1.0000 </r>
       <r>    6.4552    1.0000 </r>
       <r>    6.9462    1.0000 </r>
       <r>    8.8318    1.0000 </r>
       <r>    9.3470    0.0000 </r>
       <r>    9.8070    0.0000 </r>
       <r>   10.6811    0.0000 </r>
      </set>
      <set comment="kpoint 51">
       <r>  -23.2899    1.0000 </r>
       <r>  -23.2825    1.0000 </r>
       <r>  -23.2808    1.0000 </r>
       <r>   -3.1722    1.0000 </r>
       <r>    1.9788    1.0000 </r>
       <r>    2.7460    1.0000 </r>
       <r>    3.0263    1.0000 </r>
       <r>    3.8808    1.0000 </r>
       <r>    3.9710    1.0000 </r>
       <r>    5.1430    1.0000 </r>
       <r>    6.1815    1.0000 </r>
       <r>    6.7990    1.0000 </r>
       <r>    9.1345    0.0000 </r>
       <r>    9.4426    0.0000 </r>
       <r>    9.7468    0.0000 </r>
       <r>   10.9637    0.0000 </r>
      </set>
      <set comment="kpoint 52">
       <r>  -23.2934    1.0000 </r>
       <r>  -23.2827    1.0000 </r>
       <r>  -23.2807    1.0000 </r>
       <r>   -2.8503    1.0000 </r>
       <r>    1.7394    1.0000 </r>
       <r>    2.6886    1.0000 </r>
       <r>    2.9644    1.0000 </r>
       <r>    3.9164    1.0000 </r>
       <r>    4.0176    1.0000 </r>
       <r>    4.5803    1.0000 </r>
       <r>    6.0941    1.0000 </r>
       <r>    6.6262    1.0000 </r>
       <r>    9.1132    0.0000 </r>
       <r>    9.7091    0.0000 </r>
       <r>    9.9745    0.0000 </r>
       <r>   10.9596    0.0000 </r>
      </set>
      <set comment="kpoint 53">
       <r>  -23.2963    1.0000 </r>
       <r>  -23.2828    1.0000 </r>
       <r>  -23.2808    1.0000 </r>
       <r>   -2.5457    1.0000 </r>
       <r>    1.5211    1.0000 </r>
       <r>    2.6697    1.0000 </r>
       <r>    2.8787    1.0000 </r>
       <r>    3.9058    1.0000 </r>
       <r>    4.0230    1.0000 </r>
       <r>    4.2118    1.0000 </r>
       <r>    6.0855    1.0000 </r>
       <r>    6.5011    1.0000 </r>
       <r>    9.1033    0.0000 </r>
       <r>    9.8786    0.0000 </r>
       <r>   10.1809    0.0000 </r>
       <r>   10.5423    0.0000 </r>
      </set>
      <set comment="kpoint 54">
       <r>  -23.2980    1.0000 </r>
       <r>  -23.2827    1.0000 </r>
       <r>  -23.2808    1.0000 </r>
       <r>   -2.3524    1.0000 </r>
       <r>    1.3787    1.0000 </r>
       <r>    2.6801    1.0000 </r>
       <r>    2.8092    1.0000 </r>
       <r>    3.8465    1.0000 </r>
       <r>    4.0016    1.0000 </r>
       <r>    4.0900    1.0000 </r>
       <r>    6.0934    1.0000 </r>
       <r>    6.4434    1.0000 </r>
       <r>    9.1861    0.0000 </r>
       <r>    9.7321    0.0000 </r>
       <r>   10.1063    0.0000 </r>
       <r>   10.7093    0.0000 </r>
      </set>
      <set comment="kpoint 55">
       <r>  -23.2903    1.0000 </r>
       <r>  -23.2827    1.0000 </r>
       <r>  -23.2816    1.0000 </r>
       <r>   -3.0953    1.0000 </r>
       <r>    1.7761    1.0000 </r>
       <r>    2.9632    1.0000 </r>
       <r>    3.1204    1.0000 </r>
       <r>    3.8235    1.0000 </r>
       <r>    3.9846    1.0000 </r>
       <r>    5.2316    1.0000 </r>
       <r>    6.0830    1.0000 </r>
       <r>    6.5094    1.0000 </r>
       <r>    8.8437    1.0000 </r>
       <r>    9.5205    0.0000 </r>
       <r>    9.6913    0.0000 </r>
       <r>   11.1123    0.0000 </r>
      </set>
      <set comment="kpoint 56">
       <r>  -23.2930    1.0000 </r>
       <r>  -23.2834    1.0000 </r>
       <r>  -23.2815    1.0000 </r>
       <r>   -2.8203    1.0000 </r>
       <r>    1.6292    1.0000 </r>
       <r>    2.8707    1.0000 </r>
       <r>    3.1086    1.0000 </r>
       <r>    3.8757    1.0000 </r>
       <r>    4.0329    1.0000 </r>
       <r>    4.7662    1.0000 </r>
       <r>    5.8389    1.0000 </r>
       <r>    6.3990    1.0000 </r>
       <r>    8.9763    0.8798 </r>
       <r>    9.5725    0.0000 </r>
       <r>    9.9956    0.0000 </r>
       <r>   11.0233    0.0000 </r>
      </set>
      <set comment="kpoint 57">
       <r>  -23.2953    1.0000 </r>
       <r>  -23.2841    1.0000 </r>
       <r>  -23.2815    1.0000 </r>
       <r>   -2.5468    1.0000 </r>
       <r>    1.5475    1.0000 </r>
       <r>    2.7585    1.0000 </r>
       <r>    3.0422    1.0000 </r>
       <r>    3.9130    1.0000 </r>
       <r>    4.0385    1.0000 </r>
       <r>    4.3635    1.0000 </r>
       <r>    5.7306    1.0000 </r>
       <r>    6.3063    1.0000 </r>
       <r>    8.9888    0.2751 </r>
       <r>    9.7034    0.0000 </r>
       <r>   10.4145    0.0000 </r>
       <r>   10.5643    0.0000 </r>
      </set>
      <set comment="kpoint 58">
       <r>  -23.2967    1.0000 </r>
       <r>  -23.2847    1.0000 </r>
       <r>  -23.2814    1.0000 </r>
       <r>   -2.3475    1.0000 </r>
       <r>    1.5215    1.0000 </r>
       <r>    2.6601    1.0000 </r>
       <r>    2.9618    1.0000 </r>
       <r>    3.8260    1.0000 </r>
       <r>    4.0398    1.0000 </r>
       <r>    4.2184    1.0000 </r>
       <r>    5.6632    1.0000 </r>
       <r>    6.2739    1.0000 </r>
       <r>    9.0459    0.0000 </r>
       <r>    9.7986    0.0000 </r>
       <r>   10.0625    0.0000 </r>
       <r>   10.9104    0.0000 </r>
      </set>
      <set comment="kpoint 59">
       <r>  -23.2968    1.0000 </r>
       <r>  -23.2852    1.0000 </r>
       <r>  -23.2812    1.0000 </r>
       <r>   -2.2896    1.0000 </r>
       <r>    1.5266    1.0000 </r>
       <r>    2.6301    1.0000 </r>
       <r>    2.8915    1.0000 </r>
       <r>    3.7596    1.0000 </r>
       <r>    4.0614    1.0000 </r>
       <r>    4.2276    1.0000 </r>
       <r>    5.6121    1.0000 </r>
       <r>    6.2905    1.0000 </r>
       <r>    9.1849    0.0000 </r>
       <r>    9.5991    0.0000 </r>
       <r>   10.1357    0.0000 </r>
       <r>   11.0153    0.0000 </r>
      </set>
      <set comment="kpoint 60">
       <r>  -23.2958    1.0000 </r>
       <r>  -23.2854    1.0000 </r>
       <r>  -23.2809    1.0000 </r>
       <r>   -2.3956    1.0000 </r>
       <r>    1.5551    1.0000 </r>
       <r>    2.6621    1.0000 </r>
       <r>    2.8810    1.0000 </r>
       <r>    3.8129    1.0000 </r>
       <r>    4.0854    1.0000 </r>
       <r>    4.3086    1.0000 </r>
       <r>    5.5697    1.0000 </r>
       <r>    6.3580    1.0000 </r>
       <r>    9.2161    0.0000 </r>
       <r>    9.7667    0.0000 </r>
       <r>   10.0998    0.0000 </r>
       <r>   10.9452    0.0000 </r>
      </set>
      <set comment="kpoint 61">
       <r>  -23.2940    1.0000 </r>
       <r>  -23.2850    1.0000 </r>
       <r>  -23.2807    1.0000 </r>
       <r>   -2.6263    1.0000 </r>
       <r>    1.6322    1.0000 </r>
       <r>    2.6701    1.0000 </r>
       <r>    2.9745    1.0000 </r>
       <r>    3.8814    1.0000 </r>
       <r>    4.0794    1.0000 </r>
       <r>    4.5419    1.0000 </r>
       <r>    5.5600    1.0000 </r>
       <r>    6.4899    1.0000 </r>
       <r>    9.2571    0.0000 </r>
       <r>    9.7245    0.0000 </r>
       <r>   10.4115    0.0000 </r>
       <r>   10.7085    0.0000 </r>
      </set>
      <set comment="kpoint 62">
       <r>  -23.2919    1.0000 </r>
       <r>  -23.2839    1.0000 </r>
       <r>  -23.2807    1.0000 </r>
       <r>   -2.9086    1.0000 </r>
       <r>    1.7757    1.0000 </r>
       <r>    2.6876    1.0000 </r>
       <r>    3.0580    1.0000 </r>
       <r>    3.8883    1.0000 </r>
       <r>    4.0385    1.0000 </r>
       <r>    4.8825    1.0000 </r>
       <r>    5.7124    1.0000 </r>
       <r>    6.6643    1.0000 </r>
       <r>    9.3306    0.0000 </r>
       <r>    9.5564    0.0000 </r>
       <r>   10.0206    0.0000 </r>
       <r>   10.8848    0.0000 </r>
      </set>
      <set comment="kpoint 63">
       <r>  -23.2941    1.0000 </r>
       <r>  -23.2834    1.0000 </r>
       <r>  -23.2824    1.0000 </r>
       <r>   -2.7235    1.0000 </r>
       <r>    1.5172    1.0000 </r>
       <r>    3.0713    1.0000 </r>
       <r>    3.2385    1.0000 </r>
       <r>    3.7553    1.0000 </r>
       <r>    4.1120    1.0000 </r>
       <r>    4.7446    1.0000 </r>
       <r>    5.7961    1.0000 </r>
       <r>    6.1437    1.0000 </r>
       <r>    8.6630    1.0000 </r>
       <r>    9.4361    0.0000 </r>
       <r>    9.9487    0.0000 </r>
       <r>   11.0331    0.0000 </r>
      </set>
      <set comment="kpoint 64">
       <r>  -23.2957    1.0000 </r>
       <r>  -23.2845    1.0000 </r>
       <r>  -23.2824    1.0000 </r>
       <r>   -2.5052    1.0000 </r>
       <r>    1.5311    1.0000 </r>
       <r>    2.9198    1.0000 </r>
       <r>    3.2278    1.0000 </r>
       <r>    3.8503    1.0000 </r>
       <r>    4.1017    1.0000 </r>
       <r>    4.4089    1.0000 </r>
       <r>    5.5224    1.0000 </r>
       <r>    6.1008    1.0000 </r>
       <r>    8.7527    1.0000 </r>
       <r>    9.4656    0.0000 </r>
       <r>   10.4177    0.0000 </r>
       <r>   10.5893    0.0000 </r>
      </set>
      <set comment="kpoint 65">
       <r>  -23.2963    1.0000 </r>
       <r>  -23.2859    1.0000 </r>
       <r>  -23.2822    1.0000 </r>
       <r>   -2.3330    1.0000 </r>
       <r>    1.6329    1.0000 </r>
       <r>    2.7394    1.0000 </r>
       <r>    3.1586    1.0000 </r>
       <r>    3.7938    1.0000 </r>
       <r>    4.0808    1.0000 </r>
       <r>    4.2879    1.0000 </r>
       <r>    5.3066    1.0000 </r>
       <r>    6.0976    1.0000 </r>
       <r>    8.8225    1.0000 </r>
       <r>    9.7049    0.0000 </r>
       <r>   10.0603    0.0000 </r>
       <r>   10.8283    0.0000 </r>
      </set>
      <set comment="kpoint 66">
       <r>  -23.2958    1.0000 </r>
       <r>  -23.2873    1.0000 </r>
       <r>  -23.2819    1.0000 </r>
       <r>   -2.2510    1.0000 </r>
       <r>    1.7391    1.0000 </r>
       <r>    2.5924    1.0000 </r>
       <r>    3.0501    1.0000 </r>
       <r>    3.6503    1.0000 </r>
       <r>    4.1416    1.0000 </r>
       <r>    4.3477    1.0000 </r>
       <r>    5.1549    1.0000 </r>
       <r>    6.1269    1.0000 </r>
       <r>    8.9647    0.9976 </r>
       <r>    9.7152    0.0000 </r>
       <r>   10.0435    0.0000 </r>
       <r>   10.7650    0.0000 </r>
      </set>
      <set comment="kpoint 67">
       <r>  -23.2949    1.0000 </r>
       <r>  -23.2881    1.0000 </r>
       <r>  -23.2814    1.0000 </r>
       <r>   -2.2819    1.0000 </r>
       <r>    1.7198    1.0000 </r>
       <r>    2.5912    1.0000 </r>
       <r>    2.9416    1.0000 </r>
       <r>    3.6753    1.0000 </r>
       <r>    4.1582    1.0000 </r>
       <r>    4.4608    1.0000 </r>
       <r>    5.0930    1.0000 </r>
       <r>    6.1952    1.0000 </r>
       <r>    9.1704    0.0000 </r>
       <r>    9.6229    0.0000 </r>
       <r>   10.0831    0.0000 </r>
       <r>   10.7833    0.0000 </r>
      </set>
      <set comment="kpoint 68">
       <r>  -23.2943    1.0000 </r>
       <r>  -23.2871    1.0000 </r>
       <r>  -23.2809    1.0000 </r>
       <r>   -2.4189    1.0000 </r>
       <r>    1.6371    1.0000 </r>
       <r>    2.6620    1.0000 </r>
       <r>    2.9117    1.0000 </r>
       <r>    3.7945    1.0000 </r>
       <r>    4.1313    1.0000 </r>
       <r>    4.5358    1.0000 </r>
       <r>    5.2000    1.0000 </r>
       <r>    6.3215    1.0000 </r>
       <r>    9.2610    0.0000 </r>
       <r>    9.7917    0.0000 </r>
       <r>   10.0828    0.0000 </r>
       <r>   10.7883    0.0000 </r>
      </set>
      <set comment="kpoint 69">
       <r>  -23.2973    1.0000 </r>
       <r>  -23.2840    1.0000 </r>
       <r>  -23.2830    1.0000 </r>
       <r>   -2.4349    1.0000 </r>
       <r>    1.5461    1.0000 </r>
       <r>    3.0929    1.0000 </r>
       <r>    3.3651    1.0000 </r>
       <r>    3.7147    1.0000 </r>
       <r>    4.1478    1.0000 </r>
       <r>    4.2865    1.0000 </r>
       <r>    5.5790    1.0000 </r>
       <r>    5.9324    1.0000 </r>
       <r>    8.5071    1.0000 </r>
       <r>    9.2502    0.0000 </r>
       <r>   10.2106    0.0000 </r>
       <r>   10.6416    0.0000 </r>
      </set>
      <set comment="kpoint 70">
       <r>  -23.2976    1.0000 </r>
       <r>  -23.2853    1.0000 </r>
       <r>  -23.2830    1.0000 </r>
       <r>   -2.3115    1.0000 </r>
       <r>    1.7035    1.0000 </r>
       <r>    2.9043    1.0000 </r>
       <r>    3.3393    1.0000 </r>
       <r>    3.7330    1.0000 </r>
       <r>    3.9923    1.0000 </r>
       <r>    4.2844    1.0000 </r>
       <r>    5.2604    1.0000 </r>
       <r>    5.9591    1.0000 </r>
       <r>    8.5961    1.0000 </r>
       <r>    9.3731    0.0000 </r>
       <r>   10.2030    0.0000 </r>
       <r>   10.6482    0.0000 </r>
      </set>
      <set comment="kpoint 71">
       <r>  -23.2966    1.0000 </r>
       <r>  -23.2872    1.0000 </r>
       <r>  -23.2826    1.0000 </r>
       <r>   -2.2383    1.0000 </r>
       <r>    1.8787    1.0000 </r>
       <r>    2.6892    1.0000 </r>
       <r>    3.2353    1.0000 </r>
       <r>    3.5382    1.0000 </r>
       <r>    4.2013    1.0000 </r>
       <r>    4.2941    1.0000 </r>
       <r>    4.9767    1.0000 </r>
       <r>    6.0018    1.0000 </r>
       <r>    8.7236    1.0000 </r>
       <r>    9.7031    0.0000 </r>
       <r>    9.9598    0.0000 </r>
       <r>   10.4636    0.0000 </r>
      </set>
      <set comment="kpoint 72">
       <r>  -23.2950    1.0000 </r>
       <r>  -23.2888    1.0000 </r>
       <r>  -23.2820    1.0000 </r>
       <r>   -2.2273    1.0000 </r>
       <r>    1.9055    1.0000 </r>
       <r>    2.5412    1.0000 </r>
       <r>    3.0821    1.0000 </r>
       <r>    3.5420    1.0000 </r>
       <r>    4.2190    1.0000 </r>
       <r>    4.5030    1.0000 </r>
       <r>    4.8233    1.0000 </r>
       <r>    6.0730    1.0000 </r>
       <r>    8.9331    1.0000 </r>
       <r>    9.6801    0.0000 </r>
       <r>   10.1160    0.0000 </r>
       <r>   10.5083    0.0000 </r>
      </set>
      <set comment="kpoint 73">
       <r>  -23.2992    1.0000 </r>
       <r>  -23.2843    1.0000 </r>
       <r>  -23.2834    1.0000 </r>
       <r>   -2.2922    1.0000 </r>
       <r>    1.7593    1.0000 </r>
       <r>    3.0994    1.0000 </r>
       <r>    3.4212    1.0000 </r>
       <r>    3.6497    1.0000 </r>
       <r>    3.7461    1.0000 </r>
       <r>    4.3486    1.0000 </r>
       <r>    5.4513    1.0000 </r>
       <r>    5.8556    1.0000 </r>
       <r>    8.4217    1.0000 </r>
       <r>    9.1371    0.0000 </r>
       <r>   10.1904    0.0000 </r>
       <r>   10.4848    0.0000 </r>
      </set>
      <set comment="kpoint 74">
       <r>  -23.2983    1.0000 </r>
       <r>  -23.2856    1.0000 </r>
       <r>  -23.2832    1.0000 </r>
       <r>   -2.2517    1.0000 </r>
       <r>    1.8683    1.0000 </r>
       <r>    2.9047    1.0000 </r>
       <r>    3.3566    1.0000 </r>
       <r>    3.5366    1.0000 </r>
       <r>    3.9620    1.0000 </r>
       <r>    4.3179    1.0000 </r>
       <r>    5.1559    1.0000 </r>
       <r>    5.9220    1.0000 </r>
       <r>    8.5419    1.0000 </r>
       <r>    9.3324    0.0000 </r>
       <r>   10.1837    0.0000 </r>
       <r>   10.4004    0.0000 </r>
      </set>
      <set comment="kpoint 75">
       <r>  -23.2943    1.0000 </r>
       <r>  -23.2850    1.0000 </r>
       <r>  -23.2815    1.0000 </r>
       <r>   -2.5870    1.0000 </r>
       <r>    1.5737    1.0000 </r>
       <r>    2.7918    1.0000 </r>
       <r>    3.1127    1.0000 </r>
       <r>    3.9033    1.0000 </r>
       <r>    4.0466    1.0000 </r>
       <r>    4.5823    1.0000 </r>
       <r>    5.4418    1.0000 </r>
       <r>    6.3078    1.0000 </r>
       <r>    9.0866    0.0000 </r>
       <r>    9.5094    0.0000 </r>
       <r>   10.4712    0.0000 </r>
       <r>   10.6449    0.0000 </r>
      </set>
      <set comment="kpoint 76">
       <r>  -23.2952    1.0000 </r>
       <r>  -23.2864    1.0000 </r>
       <r>  -23.2817    1.0000 </r>
       <r>   -2.3850    1.0000 </r>
       <r>    1.6171    1.0000 </r>
       <r>    2.6788    1.0000 </r>
       <r>    3.0854    1.0000 </r>
       <r>    3.8386    1.0000 </r>
       <r>    4.0559    1.0000 </r>
       <r>    4.4192    1.0000 </r>
       <r>    5.2421    1.0000 </r>
       <r>    6.2227    1.0000 </r>
       <r>    9.1272    0.0000 </r>
       <r>    9.6148    0.0000 </r>
       <r>   10.0477    0.0000 </r>
       <r>   10.8979    0.0000 </r>
      </set>
      <set comment="kpoint 77">
       <r>  -23.2956    1.0000 </r>
       <r>  -23.2871    1.0000 </r>
       <r>  -23.2818    1.0000 </r>
       <r>   -2.2677    1.0000 </r>
       <r>    1.7032    1.0000 </r>
       <r>    2.5648    1.0000 </r>
       <r>    3.0751    1.0000 </r>
       <r>    3.7102    1.0000 </r>
       <r>    4.0731    1.0000 </r>
       <r>    4.3609    1.0000 </r>
       <r>    5.1595    1.0000 </r>
       <r>    6.1871    1.0000 </r>
       <r>    9.1980    0.0000 </r>
       <r>    9.5298    0.0000 </r>
       <r>    9.9592    0.0000 </r>
       <r>   10.8192    0.0000 </r>
      </set>
      <set comment="kpoint 78">
       <r>  -23.2961    1.0000 </r>
       <r>  -23.2859    1.0000 </r>
       <r>  -23.2825    1.0000 </r>
[...]
       <r>    9.4283    0.0000 </r>
       <r>   10.1013    0.0000 </r>
       <r>   10.7590    0.0000 </r>
      </set>
      <set comment="kpoint 79">
       <r>  -23.2957    1.0000 </r>
       <r>  -23.2875    1.0000 </r>
       <r>  -23.2826    1.0000 </r>
       <r>   -2.2523    1.0000 </r>
       <r>    1.8358    1.0000 </r>
       <r>    2.6029    1.0000 </r>
       <r>    3.2798    1.0000 </r>
       <r>    3.6977    1.0000 </r>
       <r>    4.0592    1.0000 </r>
       <r>    4.3503    1.0000 </r>
       <r>    4.8607    1.0000 </r>
       <r>    6.1094    1.0000 </r>
       <r>    8.9979    0.0299 </r>
       <r>    9.5907    0.0000 </r>
       <r>    9.7473    0.0000 </r>
       <r>   10.5404    0.0000 </r>
      </set>
      <set comment="kpoint 80">
       <r>  -23.2949    1.0000 </r>
       <r>  -23.2886    1.0000 </r>
       <r>  -23.2825    1.0000 </r>
       <r>   -2.2224    1.0000 </r>
       <r>    1.9359    1.0000 </r>
       <r>    2.4859    1.0000 </r>
       <r>    3.2353    1.0000 </r>
       <r>    3.5978    1.0000 </r>
       <r>    4.1342    1.0000 </r>
       <r>    4.4454    1.0000 </r>
       <r>    4.6990    1.0000 </r>
       <r>    6.1293    1.0000 </r>
       <r>    9.1703    0.0000 </r>
       <r>    9.4993    0.0000 </r>
       <r>    9.7990    0.0000 </r>
       <r>   10.4129    0.0000 </r>
      </set>
      <set comment="kpoint 81">
       <r>  -23.2948    1.0000 </r>
       <r>  -23.2883    1.0000 </r>
       <r>  -23.2821    1.0000 </r>
       <r>   -2.2690    1.0000 </r>
       <r>    1.7942    1.0000 </r>
       <r>    2.5554    1.0000 </r>
       <r>    3.1564    1.0000 </r>
       <r>    3.6863    1.0000 </r>
       <r>    4.1098    1.0000 </r>
       <r>    4.4893    1.0000 </r>
       <r>    4.8392    1.0000 </r>
       <r>    6.1585    1.0000 </r>
       <r>    9.2587    0.0000 </r>
       <r>    9.5182    0.0000 </r>
       <r>    9.7654    0.0000 </r>
       <r>   10.7145    0.0000 </r>
      </set>
      <set comment="kpoint 82">
       <r>  -23.2971    1.0000 </r>
       <r>  -23.2865    1.0000 </r>
       <r>  -23.2832    1.0000 </r>
       <r>   -2.2455    1.0000 </r>
       <r>    1.8851    1.0000 </r>
       <r>    2.7434    1.0000 </r>
       <r>    3.3601    1.0000 </r>
       <r>    3.7298    1.0000 </r>
       <r>    3.9281    1.0000 </r>
       <r>    4.2777    1.0000 </r>
       <r>    4.9217    1.0000 </r>
       <r>    6.0371    1.0000 </r>
       <r>    8.7505    1.0000 </r>
       <r>    9.3389    0.0000 </r>
       <r>   10.0238    0.0000 </r>
       <r>   10.3886    0.0000 </r>
      </set>
      <set comment="kpoint 83">
       <r>  -23.2958    1.0000 </r>
       <r>  -23.2880    1.0000 </r>
       <r>  -23.2830    1.0000 </r>
       <r>   -2.2151    1.0000 </r>
       <r>    2.0125    1.0000 </r>
       <r>    2.5644    1.0000 </r>
       <r>    3.3216    1.0000 </r>
       <r>    3.6227    1.0000 </r>
       <r>    4.1616    1.0000 </r>
       <r>    4.2261    1.0000 </r>
       <r>    4.6868    1.0000 </r>
       <r>    6.0924    1.0000 </r>
       <r>    8.9457    1.0000 </r>
       <r>    9.4993    0.0000 </r>
       <r>    9.8243    0.0000 </r>
       <r>   10.2295    0.0000 </r>
      </set>
      <set comment="kpoint 84">
       <r>  -23.2950    1.0000 </r>
       <r>  -23.2887    1.0000 </r>
       <r>  -23.2830    1.0000 </r>
       <r>   -2.2102    1.0000 </r>
       <r>    2.0488    1.0000 </r>
       <r>    2.4752    1.0000 </r>
       <r>    3.3225    1.0000 </r>
       <r>    3.7162    1.0000 </r>
       <r>    4.0851    1.0000 </r>
       <r>    4.2731    1.0000 </r>
       <r>    4.5686    1.0000 </r>
       <r>    6.1378    1.0000 </r>
       <r>    9.2471    0.0000 </r>
       <r>    9.4751    0.0000 </r>
       <r>    9.5455    0.0000 </r>
       <r>   10.2260    0.0000 </r>
      </set>
     </set>
    </set>
   </array>
  </eigenvalues>
  <separator name="orbital magnetization" >
   <v name="MAGDIPOLOUT">      0.00000000      0.00000000      0.00000000</v>
  </separator>
  <dos>
   <i name="efermi">      8.98457823 </i>
   <total>
    <array>
     <dimension dim="1">gridpoints</dimension>
     <dimension dim="2">spin</dimension>
     <field>energy</field>
     <field>total</field>
     <field>integrated</field>
     <set>
      <set comment="spin 1">
       <r>   -25.0487     0.0000     0.0000 </r>
       <r>   -24.9205     0.0000     0.0000 </r>
       <r>   -24.7923     0.0000     0.0000 </r>
       <r>   -24.6640     0.0000     0.0000 </r>
       <r>   -24.5358     0.0000     0.0000 </r>
       <r>   -24.4075     0.0000     0.0000 </r>
       <r>   -24.2793     0.0000     0.0000 </r>
       <r>   -24.1510     0.0000     0.0000 </r>
       <r>   -24.0228     0.0000     0.0000 </r>
       <r>   -23.8946     0.0000     0.0000 </r>
       <r>   -23.7663     0.0000     0.0000 </r>
       <r>   -23.6381     0.0000     0.0000 </r>
       <r>   -23.5098     0.0000     0.0000 </r>
       <r>   -23.3816     0.0000     0.0000 </r>
       <r>   -23.2533    46.7854     5.9999 </r>
       <r>   -23.1251     0.0000     6.0000 </r>
       <r>   -22.9969     0.0000     6.0000 </r>
       <r>   -22.8686     0.0000     6.0000 </r>
       <r>   -22.7404     0.0000     6.0000 </r>
       <r>   -22.6121     0.0000     6.0000 </r>
       <r>   -22.4839     0.0000     6.0000 </r>
       <r>   -22.3556     0.0000     6.0000 </r>
       <r>   -22.2274     0.0000     6.0000 </r>
       <r>   -22.0992     0.0000     6.0000 </r>
       <r>   -21.9709     0.0000     6.0000 </r>
       <r>   -21.8427     0.0000     6.0000 </r>
       <r>   -21.7144     0.0000     6.0000 </r>
       <r>   -21.5862     0.0000     6.0000 </r>
       <r>   -21.4579     0.0000     6.0000 </r>
       <r>   -21.3297     0.0000     6.0000 </r>
       <r>   -21.2014     0.0000     6.0000 </r>
       <r>   -21.0732     0.0000     6.0000 </r>
       <r>   -20.9450     0.0000     6.0000 </r>
       <r>   -20.8167     0.0000     6.0000 </r>
       <r>   -20.6885     0.0000     6.0000 </r>
       <r>   -20.5602     0.0000     6.0000 </r>
       <r>   -20.4320     0.0000     6.0000 </r>
       <r>   -20.3037     0.0000     6.0000 </r>
       <r>   -20.1755     0.0000     6.0000 </r>
       <r>   -20.0473     0.0000     6.0000 </r>
       <r>   -19.9190     0.0000     6.0000 </r>
       <r>   -19.7908     0.0000     6.0000 </r>
       <r>   -19.6625     0.0000     6.0000 </r>
       <r>   -19.5343     0.0000     6.0000 </r>
       <r>   -19.4060     0.0000     6.0000 </r>
       <r>   -19.2778     0.0000     6.0000 </r>
       <r>   -19.1496     0.0000     6.0000 </r>
       <r>   -19.0213     0.0000     6.0000 </r>
       <r>   -18.8931     0.0000     6.0000 </r>
       <r>   -18.7648     0.0000     6.0000 </r>
       <r>   -18.6366     0.0000     6.0000 </r>
       <r>   -18.5083     0.0000     6.0000 </r>
       <r>   -18.3801     0.0000     6.0000 </r>
       <r>   -18.2519     0.0000     6.0000 </r>
       <r>   -18.1236     0.0000     6.0000 </r>
       <r>   -17.9954     0.0000     6.0000 </r>
       <r>   -17.8671     0.0000     6.0000 </r>
       <r>   -17.7389     0.0000     6.0000 </r>
       <r>   -17.6106     0.0000     6.0000 </r>
       <r>   -17.4824     0.0000     6.0000 </r>
       <r>   -17.3542     0.0000     6.0000 </r>
       <r>   -17.2259     0.0000     6.0000 </r>
       <r>   -17.0977     0.0000     6.0000 </r>
       <r>   -16.9694     0.0000     6.0000 </r>
       <r>   -16.8412     0.0000     6.0000 </r>
       <r>   -16.7129     0.0000     6.0000 </r>
       <r>   -16.5847     0.0000     6.0000 </r>
       <r>   -16.4565     0.0000     6.0000 </r>
       <r>   -16.3282     0.0000     6.0000 </r>
       <r>   -16.2000     0.0000     6.0000 </r>
       <r>   -16.0717     0.0000     6.0000 </r>
       <r>   -15.9435     0.0000     6.0000 </r>
       <r>   -15.8152     0.0000     6.0000 </r>
       <r>   -15.6870     0.0000     6.0000 </r>
       <r>   -15.5587     0.0000     6.0000 </r>
       <r>   -15.4305     0.0000     6.0000 </r>
       <r>   -15.3023     0.0000     6.0000 </r>
       <r>   -15.1740     0.0000     6.0000 </r>
       <r>   -15.0458     0.0000     6.0000 </r>
       <r>   -14.9175     0.0000     6.0000 </r>
       <r>   -14.7893     0.0000     6.0000 </r>
       <r>   -14.6610     0.0000     6.0000 </r>
       <r>   -14.5328     0.0000     6.0000 </r>
       <r>   -14.4046     0.0000     6.0000 </r>
       <r>   -14.2763     0.0000     6.0000 </r>
       <r>   -14.1481     0.0000     6.0000 </r>
       <r>   -14.0198     0.0000     6.0000 </r>
       <r>   -13.8916     0.0000     6.0000 </r>
       <r>   -13.7633     0.0000     6.0000 </r>
       <r>   -13.6351     0.0000     6.0000 </r>
       <r>   -13.5069     0.0000     6.0000 </r>
       <r>   -13.3786     0.0000     6.0000 </r>
       <r>   -13.2504     0.0000     6.0000 </r>
       <r>   -13.1221     0.0000     6.0000 </r>
       <r>   -12.9939     0.0000     6.0000 </r>
       <r>   -12.8656     0.0000     6.0000 </r>
       <r>   -12.7374     0.0000     6.0000 </r>
       <r>   -12.6092     0.0000     6.0000 </r>
       <r>   -12.4809     0.0000     6.0000 </r>
       <r>   -12.3527     0.0000     6.0000 </r>
       <r>   -12.2244     0.0000     6.0000 </r>
       <r>   -12.0962     0.0000     6.0000 </r>
       <r>   -11.9679     0.0000     6.0000 </r>
       <r>   -11.8397     0.0000     6.0000 </r>
       <r>   -11.7115     0.0000     6.0000 </r>
       <r>   -11.5832     0.0000     6.0000 </r>
       <r>   -11.4550     0.0000     6.0000 </r>
       <r>   -11.3267     0.0000     6.0000 </r>
       <r>   -11.1985     0.0000     6.0000 </r>
       <r>   -11.0702     0.0000     6.0000 </r>
       <r>   -10.9420     0.0000     6.0000 </r>
       <r>   -10.8137     0.0000     6.0000 </r>
       <r>   -10.6855     0.0000     6.0000 </r>
       <r>   -10.5573     0.0000     6.0000 </r>
       <r>   -10.4290     0.0000     6.0000 </r>
       <r>   -10.3008     0.0000     6.0000 </r>
       <r>   -10.1725     0.0000     6.0000 </r>
       <r>   -10.0443     0.0000     6.0000 </r>
       <r>    -9.9160     0.0000     6.0000 </r>
       <r>    -9.7878     0.0000     6.0000 </r>
       <r>    -9.6596     0.0000     6.0000 </r>
       <r>    -9.5313     0.0000     6.0000 </r>
       <r>    -9.4031     0.0000     6.0000 </r>
       <r>    -9.2748     0.0000     6.0000 </r>
       <r>    -9.1466     0.0000     6.0000 </r>
       <r>    -9.0183     0.0000     6.0000 </r>
       <r>    -8.8901     0.0000     6.0000 </r>
       <r>    -8.7619     0.0000     6.0000 </r>
       <r>    -8.6336     0.0000     6.0000 </r>
       <r>    -8.5054     0.0000     6.0000 </r>
       <r>    -8.3771     0.0000     6.0000 </r>
       <r>    -8.2489     0.0000     6.0000 </r>
       <r>    -8.1206     0.0000     6.0000 </r>
       <r>    -7.9924     0.0000     6.0000 </r>
       <r>    -7.8642     0.0000     6.0000 </r>
       <r>    -7.7359     0.0000     6.0000 </r>
       <r>    -7.6077     0.0000     6.0000 </r>
       <r>    -7.4794     0.0000     6.0000 </r>
       <r>    -7.3512     0.0000     6.0000 </r>
       <r>    -7.2229     0.0000     6.0000 </r>
       <r>    -7.0947     0.0000     6.0000 </r>
       <r>    -6.9665     0.0000     6.0000 </r>
       <r>    -6.8382     0.0000     6.0000 </r>
       <r>    -6.7100     0.0000     6.0000 </r>
       <r>    -6.5817     0.0000     6.0000 </r>
       <r>    -6.4535     0.0000     6.0000 </r>
       <r>    -6.3252     0.0000     6.0000 </r>
       <r>    -6.1970     0.0000     6.0000 </r>
       <r>    -6.0688     0.0000     6.0000 </r>
       <r>    -5.9405     0.0000     6.0000 </r>
       <r>    -5.8123     0.0000     6.0000 </r>
       <r>    -5.6840     0.0000     6.0000 </r>
       <r>    -5.5558     0.0000     6.0000 </r>
       <r>    -5.4275     0.0000     6.0000 </r>
       <r>    -5.2993     0.0000     6.0000 </r>
       <r>    -5.1710     0.0000     6.0000 </r>
       <r>    -5.0428     0.0000     6.0000 </r>
       <r>    -4.9146     0.0000     6.0000 </r>
       <r>    -4.7863     0.0000     6.0000 </r>
       <r>    -4.6581     0.0000     6.0000 </r>
       <r>    -4.5298     0.0000     6.0000 </r>
       <r>    -4.4016     0.0000     6.0000 </r>
       <r>    -4.2733     0.0000     6.0000 </r>
       <r>    -4.1451     0.0000     6.0000 </r>
       <r>    -4.0169     0.0000     6.0000 </r>
       <r>    -3.8886     0.0000     6.0000 </r>
       <r>    -3.7604     0.0913     6.0126 </r>
       <r>    -3.6321     0.0942     6.0257 </r>
       <r>    -3.5039     0.0423     6.0591 </r>
       <r>    -3.3756     0.1874     6.1050 </r>
       <r>    -3.2474     0.2272     6.1538 </r>
       <r>    -3.1192     0.5537     6.2358 </r>
       <r>    -2.9909     0.3407     6.3013 </r>
       <r>    -2.8627     0.5248     6.3759 </r>
       <r>    -2.7344     0.2242     6.4903 </r>
       <r>    -2.6062     0.7798     6.6544 </r>
       <r>    -2.4779     1.1960     6.8571 </r>
       <r>    -2.3497     2.1402     7.2239 </r>
       <r>    -2.2215     4.1888     7.9364 </r>
       <r>    -2.0932     0.0000     8.0000 </r>
       <r>    -1.9650     0.0000     8.0000 </r>
       <r>    -1.8367     0.0000     8.0000 </r>
       <r>    -1.7085     0.0000     8.0000 </r>
       <r>    -1.5802     0.0000     8.0000 </r>
       <r>    -1.4520     0.0000     8.0000 </r>
       <r>    -1.3238     0.0000     8.0000 </r>
       <r>    -1.1955     0.0000     8.0000 </r>
       <r>    -1.0673     0.0000     8.0000 </r>
       <r>    -0.9390     0.0000     8.0000 </r>
       <r>    -0.8108     0.0000     8.0000 </r>
       <r>    -0.6825     0.0000     8.0000 </r>
       <r>    -0.5543     0.0000     8.0000 </r>
       <r>    -0.4260     0.0000     8.0000 </r>
       <r>    -0.2978     0.0000     8.0000 </r>
       <r>    -0.1696     0.0000     8.0000 </r>
       <r>    -0.0413     0.0000     8.0000 </r>
       <r>     0.0869     0.0000     8.0000 </r>
       <r>     0.2152     0.0000     8.0000 </r>
       <r>     0.3434     0.0000     8.0000 </r>
       <r>     0.4717     0.0000     8.0000 </r>
       <r>     0.5999     0.0000     8.0000 </r>
       <r>     0.7281     0.0000     8.0000 </r>
       <r>     0.8564     0.0000     8.0000 </r>
       <r>     0.9846     0.0000     8.0000 </r>
       <r>     1.1129     0.0000     8.0000 </r>
       <r>     1.2411     0.0000     8.0000 </r>
       <r>     1.3694     0.1998     8.0548 </r>
       <r>     1.4976     0.7134     8.2080 </r>
       <r>     1.6258     2.9434     8.8399 </r>
       <r>     1.7541     2.2889     9.3022 </r>
       <r>     1.8823     1.1541     9.5936 </r>
       <r>     2.0106     0.9185     9.8001 </r>
       <r>     2.1388     0.2555     9.8680 </r>
       <r>     2.2671     0.3957     9.9187 </r>
       <r>     2.3953     0.1680     9.9460 </r>
       <r>     2.5235     0.6825    10.0338 </r>
       <r>     2.6518     2.6175    10.4786 </r>
       <r>     2.7800     3.1372    11.4756 </r>
       <r>     2.9083     3.1441    12.1574 </r>
       <r>     3.0365     3.6102    12.8353 </r>
       <r>     3.1648     2.5841    13.3810 </r>
       <r>     3.2930     2.0325    13.7254 </r>
       <r>     3.4212     0.9014    13.9736 </r>
       <r>     3.5495     0.9699    14.1353 </r>
       <r>     3.6777     1.8970    14.4126 </r>
       <r>     3.8060     2.8782    14.9827 </r>
       <r>     3.9342     5.8047    16.1572 </r>
       <r>     4.0625     5.4796    17.1916 </r>
       <r>     4.1907     2.8897    18.0356 </r>
       <r>     4.3189     2.5360    18.7440 </r>
       <r>     4.4472     1.5393    19.2334 </r>
       <r>     4.5754     1.3772    19.5130 </r>
       <r>     4.7037     0.5848    19.6480 </r>
       <r>     4.8319     0.6886    19.7815 </r>
       <r>     4.9602     0.6817    19.9390 </r>
       <r>     5.0884     0.5990    20.0595 </r>
       <r>     5.2167     1.5347    20.2960 </r>
       <r>     5.3449     0.4735    20.4986 </r>
       <r>     5.4731     0.6279    20.6276 </r>
       <r>     5.6014     1.4151    20.8542 </r>
       <r>     5.7296     1.0231    21.0552 </r>
       <r>     5.8579     1.5540    21.3199 </r>
       <r>     5.9861     1.5355    21.5542 </r>
       <r>     6.1144     3.4115    22.0570 </r>
       <r>     6.2426     1.9911    22.5467 </r>
       <r>     6.3708     1.7931    22.8818 </r>
       <r>     6.4991     1.4770    23.2345 </r>
       <r>     6.6273     1.1018    23.5578 </r>
       <r>     6.7556     0.5991    23.7081 </r>
       <r>     6.8838     0.3092    23.8184 </r>
       <r>     7.0121     0.4259    23.9244 </r>
       <r>     7.1403     0.3691    23.9718 </r>
       <r>     7.2685     0.1987    23.9973 </r>
       <r>     7.3968     0.0000    24.0000 </r>
       <r>     7.5250     0.0000    24.0000 </r>
       <r>     7.6533     0.0000    24.0000 </r>
       <r>     7.7815     0.0000    24.0000 </r>
       <r>     7.9098     0.0000    24.0000 </r>
       <r>     8.0380     0.0071    24.0009 </r>
       <r>     8.1662     0.0000    24.0009 </r>
       <r>     8.2945     0.0613    24.0088 </r>
       <r>     8.4227     0.3993    24.0703 </r>
       <r>     8.5510     0.9922    24.2192 </r>
       <r>     8.6792     0.6314    24.3695 </r>
       <r>     8.8075     1.1182    24.5813 </r>
       <r>     8.9357     0.7326    24.8013 </r>
       <r>     9.0639     1.3622    25.1788 </r>
       <r>     9.1922     3.2100    25.7216 </r>
       <r>     9.3204     1.5164    26.0634 </r>
       <r>     9.4487     1.8537    26.4125 </r>
       <r>     9.5769     2.4860    26.8432 </r>
       <r>     9.7052     2.0948    27.3683 </r>
       <r>     9.8334     3.0904    28.2133 </r>
       <r>     9.9616     1.8611    28.5937 </r>
       <r>    10.0899     3.2044    29.2412 </r>
       <r>    10.2181     1.7481    29.7736 </r>
       <r>    10.3464     0.3935    29.9075 </r>
       <r>    10.4746     2.2487    30.2656 </r>
       <r>    10.6029     1.8212    30.5786 </r>
       <r>    10.7311     2.2650    31.0124 </r>
       <r>    10.8594     2.0362    31.3708 </r>
       <r>    10.9876     1.5331    31.7050 </r>
       <r>    11.1158     0.2883    31.8585 </r>
       <r>    11.2441     0.7807    31.9709 </r>
       <r>    11.3723     0.1704    31.9927 </r>
       <r>    11.5006     0.0000    31.9927 </r>
       <r>    11.6288     0.0000    31.9927 </r>
       <r>    11.7571     0.0000    32.0000 </r>
       <r>    11.8853     0.0000    32.0000 </r>
       <r>    12.0135     0.0000    32.0000 </r>
       <r>    12.1418     0.0000    32.0000 </r>
       <r>    12.2700     0.0000    32.0000 </r>
       <r>    12.3983     0.0000    32.0000 </r>
       <r>    12.5265     0.0000    32.0000 </r>
       <r>    12.6548     0.0000    32.0000 </r>
       <r>    12.7830     0.0000    32.0000 </r>
       <r>    12.9112     0.0000    32.0000 </r>
       <r>    13.0395     0.0000    32.0000 </r>
       <r>    13.1677     0.0000    32.0000 </r>
       <r>    13.2960     0.0000    32.0000 </r>
       <r>    13.4242     0.0000    32.0000 </r>
      </set>
     </set>
    </array>
   </total>
  </dos>
 </calculation>
 <structure name="finalpos" >
  <crystal>
   <varray name="basis" >
    <v>       0.00000000       3.17828400       3.17828400 </v>
    <v>       3.17828400       0.00000000       3.17828400 </v>
    <v>       3.17828400       3.17828400       0.00000000 </v>
   </varray>
   <i name="volume">     64.21080290 </i>
   <varray name="rec_basis" >
    <v>      -0.15731760       0.15731760       0.15731760 </v>
    <v>       0.15731760      -0.15731760       0.15731760 </v>
    <v>       0.15731760       0.15731760      -0.15731760 </v>
   </varray>
  </crystal>
  <varray name="positions" >
   <v>       0.75000000       0.75000000       0.75000000 </v>
   <v>       0.25000000       0.25000000       0.25000000 </v>
   <v>       0.00000000       0.00000000       0.00000000 </v>
  </varray>
 </structure>
</modeling>
