   2   2   0   0
  0.2637001E+02  0.4209383E-09  0.4209383E-09  0.4209383E-09  0.0000000E+00
  1.000000000000000E-004
  CAR 
 unknown system                          
     12.80510290     -9.38732806  301      2.75378105      1.00000000
     -9.387  0.0000E+00  0.0000E+00
     -9.313  0.0000E+00  0.0000E+00
     -9.239  0.0000E+00  0.0000E+00
     -9.165  0.0000E+00  0.0000E+00
     -9.091  0.0000E+00  0.0000E+00
     -9.017  0.0000E+00  0.0000E+00
     -8.943  0.0000E+00  0.0000E+00
     -8.870  0.0000E+00  0.0000E+00
     -8.796  0.0000E+00  0.0000E+00
     -8.722  0.0000E+00  0.0000E+00
     -8.648  0.0000E+00  0.0000E+00
     -8.574  0.0000E+00  0.0000E+00
     -8.500  0.0000E+00  0.0000E+00
     -8.426  0.0000E+00  0.0000E+00
     -8.352  0.1007E+00  0.1356E-02
     -8.278  0.2200E+00  0.1374E-01
     -8.204  0.3063E+00  0.3356E-01
     -8.130  0.3838E+00  0.5910E-01
     -8.056  0.4500E+00  0.8984E-01
     -7.982  0.5196E+00  0.1258E+00
     -7.908  0.5906E+00  0.1668E+00
     -7.834  0.6663E+00  0.2133E+00
     -7.760  0.7479E+00  0.2656E+00
     -7.686  0.8403E+00  0.3242E+00
     -7.612  0.9472E+00  0.3902E+00
     -7.538  0.1073E+01  0.4647E+00
     -7.464  0.1239E+01  0.5501E+00
     -7.390  0.1453E+01  0.6491E+00
     -7.316  0.1839E+01  0.7695E+00
     -7.242  0.2430E+01  0.9322E+00
     -7.168  0.2415E+01  0.1111E+01
     -7.094  0.2496E+01  0.1293E+01
     -7.020  0.2590E+01  0.1480E+01
     -6.946  0.2828E+01  0.1680E+01
     -6.872  0.3880E+01  0.1914E+01
     -6.798  0.0000E+00  0.2000E+01
     -6.724  0.0000E+00  0.2000E+01
     -6.650  0.0000E+00  0.2000E+01
     -6.576  0.0000E+00  0.2000E+01
     -6.502  0.0000E+00  0.2000E+01
     -6.428  0.0000E+00  0.2000E+01
     -6.354  0.0000E+00  0.2000E+01
     -6.280  0.0000E+00  0.2000E+01
     -6.206  0.0000E+00  0.2000E+01
     -6.132  0.0000E+00  0.2000E+01
     -6.058  0.0000E+00  0.2000E+01
     -5.984  0.0000E+00  0.2000E+01
     -5.911  0.0000E+00  0.2000E+01
     -5.837  0.0000E+00  0.2000E+01
     -5.763  0.0000E+00  0.2000E+01
     -5.689  0.0000E+00  0.2000E+01
     -5.615  0.0000E+00  0.2000E+01
     -5.541  0.0000E+00  0.2000E+01
     -5.467  0.0000E+00  0.2000E+01
     -5.393  0.0000E+00  0.2000E+01
     -5.319  0.0000E+00  0.2000E+01
     -5.245  0.0000E+00  0.2000E+01
     -5.171  0.0000E+00  0.2000E+01
     -5.097  0.0000E+00  0.2000E+01
     -5.023  0.0000E+00  0.2000E+01
     -4.949  0.0000E+00  0.2000E+01
     -4.875  0.0000E+00  0.2000E+01
     -4.801  0.0000E+00  0.2000E+01
     -4.727  0.0000E+00  0.2000E+01
     -4.653  0.0000E+00  0.2000E+01
     -4.579  0.0000E+00  0.2000E+01
     -4.505  0.0000E+00  0.2000E+01
     -4.431  0.0000E+00  0.2000E+01
     -4.357  0.0000E+00  0.2000E+01
     -4.283  0.0000E+00  0.2000E+01
     -4.209  0.0000E+00  0.2000E+01
     -4.135  0.0000E+00  0.2000E+01
     -4.061  0.0000E+00  0.2000E+01
     -3.987  0.0000E+00  0.2000E+01
     -3.913  0.0000E+00  0.2000E+01
     -3.839  0.0000E+00  0.2000E+01
     -3.765  0.0000E+00  0.2000E+01
     -3.691  0.0000E+00  0.2000E+01
     -3.617  0.0000E+00  0.2000E+01
     -3.543  0.0000E+00  0.2000E+01
     -3.469  0.0000E+00  0.2000E+01
     -3.395  0.0000E+00  0.2000E+01
     -3.321  0.0000E+00  0.2000E+01
     -3.247  0.0000E+00  0.2000E+01
     -3.173  0.0000E+00  0.2000E+01
     -3.099  0.0000E+00  0.2000E+01
     -3.025  0.0000E+00  0.2000E+01
     -2.952  0.0000E+00  0.2000E+01
     -2.878  0.0000E+00  0.2000E+01
     -2.804  0.0000E+00  0.2000E+01
     -2.730  0.0000E+00  0.2000E+01
     -2.656  0.0000E+00  0.2000E+01
     -2.582  0.0000E+00  0.2000E+01
     -2.508  0.0000E+00  0.2000E+01
     -2.434  0.0000E+00  0.2000E+01
     -2.360  0.0000E+00  0.2000E+01
     -2.286  0.0000E+00  0.2000E+01
     -2.212  0.6150E+00  0.2013E+01
     -2.138  0.1447E+01  0.2090E+01
     -2.064  0.2717E+01  0.2238E+01
     -1.990  0.6452E+01  0.2587E+01
     -1.916  0.2362E+01  0.2850E+01
     -1.842  0.1676E+01  0.2996E+01
     -1.768  0.1287E+01  0.3103E+01
     -1.694  0.1071E+01  0.3190E+01
     -1.620  0.8923E+00  0.3262E+01
     -1.546  0.7944E+00  0.3324E+01
     -1.472  0.7040E+00  0.3380E+01
     -1.398  0.6125E+00  0.3428E+01
     -1.324  0.5648E+00  0.3472E+01
     -1.250  0.5181E+00  0.3512E+01
     -1.176  0.4696E+00  0.3548E+01
     -1.102  0.4218E+00  0.3581E+01
     -1.028  0.3953E+00  0.3612E+01
     -0.954  0.3686E+00  0.3640E+01
     -0.880  0.3426E+00  0.3666E+01
     -0.806  0.3136E+00  0.3690E+01
     -0.732  0.2866E+00  0.3713E+01
     -0.658  0.2713E+00  0.3733E+01
     -0.584  0.2560E+00  0.3753E+01
     -0.510  0.2398E+00  0.3771E+01
     -0.436  0.2226E+00  0.3788E+01
     -0.362  0.2049E+00  0.3804E+01
     -0.288  0.1900E+00  0.3819E+01
     -0.214  0.4887E+00  0.3834E+01
     -0.140  0.9135E+00  0.3884E+01
     -0.067  0.1333E+01  0.3965E+01
      0.007  0.1648E+01  0.4089E+01
      0.081  0.1511E+01  0.4206E+01
      0.155  0.1357E+01  0.4310E+01
      0.229  0.1309E+01  0.4408E+01
      0.303  0.1286E+01  0.4505E+01
      0.377  0.1219E+01  0.4597E+01
      0.451  0.1281E+01  0.4690E+01
      0.525  0.1357E+01  0.4788E+01
      0.599  0.1449E+01  0.4894E+01
      0.673  0.1517E+01  0.5004E+01
      0.747  0.1624E+01  0.5120E+01
      0.821  0.1888E+01  0.5251E+01
      0.895  0.2157E+01  0.5405E+01
      0.969  0.2063E+01  0.5558E+01
      1.043  0.2026E+01  0.5710E+01
      1.117  0.1991E+01  0.5858E+01
      1.191  0.1992E+01  0.6006E+01
      1.265  0.1948E+01  0.6152E+01
      1.339  0.1925E+01  0.6295E+01
      1.413  0.1910E+01  0.6437E+01
      1.487  0.1896E+01  0.6578E+01
      1.561  0.1877E+01  0.6717E+01
      1.635  0.1847E+01  0.6855E+01
      1.709  0.1827E+01  0.6991E+01
      1.783  0.1846E+01  0.7127E+01
      1.857  0.1842E+01  0.7263E+01
      1.931  0.1827E+01  0.7398E+01
      2.005  0.1443E+01  0.7524E+01
      2.079  0.1174E+01  0.7620E+01
      2.153  0.1001E+01  0.7700E+01
      2.227  0.8565E+00  0.7769E+01
      2.301  0.7359E+00  0.7828E+01
      2.375  0.6351E+00  0.7878E+01
      2.449  0.5237E+00  0.7921E+01
      2.523  0.4442E+00  0.7956E+01
      2.597  0.3003E+00  0.7984E+01
      2.671  0.1458E+00  0.7999E+01
      2.745  0.0000E+00  0.8000E+01
      2.819  0.0000E+00  0.8000E+01
      2.892  0.0000E+00  0.8000E+01
      2.966  0.0000E+00  0.8000E+01
      3.040  0.0000E+00  0.8000E+01
      3.114  0.0000E+00  0.8000E+01
      3.188  0.0000E+00  0.8000E+01
      3.262  0.0000E+00  0.8000E+01
      3.336  0.0000E+00  0.8000E+01
      3.410  0.0000E+00  0.8000E+01
      3.484  0.0000E+00  0.8000E+01
      3.558  0.0000E+00  0.8000E+01
      3.632  0.0000E+00  0.8000E+01
      3.706  0.2263E-03  0.8000E+01
      3.780  0.1025E-02  0.8000E+01
      3.854  0.2399E-02  0.8000E+01
      3.928  0.4349E-02  0.8000E+01
      4.002  0.6876E-02  0.8001E+01
      4.076  0.9926E-02  0.8001E+01
      4.150  0.1266E-01  0.8002E+01
      4.224  0.1544E-01  0.8003E+01
      4.298  0.1844E-01  0.8005E+01
      4.372  0.4334E-01  0.8007E+01
      4.446  0.1745E+00  0.8014E+01
      4.520  0.3105E+00  0.8032E+01
      4.594  0.3920E+00  0.8058E+01
      4.668  0.4886E+00  0.8090E+01
      4.742  0.6043E+00  0.8131E+01
      4.816  0.7537E+00  0.8181E+01
      4.890  0.8735E+00  0.8241E+01
      4.964  0.9387E+00  0.8309E+01
      5.038  0.1091E+01  0.8383E+01
      5.112  0.1234E+01  0.8470E+01
      5.186  0.1358E+01  0.8565E+01
      5.260  0.1521E+01  0.8672E+01
      5.334  0.1821E+01  0.8793E+01
      5.408  0.2186E+01  0.8944E+01
      5.482  0.2120E+01  0.9105E+01
      5.556  0.1992E+01  0.9256E+01
      5.630  0.1981E+01  0.9403E+01
      5.704  0.1632E+01  0.9541E+01
      5.777  0.1514E+01  0.9658E+01
      5.851  0.1311E+01  0.9763E+01
      5.925  0.1093E+01  0.9853E+01
      5.999  0.1126E+01  0.9936E+01
      6.073  0.1205E+01  0.1002E+02
      6.147  0.1147E+01  0.1011E+02
      6.221  0.9919E+00  0.1019E+02
      6.295  0.9467E+00  0.1026E+02
      6.369  0.8818E+00  0.1033E+02
      6.443  0.8595E+00  0.1039E+02
      6.517  0.9016E+00  0.1046E+02
      6.591  0.8769E+00  0.1052E+02
      6.665  0.9207E+00  0.1059E+02
      6.739  0.9400E+00  0.1066E+02
      6.813  0.9551E+00  0.1073E+02
      6.887  0.1557E+01  0.1082E+02
      6.961  0.2784E+01  0.1098E+02
      7.035  0.2668E+01  0.1118E+02
      7.109  0.2236E+01  0.1136E+02
      7.183  0.2022E+01  0.1152E+02
      7.257  0.1724E+01  0.1166E+02
      7.331  0.1498E+01  0.1179E+02
      7.405  0.1519E+01  0.1189E+02
      7.479  0.1490E+01  0.1201E+02
      7.553  0.1316E+01  0.1211E+02
      7.627  0.1163E+01  0.1220E+02
      7.701  0.1215E+01  0.1229E+02
      7.775  0.1379E+01  0.1238E+02
      7.849  0.1603E+01  0.1249E+02
      7.923  0.1892E+01  0.1262E+02
      7.997  0.2184E+01  0.1277E+02
      8.071  0.2283E+01  0.1294E+02
      8.145  0.1987E+01  0.1310E+02
      8.219  0.1918E+01  0.1324E+02
      8.293  0.1674E+01  0.1338E+02
      8.367  0.1464E+01  0.1349E+02
      8.441  0.1410E+01  0.1360E+02
      8.515  0.1392E+01  0.1370E+02
      8.589  0.1367E+01  0.1380E+02
      8.663  0.1401E+01  0.1391E+02
      8.736  0.1381E+01  0.1401E+02
      8.810  0.1228E+01  0.1411E+02
      8.884  0.9896E+00  0.1419E+02
      8.958  0.9503E+00  0.1426E+02
      9.032  0.9731E+00  0.1434E+02
      9.106  0.1004E+01  0.1441E+02
      9.180  0.1056E+01  0.1448E+02
      9.254  0.1095E+01  0.1456E+02
      9.328  0.1078E+01  0.1465E+02
      9.402  0.1088E+01  0.1472E+02
      9.476  0.1157E+01  0.1481E+02
      9.550  0.1221E+01  0.1490E+02
      9.624  0.1284E+01  0.1499E+02
      9.698  0.1322E+01  0.1509E+02
      9.772  0.1219E+01  0.1518E+02
      9.846  0.1198E+01  0.1527E+02
      9.920  0.1157E+01  0.1536E+02
      9.994  0.8782E+00  0.1543E+02
     10.068  0.8104E+00  0.1549E+02
     10.142  0.8477E+00  0.1555E+02
     10.216  0.1103E+01  0.1562E+02
     10.290  0.4562E+00  0.1566E+02
     10.364  0.4279E+00  0.1569E+02
     10.438  0.4004E+00  0.1572E+02
     10.512  0.3683E+00  0.1575E+02
     10.586  0.3542E+00  0.1577E+02
     10.660  0.3506E+00  0.1580E+02
     10.734  0.3253E+00  0.1583E+02
     10.808  0.2857E+00  0.1585E+02
     10.882  0.2568E+00  0.1587E+02
     10.956  0.2326E+00  0.1589E+02
     11.030  0.2153E+00  0.1590E+02
     11.104  0.1999E+00  0.1592E+02
     11.178  0.1815E+00  0.1593E+02
     11.252  0.1697E+00  0.1594E+02
     11.326  0.1603E+00  0.1596E+02
     11.400  0.1405E+00  0.1597E+02
     11.474  0.1144E+00  0.1598E+02
     11.548  0.8779E-01  0.1599E+02
     11.622  0.6600E-01  0.1599E+02
     11.695  0.4900E-01  0.1599E+02
     11.769  0.5020E-01  0.1600E+02
     11.843  0.0000E+00  0.1600E+02
     11.917  0.0000E+00  0.1600E+02
     11.991  0.0000E+00  0.1600E+02
     12.065  0.0000E+00  0.1600E+02
     12.139  0.0000E+00  0.1600E+02
     12.213  0.0000E+00  0.1600E+02
     12.287  0.0000E+00  0.1600E+02
     12.361  0.0000E+00  0.1600E+02
     12.435  0.0000E+00  0.1600E+02
     12.509  0.0000E+00  0.1600E+02
     12.583  0.0000E+00  0.1600E+02
     12.657  0.0000E+00  0.1600E+02
     12.731  0.0000E+00  0.1600E+02
     12.805  0.0000E+00  0.1600E+02
