    2    2    1    1
  0.2637001E+02  0.4209383E-09  0.4209383E-09  0.4209383E-09  0.0000000E+00
  1.000000000000000E-004
  CAR 
 unknown system                          
      8    220      8
 
  0.0000000E+00  0.0000000E+00  0.0000000E+00  0.1457938E-03
    1       -8.378581   1.000000
    2        2.697895   1.000000
    3        2.697895   1.000000
    4        2.697895   1.000000
    5        3.640632   0.000000
    6        6.729052   0.000000
    7        6.729052   0.000000
    8        6.729052   0.000000
 
  0.5263158E-01  0.0000000E+00  0.0000000E+00  0.1166351E-02
    1       -8.356180   1.000000
    2        2.260660   1.000000
    3        2.671023   1.000000
    4        2.671023   1.000000
    5        4.008464   0.000000
    6        6.745299   0.000000
    7        6.777946   0.000000
    8        6.777946   0.000000
 
  0.1052632E+00  0.0000000E+00  0.0000000E+00  0.1166351E-02
    1       -8.289837   1.000000
    2        1.534697   1.000000
    3        2.596862   1.000000
    4        2.596862   1.000000
    5        4.484000   0.000000
    6        6.864272   0.000000
    7        6.910022   0.000000
    8        6.910022   0.000000
 
  0.1578947E+00  0.0000000E+00  0.0000000E+00  0.1166351E-02
    1       -8.182556   1.000000
    2        0.783409   1.000000
    3        2.491184   1.000000
    4        2.491184   1.000000
    5        4.732699   0.000000
    6        7.084301   0.000000
    7        7.084301   0.000000
    8        7.215526   0.000000
 
  0.2105263E+00  0.0000000E+00  0.0000000E+00  0.1166351E-02
    1       -8.039755   1.000000
    2        0.058280   1.000000
    3        2.372000   1.000000
    4        2.372000   1.000000
    5        4.753972   0.000000
    6        7.243239   0.000000
    7        7.243239   0.000000
    8        7.800077   0.000000
 
  0.2631579E+00  0.0000000E+00  0.0000000E+00  0.1166351E-02
    1       -7.870347   1.000000
    2       -0.613344   1.000000
    3        2.254715   1.000000
    4        2.254715   1.000000
    5        4.663102   0.000000
    6        7.336549   0.000000
    7        7.336549   0.000000
    8        8.504190   0.000000
 
  0.3157895E+00  0.0000000E+00  0.0000000E+00  0.1166351E-02
    1       -7.687902   1.000000
    2       -1.207166   1.000000
    3        2.150642   1.000000
    4        2.150642   1.000000
    5        4.543513   0.000000
    6        7.352880   0.000000
    7        7.352880   0.000000
    8        9.210821   0.000000
 
  0.3684211E+00  0.0000000E+00  0.0000000E+00  0.1166351E-02
    1       -7.512243   1.000000
    2       -1.696494   1.000000
    3        2.067353   1.000000
    4        2.067353   1.000000
    5        4.435223   0.000000
    6        7.320462   0.000000
    7        7.320462   0.000000
    8        9.769469   0.000000
 
  0.4210526E+00  0.0000000E+00  0.0000000E+00  0.1166351E-02
    1       -7.369534   1.000000
    2       -2.050597   1.000000
    3        2.009597   1.000000
    4        2.009597   1.000000
    5        4.356435   0.000000
    6        7.276844   0.000000
    7        7.276844   0.000000
    8       10.040888   0.000000
 
  0.4736842E+00  0.0000000E+00  0.0000000E+00  0.1166351E-02
    1       -7.288217   1.000000
    2       -2.238281   1.000000
    3        1.980105   1.000000
    4        1.980105   1.000000
    5        4.315410   0.000000
    6        7.248719   0.000000
    7        7.248719   0.000000
    8       10.113160   0.000000
 
  0.5263158E-01  0.5263158E-01  0.0000000E+00  0.8747631E-03
    1       -8.348696   1.000000
    2        2.222186   1.000000
    3        2.612310   1.000000
    4        2.612310   1.000000
    5        4.132103   0.000000
    6        6.607102   0.000000
    7        6.863162   0.000000
    8        6.863162   0.000000
 
  0.1052632E+00  0.5263158E-01  0.0000000E+00  0.3499052E-02
    1       -8.296954   1.000000
    2        1.672549   1.000000
    3        2.511982   1.000000
    4        2.558512   1.000000
    5        4.554617   0.000000
    6        6.543330   0.000000
    7        7.029172   0.000000
    8        7.035672   0.000000
 
  0.1578947E+00  0.5263158E-01  0.0000000E+00  0.3499052E-02
    1       -8.203237   1.000000
    2        0.974617   1.000000
    3        2.388852   1.000000
    4        2.482194   1.000000
    5        4.872081   0.000000
    6        6.624214   0.000000
    7        7.234467   0.000000
    8        7.318386   0.000000
 
  0.2105263E+00  0.5263158E-01  0.0000000E+00  0.3499052E-02
    1       -8.072051   1.000000
    2        0.265260   1.000000
    3        2.261312   1.000000
    4        2.369126   1.000000
    5        4.960177   0.000000
    6        6.840269   0.000000
    7        7.422160   0.000000
    8        7.729836   0.000000
 
  0.2631579E+00  0.5263158E-01  0.0000000E+00  0.3499052E-02
    1       -7.911059   1.000000
    2       -0.409800   1.000000
    3        2.143842   1.000000
    4        2.237406   1.000000
    5        4.898271   0.000000
    6        7.047854   0.000000
    7        7.537918   0.000000
    8        8.255978   0.000000
 
  0.3157895E+00  0.5263158E-01  0.0000000E+00  0.3499052E-02
    1       -7.732067   1.000000
    2       -1.021040   1.000000
    3        2.046526   1.000000
    4        2.104621   1.000000
    5        4.786159   0.000000
    6        7.152750   0.000000
    7        7.561190   0.000000
    8        8.851061   0.000000
 
  0.3684211E+00  0.5263158E-01  0.0000000E+00  0.3499052E-02
    1       -7.552659   1.000000
    2       -1.540651   1.000000
    3        1.975721   1.000000
    4        1.983882   1.000000
    5        4.675126   0.000000
    6        7.172740   0.000000
    7        7.515561   0.000000
    8        9.443605   0.000000
 
  0.4210526E+00  0.5263158E-01  0.0000000E+00  0.3499052E-02
    1       -7.396875   1.000000
    2       -1.938153   1.000000
    3        1.884186   1.000000
    4        1.934981   1.000000
    5        4.587955   0.000000
    6        7.161255   0.000000
    7        7.441833   0.000000
    8        9.909222   0.000000
 
  0.4736842E+00  0.5263158E-01  0.0000000E+00  0.3499052E-02
    1       -7.293041   1.000000
    2       -2.181325   1.000000
    3        1.811497   1.000000
    4        1.925777   1.000000
    5        4.534975   0.000000
    6        7.157760   0.000000
    7        7.372759   0.000000
    8       10.137981   0.000000
 
 -0.4736842E+00  0.5263158E-01  0.0000000E+00  0.3499052E-02
    1       -7.265085   1.000000
    2       -2.244140   1.000000
    3        1.769702   1.000000
    4        1.947953   1.000000
    5        4.520640   0.000000
    6        7.181608   0.000000
    7        7.326740   0.000000
    8       10.189934   0.000000
 
 -0.4210526E+00  0.5263158E-01  0.0000000E+00  0.3499052E-02
    1       -7.320319   1.000000
    2       -2.118831   1.000000
    3        1.761149   1.000000
    4        1.999973   1.000000
    5        4.545981   0.000000
    6        7.236603   0.000000
    7        7.309070   0.000000
    8       10.115785   0.000000
 
 -0.3684211E+00  0.5263158E-01  0.0000000E+00  0.3499052E-02
    1       -7.444675   1.000000
    2       -1.820511   1.000000
    3        1.786899   1.000000
    4        2.078919   1.000000
    5        4.609002   0.000000
    6        7.312562   0.000000
    7        7.312805   0.000000
    8        9.837845   0.000000
 
 -0.3157895E+00  0.5263158E-01  0.0000000E+00  0.3499052E-02
    1       -7.611415   1.000000
    2       -1.378708   1.000000
    3        1.846688   1.000000
    4        2.180224   1.000000
    5        4.703562   0.000000
    6        7.316274   0.000000
    7        7.383406   0.000000
    8        9.314155   0.000000
 
 -0.2631579E+00  0.5263158E-01  0.0000000E+00  0.3499052E-02
    1       -7.793034   1.000000
    2       -0.825839   1.000000
    3        1.938693   1.000000
    4        2.297148   1.000000
    5        4.815574   0.000000
    6        7.286951   0.000000
    7        7.397449   0.000000
    8        8.682031   0.000000
 
 -0.2105263E+00  0.5263158E-01  0.0000000E+00  0.3499052E-02
    1       -7.967638   1.000000
    2       -0.191861   1.000000
    3        2.059077   1.000000
    4        2.420006   1.000000
    5        4.913492   0.000000
    6        7.195622   0.000000
    7        7.279727   0.000000
    8        8.094148   0.000000
 
 -0.1578947E+00  0.5263158E-01  0.0000000E+00  0.3499052E-02
    1       -8.119732   1.000000
    2        0.494161   1.000000
    3        2.201578   1.000000
    4        2.535410   1.000000
    5        4.928280   0.000000
    6        7.009001   0.000000
    7        7.049024   0.000000
    8        7.645674   0.000000
 
 -0.1052632E+00  0.5263158E-01  0.0000000E+00  0.3499052E-02
    1       -8.239049   1.000000
    2        1.196022   1.000000
    3        2.358088   1.000000
    4        2.626501   1.000000
    5        4.751322   0.000000
    6        6.767301   0.000000
    7        6.895304   0.000000
    8        7.298238   0.000000
 
 -0.5263158E-01  0.5263158E-01  0.0000000E+00  0.1749526E-02
    1       -8.319099   1.000000
    2        1.843360   1.000000
    3        2.523588   1.000000
    4        2.675720   1.000000
    5        4.364610   0.000000
    6        6.702409   0.000000
    7        6.791994   0.000000
    8        7.002211   0.000000
 
  0.1052632E+00  0.1052632E+00  0.0000000E+00  0.8747631E-03
    1       -8.260095   1.000000
    2        1.489124   1.000000
    3        2.388965   1.000000
    4        2.388966   1.000000
    5        4.892068   0.000000
    6        6.302401   0.000000
    7        7.231040   0.000000
    8        7.231040   0.000000
 
  0.1578947E+00  0.1052632E+00  0.0000000E+00  0.3499052E-02
    1       -8.180846   1.000000
    2        0.993624   1.000000
    3        2.248900   1.000000
    4        2.279295   1.000000
    5        5.232774   0.000000
    6        6.200127   0.000000
    7        7.474447   0.000000
    8        7.502749   0.000000
 
  0.2105263E+00  0.1052632E+00  0.0000000E+00  0.3499052E-02
    1       -8.062946   1.000000
    2        0.377595   1.000000
    3        2.110604   1.000000
    4        2.160240   1.000000
    5        5.390698   0.000000
    6        6.304429   0.000000
    7        7.703923   0.000000
    8        7.814325   0.000000
 
  0.2631579E+00  0.1052632E+00  0.0000000E+00  0.3499052E-02
    1       -7.912949   1.000000
    2       -0.253310   1.000000
    3        1.988215   1.000000
    4        2.008695   1.000000
    5        5.355727   0.000000
    6        6.579108   0.000000
    7        7.860904   0.000000
    8        8.075175   0.000000
 
  0.3157895E+00  0.1052632E+00  0.0000000E+00  0.3499052E-02
    1       -7.741105   1.000000
    2       -0.849080   1.000000
    3        1.841244   1.000000
    4        1.891283   1.000000
    5        5.250139   0.000000
    6        6.838575   0.000000
    7        7.912403   0.000000
    8        8.341431   0.000000
 
  0.3684211E+00  0.1052632E+00  0.0000000E+00  0.3499052E-02
    1       -7.562846   1.000000
    2       -1.374490   1.000000
    3        1.677617   1.000000
    4        1.825699   1.000000
    5        5.139172   0.000000
    6        6.968496   0.000000
    7        7.872607   0.000000
    8        8.758071   0.000000
 
  0.4210526E+00  0.1052632E+00  0.0000000E+00  0.3499052E-02
    1       -7.399756   1.000000
    2       -1.796564   1.000000
    3        1.532506   1.000000
    4        1.794579   1.000000
    5        5.047982   0.000000
    6        7.002462   0.000000
    7        7.783444   0.000000
    8        9.312045   0.000000
 
  0.4736842E+00  0.1052632E+00  0.0000000E+00  0.3499052E-02
    1       -7.278669   1.000000
    2       -2.081698   1.000000
    3        1.415822   1.000000
    4        1.798883   1.000000
    5        4.987778   0.000000
    6        7.015093   0.000000
    7        7.683761   0.000000
    8        9.868512   0.000000
 
 -0.4736842E+00  0.1052632E+00  0.0000000E+00  0.3499052E-02
    1       -7.225369   1.000000
    2       -2.200418   1.000000
    3        1.334205   1.000000
    4        1.837776   1.000000
    5        4.963606   0.000000
    6        7.047378   0.000000
    7        7.597848   0.000000
    8       10.220804   0.000000
 
 -0.4210526E+00  0.1052632E+00  0.0000000E+00  0.3499052E-02
    1       -7.253200   1.000000
    2       -2.138148   1.000000
    3        1.292271   1.000000
    4        1.908776   1.000000
    5        4.976893   0.000000
    6        7.113017   0.000000
    7        7.535881   0.000000
    8       10.211707   0.000000
 
 -0.3684211E+00  0.1052632E+00  0.0000000E+00  0.3499052E-02
    1       -7.355002   1.000000
    2       -1.903148   1.000000
    3        1.293389   1.000000
    4        2.007650   1.000000
    5        5.025949   0.000000
    6        7.207961   0.000000
    7        7.495138   0.000000
    8        9.845740   0.000000
 
 -0.3157895E+00  0.1052632E+00  0.0000000E+00  0.3499052E-02
    1       -7.507635   1.000000
    2       -1.522360   1.000000
    3        1.340202   1.000000
    4        2.128102   1.000000
    5        5.105081   0.000000
    6        7.308121   0.000000
    7        7.459114   0.000000
    8        9.269778   0.000000
 
 -0.2631579E+00  0.1052632E+00  0.0000000E+00  0.3499052E-02
    1       -7.683623   1.000000
    2       -1.030754   1.000000
    3        1.435143   1.000000
    4        2.261215   1.000000
    5        5.200988   0.000000
    6        7.350765   0.000000
    7        7.398324   0.000000
    8        8.683821   0.000000
 
 -0.2105263E+00  0.1052632E+00  0.0000000E+00  0.3499052E-02
    1       -7.859438   1.000000
    2       -0.465353   1.000000
    3        1.581206   1.000000
    4        2.394682   1.000000
    5        5.282728   0.000000
    6        7.220358   0.000000
    7        7.285763   0.000000
    8        8.256396   0.000000
 
 -0.1578947E+00  0.1052632E+00  0.0000000E+00  0.3499052E-02
    1       -8.017758   1.000000
    2        0.132482   1.000000
    3        1.783199   1.000000
    4        2.512388   1.000000
    5        5.279888   0.000000
    6        6.937985   0.000000
    7        7.129640   0.000000
    8        7.987218   0.000000
 
 -0.1052632E+00  0.1052632E+00  0.0000000E+00  0.1749526E-02
    1       -8.146835   1.000000
    2        0.709043   1.000000
    3        2.047040   1.000000
    4        2.595466   1.000000
    5        5.092735   0.000000
    6        6.756392   0.000000
    7        6.980265   0.000000
    8        7.685402   0.000000
 
  0.1578947E+00  0.1578947E+00  0.0000000E+00  0.8747631E-03
    1       -8.116355   1.000000
    2        0.758396   1.000000
    3        2.094340   1.000000
    4        2.094340   1.000000
    5        5.567672   0.000000
    6        5.936236   0.000000
    7        7.763271   0.000000
    8        7.763271   0.000000
 
  0.2105263E+00  0.1578947E+00  0.0000000E+00  0.3499052E-02
    1       -8.012812   1.000000
    2        0.319014   1.000000
    3        1.944709   1.000000
    4        1.945105   1.000000
    5        5.694899   0.000000
    6        5.931276   0.000000
    7        8.034832   0.000000
    8        8.047177   0.000000
 
  0.2631579E+00  0.1578947E+00  0.0000000E+00  0.3499052E-02
    1       -7.875802   1.000000
    2       -0.206688   1.000000
    3        1.771059   1.000000
    4        1.814335   1.000000
    5        5.637843   0.000000
    6        6.173569   0.000000
    7        8.110218   0.000000
    8        8.264239   0.000000
 
  0.3157895E+00  0.1578947E+00  0.0000000E+00  0.3499052E-02
    1       -7.714252   1.000000
    2       -0.741437   1.000000
    3        1.566486   1.000000
    4        1.712807   1.000000
    5        5.546616   0.000000
    6        6.514643   0.000000
    7        8.067111   0.000000
    8        8.367218   0.000000
 
  0.3684211E+00  0.1578947E+00  0.0000000E+00  0.3499052E-02
    1       -7.541673   1.000000
    2       -1.237192   1.000000
    3        1.354437   1.000000
    4        1.646029   1.000000
    5        5.451119   0.000000
    6        6.844214   0.000000
    7        8.141556   0.000000
    8        8.355297   0.000000
 
  0.4210526E+00  0.1578947E+00  0.0000000E+00  0.3499052E-02
    1       -7.377162   1.000000
    2       -1.655498   1.000000
    3        1.157369   1.000000
    4        1.617147   1.000000
    5        5.373128   0.000000
    6        7.019680   0.000000
    7        8.268188   0.000000
    8        8.499433   0.000000
 
  0.4736842E+00  0.1578947E+00  0.0000000E+00  0.3499052E-02
    1       -7.245257   1.000000
    2       -1.960352   1.000000
    3        0.990835   1.000000
    4        1.627116   1.000000
    5        5.326046   0.000000
    6        7.067816   0.000000
    7        8.150909   0.000000
    8        9.091208   0.000000
 
 -0.4736842E+00  0.1578947E+00  0.0000000E+00  0.3499052E-02
    1       -7.171602   1.000000
    2       -2.119658   1.000000
    3        0.865104   1.000000
    4        1.674992   1.000000
    5        5.315925   0.000000
    6        7.090699   0.000000
    7        8.034262   0.000000
    8        9.741560   0.000000
 
 -0.4210526E+00  0.1578947E+00  0.0000000E+00  0.3499052E-02
    1       -7.173457   1.000000
    2       -2.113689   1.000000
    3        0.787570   1.000000
    4        1.758006   1.000000
    5        5.343379   0.000000
    6        7.135389   0.000000
    7        7.933015   0.000000
    8       10.122229   0.000000
 
 -0.3684211E+00  0.1578947E+00  0.0000000E+00  0.3499052E-02
    1       -7.250297   1.000000
    2       -1.944385   1.000000
    3        0.764593   1.000000
    4        1.871331   1.000000
    5        5.404469   0.000000
    6        7.213432   0.000000
    7        7.847449   0.000000
    8        9.809880   0.000000
 
 -0.3157895E+00  0.1578947E+00  0.0000000E+00  0.3499052E-02
    1       -7.384153   1.000000
    2       -1.635781   1.000000
    3        0.803127   1.000000
    4        2.007641   1.000000
    5        5.489932   0.000000
    6        7.312739   0.000000
    7        7.762879   0.000000
    8        9.180557   0.000000
 
 -0.2631579E+00  0.1578947E+00  0.0000000E+00  0.3499052E-02
    1       -7.549317   1.000000
    2       -1.226238   1.000000
    3        0.912460   1.000000
    4        2.156415   1.000000
    5        5.580639   0.000000
    6        7.377527   0.000000
    7        7.651100   0.000000
    8        8.577251   0.000000
 
 -0.2105263E+00  0.1578947E+00  0.0000000E+00  0.3499052E-02
    1       -7.721553   1.000000
    2       -0.762015   1.000000
    3        1.105736   1.000000
    4        2.303109   1.000000
    5        5.633102   0.000000
    6        7.267871   0.000000
    7        7.489259   0.000000
    8        8.224985   0.000000
 
 -0.1578947E+00  0.1578947E+00  0.0000000E+00  0.1749526E-02
    1       -7.882112   1.000000
    2       -0.293989   1.000000
    3        1.397163   1.000000
    4        2.428883   1.000000
    5        5.555817   0.000000
    6        7.027501   0.000000
    7        7.295760   0.000000
    8        8.128742   0.000000
 
  0.2105263E+00  0.2105263E+00  0.0000000E+00  0.8747631E-03
    1       -7.924048   1.000000
    2        0.062920   1.000000
    3        1.784320   1.000000
    4        1.784320   1.000000
    5        5.499352   0.000000
    6        6.027900   0.000000
    7        8.399884   0.000000
    8        8.399885   0.000000
 
  0.2631579E+00  0.2105263E+00  0.0000000E+00  0.3499052E-02
    1       -7.801433   1.000000
    2       -0.323268   1.000000
    3        1.614493   1.000000
    4        1.644417   1.000000
    5        5.402545   0.000000
    6        6.086215   0.000000
    7        8.519249   0.000000
    8        8.698295   0.000000
 
  0.3157895E+00  0.2105263E+00  0.0000000E+00  0.3499052E-02
    1       -7.652809   1.000000
    2       -0.758062   1.000000
    3        1.392069   1.000000
    4        1.535054   1.000000
    5        5.403593   0.000000
    6        6.210700   0.000000
    7        8.377663   0.000000
    8        8.880491   0.000000
 
  0.3684211E+00  0.2105263E+00  0.0000000E+00  0.3499052E-02
    1       -7.490032   1.000000
    2       -1.185309   1.000000
    3        1.134520   1.000000
    4        1.462479   1.000000
    5        5.386761   0.000000
    6        6.528515   0.000000
    7        8.231971   0.000000
    8        8.923795   0.000000
 
  0.4210526E+00  0.2105263E+00  0.0000000E+00  0.3499052E-02
    1       -7.329921   1.000000
    2       -1.563443   1.000000
    3        0.877601   1.000000
    4        1.430117   1.000000
    5        5.349987   0.000000
    6        6.978051   0.000000
    7        8.178289   0.000000
    8        8.859739   0.000000
 
  0.4736842E+00  0.2105263E+00  0.0000000E+00  0.3499052E-02
    1       -7.194374   1.000000
    2       -1.855827   1.000000
    3        0.649422   1.000000
    4        1.439181   1.000000
    5        5.331347   0.000000
    6        7.345951   0.000000
    7        8.376911   0.000000
    8        8.739374   0.000000
 
 -0.4736842E+00  0.2105263E+00  0.0000000E+00  0.3499052E-02
    1       -7.107376   1.000000
    2       -2.029867   1.000000
    3        0.468188   1.000000
    4        1.488947   1.000000
    5        5.350167   0.000000
    6        7.477175   0.000000
    7        8.601499   0.000000
    8        8.931723   0.000000
 
 -0.4210526E+00  0.2105263E+00  0.0000000E+00  0.3499052E-02
    1       -7.087684   1.000000
    2       -2.063563   1.000000
    3        0.346499   1.000000
    4        1.576784   1.000000
    5        5.411245   0.000000
    6        7.514615   0.000000
    7        8.465645   0.000000
    8        9.593217   0.000000
 
 -0.3684211E+00  0.2105263E+00  0.0000000E+00  0.3499052E-02
    1       -7.139798   1.000000
    2       -1.955026   1.000000
    3        0.295632   1.000000
    4        1.697855   1.000000
    5        5.509946   0.000000
    6        7.554826   0.000000
    7        8.333151   0.000000
    8        9.705882   0.000000
 
 -0.3157895E+00  0.2105263E+00  0.0000000E+00  0.3499052E-02
    1       -7.251570   1.000000
    2       -1.726578   1.000000
    3        0.329078   1.000000
    4        1.844572   1.000000
    5        5.631895   0.000000
    6        7.617536   0.000000
    7        8.186929   0.000000
    8        9.096671   0.000000
 
 -0.2631579E+00  0.2105263E+00  0.0000000E+00  0.3499052E-02
    1       -7.400724   1.000000
    2       -1.419965   1.000000
    3        0.464864   1.000000
    4        2.005737   1.000000
    5        5.745905   0.000000
    6        7.666863   0.000000
    7        7.996609   0.000000
    8        8.463007   0.000000
 
 -0.2105263E+00  0.2105263E+00  0.0000000E+00  0.1749526E-02
    1       -7.563879   1.000000
    2       -1.085100   1.000000
    3        0.722297   1.000000
    4        2.165522   1.000000
    5        5.783905   0.000000
    6        7.513952   0.000000
    7        7.750028   0.000000
    8        8.175878   0.000000
 
  0.2631579E+00  0.2631579E+00  0.0000000E+00  0.8747631E-03
    1       -7.693960   1.000000
    2       -0.583285   1.000000
    3        1.494568   1.000000
    4        1.494569   1.000000
    5        5.149942   0.000000
    6        5.990527   0.000000
    7        9.100328   0.000000
    8        9.100331   0.000000
 
  0.3157895E+00  0.2631579E+00  0.0000000E+00  0.3499052E-02
    1       -7.560333   1.000000
    2       -0.915895   1.000000
    3        1.318854   1.000000
    4        1.375600   1.000000
    5        5.078361   0.000000
    6        5.914521   0.000000
    7        9.104770   0.000000
    8        9.395992   0.000000
 
  0.3684211E+00  0.2631579E+00  0.0000000E+00  0.3499052E-02
    1       -7.411061   1.000000
    2       -1.259737   1.000000
    3        1.061381   1.000000
    4        1.294322   1.000000
    5        5.114830   0.000000
    6        6.006336   0.000000
    7        8.943620   0.000000
    8        9.532374   0.000000
 
  0.4210526E+00  0.2631579E+00  0.0000000E+00  0.3499052E-02
    1       -7.261023   1.000000
    2       -1.572310   1.000000
    3        0.761207   1.000000
    4        1.254601   1.000000
    5        5.135842   0.000000
    6        6.361420   0.000000
    7        8.793262   0.000000
    8        9.520407   0.000000
 
  0.4736842E+00  0.2631579E+00  0.0000000E+00  0.3499052E-02
    1       -7.129443   1.000000
    2       -1.820485   1.000000
    3        0.468136   1.000000
    4        1.258047   1.000000
    5        5.145331   0.000000
    6        6.915712   0.000000
    7        8.687670   0.000000
    8        9.414787   0.000000
 
 -0.4736842E+00  0.2631579E+00  0.0000000E+00  0.3499052E-02
    1       -7.037721   1.000000
    2       -1.976636   1.000000
    3        0.219030   1.000000
    4        1.304313   1.000000
    5        5.182719   0.000000
    6        7.537042   0.000000
    7        8.685427   0.000000
    8        9.264892   0.000000
 
 -0.4210526E+00  0.2631579E+00  0.0000000E+00  0.3499052E-02
    1       -7.003820   1.000000
    2       -2.022798   1.000000
    3        0.039567   1.000000
    4        1.391131   1.000000
    5        5.263648   0.000000
    6        7.985276   0.000000
    7        8.963086   0.000000
    8        9.095670   0.000000
 
 -0.3684211E+00  0.2631579E+00  0.0000000E+00  0.3499052E-02
    1       -7.034852   1.000000
    2       -1.959449   1.000000
    3       -0.048404   1.000000
    4        1.514010   1.000000
    5        5.387561   0.000000
    6        8.135714   0.000000
    7        8.906243   0.000000
    8        9.419914   0.000000
 
 -0.3157895E+00  0.2631579E+00  0.0000000E+00  0.3499052E-02
    1       -7.123656   1.000000
    2       -1.810949   1.000000
    3       -0.020962   1.000000
    4        1.665631   1.000000
    5        5.540802   0.000000
    6        8.189029   0.000000
    7        8.671138   0.000000
    8        9.046602   0.000000
 
 -0.2631579E+00  0.2631579E+00  0.0000000E+00  0.1749526E-02
    1       -7.252576   1.000000
    2       -1.618857   1.000000
    3        0.146623   1.000000
    4        1.834899   1.000000
    5        5.688062   0.000000
    6        8.123747   0.000000
    7        8.361180   0.000000
    8        8.485542   0.000000
 
  0.3157895E+00  0.3157895E+00  0.0000000E+00  0.8747631E-03
    1       -7.443071   1.000000
    2       -1.164563   1.000000
    3        1.246286   1.000000
    4        1.246286   1.000000
    5        4.849579   0.000000
    6        5.687527   0.000000
    7        9.836744   0.000000
    8        9.837431   0.000000
 
  0.3684211E+00  0.3157895E+00  0.0000000E+00  0.3499052E-02
    1       -7.310526   1.000000
    2       -1.438185   1.000000
    3        1.076002   1.000000
    4        1.154670   1.000000
    5        4.809347   0.000000
    6        5.593021   0.000000
    7        9.836110   0.000000
    8       10.117061   0.000000
 
  0.4210526E+00  0.3157895E+00  0.0000000E+00  0.3499052E-02
    1       -7.175976   1.000000
    2       -1.688543   1.000000
    3        0.799979   1.000000
    4        1.105183   1.000000
    5        4.869514   0.000000
    6        5.733586   0.000000
    7        9.685912   0.000000
    8       10.202846   0.000000
 
  0.4736842E+00  0.3157895E+00  0.0000000E+00  0.3499052E-02
    1       -7.056154   1.000000
    2       -1.883173   1.000000
    3        0.476311   1.000000
    4        1.099907   1.000000
    5        4.917370   0.000000
    6        6.162483   0.000000
    7        9.540926   0.000000
    8       10.138739   0.000000
 
 -0.4736842E+00  0.3157895E+00  0.0000000E+00  0.3499052E-02
    1       -6.969390   1.000000
    2       -2.000499   1.000000
    3        0.168044   1.000000
    4        1.138950   1.000000
    5        4.971046   0.000000
    6        6.793088   0.000000
    7        9.425773   0.000000
    8        9.986760   0.000000
 
 -0.4210526E+00  0.3157895E+00  0.0000000E+00  0.3499052E-02
    1       -6.931111   1.000000
    2       -2.031849   1.000000
    3       -0.075809   1.000000
    4        1.220499   1.000000
    5        5.062190   0.000000
    6        7.525419   0.000000
    7        9.363367   0.000000
    8        9.778257   0.000000
 
 -0.3684211E+00  0.3157895E+00  0.0000000E+00  0.3499052E-02
    1       -6.948347   1.000000
    2       -1.988168   1.000000
    3       -0.213511   1.000000
    4        1.340578   1.000000
    5        5.197857   0.000000
    6        8.227438   0.000000
    7        9.390571   0.000000
    8        9.504928   0.000000
 
 -0.3157895E+00  0.3157895E+00  0.0000000E+00  0.1749526E-02
    1       -7.016917   1.000000
    2       -1.902174   1.000000
    3       -0.204531   1.000000
    4        1.492449   1.000000
    5        5.368194   0.000000
    6        8.574217   0.000000
    7        9.134349   0.000000
    8        9.215733   0.000000
 
  0.3684211E+00  0.3684211E+00  0.0000000E+00  0.8747631E-03
    1       -7.197218   1.000000
    2       -1.656978   1.000000
    3        1.051983   1.000000
    4        1.051984   1.000000
    5        4.615130   0.000000
    6        5.352981   0.000000
    7       10.582219   0.000000
    8       10.583757   0.000000
 
  0.4210526E+00  0.3684211E+00  0.0000000E+00  0.3499052E-02
    1       -7.083063   1.000000
    2       -1.860046   1.000000
    3        0.896477   1.000000
    4        0.991376   1.000000
    5        4.608484   0.000000
    6        5.302396   0.000000
    7       10.615207   0.000000
    8       10.831293   0.000000
 
  0.4736842E+00  0.3684211E+00  0.0000000E+00  0.3499052E-02
    1       -6.982602   1.000000
    2       -2.010915   1.000000
    3        0.620118   1.000000
    4        0.975459   1.000000
    5        4.692717   0.000000
    6        5.521479   0.000000
    7       10.479048   0.000000
    8       10.854246   0.000000
 