 running on   48 total cores
 distrk:  each k-point on   12 cores,    4 groups
 distr:  one band on   12 cores,    1 groups
 using from now: INCAR     
 vasp.5.4.4.18Apr17-6-g9f103f2a35 (build Nov 04 2020 14:40:39) complex          
  
 POSCAR found type information on POSCAR  Al As
 POSCAR found :  2 types and       2 ions
 scaLAPACK will be used

 ----------------------------------------------------------------------------- 
|                                                                             |
|           W    W    AA    RRRRR   N    N  II  N    N   GGGG   !!!           |
|           W    W   A  A   R    R  NN   N  II  NN   N  G    G  !!!           |
|           W    W  A    A  R    R  N N  N  II  N N  N  G       !!!           |
|           W WW W  AAAAAA  RRRRR   N  N N  II  N  N N  G  GGG   !            |
|           WW  WW  A    A  R   R   N   NN  II  N   NN  G    G                |
|           W    W  A    A  R    R  N    N  II  N    N   GGGG   !!!           |
|                                                                             |
|      You have enabled k-point parallelism (KPAR>1).                         |
|      This developmental code was originally  written by Paul Kent at ORNL,  |
|      and carefully double checked in Vienna.                                |
|      GW as well as linear response parallelism added by Martijn Marsman     |
|      and Georg Kresse.                                                      |
|      Carefully verify results versus KPAR=1.                                |
|      Report problems to Paul Kent and Vienna.                               |
|                                                                             |
 ----------------------------------------------------------------------------- 

 LDA part: xc-table for Pade appr. of Perdew
 POSCAR found type information on POSCAR  Al As
 POSCAR found :  2 types and       2 ions
 generate k-points for:   19   19   19
 POSCAR, INCAR and KPOINTS ok, starting setup
 FFT: planning ...
 WAVECAR not read
 entering main loop
       N       E                     dE             d eps       ncg     rms          rms(c)
DAV:   1     0.142476600242E+02    0.14248E+02   -0.29649E+03  3552   0.734E+02
DAV:   2    -0.879461770153E+01   -0.23042E+02   -0.22719E+02  4736   0.870E+01
DAV:   3    -0.945269875759E+01   -0.65808E+00   -0.65808E+00  4304   0.196E+01
DAV:   4    -0.945640433535E+01   -0.37056E-02   -0.37056E-02  5576   0.162E+00
DAV:   5    -0.945641346958E+01   -0.91342E-05   -0.91342E-05  4504   0.690E-02    0.251E+00
RMM:   6    -0.928040557065E+01    0.17601E+00   -0.21762E-01  3532   0.236E+00    0.136E+00
RMM:   7    -0.925831834922E+01    0.22087E-01   -0.94521E-02  3731   0.166E+00    0.486E-01
RMM:   8    -0.925881519179E+01   -0.49684E-03   -0.58757E-03  3766   0.620E-01    0.456E-02
RMM:   9    -0.925910643782E+01   -0.29125E-03   -0.40908E-04  4098   0.143E-01    0.247E-02
RMM:  10    -0.925915584195E+01   -0.49404E-04   -0.95737E-05  3893   0.711E-02    0.458E-03
RMM:  11    -0.925915998087E+01   -0.41389E-05   -0.14432E-05  4192   0.233E-02    0.506E-03
RMM:  12    -0.925915808470E+01    0.18962E-05   -0.38843E-06  4002   0.103E-02    0.390E-04
RMM:  13    -0.925915821669E+01   -0.13200E-06   -0.87131E-08  2354   0.248E-03
   1 F= -.92591582E+01 E0= -.92591582E+01  d E =0.000000E+00
