   2   2   0   0
  0.2167398E+02  0.3943010E-09  0.3943010E-09  0.3943010E-09  0.0000000E+00
  1.000000000000000E-004
  CAR 
 unknown system                          
     16.11557444     -8.96300758  301      4.33909030      1.00000000
     -8.963  0.0000E+00  0.0000E+00
     -8.879  0.0000E+00  0.0000E+00
     -8.796  0.0000E+00  0.0000E+00
     -8.712  0.0000E+00  0.0000E+00
     -8.629  0.0000E+00  0.0000E+00
     -8.545  0.0000E+00  0.0000E+00
     -8.461  0.0000E+00  0.0000E+00
     -8.378  0.0000E+00  0.0000E+00
     -8.294  0.0000E+00  0.0000E+00
     -8.211  0.0000E+00  0.0000E+00
     -8.127  0.0000E+00  0.0000E+00
     -8.043  0.0000E+00  0.0000E+00
     -7.960  0.0000E+00  0.0000E+00
     -7.876  0.0000E+00  0.0000E+00
     -7.793  0.7468E-01  0.1074E-02
     -7.709  0.1550E+00  0.1101E-01
     -7.625  0.2151E+00  0.2676E-01
     -7.542  0.2671E+00  0.4681E-01
     -7.458  0.3069E+00  0.7075E-01
     -7.375  0.3514E+00  0.9833E-01
     -7.291  0.3910E+00  0.1293E+00
     -7.208  0.4342E+00  0.1638E+00
     -7.124  0.4753E+00  0.2018E+00
     -7.040  0.5206E+00  0.2434E+00
     -6.957  0.5680E+00  0.2889E+00
     -6.873  0.6195E+00  0.3385E+00
     -6.790  0.6764E+00  0.3926E+00
     -6.706  0.7427E+00  0.4518E+00
     -6.622  0.8172E+00  0.5170E+00
     -6.539  0.9117E+00  0.5890E+00
     -6.455  0.1033E+01  0.6701E+00
     -6.372  0.1200E+01  0.7630E+00
     -6.288  0.1742E+01  0.8772E+00
     -6.204  0.1664E+01  0.1017E+01
     -6.121  0.1681E+01  0.1157E+01
     -6.037  0.1679E+01  0.1296E+01
     -5.954  0.1719E+01  0.1438E+01
     -5.870  0.1791E+01  0.1584E+01
     -5.786  0.1942E+01  0.1739E+01
     -5.703  0.2793E+01  0.1922E+01
     -5.619  0.0000E+00  0.2000E+01
     -5.536  0.0000E+00  0.2000E+01
     -5.452  0.0000E+00  0.2000E+01
     -5.368  0.0000E+00  0.2000E+01
     -5.285  0.0000E+00  0.2000E+01
     -5.201  0.0000E+00  0.2000E+01
     -5.118  0.0000E+00  0.2000E+01
     -5.034  0.0000E+00  0.2000E+01
     -4.950  0.0000E+00  0.2000E+01
     -4.867  0.0000E+00  0.2000E+01
     -4.783  0.0000E+00  0.2000E+01
     -4.700  0.0000E+00  0.2000E+01
     -4.616  0.0000E+00  0.2000E+01
     -4.532  0.0000E+00  0.2000E+01
     -4.449  0.0000E+00  0.2000E+01
     -4.365  0.0000E+00  0.2000E+01
     -4.282  0.0000E+00  0.2000E+01
     -4.198  0.0000E+00  0.2000E+01
     -4.114  0.0000E+00  0.2000E+01
     -4.031  0.0000E+00  0.2000E+01
     -3.947  0.0000E+00  0.2000E+01
     -3.864  0.0000E+00  0.2000E+01
     -3.780  0.0000E+00  0.2000E+01
     -3.697  0.0000E+00  0.2000E+01
     -3.613  0.0000E+00  0.2000E+01
     -3.529  0.0000E+00  0.2000E+01
     -3.446  0.0000E+00  0.2000E+01
     -3.362  0.0000E+00  0.2000E+01
     -3.279  0.0000E+00  0.2000E+01
     -3.195  0.0000E+00  0.2000E+01
     -3.111  0.0000E+00  0.2000E+01
     -3.028  0.0000E+00  0.2000E+01
     -2.944  0.0000E+00  0.2000E+01
     -2.861  0.0000E+00  0.2000E+01
     -2.777  0.0000E+00  0.2000E+01
     -2.693  0.0000E+00  0.2000E+01
     -2.610  0.0000E+00  0.2000E+01
     -2.526  0.0000E+00  0.2000E+01
     -2.443  0.0000E+00  0.2000E+01
     -2.359  0.0000E+00  0.2000E+01
     -2.275  0.0000E+00  0.2000E+01
     -2.192  0.0000E+00  0.2000E+01
     -2.108  0.0000E+00  0.2000E+01
     -2.025  0.0000E+00  0.2000E+01
     -1.941  0.0000E+00  0.2000E+01
     -1.857  0.0000E+00  0.2000E+01
     -1.774  0.0000E+00  0.2000E+01
     -1.690  0.0000E+00  0.2000E+01
     -1.607  0.0000E+00  0.2000E+01
     -1.523  0.0000E+00  0.2000E+01
     -1.439  0.2170E+00  0.2004E+01
     -1.356  0.3965E+00  0.2029E+01
     -1.272  0.6610E+00  0.2068E+01
     -1.189  0.1079E+01  0.2141E+01
     -1.105  0.1552E+01  0.2248E+01
     -1.021  0.2636E+01  0.2414E+01
     -0.938  0.3803E+01  0.2705E+01
     -0.854  0.1702E+01  0.2922E+01
     -0.771  0.1182E+01  0.3041E+01
     -0.687  0.9842E+00  0.3131E+01
     -0.603  0.8026E+00  0.3205E+01
     -0.520  0.7182E+00  0.3269E+01
     -0.436  0.6282E+00  0.3325E+01
     -0.353  0.5570E+00  0.3374E+01
     -0.269  0.5137E+00  0.3419E+01
     -0.186  0.4693E+00  0.3460E+01
     -0.102  0.4194E+00  0.3497E+01
     -0.018  0.3911E+00  0.3531E+01
      0.065  0.3671E+00  0.3562E+01
      0.149  0.3420E+00  0.3592E+01
      0.232  0.3144E+00  0.3619E+01
      0.316  0.2886E+00  0.3644E+01
      0.400  0.2745E+00  0.3668E+01
      0.483  0.2594E+00  0.3690E+01
      0.567  0.2436E+00  0.3711E+01
      0.650  0.5491E+00  0.3744E+01
      0.734  0.8075E+00  0.3801E+01
      0.818  0.1182E+01  0.3882E+01
      0.901  0.1223E+01  0.3991E+01
      0.985  0.1152E+01  0.4090E+01
      1.068  0.1085E+01  0.4184E+01
      1.152  0.1043E+01  0.4273E+01
      1.236  0.1019E+01  0.4359E+01
      1.319  0.9969E+00  0.4444E+01
      1.403  0.1036E+01  0.4529E+01
      1.486  0.1086E+01  0.4618E+01
      1.570  0.1125E+01  0.4710E+01
      1.654  0.1156E+01  0.4806E+01
      1.737  0.1221E+01  0.4906E+01
      1.821  0.1285E+01  0.5012E+01
      1.904  0.1478E+01  0.5123E+01
      1.988  0.1593E+01  0.5248E+01
      2.072  0.1704E+01  0.5389E+01
      2.155  0.1674E+01  0.5531E+01
      2.239  0.1658E+01  0.5670E+01
      2.322  0.1631E+01  0.5808E+01
      2.406  0.1601E+01  0.5943E+01
      2.490  0.1604E+01  0.6077E+01
      2.573  0.1573E+01  0.6210E+01
      2.657  0.1550E+01  0.6340E+01
      2.740  0.1538E+01  0.6470E+01
      2.824  0.1519E+01  0.6597E+01
      2.908  0.1510E+01  0.6724E+01
      2.991  0.1493E+01  0.6849E+01
      3.075  0.1474E+01  0.6973E+01
      3.158  0.1468E+01  0.7096E+01
      3.242  0.1481E+01  0.7219E+01
      3.325  0.1470E+01  0.7342E+01
      3.409  0.1428E+01  0.7464E+01
      3.493  0.1051E+01  0.7566E+01
      3.576  0.9021E+00  0.7647E+01
      3.660  0.7873E+00  0.7718E+01
      3.743  0.6866E+00  0.7779E+01
      3.827  0.5995E+00  0.7833E+01
      3.911  0.5229E+00  0.7880E+01
      3.994  0.4444E+00  0.7920E+01
      4.078  0.3744E+00  0.7954E+01
      4.161  0.2708E+00  0.7981E+01
      4.245  0.1200E+00  0.7998E+01
      4.329  0.0000E+00  0.8000E+01
      4.412  0.0000E+00  0.8000E+01
      4.496  0.0000E+00  0.8000E+01
      4.579  0.0000E+00  0.8000E+01
      4.663  0.0000E+00  0.8000E+01
      4.747  0.0000E+00  0.8000E+01
      4.830  0.0000E+00  0.8000E+01
      4.914  0.0000E+00  0.8000E+01
      4.997  0.0000E+00  0.8000E+01
      5.081  0.0000E+00  0.8000E+01
      5.165  0.0000E+00  0.8000E+01
      5.248  0.0000E+00  0.8000E+01
      5.332  0.0000E+00  0.8000E+01
      5.415  0.0000E+00  0.8000E+01
      5.499  0.0000E+00  0.8000E+01
      5.583  0.0000E+00  0.8000E+01
      5.666  0.4433E-02  0.8000E+01
      5.750  0.5643E-01  0.8003E+01
      5.833  0.9300E-01  0.8009E+01
      5.917  0.1194E+00  0.8018E+01
      6.001  0.1536E+00  0.8029E+01
      6.084  0.1915E+00  0.8044E+01
      6.168  0.2232E+00  0.8061E+01
      6.251  0.2611E+00  0.8081E+01
      6.335  0.3017E+00  0.8104E+01
      6.419  0.3378E+00  0.8131E+01
      6.502  0.3734E+00  0.8161E+01
      6.586  0.4110E+00  0.8194E+01
      6.669  0.5076E+00  0.8231E+01
      6.753  0.6287E+00  0.8279E+01
      6.836  0.7199E+00  0.8336E+01
      6.920  0.8106E+00  0.8400E+01
      7.004  0.9119E+00  0.8472E+01
      7.087  0.1017E+01  0.8553E+01
      7.171  0.1124E+01  0.8642E+01
      7.254  0.1273E+01  0.8742E+01
      7.338  0.1488E+01  0.8856E+01
      7.422  0.1762E+01  0.8992E+01
      7.505  0.1765E+01  0.9143E+01
      7.589  0.1692E+01  0.9287E+01
      7.672  0.1650E+01  0.9427E+01
      7.756  0.1605E+01  0.9563E+01
      7.840  0.1660E+01  0.9698E+01
      7.923  0.1454E+01  0.9830E+01
      8.007  0.1250E+01  0.9942E+01
      8.090  0.1238E+01  0.1004E+02
      8.174  0.1075E+01  0.1015E+02
      8.258  0.8723E+00  0.1023E+02
      8.341  0.5312E+00  0.1028E+02
      8.425  0.6591E+00  0.1033E+02
      8.508  0.6840E+00  0.1039E+02
      8.592  0.8428E+00  0.1045E+02
      8.676  0.1047E+01  0.1053E+02
      8.759  0.1780E+01  0.1065E+02
      8.843  0.2381E+01  0.1082E+02
      8.926  0.2481E+01  0.1103E+02
      9.010  0.1888E+01  0.1121E+02
      9.094  0.1879E+01  0.1137E+02
      9.177  0.1629E+01  0.1152E+02
      9.261  0.1294E+01  0.1163E+02
      9.344  0.1402E+01  0.1175E+02
      9.428  0.1351E+01  0.1186E+02
      9.512  0.1322E+01  0.1197E+02
      9.595  0.1323E+01  0.1208E+02
      9.679  0.1289E+01  0.1219E+02
      9.762  0.1378E+01  0.1230E+02
      9.846  0.1463E+01  0.1242E+02
      9.930  0.1714E+01  0.1255E+02
     10.013  0.1572E+01  0.1269E+02
     10.097  0.1382E+01  0.1281E+02
     10.180  0.1437E+01  0.1292E+02
     10.264  0.1644E+01  0.1305E+02
     10.348  0.1345E+01  0.1317E+02
     10.431  0.1233E+01  0.1328E+02
     10.515  0.1183E+01  0.1338E+02
     10.598  0.1143E+01  0.1348E+02
     10.682  0.1211E+01  0.1358E+02
     10.765  0.1192E+01  0.1368E+02
     10.849  0.1141E+01  0.1378E+02
     10.933  0.1120E+01  0.1387E+02
     11.016  0.1134E+01  0.1396E+02
     11.100  0.1069E+01  0.1406E+02
     11.183  0.1052E+01  0.1414E+02
     11.267  0.1054E+01  0.1423E+02
     11.351  0.1018E+01  0.1432E+02
     11.434  0.9295E+00  0.1440E+02
     11.518  0.8625E+00  0.1447E+02
     11.601  0.8654E+00  0.1455E+02
     11.685  0.8845E+00  0.1462E+02
     11.769  0.9612E+00  0.1469E+02
     11.852  0.1091E+01  0.1478E+02
     11.936  0.1220E+01  0.1488E+02
     12.019  0.1323E+01  0.1498E+02
     12.103  0.1009E+01  0.1508E+02
     12.187  0.1038E+01  0.1517E+02
     12.270  0.9240E+00  0.1525E+02
     12.354  0.8316E+00  0.1532E+02
     12.437  0.7452E+00  0.1539E+02
     12.521  0.7466E+00  0.1545E+02
     12.605  0.6711E+00  0.1551E+02
     12.688  0.4240E+00  0.1556E+02
     12.772  0.3962E+00  0.1559E+02
     12.855  0.3729E+00  0.1562E+02
     12.939  0.3652E+00  0.1565E+02
     13.023  0.3634E+00  0.1568E+02
     13.106  0.3380E+00  0.1571E+02
     13.190  0.2988E+00  0.1574E+02
     13.273  0.2744E+00  0.1576E+02
     13.357  0.2567E+00  0.1579E+02
     13.441  0.2417E+00  0.1581E+02
     13.524  0.2311E+00  0.1583E+02
     13.608  0.2185E+00  0.1585E+02
     13.691  0.2052E+00  0.1586E+02
     13.775  0.1921E+00  0.1588E+02
     13.859  0.1841E+00  0.1590E+02
     13.942  0.1703E+00  0.1591E+02
     14.026  0.1594E+00  0.1592E+02
     14.109  0.1384E+00  0.1594E+02
     14.193  0.1199E+00  0.1595E+02
     14.276  0.1043E+00  0.1596E+02
     14.360  0.9139E-01  0.1597E+02
     14.444  0.8216E-01  0.1597E+02
     14.527  0.7917E-01  0.1598E+02
     14.611  0.8028E-01  0.1599E+02
     14.694  0.7101E-01  0.1599E+02
     14.778  0.3913E-01  0.1600E+02
     14.862  0.1523E-01  0.1600E+02
     14.945  0.1127E-02  0.1600E+02
     15.029  0.0000E+00  0.1600E+02
     15.112  0.0000E+00  0.1600E+02
     15.196  0.0000E+00  0.1600E+02
     15.280  0.0000E+00  0.1600E+02
     15.363  0.0000E+00  0.1600E+02
     15.447  0.0000E+00  0.1600E+02
     15.530  0.0000E+00  0.1600E+02
     15.614  0.0000E+00  0.1600E+02
     15.698  0.0000E+00  0.1600E+02
     15.781  0.0000E+00  0.1600E+02
     15.865  0.0000E+00  0.1600E+02
     15.948  0.0000E+00  0.1600E+02
     16.032  0.0000E+00  0.1600E+02
     16.116  0.0000E+00  0.1600E+02
