    2    2    1    1
  0.2167398E+02  0.3943010E-09  0.3943010E-09  0.3943010E-09  0.0000000E+00
  1.000000000000000E-004
  CAR 
 unknown system                          
      8    256      8
 
  0.0000000E+00  0.0000000E+00  0.0000000E+00  0.1250000E-03
    1       -7.823072   1.000000
    2        4.286966   1.000000
    3        4.286966   1.000000
    4        4.286966   1.000000
    5        6.737759   0.000000
    6        8.647762   0.000000
    7        8.647762   0.000000
    8        8.647762   0.000000
 
  0.5000000E-01  0.0000000E+00  0.0000000E+00  0.1000000E-02
    1       -7.796762   1.000000
    2        3.965427   1.000000
    3        4.257030   1.000000
    4        4.257030   1.000000
    5        6.970837   0.000000
    6        8.681587   0.000000
    7        8.702079   0.000000
    8        8.702079   0.000000
 
  0.1000000E+00  0.0000000E+00  0.0000000E+00  0.1000000E-02
    1       -7.718509   1.000000
    2        3.261316   1.000000
    3        4.174270   1.000000
    4        4.174271   1.000000
    5        7.311506   0.000000
    6        8.848444   0.000000
    7        8.848444   0.000000
    8        8.903565   0.000000
 
  0.1500000E+00  0.0000000E+00  0.0000000E+00  0.1000000E-02
    1       -7.590736   1.000000
    2        2.443441   1.000000
    3        4.055836   1.000000
    4        4.055836   1.000000
    5        7.387654   0.000000
    6        9.039123   0.000000
    7        9.039123   0.000000
    8        9.464778   0.000000
 
  0.2000000E+00  0.0000000E+00  0.0000000E+00  0.1000000E-02
    1       -7.417843   1.000000
    2        1.614628   1.000000
    3        3.921277   1.000000
    4        3.921277   1.000000
    5        7.274573   0.000000
    6        9.203547   0.000000
    7        9.203548   0.000000
    8       10.228513   0.000000
 
  0.2500000E+00  0.0000000E+00  0.0000000E+00  0.1000000E-02
    1       -7.207303   1.000000
    2        0.820612   1.000000
    3        3.787207   1.000000
    4        3.787207   1.000000
    5        7.106380   0.000000
    6        9.278203   0.000000
    7        9.278203   0.000000
    8       11.026129   0.000000
 
  0.3000000E+00  0.0000000E+00  0.0000000E+00  0.1000000E-02
    1       -6.971089   1.000000
    2        0.092004   1.000000
    3        3.665772   1.000000
    4        3.665772   1.000000
    5        6.940467   0.000000
    6        9.253362   0.000000
    7        9.253362   0.000000
    8       11.710952   0.000000
 
  0.3500000E+00  0.0000000E+00  0.0000000E+00  0.1000000E-02
    1       -6.728225   1.000000
    2       -0.541706   1.000000
    3        3.565089   1.000000
    4        3.565089   1.000000
    5        6.800049   0.000000
    6        9.171468   0.000000
    7        9.171468   0.000000
    8       12.085382   0.000000
 
  0.4000000E+00  0.0000000E+00  0.0000000E+00  0.1000000E-02
    1       -6.507561   1.000000
    2       -1.045295   1.000000
    3        3.490286   1.000000
    4        3.490286   1.000000
    5        6.695414   0.000000
    6        9.081694   0.000000
    7        9.081694   0.000000
    8       12.157842   0.000000
 
  0.4500000E+00  0.0000000E+00  0.0000000E+00  0.1000000E-02
    1       -6.348031   1.000000
    2       -1.375959   1.000000
    3        3.444371   1.000000
    4        3.444372   1.000000
    5        6.631267   0.000000
    6        9.016776   0.000000
    7        9.016777   0.000000
    8       12.133864   0.000000
 
  0.5000000E+00  0.0000000E+00  0.0000000E+00  0.5000000E-03
    1       -6.288975   1.000000
    2       -1.492297   1.000000
    3        3.428904   1.000000
    4        3.428904   1.000000
    5        6.609698   0.000000
    6        8.993460   0.000000
    7        8.993460   0.000000
    8       12.117889   0.000000
 
  0.5000000E-01  0.5000000E-01  0.0000000E+00  0.7500000E-03
    1       -7.787975   1.000000
    2        3.975378   1.000000
    3        4.186670   1.000000
    4        4.186670   1.000000
    5        7.068227   0.000000
    6        8.519512   0.000000
    7        8.800195   0.000000
    8        8.800195   0.000000
 
  0.1000000E+00  0.5000000E-01  0.0000000E+00  0.3000000E-02
    1       -7.726993   1.000000
    2        3.436988   1.000000
    3        4.070530   1.000000
    4        4.139971   1.000000
    5        7.415372   0.000000
    6        8.460522   0.000000
    7        8.987300   0.000000
    8        9.020510   0.000000
 
  0.1500000E+00  0.5000000E-01  0.0000000E+00  0.3000000E-02
    1       -7.615654   1.000000
    2        2.676874   1.000000
    3        3.929294   1.000000
    4        4.064515   1.000000
    5        7.587093   0.000000
    6        8.587685   0.000000
    7        9.216017   0.000000
    8        9.439105   0.000000
 
  0.2000000E+00  0.5000000E-01  0.0000000E+00  0.3000000E-02
    1       -7.457592   1.000000
    2        1.867721   1.000000
    3        3.782826   1.000000
    4        3.944984   1.000000
    5        7.511370   0.000000
    6        8.825179   0.000000
    7        9.418236   0.000000
    8       10.020384   0.000000
 
  0.2500000E+00  0.5000000E-01  0.0000000E+00  0.3000000E-02
    1       -7.259185   1.000000
    2        1.073004   1.000000
    3        3.646635   1.000000
    4        3.801867   1.000000
    5        7.351138   0.000000
    6        8.999998   0.000000
    7        9.525551   0.000000
    8       10.629241   0.000000
 
  0.3000000E+00  0.5000000E-01  0.0000000E+00  0.3000000E-02
    1       -7.030648   1.000000
    2        0.329417   1.000000
    3        3.531461   1.000000
    4        3.654066   1.000000
    5        7.183614   0.000000
    6        9.049385   0.000000
    7        9.514294   0.000000
    8       11.208449   0.000000
 
  0.3500000E+00  0.5000000E-01  0.0000000E+00  0.3000000E-02
    1       -6.788362   1.000000
    2       -0.332410   1.000000
    3        3.444104   1.000000
    4        3.515551   1.000000
    5        7.036794   0.000000
    6        9.009389   0.000000
    7        9.420163   0.000000
    8       11.747562   0.000000
 
  0.4000000E+00  0.5000000E-01  0.0000000E+00  0.3000000E-02
    1       -6.557547   1.000000
    2       -0.878733   1.000000
    3        3.388421   1.000000
    4        3.395931   1.000000
    5        6.922661   0.000000
    6        8.944937   0.000000
    7        9.297012   0.000000
    8       12.118417   0.000000
 
  0.4500000E+00  0.5000000E-01  0.0000000E+00  0.3000000E-02
    1       -6.374014   1.000000
    2       -1.268640   1.000000
    3        3.301715   1.000000
    4        3.366128   1.000000
    5        6.846839   0.000000
    6        8.900245   0.000000
    7        9.185027   0.000000
    8       12.245214   0.000000
 
  0.5000000E+00  0.5000000E-01  0.0000000E+00  0.3000000E-02
    1       -6.278593   1.000000
    2       -1.458348   1.000000
    3        3.237327   1.000000
    4        3.377357   1.000000
    5        6.811983   0.000000
    6        8.897138   0.000000
    7        9.107170   0.000000
    8       12.267471   0.000000
 
 -0.4500000E+00  0.5000000E-01  0.0000000E+00  0.3000000E-02
    1       -6.298457   1.000000
    2       -1.419456   1.000000
    3        3.205763   1.000000
    4        3.420956   1.000000
    5        6.819063   0.000000
    6        8.943030   0.000000
    7        9.073596   0.000000
    8       12.274201   0.000000
 
 -0.4000000E+00  0.5000000E-01  0.0000000E+00  0.3000000E-02
    1       -6.427571   1.000000
    2       -1.158291   1.000000
    3        3.208906   1.000000
    4        3.494616   1.000000
    5        6.867911   0.000000
    6        9.034951   0.000000
    7        9.084295   0.000000
    8       12.259497   0.000000
 
 -0.3500000E+00  0.5000000E-01  0.0000000E+00  0.3000000E-02
    1       -6.631450   1.000000
    2       -0.711127   1.000000
    3        3.247577   1.000000
    4        3.594787   1.000000
    5        6.957092   0.000000
    6        9.128352   0.000000
    7        9.158948   0.000000
    8       12.124693   0.000000
 
 -0.3000000E+00  0.5000000E-01  0.0000000E+00  0.3000000E-02
    1       -6.869571   1.000000
    2       -0.122255   1.000000
    3        3.321366   1.000000
    4        3.716323   1.000000
    5        7.083126   0.000000
    6        9.179985   0.000000
    7        9.284731   0.000000
    8       11.729537   0.000000
 
 -0.2500000E+00  0.5000000E-01  0.0000000E+00  0.3000000E-02
    1       -7.109551   1.000000
    2        0.569629   1.000000
    3        3.428298   1.000000
    4        3.851836   1.000000
    5        7.238364   0.000000
    6        9.195763   0.000000
    7        9.356192   0.000000
    8       11.131109   0.000000
 
 -0.2000000E+00  0.5000000E-01  0.0000000E+00  0.3000000E-02
    1       -7.329480   1.000000
    2        1.331794   1.000000
    3        3.564347   1.000000
    4        3.990773   1.000000
    5        7.405507   0.000000
    6        9.131189   0.000000
    7        9.292759   0.000000
    8       10.482860   0.000000
 
 -0.1500000E+00  0.5000000E-01  0.0000000E+00  0.3000000E-02
    1       -7.515302   1.000000
    2        2.131010   1.000000
    3        3.723040   1.000000
    4        4.118620   1.000000
    5        7.540741   0.000000
    6        8.987239   0.000000
    7        9.050134   0.000000
    8        9.878667   0.000000
 
 -0.1000000E+00  0.5000000E-01  0.0000000E+00  0.3000000E-02
    1       -7.658297   1.000000
    2        2.919292   1.000000
    3        3.896418   1.000000
    4        4.217123   1.000000
    5        7.528618   0.000000
    6        8.751665   0.000000
    7        8.824171   0.000000
    8        9.372493   0.000000
 
 -0.5000000E-01  0.5000000E-01  0.0000000E+00  0.1500000E-02
    1       -7.753105   1.000000
    2        3.595041   1.000000
    3        4.083415   1.000000
    4        4.267439   1.000000
    5        7.251880   0.000000
    6        8.640348   0.000000
    7        8.713811   0.000000
    8        8.977835   0.000000
 
  0.1000000E+00  0.1000000E+00  0.0000000E+00  0.7500000E-03
    1       -7.683504   1.000000
    2        3.311870   1.000000
    3        3.925652   1.000000
    4        3.925652   1.000000
    5        7.758270   0.000000
    6        8.190540   0.000000
    7        9.216310   0.000000
    8        9.216310   0.000000
 
  0.1500000E+00  0.1000000E+00  0.0000000E+00  0.3000000E-02
    1       -7.589297   1.000000
    2        2.763361   1.000000
    3        3.762824   1.000000
    4        3.821623   1.000000
    5        7.984469   0.000000
    6        8.143983   0.000000
    7        9.489540   0.000000
    8        9.555663   0.000000
 
  0.2000000E+00  0.1000000E+00  0.0000000E+00  0.3000000E-02
    1       -7.447406   1.000000
    2        2.044321   1.000000
    3        3.602173   1.000000
    4        3.713652   1.000000
    5        7.871728   0.000000
    6        8.414473   0.000000
    7        9.742377   0.000000
    8        9.928965   0.000000
 
  0.2500000E+00  0.1000000E+00  0.0000000E+00  0.3000000E-02
    1       -7.263248   1.000000
    2        1.292130   1.000000
    3        3.458648   1.000000
    4        3.562523   1.000000
    5        7.726734   0.000000
    6        8.687610   0.000000
    7        9.902225   0.000000
    8       10.143573   0.000000
 
  0.3000000E+00  0.1000000E+00  0.0000000E+00  0.3000000E-02
    1       -7.045598   1.000000
    2        0.563590   1.000000
    3        3.342349   1.000000
    4        3.386463   1.000000
    5        7.575502   0.000000
    6        8.862810   0.000000
    7        9.928149   0.000000
    8       10.380139   0.000000
 
  0.3500000E+00  0.1000000E+00  0.0000000E+00  0.3000000E-02
    1       -6.808553   1.000000
    2       -0.103593   1.000000
    3        3.207133   1.000000
    4        3.259556   1.000000
    5        7.437953   0.000000
    6        8.882813   0.000000
    7        9.843133   0.000000
    8       10.831657   0.000000
 
  0.4000000E+00  0.1000000E+00  0.0000000E+00  0.3000000E-02
    1       -6.573944   1.000000
    2       -0.674044   1.000000
    3        3.040711   1.000000
    4        3.213705   1.000000
    5        7.327997   0.000000
    6        8.828469   0.000000
    7        9.703526   0.000000
    8       11.438005   0.000000
 
  0.4500000E+00  0.1000000E+00  0.0000000E+00  0.3000000E-02
    1       -6.373753   1.000000
    2       -1.107775   1.000000
    3        2.898275   1.000000
    4        3.206086   1.000000
    5        7.253751   0.000000
    6        8.777581   0.000000
    7        9.557406   0.000000
    8       12.049268   0.000000
 
  0.5000000E+00  0.1000000E+00  0.0000000E+00  0.3000000E-02
    1       -6.247584   1.000000
    2       -1.360453   1.000000
    3        2.787422   1.000000
    4        3.236250   1.000000
    5        7.219130   0.000000
    6        8.765017   0.000000
    7        9.434295   0.000000
    8       12.459409   0.000000
 
 -0.4500000E+00  0.1000000E+00  0.0000000E+00  0.3000000E-02
    1       -6.228738   1.000000
    2       -1.396593   1.000000
    3        2.713552   1.000000
    4        3.302208   1.000000
    5        7.225230   0.000000
    6        8.803547   0.000000
    7        9.349180   0.000000
    8       12.592753   0.000000
 
 -0.4000000E+00  0.1000000E+00  0.0000000E+00  0.3000000E-02
    1       -6.322832   1.000000
    2       -1.210436   1.000000
    3        2.680654   1.000000
    4        3.400448   1.000000
    5        7.271291   0.000000
    6        8.894487   0.000000
    7        9.306297   0.000000
    8       12.516428   0.000000
 
 -0.3500000E+00  0.1000000E+00  0.0000000E+00  0.3000000E-02
    1       -6.503455   1.000000
    2       -0.830437   1.000000
    3        2.691786   1.000000
    4        3.525769   1.000000
    5        7.355232   0.000000
    6        9.028928   0.000000
    7        9.299342   0.000000
    8       12.188851   0.000000
 
 -0.3000000E+00  0.1000000E+00  0.0000000E+00  0.3000000E-02
    1       -6.730839   1.000000
    2       -0.301177   1.000000
    3        2.749444   1.000000
    4        3.670847   1.000000
    5        7.473371   0.000000
    6        9.181484   0.000000
    7        9.307920   0.000000
    8       11.634220   0.000000
 
 -0.2500000E+00  0.1000000E+00  0.0000000E+00  0.3000000E-02
    1       -6.969880   1.000000
    2        0.333264   1.000000
    3        2.856116   1.000000
    4        3.825577   1.000000
    5        7.618712   0.000000
    6        9.290832   0.000000
    7        9.293373   0.000000
    8       11.028112   0.000000
 
 -0.2000000E+00  0.1000000E+00  0.0000000E+00  0.3000000E-02
    1       -7.195633   1.000000
    2        1.031332   1.000000
    3        3.015550   1.000000
    4        3.976236   1.000000
    5        7.774961   0.000000
    6        9.211919   0.000000
    7        9.232543   0.000000
    8       10.544898   0.000000
 
 -0.1500000E+00  0.1000000E+00  0.0000000E+00  0.3000000E-02
    1       -7.391810   1.000000
    2        1.745030   1.000000
    3        3.235889   1.000000
    4        4.105037   1.000000
    5        7.893239   0.000000
    6        8.951986   0.000000
    7        9.063176   0.000000
    8       10.220385   0.000000
 
 -0.1000000E+00  0.1000000E+00  0.0000000E+00  0.1500000E-02
    1       -7.548152   1.000000
    2        2.403615   1.000000
    3        3.532688   1.000000
    4        4.191428   1.000000
    5        7.826387   0.000000
    6        8.723204   0.000000
    7        8.909656   0.000000
    8        9.854128   0.000000
 
  0.1500000E+00  0.1500000E+00  0.0000000E+00  0.7500000E-03
    1       -7.512440   1.000000
    2        2.556280   1.000000
    3        3.581677   1.000000
    4        3.581677   1.000000
    5        7.762727   0.000000
    6        8.403839   0.000000
    7        9.814779   0.000000
    8        9.814780   0.000000
 
  0.2000000E+00  0.1500000E+00  0.0000000E+00  0.3000000E-02
    1       -7.387557   1.000000
    2        2.048515   1.000000
    3        3.406657   1.000000
    4        3.428854   1.000000
    5        7.623012   0.000000
    6        8.550030   0.000000
    7       10.080208   0.000000
    8       10.131014   0.000000
 
  0.2500000E+00  0.1500000E+00  0.0000000E+00  0.3000000E-02
    1       -7.219244   1.000000
    2        1.409336   1.000000
    3        3.252759   1.000000
    4        3.262352   1.000000
    5        7.593081   0.000000
    6        8.658306   0.000000
    7       10.036015   0.000000
    8       10.363344   0.000000
 
  0.3000000E+00  0.1500000E+00  0.0000000E+00  0.3000000E-02
    1       -7.015116   1.000000
    2        0.743426   1.000000
    3        3.056687   1.000000
    4        3.130003   1.000000
    5        7.558830   0.000000
    6        8.881618   0.000000
    7        9.903891   0.000000
    8       10.452136   0.000000
 
  0.3500000E+00  0.1500000E+00  0.0000000E+00  0.3000000E-02
    1       -6.787367   1.000000
    2        0.106222   1.000000
    3        2.833181   1.000000
    4        3.044623   1.000000
    5        7.488164   0.000000
    6        9.113145   0.000000
    7        9.968547   0.000000
    8       10.400416   0.000000
 
  0.4000000E+00  0.1500000E+00  0.0000000E+00  0.3000000E-02
    1       -6.554893   1.000000
    2       -0.460352   1.000000
    3        2.615752   1.000000
    4        3.000098   1.000000
    5        7.415793   0.000000
    6        9.133365   0.000000
    7       10.263424   0.000000
    8       10.433397   0.000000
 
  0.4500000E+00  0.1500000E+00  0.0000000E+00  0.3000000E-02
    1       -6.345745   1.000000
    2       -0.914676   1.000000
    3        2.421584   1.000000
    4        2.997775   1.000000
    5        7.371801   0.000000
    6        9.063432   0.000000
    7       10.098087   0.000000
    8       11.131924   0.000000
 
  0.5000000E+00  0.1500000E+00  0.0000000E+00  0.3000000E-02
    1       -6.196544   1.000000
    2       -1.212148   1.000000
    3        2.262135   1.000000
    4        3.037205   1.000000
    5        7.370596   0.000000
    6        9.005203   0.000000
    7        9.941694   0.000000
    8       11.903020   0.000000
 
 -0.4500000E+00  0.1500000E+00  0.0000000E+00  0.3000000E-02
    1       -6.142986   1.000000
    2       -1.313028   1.000000
    3        2.145429   1.000000
    4        3.116281   1.000000
    5        7.416466   0.000000
    6        8.986471   0.000000
    7        9.814233   0.000000
    8       12.568459   0.000000
 
 -0.4000000E+00  0.1500000E+00  0.0000000E+00  0.3000000E-02
    1       -6.200290   1.000000
    2       -1.201381   1.000000
    3        2.077779   1.000000
    4        3.231110   1.000000
    5        7.507336   0.000000
    6        9.016136   0.000000
    7        9.723274   0.000000
    8       12.700153   0.000000
 
 -0.3500000E+00  0.1500000E+00  0.0000000E+00  0.3000000E-02
    1       -6.352076   1.000000
    2       -0.896489   1.000000
    3        2.065120   1.000000
    4        3.375688   1.000000
    5        7.636691   0.000000
    6        9.094623   0.000000
    7        9.665146   0.000000
    8       12.220085   0.000000
 
 -0.3000000E+00  0.1500000E+00  0.0000000E+00  0.3000000E-02
    1       -6.562336   1.000000
    2       -0.442149   1.000000
    3        2.114581   1.000000
    4        3.541306   1.000000
    5        7.794323   0.000000
    6        9.208949   0.000000
    7        9.621506   0.000000
    8       11.532975   0.000000
 
 -0.2500000E+00  0.1500000E+00  0.0000000E+00  0.3000000E-02
    1       -6.794783   1.000000
    2        0.109453   1.000000
    3        2.237041   1.000000
    4        3.715762   1.000000
    5        7.965030   0.000000
    6        9.308544   0.000000
    7        9.554273   0.000000
    8       10.872216   0.000000
 
 -0.2000000E+00  0.1500000E+00  0.0000000E+00  0.3000000E-02
    1       -7.021798   1.000000
    2        0.700822   1.000000
    3        2.451166   1.000000
    4        3.882410   1.000000
    5        8.117471   0.000000
    6        9.251688   0.000000
    7        9.421034   0.000000
    8       10.442208   0.000000
 
 -0.1500000E+00  0.1500000E+00  0.0000000E+00  0.1500000E-02
    1       -7.224803   1.000000
    2        1.265286   1.000000
    3        2.783178   1.000000
    4        4.020002   1.000000
    5        8.149424   0.000000
    6        9.011943   0.000000
    7        9.232266   0.000000
    8       10.327803   0.000000
 
  0.2000000E+00  0.2000000E+00  0.0000000E+00  0.7500000E-03
    1       -7.279981   1.000000
    2        1.792745   1.000000
    3        3.218275   1.000000
    4        3.218275   1.000000
    5        7.310892   0.000000
    6        8.554613   0.000000
    7       10.527068   0.000000
    8       10.527070   0.000000
 
  0.2500000E+00  0.2000000E+00  0.0000000E+00  0.3000000E-02
    1       -7.128610   1.000000
    2        1.334483   1.000000
    3        3.034778   1.000000
    4        3.052644   1.000000
    5        7.182033   0.000000
    6        8.445995   0.000000
    7       10.621002   0.000000
    8       10.855783   0.000000
 
  0.3000000E+00  0.2000000E+00  0.0000000E+00  0.3000000E-02
    1       -6.940152   1.000000
    2        0.788862   1.000000
    3        2.805367   1.000000
    4        2.920153   1.000000
    5        7.182157   0.000000
    6        8.449165   0.000000
    7       10.466015   0.000000
    8       11.039257   0.000000
 
  0.3500000E+00  0.2000000E+00  0.0000000E+00  0.3000000E-02
    1       -6.725257   1.000000
    2        0.230500   1.000000
    3        2.534345   1.000000
    4        2.827333   1.000000
    5        7.185215   0.000000
    6        8.695772   0.000000
    7       10.296251   0.000000
    8       11.051369   0.000000
 
  0.4000000E+00  0.2000000E+00  0.0000000E+00  0.3000000E-02
    1       -6.500408   1.000000
    2       -0.290577   1.000000
    3        2.255464   1.000000
    4        2.777930   1.000000
    5        7.156476   0.000000
    6        9.156943   0.000000
    7       10.181498   0.000000
    8       10.939414   0.000000
 
  0.4500000E+00  0.2000000E+00  0.0000000E+00  0.3000000E-02
    1       -6.290069   1.000000
    2       -0.729982   1.000000
    3        1.997264   1.000000
    4        2.773550   1.000000
    5        7.136993   0.000000
    6        9.580005   0.000000
    7       10.310342   0.000000
    8       10.770572   0.000000
 
  0.5000000E+00  0.2000000E+00  0.0000000E+00  0.3000000E-02
    1       -6.127004   1.000000
    2       -1.042642   1.000000
    3        1.778246   1.000000
    4        2.814030   1.000000
    5        7.157926   0.000000
    6        9.654428   0.000000
    7       10.592687   0.000000
    8       10.935887   0.000000
 
 -0.4500000E+00  0.2000000E+00  0.0000000E+00  0.3000000E-02
    1       -6.046118   1.000000
    2       -1.186968   1.000000
    3        1.610520   1.000000
    4        2.897495   1.000000
    5        7.231798   0.000000
    6        9.623473   0.000000
    7       10.431828   0.000000
    8       11.759237   0.000000
 
 -0.4000000E+00  0.2000000E+00  0.0000000E+00  0.3000000E-02
    1       -6.068660   1.000000
    2       -1.140354   1.000000
    3        1.503689   1.000000
    4        3.020201   1.000000
    5        7.360572   0.000000
    6        9.604551   0.000000
    7       10.298249   0.000000
    8       12.462066   0.000000
 
 -0.3500000E+00  0.2000000E+00  0.0000000E+00  0.3000000E-02
    1       -6.188117   1.000000
    2       -0.914240   1.000000
    3        1.468249   1.000000
    4        3.176097   1.000000
    5        7.539184   0.000000
    6        9.617942   0.000000
    7       10.188151   0.000000
    8       12.197338   0.000000
 
 -0.3000000E+00  0.2000000E+00  0.0000000E+00  0.3000000E-02
    1       -6.375063   1.000000
    2       -0.552315   1.000000
    3        1.519524   1.000000
    4        3.356104   1.000000
    5        7.754970   0.000000
    6        9.660677   0.000000
    7       10.079066   0.000000
    8       11.453664   0.000000
 
 -0.2500000E+00  0.2000000E+00  0.0000000E+00  0.3000000E-02
    1       -6.594333   1.000000
    2       -0.118170   1.000000
    3        1.682401   1.000000
    4        3.547021   1.000000
    5        7.981778   0.000000
    6        9.687713   0.000000
    7        9.925060   0.000000
    8       10.757584   0.000000
 
 -0.2000000E+00  0.2000000E+00  0.0000000E+00  0.1500000E-02
    1       -6.816809   1.000000
    2        0.316775   1.000000
    3        1.989362   1.000000
    4        3.730440   1.000000
    5        8.156876   0.000000
    6        9.520898   0.000000
    7        9.690438   0.000000
    8       10.401872   0.000000
 
  0.2500000E+00  0.2500000E+00  0.0000000E+00  0.7500000E-03
    1       -6.994758   1.000000
    2        1.051260   1.000000
    3        2.875059   1.000000
    4        2.875059   1.000000
    5        6.876129   0.000000
    6        8.149986   0.000000
    7       11.308633   0.000000
    8       11.308680   0.000000
 
  0.3000000E+00  0.2500000E+00  0.0000000E+00  0.3000000E-02
    1       -6.823633   1.000000
    2        0.643823   1.000000
    3        2.676851   1.000000
    4        2.731120   1.000000
    5        6.766405   0.000000
    6        7.958716   0.000000
    7       11.383007   0.000000
    8       11.629573   0.000000
 
  0.3500000E+00  0.2500000E+00  0.0000000E+00  0.3000000E-02
    1       -6.624741   1.000000
    2        0.195235   1.000000
    3        2.393501   1.000000
    4        2.627903   1.000000
    5        6.783938   0.000000
    6        7.986856   0.000000
    7       11.243417   0.000000
    8       11.750906   0.000000
 
  0.4000000E+00  0.2500000E+00  0.0000000E+00  0.3000000E-02
    1       -6.412697   1.000000
    2       -0.240640   1.000000
    3        2.059194   1.000000
    4        2.569567   1.000000
    5        6.802957   0.000000
    6        8.311951   0.000000
    7       11.085100   0.000000
    8       11.695933   0.000000
 
  0.4500000E+00  0.2500000E+00  0.0000000E+00  0.3000000E-02
    1       -6.208916   1.000000
    2       -0.621764   1.000000
    3        1.724933   1.000000
    4        2.558107   1.000000
    5        6.808949   0.000000
    6        8.880111   0.000000
    7       10.949767   0.000000
    8       11.542664   0.000000
 
  0.5000000E+00  0.2500000E+00  0.0000000E+00  0.3000000E-02
    1       -6.042160   1.000000
    2       -0.907294   1.000000
    3        1.427787   1.000000
    4        2.593721   1.000000
    5        6.842468   0.000000
    6        9.571427   0.000000
    7       10.883069   0.000000
    8       11.354945   0.000000
 
 -0.4500000E+00  0.2500000E+00  0.0000000E+00  0.3000000E-02
    1       -5.944356   1.000000
    2       -1.059000   1.000000
    3        1.191168   1.000000
    4        2.674925   1.000000
    5        6.926464   0.000000
    6       10.159456   0.000000
    7       11.057002   0.000000
    8       11.167620   0.000000
 
 -0.4000000E+00  0.2500000E+00  0.0000000E+00  0.3000000E-02
    1       -5.938596   1.000000
    2       -1.054168   1.000000
    3        1.032621   1.000000
    4        2.798373   1.000000
    5        7.067873   0.000000
    6       10.347403   0.000000
    7       10.992850   0.000000
    8       11.701010   0.000000
 
 -0.3500000E+00  0.2500000E+00  0.0000000E+00  0.3000000E-02
    1       -6.025870   1.000000
    2       -0.902482   1.000000
    3        0.971897   1.000000
    4        2.958401   1.000000
    5        7.264655   0.000000
    6       10.372916   0.000000
    7       10.821316   0.000000
    8       12.081379   0.000000
 
 -0.3000000E+00  0.2500000E+00  0.0000000E+00  0.3000000E-02
    1       -6.184619   1.000000
    2       -0.651718   1.000000
    3        1.038512   1.000000
    4        3.146226   1.000000
    5        7.506535   0.000000
    6       10.369071   0.000000
    7       10.614029   0.000000
    8       11.424492   0.000000
 
 -0.2500000E+00  0.2500000E+00  0.0000000E+00  0.1500000E-02
    1       -6.383693   1.000000
    2       -0.372682   1.000000
    3        1.270137   1.000000
    4        3.348731   1.000000
    5        7.768269   0.000000
    6       10.212444   0.000000
    7       10.312130   0.000000
    8       10.833412   0.000000
 
  0.3000000E+00  0.3000000E+00  0.0000000E+00  0.7500000E-03
    1       -6.670959   1.000000
    2        0.351329   1.000000
    3        2.575100   1.000000
    4        2.575100   1.000000
    5        6.480225   0.000000
    6        7.615899   0.000000
    7       12.131917   0.000000
    8       12.131940   0.000000
 
  0.3500000E+00  0.3000000E+00  0.0000000E+00  0.3000000E-02
    1       -6.490856   1.000000
    2       -0.001679   1.000000
    3        2.375274   1.000000
    4        2.459877   1.000000
    5        6.395685   0.000000
    6        7.463476   0.000000
    7       12.238433   0.000000
    8       12.432247   0.000000
 
  0.4000000E+00  0.3000000E+00  0.0000000E+00  0.3000000E-02
    1       -6.296581   1.000000
    2       -0.351357   1.000000
    3        2.055039   1.000000
    4        2.390157   1.000000
    5        6.433810   0.000000
    6        7.576670   0.000000
    7       12.117480   0.000000
    8       12.490378   0.000000
 
  0.4500000E+00  0.3000000E+00  0.0000000E+00  0.3000000E-02
    1       -6.107181   1.000000
    2       -0.655357   1.000000
    3        1.673586   1.000000
    4        2.368384   1.000000
    5        6.479101   0.000000
    6        7.997693   0.000000
    7       11.966145   0.000000
    8       12.382733   0.000000
 
  0.5000000E+00  0.3000000E+00  0.0000000E+00  0.3000000E-02
    1       -5.947738   1.000000
    2       -0.879959   1.000000
    3        1.297704   1.000000
    4        2.395180   1.000000
    5        6.531385   0.000000
    6        8.650571   0.000000
    7       11.827463   0.000000
    8       12.199323   0.000000
 