 running on   48 total cores
 distrk:  each k-point on   12 cores,    4 groups
 distr:  one band on   12 cores,    1 groups
 using from now: INCAR     
 vasp.5.4.4.18Apr17-6-g9f103f2a35 (build Nov 04 2020 14:40:39) complex          
  
 POSCAR found type information on POSCAR  Al As
 POSCAR found :  2 types and       2 ions
 scaLAPACK will be used

 ----------------------------------------------------------------------------- 
|                                                                             |
|           W    W    AA    RRRRR   N    N  II  N    N   GGGG   !!!           |
|           W    W   A  A   R    R  NN   N  II  NN   N  G    G  !!!           |
|           W    W  A    A  R    R  N N  N  II  N N  N  G       !!!           |
|           W WW W  AAAAAA  RRRRR   N  N N  II  N  N N  G  GGG   !            |
|           WW  WW  A    A  R   R   N   NN  II  N   NN  G    G                |
|           W    W  A    A  R    R  N    N  II  N    N   GGGG   !!!           |
|                                                                             |
|      You have enabled k-point parallelism (KPAR>1).                         |
|      This developmental code was originally  written by Paul Kent at ORNL,  |
|      and carefully double checked in Vienna.                                |
|      GW as well as linear response parallelism added by Martijn Marsman     |
|      and Georg Kresse.                                                      |
|      Carefully verify results versus KPAR=1.                                |
|      Report problems to Paul Kent and Vienna.                               |
|                                                                             |
 ----------------------------------------------------------------------------- 

 LDA part: xc-table for Pade appr. of Perdew
 POSCAR found type information on POSCAR  Al As
 POSCAR found :  2 types and       2 ions
 generate k-points for:   20   20   20
 POSCAR, INCAR and KPOINTS ok, starting setup
 FFT: planning ...
 WAVECAR not read
 entering main loop
       N       E                     dE             d eps       ncg     rms          rms(c)
DAV:   1     0.145032782642E+02    0.14503E+02   -0.31167E+03  4120   0.750E+02
DAV:   2    -0.897825197894E+01   -0.23482E+02   -0.22971E+02  5440   0.906E+01
DAV:   3    -0.953407309075E+01   -0.55582E+00   -0.55582E+00  5232   0.187E+01
DAV:   4    -0.953628561966E+01   -0.22125E-02   -0.22125E-02  6456   0.129E+00
DAV:   5    -0.953629022262E+01   -0.46030E-05   -0.46030E-05  5384   0.505E-02    0.280E+00
RMM:   6    -0.933731826727E+01    0.19897E+00   -0.21128E-01  4119   0.248E+00    0.154E+00
RMM:   7    -0.929871682889E+01    0.38601E-01   -0.13578E-01  4302   0.210E+00    0.435E-01
RMM:   8    -0.929891287653E+01   -0.19605E-03   -0.57272E-03  4458   0.605E-01    0.507E-02
RMM:   9    -0.929914716889E+01   -0.23429E-03   -0.25294E-04  4816   0.131E-01    0.189E-02
RMM:  10    -0.929916760091E+01   -0.20432E-04   -0.38511E-05  4790   0.474E-02    0.419E-03
RMM:  11    -0.929916951479E+01   -0.19139E-05   -0.50056E-06  4657   0.185E-02    0.151E-03
RMM:  12    -0.929916931135E+01    0.20344E-06   -0.37155E-07  3636   0.421E-03
   1 F= -.92991693E+01 E0= -.92991693E+01  d E =0.000000E+00
