   3   3   0   0
  0.1883517E+02  0.4307268E-09  0.4307268E-09  0.4307268E-09  0.5000000E-15
  1.000000000000000E-004
  CAR
 unknown system
     15.59450997    -23.08235456  301     10.79116600      1.00000000
    -23.082  0.0000E+00  0.0000E+00
    -22.953  0.0000E+00  0.0000E+00
    -22.825  0.0000E+00  0.0000E+00
    -22.696  0.0000E+00  0.0000E+00
    -22.567  0.0000E+00  0.0000E+00
    -22.438  0.0000E+00  0.0000E+00
    -22.309  0.0000E+00  0.0000E+00
    -22.180  0.0000E+00  0.0000E+00
    -22.051  0.0000E+00  0.0000E+00
    -21.922  0.0000E+00  0.0000E+00
    -21.793  0.0000E+00  0.0000E+00
    -21.664  0.0000E+00  0.0000E+00
    -21.535  0.0000E+00  0.0000E+00
    -21.406  0.0000E+00  0.0000E+00
    -21.277  0.4476E+02  0.5771E+01
    -21.149  0.0000E+00  0.6000E+01
    -21.020  0.0000E+00  0.6000E+01
    -20.891  0.0000E+00  0.6000E+01
    -20.762  0.0000E+00  0.6000E+01
    -20.633  0.0000E+00  0.6000E+01
    -20.504  0.0000E+00  0.6000E+01
    -20.375  0.0000E+00  0.6000E+01
    -20.246  0.0000E+00  0.6000E+01
    -20.117  0.0000E+00  0.6000E+01
    -19.988  0.0000E+00  0.6000E+01
    -19.859  0.0000E+00  0.6000E+01
    -19.730  0.0000E+00  0.6000E+01
    -19.601  0.0000E+00  0.6000E+01
    -19.473  0.0000E+00  0.6000E+01
    -19.344  0.0000E+00  0.6000E+01
    -19.215  0.0000E+00  0.6000E+01
    -19.086  0.0000E+00  0.6000E+01
    -18.957  0.0000E+00  0.6000E+01
    -18.828  0.0000E+00  0.6000E+01
    -18.699  0.0000E+00  0.6000E+01
    -18.570  0.0000E+00  0.6000E+01
    -18.441  0.0000E+00  0.6000E+01
    -18.312  0.0000E+00  0.6000E+01
    -18.183  0.0000E+00  0.6000E+01
    -18.054  0.0000E+00  0.6000E+01
    -17.925  0.0000E+00  0.6000E+01
    -17.797  0.0000E+00  0.6000E+01
    -17.668  0.0000E+00  0.6000E+01
    -17.539  0.0000E+00  0.6000E+01
    -17.410  0.0000E+00  0.6000E+01
    -17.281  0.0000E+00  0.6000E+01
    -17.152  0.0000E+00  0.6000E+01
    -17.023  0.0000E+00  0.6000E+01
    -16.894  0.0000E+00  0.6000E+01
    -16.765  0.0000E+00  0.6000E+01
    -16.636  0.0000E+00  0.6000E+01
    -16.507  0.0000E+00  0.6000E+01
    -16.378  0.0000E+00  0.6000E+01
    -16.249  0.0000E+00  0.6000E+01
    -16.121  0.0000E+00  0.6000E+01
    -15.992  0.0000E+00  0.6000E+01
    -15.863  0.0000E+00  0.6000E+01
    -15.734  0.0000E+00  0.6000E+01
    -15.605  0.0000E+00  0.6000E+01
    -15.476  0.0000E+00  0.6000E+01
    -15.347  0.0000E+00  0.6000E+01
    -15.218  0.0000E+00  0.6000E+01
    -15.089  0.0000E+00  0.6000E+01
    -14.960  0.0000E+00  0.6000E+01
    -14.831  0.0000E+00  0.6000E+01
    -14.702  0.0000E+00  0.6000E+01
    -14.573  0.0000E+00  0.6000E+01
    -14.445  0.0000E+00  0.6000E+01
    -14.316  0.0000E+00  0.6000E+01
    -14.187  0.0000E+00  0.6000E+01
    -14.058  0.0000E+00  0.6000E+01
    -13.929  0.0000E+00  0.6000E+01
    -13.800  0.0000E+00  0.6000E+01
    -13.671  0.0000E+00  0.6000E+01
    -13.542  0.0000E+00  0.6000E+01
    -13.413  0.0000E+00  0.6000E+01
    -13.284  0.0000E+00  0.6000E+01
    -13.155  0.0000E+00  0.6000E+01
    -13.026  0.0000E+00  0.6000E+01
    -12.897  0.0000E+00  0.6000E+01
    -12.769  0.0000E+00  0.6000E+01
    -12.640  0.0000E+00  0.6000E+01
    -12.511  0.0000E+00  0.6000E+01
    -12.382  0.0000E+00  0.6000E+01
    -12.253  0.0000E+00  0.6000E+01
    -12.124  0.0000E+00  0.6000E+01
    -11.995  0.0000E+00  0.6000E+01
    -11.866  0.0000E+00  0.6000E+01
    -11.737  0.0000E+00  0.6000E+01
    -11.608  0.0000E+00  0.6000E+01
    -11.479  0.0000E+00  0.6000E+01
    -11.350  0.0000E+00  0.6000E+01
    -11.221  0.0000E+00  0.6000E+01
    -11.093  0.0000E+00  0.6000E+01
    -10.964  0.0000E+00  0.6000E+01
    -10.835  0.0000E+00  0.6000E+01
    -10.706  0.0000E+00  0.6000E+01
    -10.577  0.0000E+00  0.6000E+01
    -10.448  0.0000E+00  0.6000E+01
    -10.319  0.0000E+00  0.6000E+01
    -10.190  0.0000E+00  0.6000E+01
    -10.061  0.0000E+00  0.6000E+01
     -9.932  0.0000E+00  0.6000E+01
     -9.803  0.0000E+00  0.6000E+01
     -9.674  0.0000E+00  0.6000E+01
     -9.545  0.0000E+00  0.6000E+01
     -9.417  0.0000E+00  0.6000E+01
     -9.288  0.0000E+00  0.6000E+01
     -9.159  0.0000E+00  0.6000E+01
     -9.030  0.0000E+00  0.6000E+01
     -8.901  0.0000E+00  0.6000E+01
     -8.772  0.0000E+00  0.6000E+01
     -8.643  0.0000E+00  0.6000E+01
     -8.514  0.0000E+00  0.6000E+01
     -8.385  0.0000E+00  0.6000E+01
     -8.256  0.0000E+00  0.6000E+01
     -8.127  0.0000E+00  0.6000E+01
     -7.998  0.0000E+00  0.6000E+01
     -7.869  0.0000E+00  0.6000E+01
     -7.741  0.0000E+00  0.6000E+01
     -7.612  0.0000E+00  0.6000E+01
     -7.483  0.0000E+00  0.6000E+01
     -7.354  0.0000E+00  0.6000E+01
     -7.225  0.0000E+00  0.6000E+01
     -7.096  0.0000E+00  0.6000E+01
     -6.967  0.0000E+00  0.6000E+01
     -6.838  0.0000E+00  0.6000E+01
     -6.709  0.0000E+00  0.6000E+01
     -6.580  0.0000E+00  0.6000E+01
     -6.451  0.0000E+00  0.6000E+01
     -6.322  0.0000E+00  0.6000E+01
     -6.193  0.0000E+00  0.6000E+01
     -6.065  0.0000E+00  0.6000E+01
     -5.936  0.0000E+00  0.6000E+01
     -5.807  0.0000E+00  0.6000E+01
     -5.678  0.0000E+00  0.6000E+01
     -5.549  0.0000E+00  0.6000E+01
     -5.420  0.0000E+00  0.6000E+01
     -5.291  0.0000E+00  0.6000E+01
     -5.162  0.0000E+00  0.6000E+01
     -5.033  0.0000E+00  0.6000E+01
     -4.904  0.0000E+00  0.6000E+01
     -4.775  0.0000E+00  0.6000E+01
     -4.646  0.0000E+00  0.6000E+01
     -4.517  0.0000E+00  0.6000E+01
     -4.389  0.0000E+00  0.6000E+01
     -4.260  0.0000E+00  0.6000E+01
     -4.131  0.0000E+00  0.6000E+01
     -4.002  0.0000E+00  0.6000E+01
     -3.873  0.0000E+00  0.6000E+01
     -3.744  0.0000E+00  0.6000E+01
     -3.615  0.0000E+00  0.6000E+01
     -3.486  0.0000E+00  0.6000E+01
     -3.357  0.0000E+00  0.6000E+01
     -3.228  0.2777E-14  0.6000E+01
     -3.099  0.3577E-01  0.6005E+01
     -2.970  0.5182E-01  0.6020E+01
     -2.841  0.2260E+00  0.6054E+01
     -2.713  0.7689E-01  0.6064E+01
     -2.584  0.1539E+00  0.6123E+01
     -2.455  0.2260E+00  0.6154E+01
     -2.326  0.5370E+00  0.6234E+01
     -2.197  0.3018E+00  0.6275E+01
     -2.068  0.2333E+00  0.6331E+01
     -1.939  0.5838E+00  0.6449E+01
     -1.810  0.3061E+00  0.6528E+01
     -1.681  0.7040E+00  0.6667E+01
     -1.552  0.1126E+01  0.6849E+01
     -1.423  0.1798E+01  0.7138E+01
     -1.294  0.3771E+01  0.7864E+01
     -1.165  0.0000E+00  0.8000E+01
     -1.037  0.0000E+00  0.8000E+01
     -0.908  0.0000E+00  0.8000E+01
     -0.779  0.0000E+00  0.8000E+01
     -0.650  0.0000E+00  0.8000E+01
     -0.521  0.0000E+00  0.8000E+01
     -0.392  0.0000E+00  0.8000E+01
     -0.263  0.0000E+00  0.8000E+01
     -0.134  0.0000E+00  0.8000E+01
     -0.005  0.0000E+00  0.8000E+01
      0.124  0.0000E+00  0.8000E+01
      0.253  0.0000E+00  0.8000E+01
      0.382  0.0000E+00  0.8000E+01
      0.511  0.0000E+00  0.8000E+01
      0.639  0.0000E+00  0.8000E+01
      0.768  0.0000E+00  0.8000E+01
      0.897  0.0000E+00  0.8000E+01
      1.026  0.0000E+00  0.8000E+01
      1.155  0.0000E+00  0.8000E+01
      1.284  0.0000E+00  0.8000E+01
      1.413  0.0000E+00  0.8000E+01
      1.542  0.0000E+00  0.8000E+01
      1.671  0.0000E+00  0.8000E+01
      1.800  0.0000E+00  0.8000E+01
      1.929  0.0000E+00  0.8000E+01
      2.058  0.0000E+00  0.8000E+01
      2.187  0.1256E-01  0.8002E+01
      2.315  0.6446E+00  0.8112E+01
      2.444  0.2141E+01  0.8485E+01
      2.573  0.2281E+01  0.8997E+01
      2.702  0.1775E+01  0.9298E+01
      2.831  0.1011E+01  0.9565E+01
      2.960  0.2593E+00  0.9748E+01
      3.089  0.6938E+00  0.9903E+01
      3.218  0.5380E-02  0.9918E+01
      3.347  0.6830E+00  0.1006E+02
      3.476  0.2790E+01  0.1056E+02
      3.605  0.2304E+01  0.1132E+02
      3.734  0.1283E+01  0.1183E+02
      3.863  0.2692E+01  0.1247E+02
      3.991  0.3376E+01  0.1311E+02
      4.120  0.1440E+01  0.1344E+02
      4.249  0.1155E+01  0.1376E+02
      4.378  0.8764E+00  0.1399E+02
      4.507  0.1604E-11  0.1401E+02
      4.636  0.7503E+00  0.1411E+02
      4.765  0.2431E+01  0.1455E+02
      4.894  0.6195E+01  0.1557E+02
      5.023  0.3495E+01  0.1658E+02
      5.152  0.4907E+01  0.1757E+02
      5.281  0.2277E+01  0.1810E+02
      5.410  0.2691E+01  0.1855E+02
      5.539  0.1703E+01  0.1889E+02
      5.667  0.1068E+01  0.1917E+02
      5.796  0.3398E+00  0.1937E+02
      5.925  0.5087E+00  0.1957E+02
      6.054  0.5157E+00  0.1967E+02
      6.183  0.4855E+00  0.1984E+02
      6.312  0.5482E+00  0.1996E+02
      6.441  0.6375E+00  0.2010E+02
      6.570  0.1187E+01  0.2030E+02
      6.699  0.6921E+00  0.2048E+02
      6.828  0.5931E+00  0.2060E+02
      6.957  0.1058E+01  0.2076E+02
      7.086  0.9231E+00  0.2099E+02
      7.215  0.7555E+00  0.2113E+02
      7.343  0.8142E+00  0.2137E+02
      7.472  0.1435E+01  0.2166E+02
      7.601  0.4486E+01  0.2234E+02
      7.730  0.8885E+00  0.2261E+02
      7.859  0.1948E+01  0.2302E+02
      7.988  0.1937E+01  0.2334E+02
      8.117  0.1213E+01  0.2363E+02
      8.246  0.6625E+00  0.2375E+02
      8.375  0.4987E+00  0.2387E+02
      8.504  0.1856E+00  0.2393E+02
      8.633  0.7180E-09  0.2397E+02
      8.762  0.1059E+00  0.2400E+02
      8.891  0.0000E+00  0.2400E+02
      9.019  0.0000E+00  0.2400E+02
      9.148  0.0000E+00  0.2400E+02
      9.277  0.0000E+00  0.2400E+02
      9.406  0.0000E+00  0.2400E+02
      9.535  0.0000E+00  0.2400E+02
      9.664  0.0000E+00  0.2400E+02
      9.793  0.0000E+00  0.2400E+02
      9.922  0.1170E-08  0.2400E+02
     10.051  0.2518E+00  0.2404E+02
     10.180  0.4164E+00  0.2412E+02
     10.309  0.6256E+00  0.2424E+02
     10.438  0.8042E+00  0.2437E+02
     10.567  0.7478E+00  0.2454E+02
     10.695  0.1193E+01  0.2474E+02
     10.824  0.1582E+01  0.2508E+02
     10.953  0.2184E+01  0.2544E+02
     11.082  0.2747E+01  0.2605E+02
     11.211  0.8888E+00  0.2627E+02
     11.340  0.2246E+01  0.2663E+02
     11.469  0.1692E+01  0.2698E+02
     11.598  0.3356E+01  0.2779E+02
     11.727  0.1440E+01  0.2823E+02
     11.856  0.1978E+01  0.2858E+02
     11.985  0.1980E+01  0.2901E+02
     12.114  0.1122E+01  0.2949E+02
     12.243  0.1259E+01  0.2972E+02
     12.371  0.1218E+01  0.2995E+02
     12.500  0.1762E+01  0.3030E+02
     12.629  0.5085E+00  0.3042E+02
     12.758  0.1484E+01  0.3067E+02
     12.887  0.2479E+01  0.3113E+02
     13.016  0.1630E+01  0.3148E+02
     13.145  0.1485E+01  0.3177E+02
     13.274  0.6788E+00  0.3187E+02
     13.403  0.7767E+00  0.3197E+02
     13.532  0.0000E+00  0.3199E+02
     13.661  0.0000E+00  0.3199E+02
     13.790  0.9482E-12  0.3199E+02
     13.919  0.0000E+00  0.3200E+02
     14.047  0.0000E+00  0.3200E+02
     14.176  0.0000E+00  0.3200E+02
     14.305  0.0000E+00  0.3200E+02
     14.434  0.0000E+00  0.3200E+02
     14.563  0.0000E+00  0.3200E+02
     14.692  0.0000E+00  0.3200E+02
     14.821  0.0000E+00  0.3200E+02
     14.950  0.0000E+00  0.3200E+02
     15.079  0.0000E+00  0.3200E+02
     15.208  0.0000E+00  0.3200E+02
     15.337  0.0000E+00  0.3200E+02
     15.466  0.0000E+00  0.3200E+02
     15.595  0.0000E+00  0.3200E+02
