    3    3    1    1
  0.1883517E+02  0.4307268E-09  0.4307268E-09  0.4307268E-09  0.5000000E-15
  1.000000000000000E-004
  CAR
 unknown system
     25     84     16

  0.0000000E+00  0.0000000E+00  0.0000000E+00  0.4551661E-03
    1      -21.288322   1.000000
    2      -21.288322   1.000000
    3      -21.288322   1.000000
    4       -3.177577   1.000000
    5        3.823237   1.000000
    6        3.823237   1.000000
    7        3.823237   1.000000
    8        4.619236   1.000000
    9        4.619236   1.000000
   10        8.738096   1.000000
   11        8.738096   1.000000
   12        8.738096   1.000000
   13       10.608605   1.000000
   14       11.772285   0.000000
   15       11.772285   0.000000
   16       11.772285   0.000000

  0.7692308E-01  0.1115792E-17 -0.1987671E-17  0.3641329E-02
    1      -21.290378   1.000000
    2      -21.288128   1.000000
    3      -21.288128   1.000000
    4       -3.099450   1.000000
    5        3.748825   1.000000
    6        3.775034   1.000000
    7        3.775034   1.000000
    8        4.681646   1.000000
    9        4.681646   1.000000
   10        8.240274   1.000000
   11        8.672908   1.000000
   12        8.672908   1.000000
   13       10.635505   1.000000
   14       11.590460   0.000000
   15       11.590460   0.000000
   16       12.310932   0.000000

  0.1538462E+00  0.4470298E-17 -0.6214056E-17  0.3641329E-02
    1      -21.296021   1.000000
    2      -21.287578   1.000000
    3      -21.287578   1.000000
    4       -2.873182   1.000000
    5        3.540002   1.000000
    6        3.678798   1.000000
    7        3.678798   1.000000
    8        4.810544   1.000000
    9        4.810544   1.000000
   10        7.304868   1.000000
   11        8.511302   1.000000
   12        8.511302   1.000000
   13       10.700248   1.000000
   14       11.463675   0.000000
   15       11.463675   0.000000
   16       13.099267   0.000000

  0.2307692E+00 -0.2691155E-17  0.7551824E-19  0.3641329E-02
    1      -21.303862   1.000000
    2      -21.286807   1.000000
    3      -21.286807   1.000000
    4       -2.524511   1.000000
    5        3.227171   1.000000
    6        3.596423   1.000000
    7        3.596423   1.000000
    8        4.919495   1.000000
    9        4.919495   1.000000
   10        6.410183   1.000000
   11        8.329364   1.000000
   12        8.329364   1.000000
   13       10.778000   0.968697
   14       11.476820   0.000000
   15       11.476820   0.000000
   16       13.836471   0.000000

  0.3076923E+00  0.8940597E-17 -0.1242811E-16  0.3641329E-02
    1      -21.312018   1.000000
    2      -21.285990   1.000000
    3      -21.285990   1.000000
    4       -2.101871   1.000000
    5        2.844944   1.000000
    6        3.551956   1.000000
    7        3.551956   1.000000
    8        4.962808   1.000000
    9        4.962808   1.000000
   10        5.715085   1.000000
   11        8.192802   1.000000
   12        8.192802   1.000000
   13       10.855724   0.000000
   14       11.600730   0.000000
   15       11.600730   0.000000
   16       13.339728   0.000000

  0.3846154E+00 -0.3654332E-16 -0.1008363E-16  0.3641329E-02
    1      -21.318660   1.000000
    2      -21.285319   1.000000
    3      -21.285319   1.000000
    4       -1.688033   1.000000
    5        2.457352   1.000000
    6        3.542154   1.000000
    7        3.542154   1.000000
    8        4.946335   1.000000
    9        4.946335   1.000000
   10        5.268712   1.000000
   11        8.121878   1.000000
   12        8.121878   1.000000
   13       10.931769   0.000000
   14       11.783946   0.000000
   15       11.783946   0.000000
   16       12.504738   0.000000

  0.4615385E+00 -0.3143595E-17 -0.2087679E-17  0.3641329E-02
    1      -21.322369   1.000000
    2      -21.284948   1.000000
    3      -21.284948   1.000000
    4       -1.413408   1.000000
    5        2.192599   1.000000
    6        3.547302   1.000000
    7        3.547302   1.000000
    8        4.916021   1.000000
    9        4.916021   1.000000
   10        5.058891   1.000000
   11        8.097811   1.000000
   12        8.097811   1.000000
   13       10.996769   0.000000
   14       11.932405   0.000000
   15       11.932405   0.000000
   16       12.018650   0.000000

  0.7692308E-01  0.7692308E-01 -0.1012369E-17  0.2730997E-02
    1      -21.290318   1.000000
    2      -21.288439   1.000000
    3      -21.288439   1.000000
    4       -3.073841   1.000000
    5        3.559202   1.000000
    6        3.858239   1.000000
    7        3.858239   1.000000
    8        4.657889   1.000000
    9        4.717298   1.000000
   10        8.322102   1.000000
   11        8.529324   1.000000
   12        8.529324   1.000000
   13       10.601839   1.000000
   14       11.567492   0.000000
   15       12.036843   0.000000
   16       12.090190   0.000000

  0.1538462E+00  0.7692308E-01 -0.2659246E-17  0.1092399E-01
    1      -21.294500   1.000000
    2      -21.288344   1.000000
    3      -21.287978   1.000000
    4       -2.898353   1.000000
    5        3.327329   1.000000
    6        3.826188   1.000000
    7        3.847262   1.000000
    8        4.745516   1.000000
    9        4.805932   1.000000
   10        7.596539   1.000000
   11        8.330381   1.000000
   12        8.435820   1.000000
   13       10.693893   1.000000
   14       11.393696   0.000000
   15       11.758473   0.000000
   16       12.696860   0.000000

  0.2307692E+00  0.7692308E-01 -0.7957814E-17  0.1092399E-01
    1      -21.301472   1.000000
    2      -21.287860   1.000000
    3      -21.287241   1.000000
    4       -2.593022   1.000000
    5        3.089524   1.000000
    6        3.701822   1.000000
    7        3.789189   1.000000
    8        4.863095   1.000000
    9        4.909245   1.000000
   10        6.713393   1.000000
   11        8.153571   1.000000
   12        8.275293   1.000000
   13       10.898398   0.000000
   14       11.338914   0.000000
   15       11.602172   0.000000
   16       13.353044   0.000000

  0.3076923E+00  0.7692308E-01 -0.1052875E-16  0.1092399E-01
    1      -21.309323   1.000000
    2      -21.287107   1.000000
    3      -21.286625   1.000000
    4       -2.198715   1.000000
    5        2.827557   1.000000
    6        3.570802   1.000000
    7        3.731036   1.000000
    8        4.930763   1.000000
    9        4.976365   1.000000
   10        5.958691   1.000000
   11        8.046849   1.000000
   12        8.107749   1.000000
   13       10.913824   0.000000
   14       11.588478   0.000000
   15       11.609000   0.000000
   16       13.439048   0.000000

  0.3846154E+00  0.7692308E-01  0.5693518E-17  0.1092399E-01
    1      -21.316260   1.000000
    2      -21.286272   1.000000
    3      -21.286260   1.000000
    4       -1.785436   1.000000
    5        2.533523   1.000000
    6        3.499147   1.000000
    7        3.681168   1.000000
    8        4.938004   1.000000
    9        4.983840   1.000000
   10        5.427800   1.000000
   11        7.991414   1.000000
   12        8.011373   1.000000
   13       10.906999   0.000000
   14       11.703701   0.000000
   15       11.899242   0.000000
   16       12.709124   0.000000

  0.4615385E+00  0.7692308E-01 -0.1406611E-16  0.1092399E-01
    1      -21.320763   1.000000
    2      -21.286249   1.000000
    3      -21.285496   1.000000
    4       -1.463978   1.000000
    5        2.280373   1.000000
    6        3.499521   1.000000
    7        3.626074   1.000000
    8        4.930168   1.000000
    9        4.949380   1.000000
   10        5.137931   1.000000
   11        7.930978   1.000000
   12        8.015022   1.000000
   13       10.969001   0.000000
   14       11.774385   0.000000
   15       11.878663   0.000000
   16       12.453541   0.000000

 -0.4615385E+00  0.7692308E-01  0.3110842E-16  0.1092399E-01
    1      -21.321923   1.000000
    2      -21.286564   1.000000
    3      -21.285004   1.000000
    4       -1.368653   1.000000
    5        2.203267   1.000000
    6        3.550484   1.000000
    7        3.556140   1.000000
    8        4.913410   1.000000
    9        4.951394   1.000000
   10        5.069864   1.000000
   11        7.897404   1.000000
   12        8.035120   1.000000
   13       11.047920   0.000000
   14       11.572154   0.000000
   15       11.968567   0.000000
   16       12.493131   0.000000

 -0.3846154E+00  0.7692308E-01 -0.1894794E-17  0.1092399E-01
    1      -21.319505   1.000000
    2      -21.287117   1.000000
    3      -21.284891   1.000000
    4       -1.551520   1.000000
    5        2.360975   1.000000
    6        3.485247   1.000000
    7        3.627821   1.000000
    8        4.901448   1.000000
    9        4.998811   1.000000
   10        5.215094   1.000000
   11        7.864441   1.000000
   12        8.081281   1.000000
   13       10.998836   0.000000
   14       11.783104   0.000000
   15       11.873600   0.000000
   16       12.486015   0.000000

 -0.3076923E+00  0.7692308E-01 -0.6172110E-17  0.1092399E-01
    1      -21.314019   1.000000
    2      -21.287778   1.000000
    3      -21.285188   1.000000
    4       -1.918399   1.000000
    5        2.663486   1.000000
    6        3.442022   1.000000
    7        3.717834   1.000000
    8        4.905307   1.000000
    9        5.030757   1.000000
   10        5.584152   1.000000
   11        7.839754   1.000000
   12        8.182275   1.000000
   13       10.988853   0.000000
   14       11.660034   0.000000
   15       11.795893   0.000000
   16       12.954221   0.000000

 -0.2307692E+00  0.7692308E-01  0.8445639E-17  0.1092399E-01
    1      -21.306638   1.000000
    2      -21.288375   1.000000
    3      -21.285806   1.000000
    4       -2.335646   1.000000
    5        2.994265   1.000000
    6        3.450179   1.000000
    7        3.811753   1.000000
    8        4.879326   1.000000
    9        5.006791   1.000000
   10        6.190633   1.000000
   11        7.867966   1.000000
   12        8.351061   1.000000
   13       11.045957   0.000000
   14       11.437844   0.000000
   15       11.618074   0.000000
   16       13.330770   0.000000

 -0.1538462E+00  0.7692308E-01 -0.1819276E-17  0.1092399E-01
    1      -21.299053   1.000000
    2      -21.288742   1.000000
    3      -21.286640   1.000000
    4       -2.706681   1.000000
    5        3.297286   1.000000
    6        3.518910   1.000000
    7        3.886840   1.000000
    8        4.799929   1.000000
    9        4.918435   1.000000
   10        6.989301   1.000000
   11        8.000044   1.000000
   12        8.549153   1.000000
   13       10.994055   0.000000
   14       11.296033   0.000000
   15       11.607618   0.000000
   16       12.756352   0.000000

 -0.7692308E-01  0.7692308E-01  0.2231583E-17  0.5461994E-02
    1      -21.293139   1.000000
    2      -21.288639   1.000000
    3      -21.287468   1.000000
    4       -2.972389   1.000000
    5        3.556989   1.000000
    6        3.639057   1.000000
    7        3.887985   1.000000
    8        4.711986   1.000000
    9        4.792422   1.000000
   10        7.791347   1.000000
   11        8.291153   1.000000
   12        8.683636   1.000000
   13       10.764196   0.999932
   14       11.325130   0.000000
   15       11.801866   0.000000
   16       12.239557   0.000000

  0.1538462E+00  0.1538462E+00 -0.2024739E-17  0.2730997E-02
    1      -21.295909   1.000000
    2      -21.288755   1.000000
    3      -21.288755   1.000000
    4       -2.779338   1.000000
    5        3.042477   1.000000
    6        3.955741   1.000000
    7        3.955741   1.000000
    8        4.768927   1.000000
    9        4.794207   1.000000
   10        7.583618   1.000000
   11        8.101065   1.000000
   12        8.101065   1.000000
   13       10.469131   1.000000
   14       11.611997   0.000000
   15       11.805445   0.000000
   16       12.788168   0.000000

  0.2307692E+00  0.1538462E+00 -0.7447733E-17  0.1092399E-01
    1      -21.301025   1.000000
    2      -21.288739   1.000000
    3      -21.288603   1.000000
    4       -2.531486   1.000000
    5        2.797539   1.000000
    6        3.939282   1.000000
    7        3.975183   1.000000
    8        4.827499   1.000000
    9        4.865369   1.000000
   10        6.977945   1.000000
   11        7.910144   1.000000
   12        7.943863   1.000000
   13       10.568810   1.000000
   14       11.620288   0.000000
   15       11.626346   0.000000
   16       13.209183   0.000000

  0.3076923E+00  0.1538462E+00 -0.6390674E-17  0.1092399E-01
    1      -21.307634   1.000000
    2      -21.288479   1.000000
    3      -21.288278   1.000000
    4       -2.190287   1.000000
    5        2.607059   1.000000
    6        3.805250   1.000000
    7        3.941242   1.000000
    8        4.901478   1.000000
    9        4.949548   1.000000
   10        6.259990   1.000000
   11        7.773631   1.000000
   12        7.809388   1.000000
   13       10.743188   1.000000
   14       11.511249   0.000000
   15       11.826116   0.000000
   16       13.338079   0.000000

  0.3846154E+00  0.1538462E+00 -0.1066799E-16  0.1092399E-01
    1      -21.313789   1.000000
    2      -21.288821   1.000000
    3      -21.287490   1.000000
    4       -1.816192   1.000000
    5        2.468525   1.000000
    6        3.639026   1.000000
    7        3.877167   1.000000
    8        4.960853   1.000000
    9        4.981085   1.000000
   10        5.665389   1.000000
   11        7.619591   1.000000
   12        7.795058   1.000000
   13       10.761557   0.999986
   14       11.563835   0.000000
   15       12.249625   0.000000
   16       12.773247   0.000000

  0.4615385E+00  0.1538462E+00 -0.1591563E-16  0.1092399E-01
    1      -21.318088   1.000000
    2      -21.289602   1.000000
    3      -21.286557   1.000000
    4       -1.498686   1.000000
    5        2.374181   1.000000
    6        3.518678   1.000000
    7        3.779394   1.000000
    8        4.960179   1.000000
    9        4.994538   1.000000
   10        5.298898   1.000000
   11        7.513318   1.000000
   12        7.820000   1.000000
   13       10.788806   0.630740
   14       11.765639   0.000000
   15       11.951828   0.000000
   16       12.824537   0.000000

 -0.4615385E+00  0.1538462E+00  0.2136871E-16  0.1092399E-01
    1      -21.319676   1.000000
    2      -21.290594   1.000000
    3      -21.285680   1.000000
    4       -1.343833   1.000000
    5        2.336268   1.000000
    6        3.502039   1.000000
    7        3.650673   1.000000
    8        4.896909   1.000000
    9        5.030907   1.000000
   10        5.200938   1.000000
   11        7.439701   1.000000
   12        7.853328   1.000000
   13       10.936007   0.000000
   14       11.496021   0.000000
   15       11.977649   0.000000
   16       13.096918   0.000000

 -0.3846154E+00  0.1538462E+00  0.2936466E-16  0.1092399E-01
    1      -21.318335   1.000000
    2      -21.291479   1.000000
    3      -21.285067   1.000000
    4       -1.418571   1.000000
    5        2.387780   1.000000
    6        3.518288   1.000000
    7        3.600372   1.000000
    8        4.870456   1.000000
    9        5.084783   1.000000
   10        5.293446   1.000000
   11        7.361185   1.000000
   12        7.910105   1.000000
   13       11.053820   0.000000
   14       11.526143   0.000000
   15       11.992112   0.000000
   16       13.043367   0.000000

 -0.3076923E+00  0.1538462E+00 -0.1399837E-17  0.1092399E-01
    1      -21.314473   1.000000
    2      -21.291915   1.000000
    3      -21.284860   1.000000
    4       -1.690442   1.000000
    5        2.533826   1.000000
    6        3.418452   1.000000
    7        3.769161   1.000000
    8        4.871238   1.000000
    9        5.118331   1.000000
   10        5.581878   1.000000
   11        7.269639   1.000000
   12        8.025713   1.000000
   13       11.082212   0.000000
   14       11.807842   0.000000
   15       12.023214   0.000000
   16       12.840756   0.000000

 -0.2307692E+00  0.1538462E+00  0.6596116E-17  0.1092399E-01
    1      -21.309070   1.000000
    2      -21.291625   1.000000
    3      -21.285105   1.000000
    4       -2.057839   1.000000
    5        2.750350   1.000000
    6        3.378687   1.000000
    7        3.928015   1.000000
    8        4.853304   1.000000
    9        5.099773   1.000000
   10        6.066355   1.000000
   11        7.233221   1.000000
   12        8.211344   1.000000
   13       11.250324   0.000000
   14       11.556973   0.000000
   15       12.058792   0.000000
   16       12.900761   0.000000

 -0.1538462E+00  0.1538462E+00  0.8940597E-17  0.5461994E-02
    1      -21.303520   1.000000
    2      -21.290472   1.000000
    3      -21.285747   1.000000
    4       -2.420367   1.000000
    5        3.013230   1.000000
    6        3.412555   1.000000
    7        3.989161   1.000000
    8        4.814806   1.000000
    9        5.025995   1.000000
   10        6.610063   1.000000
   11        7.427544   1.000000
   12        8.420182   1.000000
   13       11.350242   0.000000
   14       11.476961   0.000000
   15       11.599144   0.000000
   16       12.681738   0.000000

  0.2307692E+00  0.2307692E+00 -0.3037108E-17  0.2730997E-02
    1      -21.303946   1.000000
    2      -21.289227   1.000000
    3      -21.289227   1.000000
    4       -2.350378   1.000000
    5        2.554016   1.000000
    6        4.092975   1.000000
    7        4.092975   1.000000
    8        4.725980   1.000000
    9        4.936719   1.000000
   10        6.896220   1.000000
   11        7.693196   1.000000
   12        7.693196   1.000000
   13       10.296532   1.000000
   14       11.470327   0.000000
   15       11.820119   0.000000
   16       13.357289   0.000000

  0.3076923E+00  0.2307692E+00 -0.9140562E-17  0.1092399E-01
    1      -21.308897   1.000000
    2      -21.289557   1.000000
    3      -21.289217   1.000000
    4       -2.080801   1.000000
    5        2.400160   1.000000
    6        4.056555   1.000000
    7        4.125078   1.000000
    8        4.734885   1.000000
    9        5.026711   1.000000
   10        6.430632   1.000000
   11        7.507098   1.000000
   12        7.570104   1.000000
   13       10.360709   1.000000
   14       11.318115   0.000000
   15       11.996530   0.000000
   16       13.356704   0.000000

  0.3846154E+00  0.2307692E+00 -0.8134432E-17  0.1092399E-01
    1      -21.313610   1.000000
    2      -21.290631   1.000000
    3      -21.288721   1.000000
    4       -1.775246   1.000000
    5        2.354790   1.000000
    6        3.872080   1.000000
    7        4.085671   1.000000
    8        4.847651   1.000000
    9        5.077394   1.000000
   10        5.881070   1.000000
   11        7.283887   1.000000
   12        7.550955   1.000000
   13       10.474116   1.000000
   14       11.315296   0.000000
   15       12.415937   0.000000
   16       12.866947   0.000000

  0.4615385E+00  0.2307692E+00 -0.1401627E-16  0.1092399E-01
    1      -21.316618   1.000000
    2      -21.292579   1.000000
    3      -21.287854   1.000000
    4       -1.503637   1.000000
    5        2.415164   1.000000
    6        3.663362   1.000000
    7        3.977974   1.000000
    8        4.923245   1.000000
    9        5.103849   1.000000
   10        5.464904   1.000000
   11        7.078340   1.000000
   12        7.582438   1.000000
   13       10.524751   1.000000
   14       11.529852   0.000000
   15       12.198257   0.000000
   16       12.948238   0.000000

 -0.4615385E+00  0.2307692E+00  0.9390283E-17  0.1092399E-01
    1      -21.317299   1.000000
    2      -21.294967   1.000000
    3      -21.286797   1.000000
    4       -1.337720   1.000000
    5        2.528450   1.000000
    6        3.502104   1.000000
    7        3.814733   1.000000
    8        4.840028   1.000000
    9        5.142618   1.000000
   10        5.381845   1.000000
   11        6.919031   1.000000
   12        7.620364   1.000000
   13       10.635922   1.000000
   14       11.685861   0.000000
   15       11.895996   0.000000
   16       13.106075   0.000000

 -0.3846154E+00  0.2307692E+00  0.1738624E-16  0.1092399E-01
    1      -21.315891   1.000000
    2      -21.296916   1.000000
    3      -21.285810   1.000000
    4       -1.326750   1.000000
    5        2.578122   1.000000
    6        3.489695   1.000000
    7        3.634891   1.000000
    8        4.787809   1.000000
    9        5.187346   1.000000
   10        5.498114   1.000000
   11        6.795775   1.000000
   12        7.680249   1.000000
   13       10.859687   0.000000
   14       11.462255   0.000000
   15       12.112072   0.000000
   16       12.986336   0.000000

 -0.3076923E+00  0.2307692E+00  0.2762090E-16  0.1092399E-01
    1      -21.313440   1.000000
    2      -21.297260   1.000000
    3      -21.285108   1.000000
    4       -1.477386   1.000000
    5        2.556532   1.000000
    6        3.482808   1.000000
    7        3.648632   1.000000
    8        4.827774   1.000000
    9        5.204631   1.000000
   10        5.709467   1.000000
   11        6.709468   1.000000
   12        7.802384   1.000000
   13       11.021076   0.000000
   14       11.763093   0.000000
   15       12.007030   0.000000
   16       12.879610   0.000000

 -0.2307692E+00  0.2307692E+00 -0.5382310E-17  0.5461994E-02
    1      -21.311148   1.000000
    2      -21.295207   1.000000
    3      -21.284849   1.000000
    4       -1.746441   1.000000
    5        2.596009   1.000000
    6        3.391247   1.000000
    7        3.842152   1.000000
    8        4.856822   1.000000
    9        5.173282   1.000000
   10        5.944390   1.000000
   11        6.791733   1.000000
   12        7.995969   1.000000
   13       11.147547   0.000000
   14       11.778031   0.000000
   15       12.396098   0.000000
   16       12.831467   0.000000

  0.3076923E+00  0.3076923E+00 -0.4049478E-17  0.2730997E-02
    1      -21.312675   1.000000
    2      -21.289728   1.000000
    3      -21.289728   1.000000
    4       -1.895819   1.000000
    5        2.288915   1.000000
    6        4.234379   1.000000
    7        4.234379   1.000000
    8        4.553167   1.000000
    9        5.132468   1.000000
   10        6.242124   1.000000
   11        7.407435   1.000000
   12        7.407435   1.000000
   13       10.144539   1.000000
   14       11.099748   0.000000
   15       12.101875   0.000000
   16       13.288142   0.000000

  0.3846154E+00  0.3076923E+00 -0.5651804E-17  0.1092399E-01
    1      -21.316483   1.000000
    2      -21.290506   1.000000
    3      -21.289679   1.000000
    4       -1.678651   1.000000
    5        2.306113   1.000000
    6        4.113483   1.000000
    7        4.253809   1.000000
    8        4.636920   1.000000
    9        5.206207   1.000000
   10        5.838229   1.000000
   11        7.220685   1.000000
   12        7.356254   1.000000
   13       10.173963   1.000000
   14       11.006494   0.000000
   15       12.356194   0.000000
   16       12.945980   0.000000

  0.4615385E+00  0.3076923E+00 -0.3256394E-17  0.1092399E-01
    1      -21.318451   1.000000
    2      -21.292729   1.000000
    3      -21.289100   1.000000
    4       -1.480040   1.000000
    5        2.452231   1.000000
    6        3.877616   1.000000
    7        4.178179   1.000000
    8        4.806739   1.000000
    9        5.239191   1.000000
   10        5.446938   1.000000
   11        6.918886   1.000000
   12        7.375588   1.000000
   13       10.254209   1.000000
   14       11.161143   0.000000
   15       12.363336   0.000000
   16       12.940043   0.000000

 -0.4615385E+00  0.3076923E+00  0.1543095E-16  0.1092399E-01
    1      -21.317818   1.000000
    2      -21.296220   1.000000
    3      -21.288114   1.000000
    4       -1.342048   1.000000
    5        2.676133   1.000000
    6        3.644145   1.000000
    7        4.017684   1.000000
    8        4.746849   1.000000
    9        5.264787   1.000000
   10        5.412148   1.000000
   11        6.609606   1.000000
   12        7.410235   1.000000
   13       10.355493   1.000000
   14       11.597736   0.000000
   15       11.894599   0.000000
   16       12.743395   0.000000

 -0.3846154E+00  0.3076923E+00 -0.1884066E-16  0.1092399E-01
    1      -21.315068   1.000000
    2      -21.299902   1.000000
    3      -21.286945   1.000000
    4       -1.289420   1.000000
    5        2.836499   1.000000
    6        3.437363   1.000000
    7        3.815268   1.000000
    8        4.658719   1.000000
    9        5.281993   1.000000
   10        5.662695   1.000000
   11        6.355419   1.000000
   12        7.471187   1.000000
   13       10.551265   1.000000
   14       11.573744   0.000000
   15       12.158065   0.000000
   16       12.686352   0.000000

 -0.3076923E+00  0.3076923E+00  0.1788119E-16  0.5461994E-02
    1      -21.312740   1.000000
    2      -21.301048   1.000000
    3      -21.285868   1.000000
    4       -1.334606   1.000000
    5        2.725421   1.000000
    6        3.472771   1.000000
    7        3.623469   1.000000
    8        4.728978   1.000000
    9        5.264793   1.000000
   10        5.840807   1.000000
   11        6.313464   1.000000
   12        7.600304   1.000000
   13       10.825130   0.000001
   14       11.511386   0.000000
   15       12.196615   0.000000
   16       12.697776   0.000000

  0.3846154E+00  0.3846154E+00 -0.5061847E-17  0.2730997E-02
    1      -21.320075   1.000000
    2      -21.290149   1.000000
    3      -21.290149   1.000000
    4       -1.556549   1.000000
    5        2.370191   1.000000
    6        4.343168   1.000000
    7        4.343168   1.000000
    8        4.387310   1.000000
    9        5.312255   1.000000
   10        5.526750   1.000000
   11        7.261805   1.000000
   12        7.261805   1.000000
   13       10.026361   1.000000
   14       10.777216   0.975745
   15       12.272582   0.000000
   16       12.855273   0.000000

  0.4615385E+00  0.3846154E+00 -0.7978828E-17  0.1092399E-01
    1      -21.321984   1.000000
    2      -21.291192   1.000000
    3      -21.290021   1.000000
    4       -1.440810   1.000000
    5        2.539925   1.000000
    6        4.115867   1.000000
    7        4.331935   1.000000
    8        4.608199   1.000000
    9        5.163728   1.000000
   10        5.359448   1.000000
   11        7.091632   1.000000
   12        7.252771   1.000000
   13       10.046367   1.000000
   14       10.782871   0.879630
   15       12.342047   0.000000
   16       12.670850   0.000000

 -0.4615385E+00  0.3846154E+00  0.3452521E-17  0.1092399E-01
    1      -21.321194   1.000000
    2      -21.293992   1.000000
    3      -21.289320   1.000000
    4       -1.352652   1.000000
    5        2.749090   1.000000
    6        3.899017   1.000000
    7        4.215443   1.000000
    8        4.635177   1.000000
    9        5.120811   1.000000
   10        5.366517   1.000000
   11        6.749805   1.000000
   12        7.276110   1.000000
   13       10.138174   1.000000
   14       11.105848   0.000000
   15       12.092519   0.000000
   16       12.538993   0.000000

 -0.3846154E+00  0.3846154E+00  0.1144847E-16  0.5461994E-02
    1      -21.318051   1.000000
    2      -21.297762   1.000000
    3      -21.288206   1.000000
    4       -1.300705   1.000000
    5        2.893817   1.000000
    6        3.631844   1.000000
    7        4.025144   1.000000
    8        4.561184   1.000000
    9        5.344021   1.000000
   10        5.449159   1.000000
   11        6.411691   1.000000
   12        7.335924   1.000000
   13       10.299405   1.000000
   14       11.693454   0.000000
   15       11.787037   0.000000
   16       12.454897   0.000000

  0.4615385E+00  0.4615385E+00 -0.6074216E-17  0.2730997E-02
    1      -21.324315   1.000000
    2      -21.290391   1.000000
    3      -21.290391   1.000000
    4       -1.401341   1.000000
    5        2.664881   1.000000
    6        4.360546   1.000000
    7        4.398900   1.000000
    8        4.398900   1.000000
    9        4.846142   1.000000
   10        5.422594   1.000000
   11        7.216090   1.000000
   12        7.216090   1.000000
   13        9.960324   1.000000
   14       10.587159   1.000000
   15       12.179177   0.000000
   16       12.541386   0.000000

 -0.4615385E+00  0.4615385E+00 -0.6287190E-17  0.5461994E-02
    1      -21.323992   1.000000
    2      -21.291429   1.000000
    3      -21.290134   1.000000
    4       -1.371411   1.000000
    5        2.751237   1.000000
    6        4.161079   1.000000
    7        4.356571   1.000000
    8        4.578771   1.000000
    9        4.777439   1.000000
   10        5.422133   1.000000
   11        7.061179   1.000000
   12        7.223646   1.000000
   13       10.001880   1.000000
   14       10.703556   1.000000
   15       12.216632   0.000000
   16       12.506743   0.000000

  0.2307692E+00  0.1538462E+00  0.7692308E-01  0.1092399E-01
    1      -21.298593   1.000000
    2      -21.289213   1.000000
    3      -21.287263   1.000000
    4       -2.685046   1.000000
    5        3.071529   1.000000
    6        3.721218   1.000000
    7        3.967762   1.000000
    8        4.787481   1.000000
    9        4.892677   1.000000
   10        7.149176   1.000000
   11        7.851104   1.000000
   12        8.388512   1.000000
   13       10.838103   0.000000
   14       11.419649   0.000000
   15       11.699282   0.000000
   16       12.708199   0.000000

  0.3076923E+00  0.1538462E+00  0.7692308E-01  0.2184797E-01
    1      -21.304794   1.000000
    2      -21.289730   1.000000
    3      -21.286452   1.000000
    4       -2.360185   1.000000
    5        2.838256   1.000000
    6        3.601581   1.000000
    7        3.961273   1.000000
    8        4.848334   1.000000