       N       E                     dE             d eps       ncg     rms          rms(c)
DAV:   1     0.149237919027E+03    0.14924E+03   -0.14666E+04  2696   0.178E+03
DAV:   2    -0.196380093572E+02   -0.16888E+03   -0.16736E+03  3424   0.351E+02
DAV:   3    -0.242479131719E+02   -0.46099E+01   -0.45794E+01  3512   0.530E+01
DAV:   4    -0.243090369743E+02   -0.61124E-01   -0.60566E-01  3456   0.638E+00
DAV:   5    -0.243103588556E+02   -0.13219E-02   -0.13183E-02  3488   0.848E-01    0.525E+01
DAV:   6    -0.237284039869E+02    0.58195E+00   -0.12027E+00  3504   0.886E+00    0.312E+01
DAV:   7    -0.235922221752E+02    0.13618E+00   -0.78922E-01  3608   0.515E+00    0.405E+00
DAV:   8    -0.235600664639E+02    0.32156E-01   -0.27037E-01  3344   0.336E+00    0.949E-01
DAV:   9    -0.235565969557E+02    0.34695E-02   -0.30914E-02  3328   0.144E+00    0.521E-01
DAV:  10    -0.235564439122E+02    0.15304E-03   -0.18512E-03  3360   0.273E-01    0.205E-01
DAV:  11    -0.235564340589E+02    0.98533E-05   -0.11048E-04  3416   0.810E-02    0.711E-02
DAV:  12    -0.235564364568E+02   -0.23979E-05   -0.13241E-05  3440   0.284E-02    0.148E-02
DAV:  13    -0.235564356886E+02    0.76815E-06   -0.10554E-06  3416   0.779E-03    0.162E-03
DAV:  14    -0.235564356897E+02   -0.11237E-08   -0.79277E-08  2392   0.241E-03
   1 F= -.23556436E+02 E0= -.23556359E+02  d E =-.152594E-03
