 vasp.6.0.8 29Jun18 (build Jun 13 2019 12:54:44) complex

 executed on      IFC18_CrayMPICH date 2021.12.05  14:21:51
 running   64 mpi-ranks, with    1 threads/rank
 distrk:  each k-point on   16 cores,    4 groups
 distr:  one band on NCORES_PER_BAND=   4 cores,    4 groups


--------------------------------------------------------------------------------------------------------


 INCAR:
 POTCAR:    PAW_PBE Hf_pv 06Sep2000
 POTCAR:    PAW_PBE Sb 06Sep2000
 POTCAR:    PAW_PBE Pt 04Feb2005
 POTCAR:    PAW_PBE Hf_pv 06Sep2000
   VRHFIN =Hf: 5p6s5d
   LEXCH  = PE
   EATOM  =   860.9206 eV,   63.2759 Ry

   TITEL  = PAW_PBE Hf_pv 06Sep2000
   LULTRA =        F    use ultrasoft PP ?
   IUNSCR =        1    unscreen: 0-lin 1-nonlin 2-no
   RPACOR =    2.500    partial core radius
   POMASS =  178.490; ZVAL   =   10.000    mass and valenz
   RCORE  =    2.600    outmost cutoff radius
   RWIGS  =    3.050; RWIGS  =    1.614    wigner-seitz radius (au A)
   ENMAX  =  220.334; ENMIN  =  165.250 eV
   RCLOC  =    2.212    cutoff for local pot
   LCOR   =        T    correct aug charges
   LPAW   =        T    paw PP
   EAUG   =  380.878
   DEXC   =    0.000
   RMAX   =    2.665    core radius for proj-oper
   RAUG   =    1.300    factor for augmentation sphere
   RDEP   =    2.681    radius for radial grids
   RDEPT  =    2.139    core radius for aug-charge

   Atomic configuration
   15 entries
     n  l   j            E        occ.
     1  0  0.50    -65259.4397   2.0000
     2  0  0.50    -11157.9884   2.0000
     2  1  1.50     -9795.2114   6.0000
     3  0  0.50     -2541.4060   2.0000
     3  1  1.50     -2134.4772   6.0000
     3  2  2.50     -1653.5420  10.0000
     4  0  0.50      -510.9577   2.0000
     4  1  1.50      -377.5024   6.0000
     4  2  2.50      -205.2086  10.0000
     4  3  3.50       -15.4906  14.0000
     5  0  0.50       -65.6020   2.0000
     5  1  1.50       -34.2798   6.0000
     5  2  2.50        -1.9877   3.0000
     6  0  0.50        -4.7357   1.0000
     5  3  2.50        -1.3606   0.0000
   Description
     l       E           TYP  RCUT    TYP  RCUT
     1    -34.2797769     23  2.500
     1    -35.6403595     23  2.500
     2     -1.9876655     23  2.500
     2      0.0744675     23  2.500
     0     -4.7356889     23  2.600
     0      3.2364748     23  2.600
  local pseudopotential read in
  partial core-charges read in
  partial kinetic energy density read in
  atomic valenz-charges read in
  non local Contribution for L=           1  read in
    real space projection operators read in
  non local Contribution for L=           1  read in
    real space projection operators read in
  non local Contribution for L=           2  read in
    real space projection operators read in
  non local Contribution for L=           2  read in
    real space projection operators read in
  non local Contribution for L=           0  read in
    real space projection operators read in
  non local Contribution for L=           0  read in
    real space projection operators read in
    PAW grid and wavefunctions read in

   number of l-projection  operators is LMAX  =           6
   number of lm-projection operators is LMMAX =          18

 POTCAR:    PAW_PBE Sb 06Sep2000
   VRHFIN =Sb: s2p3
   LEXCH  = PE
   EATOM  =   149.9515 eV,   11.0211 Ry

   TITEL  = PAW_PBE Sb 06Sep2000
   LULTRA =        F    use ultrasoft PP ?
   IUNSCR =        1    unscreen: 0-lin 1-nonlin 2-no
   RPACOR =    2.200    partial core radius
   POMASS =  121.750; ZVAL   =    5.000    mass and valenz
   RCORE  =    2.300    outmost cutoff radius
   RWIGS  =    2.980; RWIGS  =    1.577    wigner-seitz radius (au A)
   ENMAX  =  172.069; ENMIN  =  129.052 eV
   ICORE  =        3    local potential
   LCOR   =        T    correct aug charges
   LPAW   =        T    paw PP
   EAUG   =  380.513
   DEXC   =    0.000
   RMAX   =    2.346    core radius for proj-oper
   RAUG   =    1.300    factor for augmentation sphere
   RDEP   =    2.360    radius for radial grids
   RDEPT  =    2.192    core radius for aug-charge

   Atomic configuration
   13 entries
     n  l   j            E        occ.
     1  0  0.50    -30298.2797   2.0000
     2  0  0.50     -4610.2252   2.0000
     2  1  1.50     -4138.3407   6.0000
     3  0  0.50      -903.8815   2.0000
     3  1  1.50      -750.1337   6.0000
     3  2  2.50      -515.7092  10.0000
     4  0  0.50      -148.8034   2.0000
     4  1  1.50      -101.7581   6.0000
     4  2  2.50       -33.5048  10.0000
     5  0  0.50       -12.8298   2.0000
     5  1  0.50        -4.8276   3.0000
     5  2  1.50        -4.0817   0.0000
     4  3  2.50        -4.0817   0.0000
   Description
     l       E           TYP  RCUT    TYP  RCUT
     0    -12.8297861     23  2.300
     0     13.6058260     23  2.300
     1     -4.8275512     23  2.300
     1     -0.7245443     23  2.300
     2     -4.0817478     23  2.300
     3     -1.3605826     23  2.300
  local pseudopotential read in
  partial core-charges read in
  partial kinetic energy density read in
  atomic valenz-charges read in
  non local Contribution for L=           0  read in
    real space projection operators read in
  non local Contribution for L=           0  read in
    real space projection operators read in
  non local Contribution for L=           1  read in
    real space projection operators read in
  non local Contribution for L=           1  read in
    real space projection operators read in
  non local Contribution for L=           2  read in
    real space projection operators read in
    PAW grid and wavefunctions read in

   number of l-projection  operators is LMAX  =           5
   number of lm-projection operators is LMMAX =          13

 POTCAR:    PAW_PBE Pt 04Feb2005
   VRHFIN =Pt: s1d9
   LEXCH  = PE
   EATOM  =   729.1176 eV,   53.5886 Ry

   TITEL  = PAW_PBE Pt 04Feb2005
   LULTRA =        F    use ultrasoft PP ?
   IUNSCR =        1    unscreen: 0-lin 1-nonlin 2-no
   RPACOR =    2.330    partial core radius
   POMASS =  195.080; ZVAL   =   10.000    mass and valenz
   RCORE  =    2.600    outmost cutoff radius
   RWIGS  =    2.750; RWIGS  =    1.455    wigner-seitz radius (au A)
   ENMAX  =  230.283; ENMIN  =  172.712 eV
   ICORE  =        3    local potential
   LCOR   =        T    correct aug charges
   LPAW   =        T    paw PP
   EAUG   =  358.966
   DEXC   =    0.000
   RMAX   =    2.658    core radius for proj-oper
   RAUG   =    1.300    factor for augmentation sphere
   RDEP   =    2.761    radius for radial grids
   RDEPT  =    2.203    core radius for aug-charge

   Atomic configuration
   16 entries
     n  l   j            E        occ.
     1  0  0.50    -78401.1885   2.0000
     2  0  0.50    -13770.7750   2.0000
     2  1  1.50    -11931.0468   6.0000
     3  0  0.50     -3234.7234   2.0000
     3  1  1.50     -2699.2216   6.0000
     3  2  2.50     -2119.5714  10.0000
     4  0  0.50      -695.1528   2.0000
     4  1  1.50      -519.6034   6.0000
     4  2  2.50      -306.6786  10.0000
     4  3  3.50       -70.1041  14.0000
     5  0  0.50      -101.7747   2.0000
     5  1  1.50       -55.9873   6.0000
     5  2  2.50        -6.1423   9.0000
     6  0  0.50        -5.6573   1.0000
     6  1  1.50        -6.8029   0.0000
     5  3  2.50        -1.3606   0.0000
   Description
     l       E           TYP  RCUT    TYP  RCUT
     2     -6.1423404     23  2.500
     2     -7.5029230     23  2.500
     0     -5.6573207     23  2.500
     0      0.7416693     23  2.500
     1     -2.7211652     23  2.600
     1     20.4087390     23  2.600
     3     -1.3605826     23  2.500
  local pseudopotential read in
  partial core-charges read in
  partial kinetic energy density read in
  atomic valenz-charges read in
  non local Contribution for L=           2  read in
    real space projection operators read in
  non local Contribution for L=           2  read in
    real space projection operators read in
  non local Contribution for L=           0  read in
    real space projection operators read in
  non local Contribution for L=           0  read in
    real space projection operators read in
  non local Contribution for L=           1  read in
    real space projection operators read in
  non local Contribution for L=           1  read in
    real space projection operators read in
    PAW grid and wavefunctions read in

   number of l-projection  operators is LMAX  =           6
   number of lm-projection operators is LMMAX =          18


 -----------------------------------------------------------------------------
|                                                                             |
|  ADVICE TO THIS USER RUNNING 'VASP/VAMP'   (HEAR YOUR MASTER'S VOICE ...):  |
|                                                                             |
|      You enforced a specific xc-type in the INCAR file,                     |
|      a different type was found on the POTCAR file                          |
|          I HOPE YOU KNOW, WHAT YOU ARE  DOING                               |
|                                                                             |
 -----------------------------------------------------------------------------

  PAW_PBE Hf_pv 06Sep2000               :
 energy of atom  1       EATOM= -860.9206
 kinetic energy error for atom=    0.0004 (will be added to EATOM!!)
  PAW_PBE Sb 06Sep2000                  :
 energy of atom  2       EATOM= -149.9515
 kinetic energy error for atom=    0.0002 (will be added to EATOM!!)
  PAW_PBE Pt 04Feb2005                  :
 energy of atom  3       EATOM= -729.1176
 kinetic energy error for atom=    0.0010 (will be added to EATOM!!)


 POSCAR: Hf1 Sb1 Pt1
  positions in direct lattice
  No initial velocities read in
 exchange correlation table for  LEXCH =       14
   RHO(1)=    0.500       N(1)  =     2000
   RHO(2)=  100.500       N(2)  =     4000



--------------------------------------------------------------------------------------------------------


 ion  position               nearest neighbor table
   1  0.750  0.750  0.750-   3 2.64   3 2.64   3 2.64   3 2.64   2 3.05   2 3.05   2 3.05   2 3.05
                             2 3.05   2 3.05
   2  0.250  0.250  0.250-   3 2.64   3 2.64   3 2.64   3 2.64   1 3.05   1 3.05   1 3.05   1 3.05
                             1 3.05   1 3.05
   3  0.000  0.000  0.000-   1 2.64   1 2.64   1 2.64   1 2.64   2 2.64   2 2.64   2 2.64   2 2.64


  LATTYP: Found a face centered cubic cell.
 ALAT       =     6.0913972276

  Lattice vectors:

 A1 = (   0.0000000000,   3.0456986138,   3.0456986138)
 A2 = (   3.0456986138,   0.0000000000,   3.0456986138)
 A3 = (   3.0456986138,   3.0456986138,   0.0000000000)


Analysis of symmetry for initial positions (statically):
=====================================================================
 Subroutine PRICEL returns:
 Original cell was already a primitive cell.


 Routine SETGRP: Setting up the symmetry group for a
 face centered cubic supercell.


 Subroutine GETGRP returns: Found 24 space group operations
 (whereof 24 operations were pure point group operations)
 out of a pool of 48 trial point group operations.


The static configuration has the point symmetry T_d .


Analysis of symmetry for dynamics (positions and initial velocities):
=====================================================================
 Subroutine PRICEL returns:
 Original cell was already a primitive cell.


 Routine SETGRP: Setting up the symmetry group for a
 face centered cubic supercell.


 Subroutine GETGRP returns: Found 24 space group operations
 (whereof 24 operations were pure point group operations)
 out of a pool of 48 trial point group operations.


The dynamic configuration has the point symmetry T_d .


 Subroutine INISYM returns: Found 24 space group operations
 (whereof 24 operations are pure point group operations),
 and found     1 'primitive' translations


----------------------------------------------------------------------------------------

                                     Primitive cell

  volume of cell :      56.5055

  direct lattice vectors                    reciprocal lattice vectors
     0.000000000  3.045698614  3.045698614    -0.164165948  0.164165948  0.164165948
     3.045698614  0.000000000  3.045698614     0.164165948 -0.164165948  0.164165948
     3.045698614  3.045698614  0.000000000     0.164165948  0.164165948 -0.164165948

  length of vectors
     4.307268287  4.307268287  4.307268287     0.284343763  0.284343763  0.284343763

  position of ions in fractional coordinates (direct lattice)
     0.750000000  0.750000000  0.750000000
     0.250000000  0.250000000  0.250000000
     0.000000000  0.000000000  0.000000000

  ion indices of the primitive-cell ions
   primitive index   ion index
                 1           1
                 2           2
                 3           3

----------------------------------------------------------------------------------------



 KPOINTS: KPOINTS

Automatic generation of k-mesh.
Space group operators:
 irot       det(A)        alpha          n_x          n_y          n_z        tau_x        tau_y        tau_z
    1     1.000000     0.000001     1.000000     0.000000     0.000000     0.000000     0.000000     0.000000
    2     1.000000   120.000000    -0.577350    -0.577350    -0.577350     0.000000     0.000000     0.000000
    3     1.000000   120.000000     0.577350     0.577350     0.577350     0.000000     0.000000     0.000000
    4    -1.000000    90.000000    -0.000000    -0.000000    -1.000000     0.000000     0.000000     0.000000
    5    -1.000000   180.000000    -0.000000     0.707107     0.707107     0.000000     0.000000     0.000000
    6    -1.000000    90.000000    -0.000000     1.000000    -0.000000     0.000000     0.000000     0.000000
    7     1.000000   180.000000    -0.000000     0.000000    -1.000000     0.000000     0.000000     0.000000
    8     1.000000   120.000000    -0.577350     0.577350     0.577350     0.000000     0.000000     0.000000
    9     1.000000   120.000000    -0.577350     0.577350    -0.577350     0.000000     0.000000     0.000000
   10    -1.000000    90.000000     0.000000     0.000000     1.000000     0.000000     0.000000     0.000000
   11    -1.000000    90.000000    -1.000000     0.000000     0.000000     0.000000     0.000000     0.000000
   12    -1.000000   180.000000     0.707107     0.000000     0.707107     0.000000     0.000000     0.000000
   13     1.000000   120.000000     0.577350    -0.577350     0.577350     0.000000     0.000000     0.000000
   14     1.000000   120.000000    -0.577350    -0.577350     0.577350     0.000000     0.000000     0.000000
   15     1.000000   180.000000     1.000000     0.000000     0.000000     0.000000     0.000000     0.000000
   16    -1.000000    90.000000     0.000000    -1.000000     0.000000     0.000000     0.000000     0.000000
   17    -1.000000   180.000000     0.707107     0.707107    -0.000000     0.000000     0.000000     0.000000
   18    -1.000000    90.000000     1.000000     0.000000     0.000000     0.000000     0.000000     0.000000
   19     1.000000   120.000000     0.577350    -0.577350    -0.577350     0.000000     0.000000     0.000000
   20     1.000000   180.000000    -0.000000    -1.000000     0.000000     0.000000     0.000000     0.000000
   21     1.000000   120.000000     0.577350     0.577350    -0.577350     0.000000     0.000000     0.000000
   22    -1.000000   180.000000    -0.000000    -0.707107     0.707107     0.000000     0.000000     0.000000
   23    -1.000000   180.000000     0.707107    -0.707107     0.000000     0.000000     0.000000     0.000000
   24    -1.000000   180.000000     0.707107     0.000000    -0.707107     0.000000     0.000000     0.000000

 Subroutine IBZKPT returns following result:
 ===========================================

 Found     84 irreducible k-points:

 Following reciprocal coordinates:
            Coordinates               Weight
  0.000000  0.000000  0.000000      1.000000
  0.076923  0.000000 -0.000000      8.000000
  0.153846  0.000000 -0.000000      8.000000
  0.230769 -0.000000  0.000000      8.000000
  0.307692  0.000000 -0.000000      8.000000
  0.384615 -0.000000 -0.000000      8.000000
  0.461538 -0.000000 -0.000000      8.000000
  0.076923  0.076923 -0.000000      6.000000
  0.153846  0.076923 -0.000000     24.000000
  0.230769  0.076923 -0.000000     24.000000
  0.307692  0.076923 -0.000000     24.000000
  0.384615  0.076923  0.000000     24.000000
  0.461538  0.076923 -0.000000     24.000000
 -0.461538  0.076923  0.000000     24.000000
 -0.384615  0.076923 -0.000000     24.000000
 -0.307692  0.076923 -0.000000     24.000000
 -0.230769  0.076923  0.000000     24.000000
 -0.153846  0.076923 -0.000000     24.000000
 -0.076923  0.076923  0.000000     12.000000
  0.153846  0.153846 -0.000000      6.000000
  0.230769  0.153846 -0.000000     24.000000
  0.307692  0.153846 -0.000000     24.000000
  0.384615  0.153846 -0.000000     24.000000
  0.461538  0.153846 -0.000000     24.000000
 -0.461538  0.153846  0.000000     24.000000
 -0.384615  0.153846  0.000000     24.000000
 -0.307692  0.153846 -0.000000     24.000000
 -0.230769  0.153846  0.000000     24.000000
 -0.153846  0.153846  0.000000     12.000000
  0.230769  0.230769 -0.000000      6.000000
  0.307692  0.230769 -0.000000     24.000000
  0.384615  0.230769 -0.000000     24.000000
  0.461538  0.230769 -0.000000     24.000000
 -0.461538  0.230769  0.000000     24.000000
 -0.384615  0.230769  0.000000     24.000000
 -0.307692  0.230769  0.000000     24.000000
 -0.230769  0.230769 -0.000000     12.000000
  0.307692  0.307692 -0.000000      6.000000
  0.384615  0.307692 -0.000000     24.000000
  0.461538  0.307692 -0.000000     24.000000
 -0.461538  0.307692  0.000000     24.000000
 -0.384615  0.307692 -0.000000     24.000000
 -0.307692  0.307692  0.000000     12.000000
  0.384615  0.384615 -0.000000      6.000000
  0.461538  0.384615 -0.000000     24.000000
 -0.461538  0.384615  0.000000     24.000000
 -0.384615  0.384615  0.000000     12.000000
  0.461538  0.461538 -0.000000      6.000000
 -0.461538  0.461538 -0.000000     12.000000
  0.230769  0.153846  0.076923     24.000000
  0.307692  0.153846  0.076923     48.000000
  0.384615  0.153846  0.076923     48.000000
  0.461538  0.153846  0.076923     48.000000
 -0.461538  0.153846  0.076923     48.000000
  0.307692  0.230769  0.076923     24.000000
  0.384615  0.230769  0.076923     48.000000
  0.461538  0.230769  0.076923     48.000000
 -0.461538  0.230769  0.076923     48.000000
 -0.384615  0.230769  0.076923     48.000000
 -0.307692  0.230769  0.076923     48.000000
 -0.230769  0.230769  0.076923     48.000000
 -0.153846  0.230769  0.076923     24.000000
  0.384615  0.307692  0.076923     24.000000
  0.461538  0.307692  0.076923     48.000000
 -0.461538  0.307692  0.076923     48.000000
 -0.384615  0.307692  0.076923     48.000000
 -0.307692  0.307692  0.076923     48.000000
 -0.230769  0.307692  0.076923     24.000000
  0.461538  0.384615  0.076923     24.000000
 -0.461538  0.384615  0.076923     48.000000
 -0.384615  0.384615  0.076923     48.000000
 -0.307692  0.384615  0.076923     24.000000
 -0.461538  0.461538  0.076923     24.000000
 -0.384615  0.461538  0.076923     24.000000
  0.461538  0.307692  0.153846     24.000000
 -0.461538  0.307692  0.153846     48.000000
 -0.384615  0.307692  0.153846     48.000000
 -0.461538  0.384615  0.153846     24.000000
 -0.384615  0.384615  0.153846     48.000000
 -0.307692  0.384615  0.153846     48.000000
 -0.230769  0.384615  0.153846     24.000000
 -0.384615  0.461538  0.153846     24.000000
 -0.307692  0.461538  0.153846     24.000000
 -0.307692  0.461538  0.230769     24.000000

 Following cartesian coordinates:
            Coordinates               Weight
  0.000000  0.000000  0.000000      1.000000
 -0.012101  0.012101  0.012101      8.000000
 -0.024203  0.024203  0.024203      8.000000
 -0.036304  0.036304  0.036304      8.000000
 -0.048405  0.048405  0.048405      8.000000
 -0.060507  0.060507  0.060507      8.000000
 -0.072608  0.072608  0.072608      8.000000
 -0.000000  0.000000  0.024203      6.000000
 -0.012101  0.012101  0.036304     24.000000
 -0.024203  0.024203  0.048405     24.000000
 -0.036304  0.036304  0.060507     24.000000
 -0.048405  0.048405  0.072608     24.000000
 -0.060507  0.060507  0.084709     24.000000
  0.084709 -0.084709 -0.060507     24.000000
  0.072608 -0.072608 -0.048405     24.000000
  0.060507 -0.060507 -0.036304     24.000000
  0.048405 -0.048405 -0.024203     24.000000
  0.036304 -0.036304 -0.012101     24.000000
  0.024203 -0.024203 -0.000000     12.000000
 -0.000000  0.000000  0.048405      6.000000
 -0.012101  0.012101  0.060507     24.000000
 -0.024203  0.024203  0.072608     24.000000
 -0.036304  0.036304  0.084709     24.000000
 -0.048405  0.048405  0.096811     24.000000
  0.096811 -0.096811 -0.048405     24.000000
  0.084709 -0.084709 -0.036304     24.000000
  0.072608 -0.072608 -0.024203     24.000000
  0.060507 -0.060507 -0.012101     24.000000
  0.048405 -0.048405 -0.000000     12.000000
  0.000000 -0.000000  0.072608      6.000000
 -0.012101  0.012101  0.084709     24.000000
 -0.024203  0.024203  0.096811     24.000000
 -0.036304  0.036304  0.108912     24.000000
  0.108912 -0.108912 -0.036304     24.000000
  0.096811 -0.096811 -0.024203     24.000000
  0.084709 -0.084709 -0.012101     24.000000
  0.072608 -0.072608  0.000000     12.000000
 -0.000000  0.000000  0.096811      6.000000
 -0.012101  0.012101  0.108912     24.000000
 -0.024203  0.024203  0.121014     24.000000
  0.121014 -0.121014 -0.024203     24.000000
  0.108912 -0.108912 -0.012101     24.000000
  0.096811 -0.096811 -0.000000     12.000000
 -0.000000  0.000000  0.121014      6.000000
 -0.012101  0.012101  0.133115     24.000000
  0.133115 -0.133115 -0.012101     24.000000
  0.121014 -0.121014 -0.000000     12.000000
  0.000000 -0.000000  0.145216      6.000000
  0.145216 -0.145216  0.000000     12.000000
  0.000000  0.024203  0.048405     24.000000
 -0.012101  0.036304  0.060507     48.000000
 -0.024203  0.048405  0.072608     48.000000
 -0.036304  0.060507  0.084709     48.000000
  0.108912 -0.084709 -0.060507     48.000000
  0.000000  0.024203  0.072608     24.000000
 -0.012101  0.036304  0.084709     48.000000
 -0.024203  0.048405  0.096811     48.000000
  0.121014 -0.096811 -0.048405     48.000000
  0.108912 -0.084709 -0.036304     48.000000
  0.096811 -0.072608 -0.024203     48.000000
  0.084709 -0.060507 -0.012101     48.000000
  0.072608 -0.048405  0.000000     24.000000
 -0.000000  0.024203  0.096811     24.000000
 -0.012101  0.036304  0.108912     48.000000
  0.133115 -0.108912 -0.036304     48.000000
  0.121014 -0.096811 -0.024203     48.000000
  0.108912 -0.084709 -0.012101     48.000000
  0.096811 -0.072608 -0.000000     24.000000
  0.000000  0.024203  0.121014     24.000000
  0.145216 -0.121014 -0.024203     48.000000
  0.133115 -0.108912 -0.012101     48.000000
  0.121014 -0.096811  0.000000     24.000000
  0.157318 -0.133115 -0.012101     24.000000
  0.145216 -0.121014 -0.000000     24.000000
  0.000000  0.048405  0.096811     24.000000
  0.145216 -0.096811 -0.048405     48.000000
  0.133115 -0.084709 -0.036304     48.000000
  0.157318 -0.108912 -0.036304     24.000000
  0.145216 -0.096811 -0.024203     48.000000
  0.133115 -0.084709 -0.012101     48.000000
  0.121014 -0.072608  0.000000     24.000000
  0.157318 -0.108912 -0.012101     24.000000
  0.145216 -0.096811  0.000000     24.000000
  0.157318 -0.084709 -0.012101     24.000000



--------------------------------------------------------------------------------------------------------




 Dimension of arrays:
   k-points           NKPTS =     84   k-points in BZ     NKDIM =     84   number of bands    NBANDS=     16
   number of dos      NEDOS =    301   number of ions     NIONS =      3
   non local maximal  LDIM  =      6   non local SUM 2l+1 LMDIM =     18
   total plane-waves  NPLWV =  64000
   max r-space proj   IRMAX =      1   max aug-charges    IRDMAX= 548941
   dimension x,y,z NGX =    40 NGY =   40 NGZ =   40
   dimension x,y,z NGXF=    80 NGYF=   80 NGZF=   80
   support grid    NGXF=   160 NGYF=  160 NGZF=  160
   ions per type =               1   1   1
   NGX,Y,Z   is equivalent  to a cutoff of  15.44, 15.44, 15.44 a.u.
   NGXF,Y,Z  is equivalent  to a cutoff of  30.88, 30.88, 30.88 a.u.

 SYSTEM =  unknown system
 POSCAR =  Hf1 Sb1 Pt1

 Startparameter for this run:
   NWRITE =      2    write-flag & timer
   PREC   = acc       normal or accurate (medium, high low for compatibility)
   ISTART =      0    job   : 0-new  1-cont  2-samecut
   ICHARG =      2    charge: 1-file 2-atom 10-const
   ISPIN  =      1    spin polarized calculation?
   LNONCOLLINEAR =      F non collinear calculations
   LSORBIT =      F    spin-orbit coupling
   INIWAV =      1    electr: 0-lowe 1-rand  2-diag
   LASPH  =      F    aspherical Exc in radial PAW
   METAGGA=      F    non-selfconsistent MetaGGA calc.

 Electronic Relaxation 1
   ENCUT  =  700.0 eV  51.45 Ry    7.17 a.u.   9.29  9.29  9.29*2*pi/ulx,y,z
   ENINI  =  700.0     initial cutoff
   ENAUG  =  380.9 eV  augmentation charge cutoff
   NELM   =     60;   NELMIN=  5; NELMDL= -5     # of ELM steps
   EDIFF  = 0.1E-06   stopping-criterion for ELM
   LREAL  =      F    real-space projection
   NLSPLINE    = F    spline interpolate recip. space projectors
   LCOMPAT=      F    compatible to vasp.4.4
   GGA_COMPAT  = T    GGA compatible to vasp.4.4-vasp.4.6
   LMAXPAW     = -100 max onsite density
   LMAXMIX     =    2 max onsite mixed and CHGCAR
   VOSKOWN=      0    Vosko Wilk Nusair interpolation
   ROPT   =    0.00000   0.00000   0.00000
 Ionic relaxation
   EDIFFG = 0.1E-05   stopping-criterion for IOM
   NSW    =      0    number of steps for IOM
   NBLOCK =      1;   KBLOCK =      1    inner block; outer block
   IBRION =     -1    ionic relax: 0-MD 1-quasi-New 2-CG
   NFREE  =      0    steps in history (QN), initial steepest desc. (CG)
   ISIF   =      3    stress and relaxation
   IWAVPR =     10    prediction:  0-non 1-charg 2-wave 3-comb
   ISYM   =      2    0-nonsym 1-usesym 2-fastsym
   LCORR  =      T    Harris-Foulkes like correction to forces

   POTIM  = 0.5000    time-step for ionic-motion
   TEIN   =    0.0    initial temperature
   TEBEG  =    0.0;   TEEND  =   0.0 temperature during run
   SMASS  =  -3.00    Nose mass-parameter (am)
   estimated Nose-frequenzy (Omega)   =  0.10E-29 period in steps = 0.13E+47 mass=  -0.424E-27a.u.
   SCALEE = 1.0000    scale energy and forces
   NPACO  =    256;   APACO  = 16.0  distance and # of slots for P.C.
   PSTRESS=    0.0 pullay stress

  Mass of Ions in am
   POMASS = 178.49121.75195.08
  Ionic Valenz
   ZVAL   =  10.00  5.00 10.00
  Atomic Wigner-Seitz radii
   RWIGS  =  -1.00 -1.00 -1.00
  virtual crystal weights
   VCA    =   1.00  1.00  1.00
   NELECT =      25.0000    total number of electrons
   NUPDOWN=      -1.0000    fix difference up-down

 DOS related values:
   EMIN   =  10.00;   EMAX   =-10.00  energy-range for DOS
   EFERMI =   0.00
   ISMEAR =     0;   SIGMA  =   0.01  broadening in eV -4-tet -1-fermi 0-gaus

 Electronic relaxation 2 (details)
   IALGO  =     38    algorithm
   LDIAG  =      T    sub-space diagonalisation (order eigenvalues)
   LSUBROT=      F    optimize rotation matrix (better conditioning)
   TURBO    =      0    0=normal 1=particle mesh
   IRESTART =      0    0=no restart 2=restart with 2 vectors
   NREBOOT  =      0    no. of reboots
   NMIN     =      0    reboot dimension
   EREF     =   0.00    reference energy to select bands
   IMIX   =      4    mixing-type and parameters
     AMIX     =   0.40;   BMIX     =  1.00
     AMIX_MAG =   1.60;   BMIX_MAG =  1.00
     AMIN     =   0.10
     WC   =   100.;   INIMIX=   1;  MIXPRE=   1;  MAXMIX= -45

 Intra band minimization:
   WEIMIN = 0.0000     energy-eigenvalue tresh-hold
   EBREAK =  0.16E-08  absolut break condition
   DEPER  =   0.30     relativ break condition

   TIME   =   0.40     timestep for ELM

  volume/ion in A,a.u.               =      18.84       127.11
  Fermi-wavevector in a.u.,A,eV,Ry     =   1.247454  2.357346 21.172594  1.556142
  Thomas-Fermi vector in A             =   2.381586

 Write flags
   LWAVE        =      F    write WAVECAR
   LDOWNSAMPLE  =      F    k-point downsampling of WAVECAR
   LCHARG       =      F    write CHGCAR
   LVTOT        =      F    write LOCPOT, total local potential
   LVHAR        =      F    write LOCPOT, Hartree potential only
   LELF         =      F    write electronic localiz. function (ELF)
   LORBIT       =      0    0 simple, 1 ext, 2 COOP (PROOUT), +10 PAW based schemes


 Dipole corrections
   LMONO  =      F    monopole corrections only (constant potential shift)
   LDIPOL =      F    correct potential (dipole corrections)
   IDIPOL =      0    1-x, 2-y, 3-z, 4-all directions
   EPSILON=  1.0000000 bulk dielectric constant

 Exchange correlation treatment:
   GGA     =    PS    GGA type
   LEXCH   =    14    internal setting for exchange type
   VOSKOWN=      0    Vosko Wilk Nusair interpolation
   LHFCALC =     F    Hartree Fock is set to
   LHFONE  =     F    Hartree Fock one center treatment
   AEXX    =    0.0000 exact exchange contribution

 Linear response parameters
   LEPSILON=     F    determine dielectric tensor
   LRPA    =     F    only Hartree local field effects (RPA)
   LNABLA  =     F    use nabla operator in PAW spheres
   LVEL    =     F    velocity operator in full k-point grid
   LINTERFAST=   F  fast interpolation
   KINTER  =     0    interpolate to denser k-point grid
   CSHIFT  =0.1000    complex shift for real part using Kramers Kronig
   OMEGAMAX=  -1.0    maximum frequency
   DEG_THRESHOLD= 0.2000000E-02 threshold for treating states as degnerate
   RTIME   =   -0.100 relaxation time in fs
  (WPLASMAI=    0.000 imaginary part of plasma frequency in eV, 0.658/RTIME)
   DFIELD  = 0.0000000 0.0000000 0.0000000 field for delta impulse in time

 Orbital magnetization related:
   ORBITALMAG=     F  switch on orbital magnetization
   LCHIMAG   =     F  perturbation theory with respect to B field
   DQ        =  0.001000  dq finite difference perturbation B field
   LLRAUG    =     F  two centre corrections for induced B field



--------------------------------------------------------------------------------------------------------


 Static calculation
 charge density and potential will be updated during run
 non-spin polarized calculation
 Variant of blocked Davidson
 Davidson routine will perform the subspace rotation
 perform sub-space diagonalisation
    after iterative eigenvector-optimisation
 modified Broyden-mixing scheme, WC =      100.0
 initial mixing is a Kerker type mixing with AMIX =  0.4000 and BMIX =      1.0000
 Hartree-type preconditioning will be used
 using additional bands            3
 reciprocal scheme for non local part
 use partial core corrections
 calculate Harris-corrections to forces
   (improved forces if not selfconsistent)
 use gradient corrections
 use of overlap-Matrix (Vanderbilt PP)
 Gauss-broadening in eV      SIGMA  =   0.01


--------------------------------------------------------------------------------------------------------


  energy-cutoff  :      700.00
  volume of cell :       56.51
      direct lattice vectors                 reciprocal lattice vectors
     0.000000000  3.045698614  3.045698614    -0.164165948  0.164165948  0.164165948
     3.045698614  0.000000000  3.045698614     0.164165948 -0.164165948  0.164165948
     3.045698614  3.045698614  0.000000000     0.164165948  0.164165948 -0.164165948

  length of vectors
     4.307268287  4.307268287  4.307268287     0.284343763  0.284343763  0.284343763



 k-points in units of 2pi/SCALE and weight: KPOINTS
   0.00000000  0.00000000  0.00000000       0.000
  -0.01210135  0.01210135  0.01210135       0.004
  -0.02420271  0.02420271  0.02420271       0.004
  -0.03630406  0.03630406  0.03630406       0.004
  -0.04840541  0.04840541  0.04840541       0.004
  -0.06050677  0.06050677  0.06050677       0.004
  -0.07260812  0.07260812  0.07260812       0.004
  -0.00000000  0.00000000  0.02420271       0.003
  -0.01210135  0.01210135  0.03630406       0.011
  -0.02420271  0.02420271  0.04840541       0.011
  -0.03630406  0.03630406  0.06050677       0.011
  -0.04840541  0.04840541  0.07260812       0.011
  -0.06050677  0.06050677  0.08470948       0.011
   0.08470948 -0.08470948 -0.06050677       0.011
   0.07260812 -0.07260812 -0.04840541       0.011
   0.06050677 -0.06050677 -0.03630406       0.011
   0.04840541 -0.04840541 -0.02420271       0.011
   0.03630406 -0.03630406 -0.01210135       0.011
   0.02420271 -0.02420271 -0.00000000       0.005
  -0.00000000  0.00000000  0.04840541       0.003
  -0.01210135  0.01210135  0.06050677       0.011
  -0.02420271  0.02420271  0.07260812       0.011
  -0.03630406  0.03630406  0.08470948       0.011
  -0.04840541  0.04840541  0.09681083       0.011
   0.09681083 -0.09681083 -0.04840541       0.011
   0.08470948 -0.08470948 -0.03630406       0.011
   0.07260812 -0.07260812 -0.02420271       0.011
   0.06050677 -0.06050677 -0.01210135       0.011
   0.04840541 -0.04840541 -0.00000000       0.005
   0.00000000 -0.00000000  0.07260812       0.003
  -0.01210135  0.01210135  0.08470948       0.011
  -0.02420271  0.02420271  0.09681083       0.011
  -0.03630406  0.03630406  0.10891218       0.011
   0.10891218 -0.10891218 -0.03630406       0.011
   0.09681083 -0.09681083 -0.02420271       0.011
   0.08470948 -0.08470948 -0.01210135       0.011
   0.07260812 -0.07260812  0.00000000       0.005
  -0.00000000  0.00000000  0.09681083       0.003
  -0.01210135  0.01210135  0.10891218       0.011
  -0.02420271  0.02420271  0.12101354       0.011
   0.12101354 -0.12101354 -0.02420271       0.011
   0.10891218 -0.10891218 -0.01210135       0.011
   0.09681083 -0.09681083 -0.00000000       0.005
  -0.00000000  0.00000000  0.12101354       0.003
  -0.01210135  0.01210135  0.13311489       0.011
   0.13311489 -0.13311489 -0.01210135       0.011
   0.12101354 -0.12101354 -0.00000000       0.005
   0.00000000 -0.00000000  0.14521624       0.003
   0.14521624 -0.14521624  0.00000000       0.005
   0.00000000  0.02420271  0.04840541       0.011
  -0.01210135  0.03630406  0.06050677       0.022
  -0.02420271  0.04840541  0.07260812       0.022
  -0.03630406  0.06050677  0.08470948       0.022
   0.10891218 -0.08470948 -0.06050677       0.022
   0.00000000  0.02420271  0.07260812       0.011
  -0.01210135  0.03630406  0.08470948       0.022
  -0.02420271  0.04840541  0.09681083       0.022
   0.12101354 -0.09681083 -0.04840541       0.022
   0.10891218 -0.08470948 -0.03630406       0.022
   0.09681083 -0.07260812 -0.02420271       0.022
   0.08470948 -0.06050677 -0.01210135       0.022
   0.07260812 -0.04840541  0.00000000       0.011
  -0.00000000  0.02420271  0.09681083       0.011
  -0.01210135  0.03630406  0.10891218       0.022
   0.13311489 -0.10891218 -0.03630406       0.022
   0.12101354 -0.09681083 -0.02420271       0.022
   0.10891218 -0.08470948 -0.01210135       0.022
   0.09681083 -0.07260812 -0.00000000       0.011
   0.00000000  0.02420271  0.12101354       0.011
   0.14521624 -0.12101354 -0.02420271       0.022
   0.13311489 -0.10891218 -0.01210135       0.022
   0.12101354 -0.09681083  0.00000000       0.011
   0.15731760 -0.13311489 -0.01210135       0.011
   0.14521624 -0.12101354 -0.00000000       0.011
   0.00000000  0.04840541  0.09681083       0.011
   0.14521624 -0.09681083 -0.04840541       0.022
   0.13311489 -0.08470948 -0.03630406       0.022
   0.15731760 -0.10891218 -0.03630406       0.011
   0.14521624 -0.09681083 -0.02420271       0.022
   0.13311489 -0.08470948 -0.01210135       0.022
   0.12101354 -0.07260812  0.00000000       0.011
   0.15731760 -0.10891218 -0.01210135       0.011
   0.14521624 -0.09681083  0.00000000       0.011
   0.15731760 -0.08470948 -0.01210135       0.011

 k-points in reciprocal lattice and weights: KPOINTS
   0.00000000  0.00000000  0.00000000       0.000
   0.07692308  0.00000000 -0.00000000       0.004
   0.15384615  0.00000000 -0.00000000       0.004
   0.23076923 -0.00000000  0.00000000       0.004
   0.30769231  0.00000000 -0.00000000       0.004
   0.38461538 -0.00000000 -0.00000000       0.004
   0.46153846 -0.00000000 -0.00000000       0.004
   0.07692308  0.07692308 -0.00000000       0.003
   0.15384615  0.07692308 -0.00000000       0.011
   0.23076923  0.07692308 -0.00000000       0.011
   0.30769231  0.07692308 -0.00000000       0.011
   0.38461538  0.07692308  0.00000000       0.011
   0.46153846  0.07692308 -0.00000000       0.011
  -0.46153846  0.07692308  0.00000000       0.011
  -0.38461538  0.07692308 -0.00000000       0.011
  -0.30769231  0.07692308 -0.00000000       0.011
  -0.23076923  0.07692308  0.00000000       0.011
  -0.15384615  0.07692308 -0.00000000       0.011
  -0.07692308  0.07692308  0.00000000       0.005
   0.15384615  0.15384615 -0.00000000       0.003
   0.23076923  0.15384615 -0.00000000       0.011
   0.30769231  0.15384615 -0.00000000       0.011
   0.38461538  0.15384615 -0.00000000       0.011
   0.46153846  0.15384615 -0.00000000       0.011
  -0.46153846  0.15384615  0.00000000       0.011
  -0.38461538  0.15384615  0.00000000       0.011
  -0.30769231  0.15384615 -0.00000000       0.011
  -0.23076923  0.15384615  0.00000000       0.011
  -0.15384615  0.15384615  0.00000000       0.005
   0.23076923  0.23076923 -0.00000000       0.003
   0.30769231  0.23076923 -0.00000000       0.011
   0.38461538  0.23076923 -0.00000000       0.011
   0.46153846  0.23076923 -0.00000000       0.011
  -0.46153846  0.23076923  0.00000000       0.011
  -0.38461538  0.23076923  0.00000000       0.011
  -0.30769231  0.23076923  0.00000000       0.011
  -0.23076923  0.23076923 -0.00000000       0.005
   0.30769231  0.30769231 -0.00000000       0.003
   0.38461538  0.30769231 -0.00000000       0.011
   0.46153846  0.30769231 -0.00000000       0.011
  -0.46153846  0.30769231  0.00000000       0.011
  -0.38461538  0.30769231 -0.00000000       0.011
  -0.30769231  0.30769231  0.00000000       0.005
   0.38461538  0.38461538 -0.00000000       0.003
   0.46153846  0.38461538 -0.00000000       0.011
  -0.46153846  0.38461538  0.00000000       0.011
  -0.38461538  0.38461538  0.00000000       0.005
   0.46153846  0.46153846 -0.00000000       0.003
  -0.46153846  0.46153846 -0.00000000       0.005
   0.23076923  0.15384615  0.07692308       0.011
   0.30769231  0.15384615  0.07692308       0.022
   0.38461538  0.15384615  0.07692308       0.022
   0.46153846  0.15384615  0.07692308       0.022
  -0.46153846  0.15384615  0.07692308       0.022
   0.30769231  0.23076923  0.07692308       0.011
   0.38461538  0.23076923  0.07692308       0.022
   0.46153846  0.23076923  0.07692308       0.022
  -0.46153846  0.23076923  0.07692308       0.022
  -0.38461538  0.23076923  0.07692308       0.022
  -0.30769231  0.23076923  0.07692308       0.022
  -0.23076923  0.23076923  0.07692308       0.022
  -0.15384615  0.23076923  0.07692308       0.011
   0.38461538  0.30769231  0.07692308       0.011
   0.46153846  0.30769231  0.07692308       0.022
  -0.46153846  0.30769231  0.07692308       0.022
  -0.38461538  0.30769231  0.07692308       0.022
  -0.30769231  0.30769231  0.07692308       0.022
  -0.23076923  0.30769231  0.07692308       0.011
   0.46153846  0.38461538  0.07692308       0.011
  -0.46153846  0.38461538  0.07692308       0.022
  -0.38461538  0.38461538  0.07692308       0.022
  -0.30769231  0.38461538  0.07692308       0.011
  -0.46153846  0.46153846  0.07692308       0.011
  -0.38461538  0.46153846  0.07692308       0.011
   0.46153846  0.30769231  0.15384615       0.011
  -0.46153846  0.30769231  0.15384615       0.022
  -0.38461538  0.30769231  0.15384615       0.022
  -0.46153846  0.38461538  0.15384615       0.011
  -0.38461538  0.38461538  0.15384615       0.022
  -0.30769231  0.38461538  0.15384615       0.022
  -0.23076923  0.38461538  0.15384615       0.011
  -0.38461538  0.46153846  0.15384615       0.011
  -0.30769231  0.46153846  0.15384615       0.011
  -0.30769231  0.46153846  0.23076923       0.011

 position of ions in fractional coordinates (direct lattice)
   0.75000000  0.75000000  0.75000000
   0.25000000  0.25000000  0.25000000
   0.00000000  0.00000000  0.00000000

 position of ions in cartesian coordinates  (Angst):
   4.56854792  4.56854792  4.56854792
   1.52284931  1.52284931  1.52284931
   0.00000000  0.00000000  0.00000000



--------------------------------------------------------------------------------------------------------


 k-point  1 :   0.0000 0.0000 0.0000  plane waves:    2421
 k-point  2 :   0.0769 0.0000-0.0000  plane waves:    2373
 k-point  3 :   0.1538 0.0000-0.0000  plane waves:    2376
 k-point  4 :   0.2308-0.0000 0.0000  plane waves:    2397
 k-point  5 :   0.3077 0.0000-0.0000  plane waves:    2379
 k-point  6 :   0.3846-0.0000-0.0000  plane waves:    2394
 k-point  7 :   0.4615-0.0000-0.0000  plane waves:    2377
 k-point  8 :   0.0769 0.0769-0.0000  plane waves:    2381
 k-point  9 :   0.1538 0.0769-0.0000  plane waves:    2368
 k-point 10 :   0.2308 0.0769-0.0000  plane waves:    2377
 k-point 11 :   0.3077 0.0769-0.0000  plane waves:    2387
 k-point 12 :   0.3846 0.0769 0.0000  plane waves:    2389
 k-point 13 :   0.4615 0.0769-0.0000  plane waves:    2380
 k-point 14 :  -0.4615 0.0769 0.0000  plane waves:    2382
 k-point 15 :  -0.3846 0.0769-0.0000  plane waves:    2387
 k-point 16 :  -0.3077 0.0769-0.0000  plane waves:    2394
 k-point 17 :  -0.2308 0.0769 0.0000  plane waves:    2376
 k-point 18 :  -0.1538 0.0769-0.0000  plane waves:    2376
 k-point 19 :  -0.0769 0.0769 0.0000  plane waves:    2363
 k-point 20 :   0.1538 0.1538-0.0000  plane waves:    2369
 k-point 21 :   0.2308 0.1538-0.0000  plane waves:    2381
 k-point 22 :   0.3077 0.1538-0.0000  plane waves:    2379
 k-point 23 :   0.3846 0.1538-0.0000  plane waves:    2373
 k-point 24 :   0.4615 0.1538-0.0000  plane waves:    2377
 k-point 25 :  -0.4615 0.1538 0.0000  plane waves:    2376
 k-point 26 :  -0.3846 0.1538 0.0000  plane waves:    2379
 k-point 27 :  -0.3077 0.1538-0.0000  plane waves:    2380
 k-point 28 :  -0.2308 0.1538 0.0000  plane waves:    2382
 k-point 29 :  -0.1538 0.1538 0.0000  plane waves:    2371
 k-point 30 :   0.2308 0.2308-0.0000  plane waves:    2381
 k-point 31 :   0.3077 0.2308-0.0000  plane waves:    2380
 k-point 32 :   0.3846 0.2308-0.0000  plane waves:    2383
 k-point 33 :   0.4615 0.2308-0.0000  plane waves:    2377
 k-point 34 :  -0.4615 0.2308 0.0000  plane waves:    2368
 k-point 35 :  -0.3846 0.2308 0.0000  plane waves:    2364
 k-point 36 :  -0.3077 0.2308 0.0000  plane waves:    2366
 k-point 37 :  -0.2308 0.2308-0.0000  plane waves:    2389
 k-point 38 :   0.3077 0.3077-0.0000  plane waves:    2393
 k-point 39 :   0.3846 0.3077-0.0000  plane waves:    2382
 k-point 40 :   0.4615 0.3077-0.0000  plane waves:    2377
 k-point 41 :  -0.4615 0.3077 0.0000  plane waves:    2368
 k-point 42 :  -0.3846 0.3077-0.0000  plane waves:    2369
 k-point 43 :  -0.3077 0.3077 0.0000  plane waves:    2357
 k-point 44 :   0.3846 0.3846-0.0000  plane waves:    2377
 k-point 45 :   0.4615 0.3846-0.0000  plane waves:    2375
 k-point 46 :  -0.4615 0.3846 0.0000  plane waves:    2374
 k-point 47 :  -0.3846 0.3846 0.0000  plane waves:    2364
 k-point 48 :   0.4615 0.4615-0.0000  plane waves:    2382
 k-point 49 :  -0.4615 0.4615-0.0000  plane waves:    2376
 k-point 50 :   0.2308 0.1538 0.0769  plane waves:    2383
 k-point 51 :   0.3077 0.1538 0.0769  plane waves:    2377
 k-point 52 :   0.3846 0.1538 0.0769  plane waves:    2379
 k-point 53 :   0.4615 0.1538 0.0769  plane waves:    2383
 k-point 54 :  -0.4615 0.1538 0.0769  plane waves:    2383
 k-point 55 :   0.3077 0.2308 0.0769  plane waves:    2380
 k-point 56 :   0.3846 0.2308 0.0769  plane waves:    2383
 k-point 57 :   0.4615 0.2308 0.0769  plane waves:    2377
 k-point 58 :  -0.4615 0.2308 0.0769  plane waves:    2373
 k-point 59 :  -0.3846 0.2308 0.0769  plane waves:    2373
 k-point 60 :  -0.3077 0.2308 0.0769  plane waves:    2372
 k-point 61 :  -0.2308 0.2308 0.0769  plane waves:    2380
 k-point 62 :  -0.1538 0.2308 0.0769  plane waves:    2378
 k-point 63 :   0.3846 0.3077 0.0769  plane waves:    2377
 k-point 64 :   0.4615 0.3077 0.0769  plane waves:    2379
 k-point 65 :  -0.4615 0.3077 0.0769  plane waves:    2371
 k-point 66 :  -0.3846 0.3077 0.0769  plane waves:    2373
 k-point 67 :  -0.3077 0.3077 0.0769  plane waves:    2370
 k-point 68 :  -0.2308 0.3077 0.0769  plane waves:    2372
 k-point 69 :   0.4615 0.3846 0.0769  plane waves:    2382
 k-point 70 :  -0.4615 0.3846 0.0769  plane waves:    2378
 k-point 71 :  -0.3846 0.3846 0.0769  plane waves:    2365
 k-point 72 :  -0.3077 0.3846 0.0769  plane waves:    2357
 k-point 73 :  -0.4615 0.4615 0.0769  plane waves:    2373
 k-point 74 :  -0.3846 0.4615 0.0769  plane waves:    2381
 k-point 75 :   0.4615 0.3077 0.1538  plane waves:    2373
 k-point 76 :  -0.4615 0.3077 0.1538  plane waves:    2376
 k-point 77 :  -0.3846 0.3077 0.1538  plane waves:    2377
 k-point 78 :  -0.4615 0.3846 0.1538  plane waves:    2382
 k-point 79 :  -0.3846 0.3846 0.1538  plane waves:    2381
 k-point 80 :  -0.3077 0.3846 0.1538  plane waves:    2367
 k-point 81 :  -0.2308 0.3846 0.1538  plane waves:    2374
 k-point 82 :  -0.3846 0.4615 0.1538  plane waves:    2378
 k-point 83 :  -0.3077 0.4615 0.1538  plane waves:    2367
 k-point 84 :  -0.3077 0.4615 0.2308  plane waves:    2366

 maximum and minimum number of plane-waves per node :       613      580

 maximum number of plane-waves:      2421
 maximum index in each direction:
   IXMAX=    9   IYMAX=    9   IZMAX=    9
   IXMIN=   -9   IYMIN=   -9   IZMIN=   -9


 parallel 3D FFT for wavefunctions:
    minimum data exchange during FFTs selected (reduces bandwidth)
 parallel 3D FFT for charge:
    minimum data exchange during FFTs selected (reduces bandwidth)


 total amount of memory used by VASP MPI-rank0    63750. kBytes
=======================================================================

   base      :      30000. kBytes
   nonl-proj :      22382. kBytes
   fftplans  :       5202. kBytes
   grid      :       2732. kBytes
   one-center:         15. kBytes
   wavefun   :       3419. kBytes

     INWAV:  cpu time    0.0003: real time    0.1019
 Broyden mixing: mesh for mixing (old mesh)
   NGX = 19   NGY = 19   NGZ = 19
  (NGX  = 80   NGY  = 80   NGZ  = 80)
  gives a total of   6859 points

 initial charge density was supplied:
 charge density of overlapping atoms calculated
 number of electron      25.0000000 magnetization
 keeping initial charge density in first step


--------------------------------------------------------------------------------------------------------


 Maximum index for augmentation-charges        33609 (set IRDMAX)


--------------------------------------------------------------------------------------------------------


 First call to EWALD:  gamma=   0.462
 Maximum number of real-space cells 3x 3x 3
 Maximum number of reciprocal cells 3x 3x 3

    FEWALD:  cpu time    0.0053: real time    0.0057


--------------------------------------- Iteration      1(   1)  ---------------------------------------


    POTLOK:  cpu time    0.0479: real time    0.1242
    SETDIJ:  cpu time    0.0873: real time    0.0875
     EDDAV:  cpu time    0.9067: real time    0.9103
       DOS:  cpu time    0.0034: real time    0.0327
    --------------------------------------------
      LOOP:  cpu time    1.0456: real time    1.1553

 eigenvalue-minimisations  :  2696
 total energy-change (2. order) : 0.1492379E+03  (-0.1466586E+04)
 number of electron      25.0000000 magnetization
 augmentation part       25.0000000 magnetization

 Free energy of the ion-electron system (eV)
  ---------------------------------------------------
  alpha Z        PSCENC =       120.56795771
  Ewald energy   TEWEN  =     -1632.48574301
  -Hartree energ DENC   =      -300.67981470
  -exchange      EXHF   =         0.00000000
  -V(xc)+E(xc)   XCENC  =       -17.84432163
  PAW double counting   =      1514.36848356    -1421.27055995
  entropy T*S    EENTRO =        -0.00006429
  eigenvalues    EBANDS =       145.47747013
  atomic energy  EATOM  =      1741.10451121
  Solvation  Ediel_sol  =         0.00000000
  ---------------------------------------------------
  free energy    TOTEN  =       149.23791903 eV

  energy without entropy =      149.23798332  energy(sigma->0) =      149.23795117


--------------------------------------------------------------------------------------------------------




--------------------------------------- Iteration      1(   2)  ---------------------------------------


     EDDAV:  cpu time    1.0720: real time    1.0986
       DOS:  cpu time    0.0027: real time    0.0030
    --------------------------------------------
      LOOP:  cpu time    1.0747: real time    1.1027

 eigenvalue-minimisations  :  3424
 total energy-change (2. order) :-0.1688759E+03  (-0.1673633E+03)
 number of electron      25.0000000 magnetization
 augmentation part       25.0000000 magnetization

 Free energy of the ion-electron system (eV)
  ---------------------------------------------------
  alpha Z        PSCENC =       120.56795771
  Ewald energy   TEWEN  =     -1632.48574301
  -Hartree energ DENC   =      -300.67981470
  -exchange      EXHF   =         0.00000000
  -V(xc)+E(xc)   XCENC  =       -17.84432163
  PAW double counting   =      1514.36848356    -1421.27055995
  entropy T*S    EENTRO =        -0.00025114
  eigenvalues    EBANDS =       -23.39827141
  atomic energy  EATOM  =      1741.10451121
  Solvation  Ediel_sol  =         0.00000000
  ---------------------------------------------------
  free energy    TOTEN  =       -19.63800936 eV

  energy without entropy =      -19.63775822  energy(sigma->0) =      -19.63788379


--------------------------------------------------------------------------------------------------------




--------------------------------------- Iteration      1(   3)  ---------------------------------------


     EDDAV:  cpu time    1.1342: real time    1.1522
       DOS:  cpu time    0.0026: real time    0.0028
    --------------------------------------------
      LOOP:  cpu time    1.1368: real time    1.1553

 eigenvalue-minimisations  :  3512
 total energy-change (2. order) :-0.4609904E+01  (-0.4579367E+01)
 number of electron      25.0000000 magnetization
 augmentation part       25.0000000 magnetization

 Free energy of the ion-electron system (eV)
  ---------------------------------------------------
  alpha Z        PSCENC =       120.56795771
  Ewald energy   TEWEN  =     -1632.48574301
  -Hartree energ DENC   =      -300.67981470
  -exchange      EXHF   =         0.00000000
  -V(xc)+E(xc)   XCENC  =       -17.84432163
  PAW double counting   =      1514.36848356    -1421.27055995
  entropy T*S    EENTRO =        -0.00024312
  eigenvalues    EBANDS =       -28.00818324
  atomic energy  EATOM  =      1741.10451121
  Solvation  Ediel_sol  =         0.00000000
  ---------------------------------------------------
  free energy    TOTEN  =       -24.24791317 eV

  energy without entropy =      -24.24767005  energy(sigma->0) =      -24.24779161


--------------------------------------------------------------------------------------------------------




--------------------------------------- Iteration      1(   4)  ---------------------------------------


     EDDAV:  cpu time    1.0910: real time    1.1135
       DOS:  cpu time    0.0026: real time    0.0028
    --------------------------------------------
      LOOP:  cpu time    1.0937: real time    1.1171

 eigenvalue-minimisations  :  3456
 total energy-change (2. order) :-0.6112380E-01  (-0.6056573E-01)
 number of electron      25.0000000 magnetization
 augmentation part       25.0000000 magnetization

 Free energy of the ion-electron system (eV)
  ---------------------------------------------------
  alpha Z        PSCENC =       120.56795771
  Ewald energy   TEWEN  =     -1632.48574301
  -Hartree energ DENC   =      -300.67981470
  -exchange      EXHF   =         0.00000000
  -V(xc)+E(xc)   XCENC  =       -17.84432163
  PAW double counting   =      1514.36848356    -1421.27055995
  entropy T*S    EENTRO =        -0.00020356
  eigenvalues    EBANDS =       -28.06934660
  atomic energy  EATOM  =      1741.10451121
  Solvation  Ediel_sol  =         0.00000000
  ---------------------------------------------------
  free energy    TOTEN  =       -24.30903697 eV

  energy without entropy =      -24.30883342  energy(sigma->0) =      -24.30893520


--------------------------------------------------------------------------------------------------------




--------------------------------------- Iteration      1(   5)  ---------------------------------------


     EDDAV:  cpu time    1.1285: real time    1.1523
       DOS:  cpu time    0.0025: real time    0.0027
    CHARGE:  cpu time    0.2767: real time    0.2780
    MIXING:  cpu time    0.0048: real time    0.0053
    --------------------------------------------
      LOOP:  cpu time    1.4125: real time    1.4372

 eigenvalue-minimisations  :  3488
 total energy-change (2. order) :-0.1321881E-02  (-0.1318294E-02)
 number of electron      25.0000000 magnetization
 augmentation part        4.8132305 magnetization

 Broyden mixing:
  rms(total) = 0.52533E+01    rms(broyden)= 0.52533E+01
  rms(prec ) = 0.53992E+01
  weight for this iteration     100.00

 Free energy of the ion-electron system (eV)
  ---------------------------------------------------
  alpha Z        PSCENC =       120.56795771
  Ewald energy   TEWEN  =     -1632.48574301
  -Hartree energ DENC   =      -300.67981470
  -exchange      EXHF   =         0.00000000
  -V(xc)+E(xc)   XCENC  =       -17.84432163
  PAW double counting   =      1514.36848356    -1421.27055995
  entropy T*S    EENTRO =        -0.00019076
  eigenvalues    EBANDS =       -28.07068129
  atomic energy  EATOM  =      1741.10451121
  Solvation  Ediel_sol  =         0.00000000
  ---------------------------------------------------
  free energy    TOTEN  =       -24.31035886 eV

  energy without entropy =      -24.31016810  energy(sigma->0) =      -24.31026348


--------------------------------------------------------------------------------------------------------




--------------------------------------- Iteration      1(   6)  ---------------------------------------


    POTLOK:  cpu time    0.0442: real time    0.0577
    SETDIJ:  cpu time    0.0877: real time    0.0878
     EDDAV:  cpu time    1.0820: real time    1.0821
       DOS:  cpu time    0.0026: real time    0.0030
    CHARGE:  cpu time    0.2197: real time    0.2203
    MIXING:  cpu time    0.0048: real time    0.0052
    --------------------------------------------
      LOOP:  cpu time    1.4410: real time    1.4710

 eigenvalue-minimisations  :  3504
 total energy-change (2. order) : 0.5819549E+00  (-0.1202727E+00)
 number of electron      25.0000000 magnetization
 augmentation part        4.9724732 magnetization

 Broyden mixing:
  rms(total) = 0.31155E+01    rms(broyden)= 0.31155E+01
  rms(prec ) = 0.31604E+01
  weight for this iteration     100.00

 eigenvalues of (default mixing * dielectric matrix)
  average eigenvalue GAMMA=   2.4221
  2.4221

 Free energy of the ion-electron system (eV)
  ---------------------------------------------------
  alpha Z        PSCENC =       120.56795771
  Ewald energy   TEWEN  =     -1632.48574301
  -Hartree energ DENC   =      -287.95522602
  -exchange      EXHF   =         0.00000000
  -V(xc)+E(xc)   XCENC  =       -18.24633699
  PAW double counting   =      2138.73722506    -2048.45662605
  entropy T*S    EENTRO =        -0.00014100
  eigenvalues    EBANDS =       -36.99402490
  atomic energy  EATOM  =      1741.10451121
  Solvation  Ediel_sol  =         0.00000000
  ---------------------------------------------------
  free energy    TOTEN  =       -23.72840399 eV

  energy without entropy =      -23.72826298  energy(sigma->0) =      -23.72833349


--------------------------------------------------------------------------------------------------------




--------------------------------------- Iteration      1(   7)  ---------------------------------------


    POTLOK:  cpu time    0.0357: real time    0.0633
    SETDIJ:  cpu time    0.0808: real time    0.0809
     EDDAV:  cpu time    1.1156: real time    1.1158
       DOS:  cpu time    0.0027: real time    0.0029
    CHARGE:  cpu time    0.1742: real time    0.1743
    MIXING:  cpu time    0.0045: real time    0.0048
    --------------------------------------------
      LOOP:  cpu time    1.4133: real time    1.4280

 eigenvalue-minimisations  :  3608
 total energy-change (2. order) : 0.1361818E+00  (-0.7892185E-01)
 number of electron      25.0000000 magnetization
 augmentation part        4.9923166 magnetization

 Broyden mixing:
  rms(total) = 0.40490E+00    rms(broyden)= 0.40490E+00
  rms(prec ) = 0.52161E+00
  weight for this iteration     100.00

 eigenvalues of (default mixing * dielectric matrix)
  average eigenvalue GAMMA=   1.8542
  1.1005  2.6080

 Free energy of the ion-electron system (eV)
  ---------------------------------------------------
  alpha Z        PSCENC =       120.56795771
  Ewald energy   TEWEN  =     -1632.48574301
  -Hartree energ DENC   =      -280.82314507
  -exchange      EXHF   =         0.00000000
  -V(xc)+E(xc)   XCENC  =       -18.38919497
  PAW double counting   =      3166.39162722    -3079.59372321
  entropy T*S    EENTRO =        -0.00036401
  eigenvalues    EBANDS =       -40.36414805
  atomic energy  EATOM  =      1741.10451121
  Solvation  Ediel_sol  =         0.00000000
  ---------------------------------------------------
  free energy    TOTEN  =       -23.59222218 eV

  energy without entropy =      -23.59185817  energy(sigma->0) =      -23.59204017


--------------------------------------------------------------------------------------------------------




--------------------------------------- Iteration      1(   8)  ---------------------------------------


    POTLOK:  cpu time    0.0331: real time    0.0598
    SETDIJ:  cpu time    0.0813: real time    0.0814
     EDDAV:  cpu time    1.0439: real time    1.0457
       DOS:  cpu time    0.0025: real time    0.0028
    CHARGE:  cpu time    0.1763: real time    0.1764
    MIXING:  cpu time    0.0054: real time    0.0055
    --------------------------------------------
      LOOP:  cpu time    1.3425: real time    1.3728

 eigenvalue-minimisations  :  3344
 total energy-change (2. order) : 0.3215571E-01  (-0.2703700E-01)
 number of electron      25.0000000 magnetization
 augmentation part        5.0322137 magnetization

 Broyden mixing:
  rms(total) = 0.94942E-01    rms(broyden)= 0.94942E-01
  rms(prec ) = 0.14815E+00
  weight for this iteration     100.00

 eigenvalues of (default mixing * dielectric matrix)
  average eigenvalue GAMMA=   1.5714
  2.5515  1.4769  0.6860

 Free energy of the ion-electron system (eV)
  ---------------------------------------------------
  alpha Z        PSCENC =       120.56795771
  Ewald energy   TEWEN  =     -1632.48574301
  -Hartree energ DENC   =      -280.60930010
  -exchange      EXHF   =         0.00000000
  -V(xc)+E(xc)   XCENC  =       -18.36538364
  PAW double counting   =      3257.36527957    -3170.73949859
  entropy T*S    EENTRO =        -0.00015537
  eigenvalues    EBANDS =       -40.39773424
  atomic energy  EATOM  =      1741.10451121
  Solvation  Ediel_sol  =         0.00000000
  ---------------------------------------------------
  free energy    TOTEN  =       -23.56006646 eV

  energy without entropy =      -23.55991109  energy(sigma->0) =      -23.55998878


--------------------------------------------------------------------------------------------------------




--------------------------------------- Iteration      1(   9)  ---------------------------------------


    POTLOK:  cpu time    0.0321: real time    0.1368
    SETDIJ:  cpu time    0.0823: real time    0.0823
     EDDAV:  cpu time    1.0337: real time    1.0343
       DOS:  cpu time    0.0027: real time    0.0035
    CHARGE:  cpu time    0.1730: real time    0.1732
    MIXING:  cpu time    0.0058: real time    0.0061
    --------------------------------------------
      LOOP:  cpu time    1.3296: real time    1.4372

 eigenvalue-minimisations  :  3328
 total energy-change (2. order) : 0.3469508E-02  (-0.3091367E-02)
 number of electron      25.0000000 magnetization
 augmentation part        5.0114236 magnetization

 Broyden mixing:
  rms(total) = 0.52084E-01    rms(broyden)= 0.52084E-01
  rms(prec ) = 0.58472E-01
  weight for this iteration     100.00

 eigenvalues of (default mixing * dielectric matrix)
  average eigenvalue GAMMA=   1.4222
  2.3900  1.3845  1.2325  0.6817

 Free energy of the ion-electron system (eV)
  ---------------------------------------------------
  alpha Z        PSCENC =       120.56795771
  Ewald energy   TEWEN  =     -1632.48574301
  -Hartree energ DENC   =      -281.97556279
  -exchange      EXHF   =         0.00000000
  -V(xc)+E(xc)   XCENC  =       -18.31340056
  PAW double counting   =      3242.06854614    -3155.34983840
  entropy T*S    EENTRO =        -0.00015236
  eigenvalues    EBANDS =       -39.17291491
  atomic energy  EATOM  =      1741.10451121
  Solvation  Ediel_sol  =         0.00000000
  ---------------------------------------------------
  free energy    TOTEN  =       -23.55659696 eV

  energy without entropy =      -23.55644460  energy(sigma->0) =      -23.55652078


--------------------------------------------------------------------------------------------------------




--------------------------------------- Iteration      1(  10)  ---------------------------------------


    POTLOK:  cpu time    0.0333: real time    0.0681
    SETDIJ:  cpu time    0.0803: real time    0.0808
     EDDAV:  cpu time    1.0544: real time    1.0546
       DOS:  cpu time    0.0026: real time    0.0028
    CHARGE:  cpu time    0.1756: real time    0.1757
    MIXING:  cpu time    0.0043: real time    0.0043
    --------------------------------------------
      LOOP:  cpu time    1.3506: real time    1.3855

 eigenvalue-minimisations  :  3360
 total energy-change (2. order) : 0.1530436E-03  (-0.1851187E-03)
 number of electron      25.0000000 magnetization
 augmentation part        5.0090662 magnetization

 Broyden mixing:
  rms(total) = 0.20511E-01    rms(broyden)= 0.20511E-01
  rms(prec ) = 0.22336E-01
  weight for this iteration     100.00

 eigenvalues of (default mixing * dielectric matrix)
  average eigenvalue GAMMA=   1.4112
  2.4250  1.8217  0.6993  1.1290  0.9808

 Free energy of the ion-electron system (eV)
  ---------------------------------------------------
  alpha Z        PSCENC =       120.56795771
  Ewald energy   TEWEN  =     -1632.48574301
  -Hartree energ DENC   =      -281.97994688
  -exchange      EXHF   =         0.00000000
  -V(xc)+E(xc)   XCENC  =       -18.31520896
  PAW double counting   =      3231.83569612    -3145.02573562
  entropy T*S    EENTRO =        -0.00015277
  eigenvalues    EBANDS =       -39.25782171
  atomic energy  EATOM  =      1741.10451121
  Solvation  Ediel_sol  =         0.00000000
  ---------------------------------------------------
  free energy    TOTEN  =       -23.55644391 eV

  energy without entropy =      -23.55629114  energy(sigma->0) =      -23.55636753


--------------------------------------------------------------------------------------------------------




--------------------------------------- Iteration      1(  11)  ---------------------------------------


    POTLOK:  cpu time    0.0355: real time    0.0738
    SETDIJ:  cpu time    0.0829: real time    0.0830
     EDDAV:  cpu time    1.0573: real time    1.0575
       DOS:  cpu time    0.0026: real time    0.0028
    CHARGE:  cpu time    0.1704: real time    0.1705
    MIXING:  cpu time    0.0051: real time    0.0059
    --------------------------------------------
      LOOP:  cpu time    1.3540: real time    1.3934

 eigenvalue-minimisations  :  3416
 total energy-change (2. order) : 0.9853278E-05  (-0.1104809E-04)
 number of electron      25.0000000 magnetization
 augmentation part        5.0101865 magnetization

 Broyden mixing:
  rms(total) = 0.71067E-02    rms(broyden)= 0.71067E-02
  rms(prec ) = 0.74729E-02
  weight for this iteration     100.00

 eigenvalues of (default mixing * dielectric matrix)
  average eigenvalue GAMMA=   1.4700
  2.5287  2.2867  0.7090  1.1639  1.1639  0.9677

 Free energy of the ion-electron system (eV)
  ---------------------------------------------------
  alpha Z        PSCENC =       120.56795771
  Ewald energy   TEWEN  =     -1632.48574301
  -Hartree energ DENC   =      -282.00002949
  -exchange      EXHF   =         0.00000000
  -V(xc)+E(xc)   XCENC  =       -18.31252372
  PAW double counting   =      3238.52701700    -3151.70408983
  entropy T*S    EENTRO =        -0.00015276
  eigenvalues    EBANDS =       -39.25338117
  atomic energy  EATOM  =      1741.10451121
  Solvation  Ediel_sol  =         0.00000000
  ---------------------------------------------------
  free energy    TOTEN  =       -23.55643406 eV

  energy without entropy =      -23.55628130  energy(sigma->0) =      -23.55635768


--------------------------------------------------------------------------------------------------------




--------------------------------------- Iteration      1(  12)  ---------------------------------------


    POTLOK:  cpu time    0.0334: real time    0.0665
    SETDIJ:  cpu time    0.0808: real time    0.0810
     EDDAV:  cpu time    1.0880: real time    1.0887
       DOS:  cpu time    0.0026: real time    0.0034
    CHARGE:  cpu time    0.1734: real time    0.1735
    MIXING:  cpu time    0.0055: real time    0.0055
    --------------------------------------------
      LOOP:  cpu time    1.3836: real time    1.4177

 eigenvalue-minimisations  :  3440
 total energy-change (2. order) :-0.2397872E-05  (-0.1324143E-05)
 number of electron      25.0000000 magnetization
 augmentation part        5.0100376 magnetization

 Broyden mixing:
  rms(total) = 0.14825E-02    rms(broyden)= 0.14825E-02
  rms(prec ) = 0.15710E-02
  weight for this iteration     100.00

 eigenvalues of (default mixing * dielectric matrix)
  average eigenvalue GAMMA=   1.5519
  2.4658  2.4658  2.0795  0.7102  1.0972  1.0972  0.9475

 Free energy of the ion-electron system (eV)
  ---------------------------------------------------
  alpha Z        PSCENC =       120.56795771
  Ewald energy   TEWEN  =     -1632.48574301
  -Hartree energ DENC   =      -282.03311711
  -exchange      EXHF   =         0.00000000
  -V(xc)+E(xc)   XCENC  =       -18.31046813
  PAW double counting   =      3241.26330802    -3154.43361241
  entropy T*S    EENTRO =        -0.00015258
  eigenvalues    EBANDS =       -39.22912017
  atomic energy  EATOM  =      1741.10451121
  Solvation  Ediel_sol  =         0.00000000
  ---------------------------------------------------
  free energy    TOTEN  =       -23.55643646 eV

  energy without entropy =      -23.55628388  energy(sigma->0) =      -23.55636017


--------------------------------------------------------------------------------------------------------




--------------------------------------- Iteration      1(  13)  ---------------------------------------


    POTLOK:  cpu time    0.0601: real time    0.0825
    SETDIJ:  cpu time    0.0809: real time    0.0811
     EDDAV:  cpu time    1.0537: real time    1.0540
       DOS:  cpu time    0.0026: real time    0.0030
    CHARGE:  cpu time    0.1732: real time    0.1737
    MIXING:  cpu time    0.0052: real time    0.0054
    --------------------------------------------
      LOOP:  cpu time    1.3759: real time    1.4000

 eigenvalue-minimisations  :  3416
 total energy-change (2. order) : 0.7681499E-06  (-0.1055435E-06)
 number of electron      25.0000000 magnetization
 augmentation part        5.0100957 magnetization

 Broyden mixing:
  rms(total) = 0.16218E-03    rms(broyden)= 0.16216E-03
  rms(prec ) = 0.23763E-03
  weight for this iteration     100.00

 eigenvalues of (default mixing * dielectric matrix)
  average eigenvalue GAMMA=   1.5418
  2.5566  2.5566  2.0846  0.7099  1.3499  0.9625  1.0570  1.0570

 Free energy of the ion-electron system (eV)
  ---------------------------------------------------
  alpha Z        PSCENC =       120.56795771
  Ewald energy   TEWEN  =     -1632.48574301
  -Hartree energ DENC   =      -282.02641976
  -exchange      EXHF   =         0.00000000
  -V(xc)+E(xc)   XCENC  =       -18.31071267
  PAW double counting   =      3241.32640048    -3154.49357636
  entropy T*S    EENTRO =        -0.00015261
  eigenvalues    EBANDS =       -39.23870067
  atomic energy  EATOM  =      1741.10451121
  Solvation  Ediel_sol  =         0.00000000
  ---------------------------------------------------
  free energy    TOTEN  =       -23.55643569 eV

  energy without entropy =      -23.55628308  energy(sigma->0) =      -23.55635938


--------------------------------------------------------------------------------------------------------




--------------------------------------- Iteration      1(  14)  ---------------------------------------


    POTLOK:  cpu time    0.0331: real time    0.0753
    SETDIJ:  cpu time    0.0800: real time    0.0805
     EDDAV:  cpu time    0.8790: real time    0.8818
       DOS:  cpu time    0.0026: real time    0.0029
    --------------------------------------------
      LOOP:  cpu time    0.9947: real time    1.0393

 eigenvalue-minimisations  :  2392
 total energy-change (2. order) :-0.1123681E-08  (-0.7927713E-08)
 number of electron      25.0000000 magnetization
 augmentation part        5.0100957 magnetization

 Free energy of the ion-electron system (eV)
  ---------------------------------------------------
  alpha Z        PSCENC =       120.56795771
  Ewald energy   TEWEN  =     -1632.48574301
  -Hartree energ DENC   =      -282.02955970
  -exchange      EXHF   =         0.00000000
  -V(xc)+E(xc)   XCENC  =       -18.31055439
  PAW double counting   =      3241.44447237    -3154.61111436
  entropy T*S    EENTRO =        -0.00015259
  eigenvalues    EBANDS =       -39.23625292
  atomic energy  EATOM  =      1741.10451121
  Solvation  Ediel_sol  =         0.00000000
  ---------------------------------------------------
  free energy    TOTEN  =       -23.55643569 eV

  energy without entropy =      -23.55628310  energy(sigma->0) =      -23.55635939


--------------------------------------------------------------------------------------------------------




 average (electrostatic) potential at core
  the test charge radii are     1.1707  1.1712  1.2059
  (the norm of the test charge is              1.0000)
       1 -32.5941       2 -83.1199       3 -65.1257



 E-fermi :  10.7912     XC(G=0): -11.9798     alpha+bet :-15.4920


 k-point     1 :       0.0000    0.0000    0.0000
  band No.  band energies     occupation
      1     -21.2883      2.00000
      2     -21.2883      2.00000
      3     -21.2883      2.00000
      4      -3.1776      2.00000
      5       3.8232      2.00000
      6       3.8232      2.00000
      7       3.8232      2.00000
      8       4.6192      2.00000
      9       4.6192      2.00000
     10       8.7381      2.00000
     11       8.7381      2.00000
     12       8.7381      2.00000
     13      10.6086      2.00000
     14      11.7723      0.00000
     15      11.7723      0.00000
     16      11.7723      0.00000

 k-point     2 :       0.0769    0.0000   -0.0000
  band No.  band energies     occupation
      1     -21.2904      2.00000
      2     -21.2881      2.00000
      3     -21.2881      2.00000
      4      -3.0995      2.00000
      5       3.7488      2.00000
      6       3.7750      2.00000
      7       3.7750      2.00000
      8       4.6816      2.00000
      9       4.6816      2.00000
     10       8.2403      2.00000
     11       8.6729      2.00000
     12       8.6729      2.00000
     13      10.6355      2.00000
     14      11.5905      0.00000
     15      11.5905      0.00000
     16      12.3109      0.00000

 k-point     3 :       0.1538    0.0000   -0.0000
  band No.  band energies     occupation
      1     -21.2960      2.00000
      2     -21.2876      2.00000
      3     -21.2876      2.00000
      4      -2.8732      2.00000
      5       3.5400      2.00000
      6       3.6788      2.00000
      7       3.6788      2.00000
      8       4.8105      2.00000
      9       4.8105      2.00000
     10       7.3049      2.00000
     11       8.5113      2.00000
     12       8.5113      2.00000
     13      10.7002      2.00000
     14      11.4637      0.00000
     15      11.4637      0.00000
     16      13.0993      0.00000

 k-point     4 :       0.2308   -0.0000    0.0000
  band No.  band energies     occupation
      1     -21.3039      2.00000
      2     -21.2868      2.00000
      3     -21.2868      2.00000
      4      -2.5245      2.00000
      5       3.2272      2.00000
      6       3.5964      2.00000
      7       3.5964      2.00000
      8       4.9195      2.00000
      9       4.9195      2.00000
     10       6.4102      2.00000
     11       8.3294      2.00000
     12       8.3294      2.00000
     13      10.7780      1.93739
     14      11.4768      0.00000
     15      11.4768      0.00000
     16      13.8365      0.00000

 k-point     5 :       0.3077    0.0000   -0.0000
  band No.  band energies     occupation
      1     -21.3120      2.00000
      2     -21.2860      2.00000
      3     -21.2860      2.00000
      4      -2.1019      2.00000
      5       2.8449      2.00000
      6       3.5520      2.00000
      7       3.5520      2.00000
      8       4.9628      2.00000
      9       4.9628      2.00000
     10       5.7151      2.00000
     11       8.1928      2.00000
     12       8.1928      2.00000
     13      10.8557      0.00000
     14      11.6007      0.00000
     15      11.6007      0.00000
     16      13.3397      0.00000

 k-point     6 :       0.3846   -0.0000   -0.0000
  band No.  band energies     occupation
      1     -21.3187      2.00000
      2     -21.2853      2.00000
      3     -21.2853      2.00000
      4      -1.6880      2.00000
      5       2.4574      2.00000
      6       3.5422      2.00000
      7       3.5422      2.00000
      8       4.9463      2.00000
      9       4.9463      2.00000
     10       5.2687      2.00000
     11       8.1219      2.00000
     12       8.1219      2.00000
     13      10.9318      0.00000
     14      11.7839      0.00000
     15      11.7839      0.00000
     16      12.5047      0.00000

 k-point     7 :       0.4615   -0.0000   -0.0000
  band No.  band energies     occupation
      1     -21.3224      2.00000
      2     -21.2849      2.00000
      3     -21.2849      2.00000
      4      -1.4134      2.00000
      5       2.1926      2.00000
      6       3.5473      2.00000
      7       3.5473      2.00000
      8       4.9160      2.00000
      9       4.9160      2.00000
     10       5.0589      2.00000
     11       8.0978      2.00000
     12       8.0978      2.00000
     13      10.9968      0.00000
     14      11.9324      0.00000
     15      11.9324      0.00000
     16      12.0186      0.00000

 k-point     8 :       0.0769    0.0769   -0.0000
  band No.  band energies     occupation
      1     -21.2903      2.00000
      2     -21.2884      2.00000
      3     -21.2884      2.00000
      4      -3.0738      2.00000
      5       3.5592      2.00000
      6       3.8582      2.00000
      7       3.8582      2.00000
      8       4.6579      2.00000
      9       4.7173      2.00000
     10       8.3221      2.00000
     11       8.5293      2.00000
     12       8.5293      2.00000
     13      10.6018      2.00000
     14      11.5675      0.00000
     15      12.0368      0.00000
     16      12.0902      0.00000

 k-point     9 :       0.1538    0.0769   -0.0000
  band No.  band energies     occupation
      1     -21.2945      2.00000
      2     -21.2883      2.00000
      3     -21.2880      2.00000
      4      -2.8984      2.00000
      5       3.3273      2.00000
      6       3.8262      2.00000
      7       3.8473      2.00000
      8       4.7455      2.00000
      9       4.8059      2.00000
     10       7.5965      2.00000
     11       8.3304      2.00000
     12       8.4358      2.00000
     13      10.6939      2.00000
     14      11.3937      0.00000
     15      11.7585      0.00000
     16      12.6969      0.00000

 k-point    10 :       0.2308    0.0769   -0.0000
  band No.  band energies     occupation
      1     -21.3015      2.00000
      2     -21.2879      2.00000
      3     -21.2872      2.00000
      4      -2.5930      2.00000
      5       3.0895      2.00000
      6       3.7018      2.00000
      7       3.7892      2.00000
      8       4.8631      2.00000
      9       4.9092      2.00000
     10       6.7134      2.00000
     11       8.1536      2.00000
     12       8.2753      2.00000
     13      10.8984      0.00000
     14      11.3389      0.00000
     15      11.6022      0.00000
     16      13.3530      0.00000

 k-point    11 :       0.3077    0.0769   -0.0000
  band No.  band energies     occupation
      1     -21.3093      2.00000
      2     -21.2871      2.00000
      3     -21.2866      2.00000
      4      -2.1987      2.00000
      5       2.8276      2.00000
      6       3.5708      2.00000
      7       3.7310      2.00000
      8       4.9308      2.00000
      9       4.9764      2.00000
     10       5.9587      2.00000
     11       8.0468      2.00000
     12       8.1077      2.00000
     13      10.9138      0.00000
     14      11.5885      0.00000
     15      11.6090      0.00000
     16      13.4390      0.00000

 k-point    12 :       0.3846    0.0769    0.0000
  band No.  band energies     occupation
      1     -21.3163      2.00000
      2     -21.2863      2.00000
      3     -21.2863      2.00000
      4      -1.7854      2.00000
      5       2.5335      2.00000
      6       3.4991      2.00000
      7       3.6812      2.00000
      8       4.9380      2.00000
      9       4.9838      2.00000
     10       5.4278      2.00000
     11       7.9914      2.00000
     12       8.0114      2.00000
     13      10.9070      0.00000
     14      11.7037      0.00000
     15      11.8992      0.00000
     16      12.7091      0.00000

 k-point    13 :       0.4615    0.0769   -0.0000
  band No.  band energies     occupation
      1     -21.3208      2.00000
      2     -21.2862      2.00000
      3     -21.2855      2.00000
      4      -1.4640      2.00000
      5       2.2804      2.00000
      6       3.4995      2.00000
      7       3.6261      2.00000
      8       4.9302      2.00000
      9       4.9494      2.00000
     10       5.1379      2.00000
     11       7.9310      2.00000
     12       8.0150      2.00000
     13      10.9690      0.00000
     14      11.7744      0.00000
     15      11.8787      0.00000
     16      12.4535      0.00000

 k-point    14 :      -0.4615    0.0769    0.0000
  band No.  band energies     occupation
      1     -21.3219      2.00000
      2     -21.2866      2.00000
      3     -21.2850      2.00000
      4      -1.3687      2.00000
      5       2.2033      2.00000
      6       3.5505      2.00000
      7       3.5561      2.00000
      8       4.9134      2.00000
[...]
  212              fftbas_plan_mpi                       0.062553                     12   6
  213                dfftw_execute                         0.025108                   36   7
  214                map_backward                          0.003778                   12   7
  215                  map_gather                            0.000786                  6   8
  216                  m_alltoallv_z                         0.001615                  6   8
  217                  map_scatter                           0.001100                  6   8
  218                map_forward                           0.030595                   12   7
  219                  map_gather                            0.018201                  6   8
  220                  m_alltoallv_z                         0.005961                  6   8
  221                  map_scatter                           0.006071                  6   8
  222            M_sumb_d                              0.010531                        6   5
  223          M_sumb_d                              0.000033                          1   4
  224        setdij_                               1.405949                           20   3
  225          fft3d_mpi                             0.218214                         40   4
  226            fftbas_plan_mpi                       0.200607                       40   5
  227              dfftw_execute                         0.086600                    120   6
  228              map_backward                          0.012520                     40   6
  229                map_gather                            0.002668                   20   7
  230                m_alltoallv_z                         0.005486                   20   7
  231                map_scatter                           0.003359                   20   7
  232              map_forward                           0.090499                     40   6
  233                map_gather                            0.050385                   20   7
  234                m_alltoallv_z                         0.017168                   20   7
  235                map_scatter                           0.021916                   20   7
  236          M_sumb_d                              0.024684                         20   4
  237        set_dd_magatom                        0.000003                            1   3
  238        set_dd_paw                            0.008683                            1   3
  239          set_rsgf_all                          0.000004                          1   4
  240          M_sumb_d                              0.008516                          8   4
  241        strkin                                0.000623                            1   3
  242          M_sumb_d                              0.000275                          1   4
  243        strelo                                0.002423                            1   3
  244          M_sumb_d                              0.000289                          2   4
  245        strenl                                0.611257                            1   3
  246          spher                                 0.480352                         19   4
  247          phase                                 0.010226                        189   4
  248          proj1                                 0.108208                        756   4
  249            crexp_mul_wave                        0.016593                     2268   5
  250            M_sumb_d                              0.031399                      756   5
  251          M_sumb_d                              0.000622                          1   4
  252        M_sumb_d                              0.000235                            6   3
  253        fft3d_mpi                             0.015072                           11   3
  254          fftbas_plan_mpi                       0.014048                         11   4
  255            dfftw_execute                         0.005121                       33   5
  256            map_forward                           0.002711                       10   5
  257              map_gather                            0.000580                      5   6
  258              m_alltoallv_z                         0.001259                      5   6
  259              map_scatter                           0.000632                      5   6
  260            map_backward                          0.003620                       12   5
  261              map_gather                            0.000727                      6   6
  262              m_alltoallv_z                         0.001531                      6   6
  263              map_scatter                           0.001073                      6   6
  264        ggaall_grid                           0.001499                            1   3
  265        forhar                                0.006074                            2   3
  266          M_sumb_d                              0.000271                          2   4
  267        strehar                               0.002861                            1   3
  268          M_sumb_d                              0.000340                          1   4
  269        chggra                                0.005782                            1   3
  270          fft3d_mpi                             0.004115                          3   4
  271            fftbas_plan_mpi                       0.003839                        3   5
  272              dfftw_execute                         0.001334                      9   6
  273              map_backward                          0.000720                      2   6
  274                map_gather                            0.000126                    1   7
  275                m_alltoallv_z                         0.000350                    1   7
  276                map_scatter                           0.000190                    1   7
  277              map_forward                           0.001098                      4   6
  278                map_gather                            0.000218                    2   7
  279                m_alltoallv_z                         0.000543                    2   7
  280                map_scatter                           0.000249                    2   7
  281          M_sumb_d                              0.000127                          3   4
  282        brmix                                 0.009165                            1   3
  283          M_sumb_d                              0.000273                          6   4
  284          brpre                                 0.000049                          1   4
  285          setg0                                 0.001392                          1   4
  286          broyd                                 0.001810                          1   4
  287            M_sumb_d                              0.000474                       16   5
  288            brget                                 0.000244                       54   5
  289            brsav                                 0.000095                       14   5
  290          M_bcast_z                             0.004679                          1   4
  291          M_bcast_d                             0.000053                          1   4
  292        M_bcast_d                             0.000045                            2   3
  293      potlok                                0.028628                              1   2
  294        fft3d_mpi                             0.019915                           13   3
  295          fftbas_plan_mpi                       0.018621                         13   4
  296            dfftw_execute                         0.006107                       39   5
  297            map_forward                           0.005511                       14   5
  298              map_gather                            0.001214                      8   6
  299              m_alltoallv_z                         0.002675                      8   6
  300              map_scatter                           0.001236                      8   6
  301            map_backward                          0.003815                       12   5
  302              map_gather                            0.000795                      6   6
  303              m_alltoallv_z                         0.001636                      6   6
  304              map_scatter                           0.001093                      6   6
  305        ggaall_grid                           0.001480                            1   3
  306        M_sumb_d                              0.000356                            6   3
  307        M_bcast_d                             0.000226                            1   3
  308      potlok_metagga                        0.000003                              1   2
  309      set_dd_magatom                        0.000004                              1   2
  310      set_dd_paw                            0.000368                              1   2
  311        set_rsgf_all                          0.000003                            1   3
  312        M_sumb_d                              0.000222                            8   3
  313      densta                                0.001965                              1   2
  314        M_sumb_d                              0.000765                           41   3
  315      lprj_proall                           0.000008                              1   2

 Flat profile
 ============

             routine name                   CPU           calls
 ---------------------------------------------------------------
 total_time                             12.928010           1
 eddav                                   2.853237          14
 dfftw_execute                           2.729651       27498
 elmin                                   2.495189           1
 setdij_                                 2.319880          38
 fftbas_plan_mpi                         1.895680        9168
 M_sumb_d                                1.433839       26109
 set_charge                              1.060230          10
 m_alltoallv_z                           1.054551        9187
 M_alltoall_d                            0.602808       30184
 pdssyex_zheevx                          0.592387         294
 spher                                   0.550228          20
 orth1                                   0.433409        6147
 vhamil                                  0.410141        4084
 map_gather                              0.379795        9187
 proj1                                   0.358288        3748
 map_forward                             0.352902        9902
 fftwav_mpi                              0.347195        4828
 map_scatter                             0.327911        9187
 gemm                                    0.299336       12252
 M_bcast_z                               0.289763        3749
 vnlac0                                  0.267699        4084
 crpa_reader                             0.254873           1
 redis_pw                                0.246640       11706
 hamiltmu                                0.224058        2042
 redis_proj                              0.221804       14635
 fft3d_mpi                               0.171731        9166
 w1_copy                                 0.154292       12252
 map_backward                            0.148428        8430
 work_mul_crexp                          0.125108       12252
 fftext_mpi                              0.122902        4084
 eccp                                    0.103997        1176
 crexp_mul_wave                          0.091878       11244
 kinhamil                                0.077970        4084
 overl                                   0.077213        7013
 force_and_stress                        0.074199           1
 potlok                                  0.073871          11
 M_bcast_d                               0.065992        2070
 overl1                                  0.050463        4084
 lincom                                  0.047641         315
 pw_charge                               0.044992         744
 setup_precond                           0.037956        1176
 apply_precond                           0.036971        2908
 w1_projall                              0.030383        1454
 phase                                   0.028077         526
 soft_charge                             0.020364          10
 ggaall_grid                             0.018420          12
 truncate_high_frequency_w1              0.018326        5260
 fornl                                   0.017920           1
 densta                                  0.017787          15
 setg0                                   0.011914          11
 strenl                                  0.011848           1
 brmix                                   0.009877          10
 broyd                                   0.006383          10
 forhar                                  0.005802           2
 set_dd_paw                              0.003218          12
 forloc                                  0.003041           1
 strehar                                 0.002521           1
 depsum                                  0.002404          10
 strelo                                  0.002134           1
 orthch                                  0.001862           1
 chggra                                  0.001540           1
 brget                                   0.001367         309
 brgrid                                  0.001361           1
 proj                                    0.001015          21
 choleski                                0.000932          21
 brsav                                   0.000718          96
 brpre                                   0.000613          10
 strkin                                  0.000348           1
 fordep                                  0.000145           1
 set_rsgf_all                            0.000057          12
 vectorpot                               0.000052          11
 set_dd_magatom                          0.000047          12
 potlok_metagga                          0.000047          11
 set_kineden                             0.000033           9
 rotate_active_occupied_orbital          0.000015           1
 lprj_proall                             0.000008           1
 redis_pw_over_bands                     0.000004           1
 ---------------------------------------------------------------
  summed up times    36.6556940078735

 Accumulative profile
 ====================

             routine name                   CPU           calls
 ---------------------------------------------------------------
 total_time                             36.655694           1
 elmin                                  20.043743           1
 eddav                                  14.675919          14
 fft3d_mpi                               6.989975        9166
 fftbas_plan_mpi                         6.888918        9168
 hamiltmu                                4.561104        2042
 fftwav_mpi                              3.782011        4828
 kinhamil                                2.933180        4084
 fftext_mpi                              2.855209        4084
 setdij_                                 2.814735          38
 force_and_stress                        2.778349           1
 dfftw_execute                           2.729651       27498
 set_charge                              1.879795          10
 M_sumb_d                                1.433839       26109
 map_forward                             1.332710        9902
 m_alltoallv_z                           1.054551        9187
 vnlac0                                  0.943263        4084
 map_backward                            0.930877        8430
 soft_charge                             0.648115          10
 proj1                                   0.633515        3748
 strenl                                  0.611257           1
 M_alltoall_d                            0.602808       30184
 pdssyex_zheevx                          0.592387         294
 redis_pw                                0.580172       11706
 spher                                   0.550228          20
 w1_projall                              0.544529        1454
 redis_proj                              0.491080       14635
 fordep                                  0.435739           1
 orth1                                   0.433409        6147
 vhamil                                  0.410141        4084
 map_gather                              0.379795        9187
 map_scatter                             0.327911        9187
 gemm                                    0.299336       12252
 potlok                                  0.294765          11
 M_bcast_z                               0.289763        3749
 crpa_reader                             0.254873           1
 eccp                                    0.172060        1176
 w1_copy                                 0.154292       12252
 work_mul_crexp                          0.125108       12252
 crexp_mul_wave                          0.091878       11244
 set_dd_paw                              0.080002          12
 overl                                   0.077213        7013
 M_bcast_d                               0.065992        2070
 setup_precond                           0.065592        1176
 brmix                                   0.052523          10
 overl1                                  0.050463        4084
 lincom                                  0.047641         315
 pw_charge                               0.044992         744
 apply_precond                           0.036971        2908
 densta                                  0.028328          15
 phase                                   0.028077         526
 orthch                                  0.025999           1
 fornl                                   0.025573           1
 ggaall_grid                             0.018420          12
 truncate_high_frequency_w1              0.018326        5260
 depsum                                  0.012222          10
 proj                                    0.012174          21
 broyd                                   0.012024          10
 setg0                                   0.011914          11
 forhar                                  0.006074           2
 chggra                                  0.005782           1
 forloc                                  0.003103           1
 strehar                                 0.002861           1
 strelo                                  0.002423           1
 brget                                   0.001367         309
 brgrid                                  0.001361           1
 choleski                                0.000932          21
 brsav                                   0.000718          96
 strkin                                  0.000623           1
 brpre                                   0.000613          10
 set_rsgf_all                            0.000057          12
 vectorpot                               0.000052          11
 set_dd_magatom                          0.000047          12
 potlok_metagga                          0.000047          11
 set_kineden                             0.000033           9
 rotate_active_occupied_orbital          0.000015           1
 lprj_proall                             0.000008           1
 redis_pw_over_bands                     0.000004           1
 ---------------------------------------------------------------

Profiling took   0.720735  0.882463  0.005932  0.004422 seconds
Profiling took   0.696026 seconds
