<?xml version="1.0" encoding="ISO-8859-1"?>
<modeling>
 <generator>
  <i name="program" type="string">vasp </i>
  <i name="version" type="string">6.0.8  </i>
  <i name="subversion" type="string">29Jun18 (build Jun 13 2019 12:54:44) complex                          parallel </i>
  <i name="platform" type="string">IFC18_CrayMPICH </i>
  <i name="date" type="string">2021 12 05 </i>
  <i name="time" type="string">14:21:51 </i>
 </generator>
 <incar>
  <i type="int" name="KPAR">     4</i>
  <i type="int" name="NPAR">     4</i>
  <i type="int" name="ISTART">     0</i>
  <i type="string" name="PREC"> ACC</i>
  <i type="string" name="ALGO"> Normal</i>
  <i type="logical" name="ADDGRID"> T  </i>
  <i type="int" name="ISPIN">     1</i>
  <i type="int" name="NELMIN">     5</i>
  <i type="int" name="IBRION">    -1</i>
  <i name="EDIFF">      0.00000010</i>
  <i type="int" name="NSW">     0</i>
  <i type="int" name="ISIF">     3</i>
  <i name="ENCUT">    700.00000000</i>
  <i type="logical" name="LREAL"> F  </i>
  <i type="int" name="ISMEAR">     0</i>
  <i name="SIGMA">      0.01000000</i>
  <i type="logical" name="LWAVE"> F  </i>
  <i type="logical" name="LCHARG"> F  </i>
  <i type="logical" name="LVTOT"> F  </i>
  <i type="string" name="ALGO"> Normal</i>
  <i type="string" name="GGA"> PS</i>
  <i name="EDIFF">      0.00000010</i>
  <i type="int" name="ISPIN">     1</i>
 </incar>
 <structure name="primitive_cell" >
  <crystal>
   <varray name="basis" >
    <v>       0.00000000       3.04569861       3.04569861 </v>
    <v>       3.04569861       0.00000000       3.04569861 </v>
    <v>       3.04569861       3.04569861       0.00000000 </v>
   </varray>
   <i name="volume">     56.50550656 </i>
   <varray name="rec_basis" >
    <v>      -0.16416595       0.16416595       0.16416595 </v>
    <v>       0.16416595      -0.16416595       0.16416595 </v>
    <v>       0.16416595       0.16416595      -0.16416595 </v>
   </varray>
  </crystal>
  <varray name="positions" >
   <v>       0.75000000       0.75000000       0.75000000 </v>
   <v>       0.25000000       0.25000000       0.25000000 </v>
   <v>       0.00000000       0.00000000       0.00000000 </v>
  </varray>
 </structure>
 <varray name="primitive_index" >
  <v type="int" >        1 </v>
  <v type="int" >        2 </v>
  <v type="int" >        3 </v>
 </varray>
 <kpoints>
  <generation param="Gamma">
   <v type="int" name="divisions">      13       13       13 </v>
   <v name="usershift">      0.00000000       0.00000000       0.00000000 </v>
   <v name="genvec1">      0.07692308      -0.00000000       0.00000000 </v>
   <v name="genvec2">     -0.00000000       0.07692308      -0.00000000 </v>
   <v name="genvec3">      0.00000000       0.00000000       0.07692308 </v>
   <v name="shift">      0.00000000       0.00000000       0.00000000 </v>
  </generation>
  <varray name="kpointlist" >
   <v>       0.00000000       0.00000000       0.00000000 </v>
   <v>       0.07692308       0.00000000      -0.00000000 </v>
   <v>       0.15384615       0.00000000      -0.00000000 </v>
   <v>       0.23076923      -0.00000000       0.00000000 </v>
   <v>       0.30769231       0.00000000      -0.00000000 </v>
   <v>       0.38461538      -0.00000000      -0.00000000 </v>
   <v>       0.46153846      -0.00000000      -0.00000000 </v>
   <v>       0.07692308       0.07692308      -0.00000000 </v>
   <v>       0.15384615       0.07692308      -0.00000000 </v>
   <v>       0.23076923       0.07692308      -0.00000000 </v>
   <v>       0.30769231       0.07692308      -0.00000000 </v>
   <v>       0.38461538       0.07692308       0.00000000 </v>
   <v>       0.46153846       0.07692308      -0.00000000 </v>
   <v>      -0.46153846       0.07692308       0.00000000 </v>
   <v>      -0.38461538       0.07692308      -0.00000000 </v>
   <v>      -0.30769231       0.07692308      -0.00000000 </v>
   <v>      -0.23076923       0.07692308       0.00000000 </v>
   <v>      -0.15384615       0.07692308      -0.00000000 </v>
   <v>      -0.07692308       0.07692308       0.00000000 </v>
   <v>       0.15384615       0.15384615      -0.00000000 </v>
   <v>       0.23076923       0.15384615      -0.00000000 </v>
   <v>       0.30769231       0.15384615      -0.00000000 </v>
   <v>       0.38461538       0.15384615      -0.00000000 </v>
   <v>       0.46153846       0.15384615      -0.00000000 </v>
   <v>      -0.46153846       0.15384615       0.00000000 </v>
   <v>      -0.38461538       0.15384615       0.00000000 </v>
   <v>      -0.30769231       0.15384615      -0.00000000 </v>
   <v>      -0.23076923       0.15384615       0.00000000 </v>
   <v>      -0.15384615       0.15384615       0.00000000 </v>
   <v>       0.23076923       0.23076923      -0.00000000 </v>
   <v>       0.30769231       0.23076923      -0.00000000 </v>
   <v>       0.38461538       0.23076923      -0.00000000 </v>
   <v>       0.46153846       0.23076923      -0.00000000 </v>
   <v>      -0.46153846       0.23076923       0.00000000 </v>
   <v>      -0.38461538       0.23076923       0.00000000 </v>
   <v>      -0.30769231       0.23076923       0.00000000 </v>
   <v>      -0.23076923       0.23076923      -0.00000000 </v>
   <v>       0.30769231       0.30769231      -0.00000000 </v>
   <v>       0.38461538       0.30769231      -0.00000000 </v>
   <v>       0.46153846       0.30769231      -0.00000000 </v>
   <v>      -0.46153846       0.30769231       0.00000000 </v>
   <v>      -0.38461538       0.30769231      -0.00000000 </v>
   <v>      -0.30769231       0.30769231       0.00000000 </v>
   <v>       0.38461538       0.38461538      -0.00000000 </v>
   <v>       0.46153846       0.38461538      -0.00000000 </v>
   <v>      -0.46153846       0.38461538       0.00000000 </v>
   <v>      -0.38461538       0.38461538       0.00000000 </v>
   <v>       0.46153846       0.46153846      -0.00000000 </v>
   <v>      -0.46153846       0.46153846      -0.00000000 </v>
   <v>       0.23076923       0.15384615       0.07692308 </v>
   <v>       0.30769231       0.15384615       0.07692308 </v>
   <v>       0.38461538       0.15384615       0.07692308 </v>
   <v>       0.46153846       0.15384615       0.07692308 </v>
   <v>      -0.46153846       0.15384615       0.07692308 </v>
   <v>       0.30769231       0.23076923       0.07692308 </v>
   <v>       0.38461538       0.23076923       0.07692308 </v>
   <v>       0.46153846       0.23076923       0.07692308 </v>
   <v>      -0.46153846       0.23076923       0.07692308 </v>
   <v>      -0.38461538       0.23076923       0.07692308 </v>
   <v>      -0.30769231       0.23076923       0.07692308 </v>
   <v>      -0.23076923       0.23076923       0.07692308 </v>
   <v>      -0.15384615       0.23076923       0.07692308 </v>
   <v>       0.38461538       0.30769231       0.07692308 </v>
   <v>       0.46153846       0.30769231       0.07692308 </v>
   <v>      -0.46153846       0.30769231       0.07692308 </v>
   <v>      -0.38461538       0.30769231       0.07692308 </v>
   <v>      -0.30769231       0.30769231       0.07692308 </v>
   <v>      -0.23076923       0.30769231       0.07692308 </v>
   <v>       0.46153846       0.38461538       0.07692308 </v>
   <v>      -0.46153846       0.38461538       0.07692308 </v>
   <v>      -0.38461538       0.38461538       0.07692308 </v>
   <v>      -0.30769231       0.38461538       0.07692308 </v>
   <v>      -0.46153846       0.46153846       0.07692308 </v>
   <v>      -0.38461538       0.46153846       0.07692308 </v>
   <v>       0.46153846       0.30769231       0.15384615 </v>
   <v>      -0.46153846       0.30769231       0.15384615 </v>
   <v>      -0.38461538       0.30769231       0.15384615 </v>
   <v>      -0.46153846       0.38461538       0.15384615 </v>
   <v>      -0.38461538       0.38461538       0.15384615 </v>
   <v>      -0.30769231       0.38461538       0.15384615 </v>
   <v>      -0.23076923       0.38461538       0.15384615 </v>
   <v>      -0.38461538       0.46153846       0.15384615 </v>
   <v>      -0.30769231       0.46153846       0.15384615 </v>
   <v>      -0.30769231       0.46153846       0.23076923 </v>
  </varray>
  <varray name="weights" >
   <v>       0.00045517 </v>
   <v>       0.00364133 </v>
   <v>       0.00364133 </v>
   <v>       0.00364133 </v>
   <v>       0.00364133 </v>
   <v>       0.00364133 </v>
   <v>       0.00364133 </v>
   <v>       0.00273100 </v>
   <v>       0.01092399 </v>
   <v>       0.01092399 </v>
   <v>       0.01092399 </v>
   <v>       0.01092399 </v>
   <v>       0.01092399 </v>
   <v>       0.01092399 </v>
   <v>       0.01092399 </v>
   <v>       0.01092399 </v>
   <v>       0.01092399 </v>
   <v>       0.01092399 </v>
   <v>       0.00546199 </v>
   <v>       0.00273100 </v>
   <v>       0.01092399 </v>
   <v>       0.01092399 </v>
   <v>       0.01092399 </v>
   <v>       0.01092399 </v>
   <v>       0.01092399 </v>
   <v>       0.01092399 </v>
   <v>       0.01092399 </v>
   <v>       0.01092399 </v>
   <v>       0.00546199 </v>
   <v>       0.00273100 </v>
   <v>       0.01092399 </v>
   <v>       0.01092399 </v>
   <v>       0.01092399 </v>
   <v>       0.01092399 </v>
   <v>       0.01092399 </v>
   <v>       0.01092399 </v>
   <v>       0.00546199 </v>
   <v>       0.00273100 </v>
   <v>       0.01092399 </v>
   <v>       0.01092399 </v>
   <v>       0.01092399 </v>
   <v>       0.01092399 </v>
   <v>       0.00546199 </v>
   <v>       0.00273100 </v>
   <v>       0.01092399 </v>
   <v>       0.01092399 </v>
   <v>       0.00546199 </v>
   <v>       0.00273100 </v>
   <v>       0.00546199 </v>
   <v>       0.01092399 </v>
   <v>       0.02184797 </v>
   <v>       0.02184797 </v>
   <v>       0.02184797 </v>
   <v>       0.02184797 </v>
   <v>       0.01092399 </v>
   <v>       0.02184797 </v>
   <v>       0.02184797 </v>
   <v>       0.02184797 </v>
   <v>       0.02184797 </v>
   <v>       0.02184797 </v>
   <v>       0.02184797 </v>
   <v>       0.01092399 </v>
   <v>       0.01092399 </v>
   <v>       0.02184797 </v>
   <v>       0.02184797 </v>
   <v>       0.02184797 </v>
   <v>       0.02184797 </v>
   <v>       0.01092399 </v>
   <v>       0.01092399 </v>
   <v>       0.02184797 </v>
   <v>       0.02184797 </v>
   <v>       0.01092399 </v>
   <v>       0.01092399 </v>
   <v>       0.01092399 </v>
   <v>       0.01092399 </v>
   <v>       0.02184797 </v>
   <v>       0.02184797 </v>
   <v>       0.01092399 </v>
   <v>       0.02184797 </v>
   <v>       0.02184797 </v>
   <v>       0.01092399 </v>
   <v>       0.01092399 </v>
   <v>       0.01092399 </v>
   <v>       0.01092399 </v>
  </varray>
 </kpoints>
 <parameters>
  <separator name="general" >
   <i type="string" name="SYSTEM">unknown system</i>
   <i type="logical" name="LCOMPAT"> F  </i>
  </separator>
  <separator name="electronic" >
   <i type="string" name="PREC">acc</i>
   <i name="ENMAX">    700.00000000</i>
   <i name="ENAUG">    380.87800000</i>
   <i name="EDIFF">      0.00000010</i>
   <i type="int" name="IALGO">    38</i>
   <i type="int" name="IWAVPR">    10</i>
   <i type="int" name="NBANDS">    16</i>
   <i type="int" name="NBANDSLOW">    -1</i>
   <i type="int" name="NBANDSHIGH">    -1</i>
   <i name="NELECT">     25.00000000</i>
   <i type="int" name="TURBO">     0</i>
   <i type="int" name="IRESTART">     0</i>
   <i type="int" name="NREBOOT">     0</i>
   <i type="int" name="NMIN">     0</i>
   <i name="EREF">      0.00000000</i>
   <separator name="electronic smearing" >
    <i type="int" name="ISMEAR">     0</i>
    <i name="SIGMA">      0.01000000</i>
    <i name="KSPACING">      0.50000000</i>
    <i type="logical" name="KGAMMA"> T  </i>
    <i type="logical" name="KBLOWUP"> T  </i>
   </separator>
   <separator name="electronic projectors" >
    <i type="logical" name="LREAL"> F  </i>
    <v name="ROPT">      0.00000000      0.00000000      0.00000000</v>
    <i type="int" name="LMAXPAW">  -100</i>
    <i type="int" name="LMAXMIX">     2</i>
    <i type="logical" name="NLSPLINE"> F  </i>
   </separator>
   <separator name="electronic startup" >
    <i type="int" name="ISTART">     0</i>
    <i type="int" name="ICHARG">     2</i>
    <i type="int" name="INIWAV">     1</i>
   </separator>
   <separator name="electronic spin" >
    <i type="int" name="ISPIN">     1</i>
    <i type="logical" name="LNONCOLLINEAR"> F  </i>
    <v name="MAGMOM">      1.00000000      1.00000000      1.00000000</v>
    <i name="NUPDOWN">     -1.00000000</i>
    <i type="logical" name="LSORBIT"> F  </i>
    <v name="SAXIS">      0.00000000      0.00000000      1.00000000</v>
    <i type="logical" name="LSPIRAL"> F  </i>
    <v name="QSPIRAL">      0.00000000      0.00000000      0.00000000</v>
    <i type="logical" name="LZEROZ"> F  </i>
   </separator>
   <separator name="electronic exchange-correlation" >
    <i type="logical" name="LASPH"> F  </i>
    <i type="logical" name="LMETAGGA"> F  </i>
   </separator>
   <separator name="electronic convergence" >
    <i type="int" name="NELM">    60</i>
    <i type="int" name="NELMDL">    -5</i>
    <i type="int" name="NELMIN">     5</i>
    <i name="ENINI">    700.00000000</i>
    <separator name="electronic convergence detail" >
     <i type="logical" name="LDIAG"> T  </i>
     <i type="logical" name="LSUBROT"> F  </i>
     <i name="WEIMIN">      0.00000000</i>
     <i name="EBREAK">      0.00000000</i>
     <i name="DEPER">      0.30000000</i>
     <i type="int" name="NRMM">     4</i>
     <i name="TIME">      0.40000000</i>
    </separator>
   </separator>
   <separator name="electronic mixer" >
    <i name="AMIX">      0.40000000</i>
    <i name="BMIX">      1.00000000</i>
    <i name="AMIN">      0.10000000</i>
    <i name="AMIX_MAG">      1.60000000</i>
    <i name="BMIX_MAG">      1.00000000</i>
    <separator name="electronic mixer details" >
     <i type="int" name="IMIX">     4</i>
     <i type="logical" name="MIXFIRST"> F  </i>
     <i type="int" name="MAXMIX">   -45</i>
     <i name="WC">    100.00000000</i>
     <i type="int" name="INIMIX">     1</i>
     <i type="int" name="MIXPRE">     1</i>
     <i type="int" name="MREMOVE">     5</i>
    </separator>
   </separator>
   <separator name="electronic dipolcorrection" >
    <i type="logical" name="LDIPOL"> F  </i>
    <i type="logical" name="LMONO"> F  </i>
    <i type="int" name="IDIPOL">     0</i>
    <i name="EPSILON">      1.00000000</i>
    <v name="DIPOL">   -100.00000000   -100.00000000   -100.00000000</v>
    <i name="EFIELD">      0.00000000</i>
   </separator>
  </separator>
  <separator name="grids" >
   <i type="int" name="NGX">    40</i>
   <i type="int" name="NGY">    40</i>
   <i type="int" name="NGZ">    40</i>
   <i type="int" name="NGXF">    80</i>
   <i type="int" name="NGYF">    80</i>
   <i type="int" name="NGZF">    80</i>
   <i type="logical" name="ADDGRID"> T  </i>
  </separator>
  <separator name="ionic" >
   <i type="int" name="NSW">     0</i>
   <i type="int" name="IBRION">    -1</i>
   <i type="int" name="MDALGO">     0</i>
   <i type="int" name="ISIF">     3</i>
   <i name="PSTRESS">      0.00000000</i>
   <i name="EDIFFG">      0.00000100</i>
   <i type="int" name="NFREE">     0</i>
   <i name="POTIM">      0.50000000</i>
   <i name="SMASS">     -3.00000000</i>
   <i name="SCALEE">      1.00000000</i>
  </separator>
  <separator name="ionic md" >
   <i name="TEBEG">      0.00010000</i>
   <i name="TEEND">      0.00010000</i>
   <i type="int" name="NBLOCK">     1</i>
   <i type="int" name="KBLOCK">     1</i>
   <i type="int" name="NPACO">   256</i>
   <i name="APACO">     16.00000000</i>
  </separator>
  <separator name="symmetry" >
   <i type="int" name="ISYM">     2</i>
   <i name="SYMPREC">      0.00001000</i>
  </separator>
  <separator name="dos" >
   <i type="int" name="LORBIT">     0</i>
   <v name="RWIGS">     -1.00000000     -1.00000000     -1.00000000</v>
   <i type="int" name="NEDOS">   301</i>
   <i name="EMIN">     10.00000000</i>
   <i name="EMAX">    -10.00000000</i>
   <i name="EFERMI">      0.00000000</i>
  </separator>
  <separator name="writing" >
   <i type="int" name="NWRITE">     2</i>
   <i type="logical" name="LWAVE"> F  </i>
   <i type="logical" name="LDOWNSAMPLE"> F  </i>
   <i type="logical" name="LCHARG"> F  </i>
   <i type="logical" name="LPARD"> F  </i>
   <i type="logical" name="LVTOT"> F  </i>
   <i type="logical" name="LVHAR"> F  </i>
   <i type="logical" name="LELF"> F  </i>
   <i type="logical" name="LOPTICS"> F  </i>
   <v name="STM">      0.00000000      0.00000000      0.00000000      0.00000000      0.00000000      0.00000000      0.00000000</v>
  </separator>
  <separator name="performance" >
   <i type="int" name="NPAR">     4</i>
   <i type="int" name="NSIM">     4</i>
   <i type="int" name="NBLK">    -1</i>
   <i type="logical" name="LPLANE"> T  </i>
   <i type="logical" name="LSCALAPACK"> T  </i>
   <i type="logical" name="LSCAAWARE"> F  </i>
   <i type="logical" name="LSCALU"> F  </i>
   <i type="logical" name="LASYNC"> F  </i>
   <i type="logical" name="LORBITALREAL"> F  </i>
  </separator>
  <separator name="miscellaneous" >
   <i type="int" name="IDIOT">     3</i>
   <i type="int" name="PHON_NSTRUCT">    -1</i>
   <i type="logical" name="LMUSIC"> F  </i>
   <v name="POMASS">    178.49000000    121.75000000    195.08000000</v>
   <v name="DARWINR">      0.00000000      0.00000000      0.00000000</v>
   <v name="DARWINV">      1.00000000      1.00000000      1.00000000</v>
   <i type="logical" name="LCORR"> T  </i>
  </separator>
  <i type="logical" name="GGA_COMPAT"> T  </i>
  <i type="logical" name="LBERRY"> F  </i>
  <i type="int" name="ICORELEVEL">     0</i>
  <i type="logical" name="LDAU"> F  </i>
  <i type="int" name="I_CONSTRAINED_M">     0</i>
  <separator name="electronic exchange-correlation" >
   <i type="string" name="GGA">PS</i>
   <i type="int" name="VOSKOWN">     0</i>
   <i type="logical" name="LHFCALC"> F  </i>
   <i type="string" name="PRECFOCK"></i>
   <i type="logical" name="LSYMGRAD"> F  </i>
   <i type="logical" name="LHFONE"> F  </i>
   <i type="logical" name="LRHFCALC"> F  </i>
   <i type="logical" name="LTHOMAS"> F  </i>
   <i type="logical" name="LMODELHF"> F  </i>
   <i type="logical" name="LFOCKACE"> F  </i>
   <i name="ENCUT4O">     -1.00000000</i>
   <i type="int" name="EXXOEP">     0</i>
   <i type="int" name="FOURORBIT">     0</i>
   <i name="AEXX">      0.00000000</i>
   <i name="HFALPHA">      0.00000000</i>
   <i name="MCALPHA">      0.00000000</i>
   <i name="ALDAX">      1.00000000</i>
   <i name="AGGAX">      1.00000000</i>
   <i name="ALDAC">      1.00000000</i>
   <i name="AGGAC">      1.00000000</i>
   <i type="int" name="NKREDX">     1</i>
   <i type="int" name="NKREDY">     1</i>
   <i type="int" name="NKREDZ">     1</i>
   <i type="logical" name="SHIFTRED"> F  </i>
   <i type="logical" name="ODDONLY"> F  </i>
   <i type="logical" name="EVENONLY"> F  </i>
   <i type="int" name="LMAXFOCK">     0</i>
   <i type="int" name="NMAXFOCKAE">     0</i>
   <i type="logical" name="LFOCKAEDFT"> F  </i>
   <i name="HFSCREEN">      0.00000000</i>
   <i name="HFSCREENC">      0.00000000</i>
   <i type="int" name="NBANDSGWLOW">     0</i>
  </separator>
  <separator name="vdW DFT" >
   <i type="logical" name="LUSE_VDW"> F  </i>
   <i name="Zab_VDW">     -0.84910000</i>
   <i name="PARAM1">      0.12340000</i>
   <i name="PARAM2">      1.00000000</i>
   <i name="PARAM3">      0.00000000</i>
  </separator>
  <separator name="model GW" >
   <i type="int" name="MODEL_GW">     0</i>
   <i name="MODEL_EPS0">     11.30110131</i>
   <i name="MODEL_ALPHA">      1.00000000</i>
  </separator>
  <separator name="linear response parameters" >
   <i type="logical" name="LEPSILON"> F  </i>
   <i type="logical" name="LRPA"> F  </i>
   <i type="logical" name="LNABLA"> F  </i>
   <i type="logical" name="LVEL"> F  </i>
   <i type="int" name="KINTER">     0</i>
   <i name="CSHIFT">      0.10000000</i>
   <i name="OMEGAMAX">     -1.00000000</i>
   <i name="DEG_THRESHOLD">      0.00200000</i>
   <i name="RTIME">     -0.10000000</i>
   <i name="WPLASMAI">      0.00000000</i>
   <v name="DFIELD">      0.00000000      0.00000000      0.00000000</v>
   <v name="WPLASMA">      0.00000000      0.00000000      0.00000000      0.00000000      0.00000000      0.00000000      0.00000000      0.00000000      0.00000000</v>
  </separator>
  <separator name="orbital magnetization" >
   <i type="logical" name="NUCIND"> F  </i>
   <v name="MAGPOS">      0.00000000      0.00000000      0.00000000</v>
   <i type="logical" name="LNICSALL"> T  </i>
   <i type="logical" name="ORBITALMAG"> F  </i>
   <i type="logical" name="LMAGBLOCH"> F  </i>
   <i type="logical" name="LCHIMAG"> F  </i>
   <i type="logical" name="LGAUGE"> T  </i>
   <i type="int" name="MAGATOM">     0</i>
   <v name="MAGDIPOL">      0.00000000      0.00000000      0.00000000</v>
   <v name="AVECCONST">      0.00000000      0.00000000      0.00000000</v>
  </separator>
  <separator name="response functions" >
   <i type="logical" name="LFINITE_TEMPERATURE"> F  </i>
   <i type="logical" name="LADDER"> F  </i>
   <i type="logical" name="LRPAFORCE"> F  </i>
   <i type="logical" name="LFXC"> F  </i>
   <i type="logical" name="LHARTREE"> T  </i>
   <i type="int" name="IBSE">     0</i>
   <v type="int" name="KPOINT">    -1     0     0     0</v>
   <i type="logical" name="LTCTC"> F  </i>
   <i type="logical" name="LTCTE"> F  </i>
   <i type="logical" name="LTETE"> F  </i>
   <i type="logical" name="LTRIPLET"> F  </i>
   <i type="logical" name="LFXCEPS"> F  </i>
   <i type="logical" name="LFXHEG"> F  </i>
   <i type="int" name="NATURALO">     2</i>
   <i type="logical" name="L2ORDER"> F  </i>
   <i type="logical" name="LDMP1"> F  </i>
   <i type="logical" name="LMP2LT"> F  </i>
   <i type="logical" name="LSMP2LT"> F  </i>
   <i type="logical" name="LUSEW"> F  </i>
   <i name="ENCUTGW">     -2.00000000</i>
   <i name="ENCUTGWSOFT">     -2.00000000</i>
   <i name="ENCUTLF">     -1.00000000</i>
   <i type="int" name="LMAXMP2">    -1</i>
   <i name="SCISSOR">      0.00000000</i>
   <i type="int" name="NOMEGA">     0</i>
   <i type="int" name="NOMEGAR">     0</i>
   <i type="int" name="NBANDSGW">    -1</i>
   <i type="int" name="NBANDSO">    -1</i>
   <i type="int" name="NBANDSV">    -1</i>
   <i type="int" name="NELM">     1</i>
   <i type="int" name="NELMHF">     1</i>
   <i type="int" name="DIM">     3</i>
   <i type="int" name="IESPILON">     4</i>
   <i type="int" name="ANTIRES">     0</i>
   <i name="OMEGAMAX">    -30.00000000</i>
   <i name="OMEGAMIN">    -30.00000000</i>
   <i name="OMEGATL">   -200.00000000</i>
   <i type="int" name="OMEGAGRID">   145</i>
   <i name="CSHIFT">     -0.10000000</i>
   <i type="logical" name="LSELFENERGY"> F  </i>
   <i type="logical" name="LSPECTRAL"> F  </i>
   <i type="logical" name="LSPECTRALGW"> F  </i>
   <i type="logical" name="LSINGLES"> F  </i>
   <i type="logical" name="LFERMIGW"> F  </i>
   <i type="logical" name="ODDONLYGW"> F  </i>
   <i type="logical" name="EVENONLYGW"> F  </i>
   <i type="int" name="NKREDLFX">     1</i>
   <i type="int" name="NKREDLFY">     1</i>
   <i type="int" name="NKREDLFZ">     1</i>
   <i type="int" name="MAXMEM">  2800</i>
   <i type="int" name="TELESCOPE">     0</i>
   <i type="int" name="NTAUPAR">     1</i>
   <i type="int" name="NOMEGAPAR">    -1</i>
   <i name="LAMBDA">      1.00000000</i>
  </separator>
  <separator name="External order field" >
   <i name="OFIELD_KAPPA">      0.00000000</i>
   <v name="OFIELD_K">      0.00000000      0.00000000      0.00000000</v>
   <i name="OFIELD_Q6_NEAR">      0.00000000</i>
   <i name="OFIELD_Q6_FAR">      0.00000000</i>
   <i name="OFIELD_A">      0.00000000</i>
  </separator>
 </parameters>
 <atominfo>
  <atoms>       3 </atoms>
  <types>       3 </types>
  <array name="atoms" >
   <dimension dim="1">ion</dimension>
   <field type="string">element</field>
   <field type="int">atomtype</field>
   <set>
    <rc><c>Hf</c><c>   1</c></rc>
    <rc><c>Sb</c><c>   2</c></rc>
    <rc><c>Pt</c><c>   3</c></rc>
   </set>
  </array>
  <array name="atomtypes" >
   <dimension dim="1">type</dimension>
   <field type="int">atomspertype</field>
   <field type="string">element</field>
   <field>mass</field>
   <field>valence</field>
   <field type="string">pseudopotential</field>
   <set>
    <rc><c>   1</c><c>Hf</c><c>    178.49000000</c><c>     10.00000000</c><c>  PAW_PBE Hf_pv 06Sep2000               </c></rc>
    <rc><c>   1</c><c>Sb</c><c>    121.75000000</c><c>      5.00000000</c><c>  PAW_PBE Sb 06Sep2000                  </c></rc>
    <rc><c>   1</c><c>Pt</c><c>    195.08000000</c><c>     10.00000000</c><c>  PAW_PBE Pt 04Feb2005                  </c></rc>
   </set>
  </array>
 </atominfo>
 <structure name="initialpos" >
  <crystal>
   <varray name="basis" >
    <v>       0.00000000       3.04569861       3.04569861 </v>
    <v>       3.04569861       0.00000000       3.04569861 </v>
    <v>       3.04569861       3.04569861       0.00000000 </v>
   </varray>
   <i name="volume">     56.50550656 </i>
   <varray name="rec_basis" >
    <v>      -0.16416595       0.16416595       0.16416595 </v>
    <v>       0.16416595      -0.16416595       0.16416595 </v>
    <v>       0.16416595       0.16416595      -0.16416595 </v>
   </varray>
  </crystal>
  <varray name="positions" >
   <v>       0.75000000       0.75000000       0.75000000 </v>
   <v>       0.25000000       0.25000000       0.25000000 </v>
   <v>       0.00000000       0.00000000       0.00000000 </v>
  </varray>
 </structure>
 <calculation>
  <scstep>
   <time name="dav">    0.91    0.91</time>
   <time name="total">    1.05    1.16</time>
   <energy>
    <i name="alphaZ">    120.56795771 </i>
    <i name="ewald">  -1632.48574301 </i>
    <i name="hartreedc">   -300.67981470 </i>
    <i name="XCdc">    -17.84432163 </i>
    <i name="pawpsdc">   1514.36848356 </i>
    <i name="pawaedc">  -1421.27055995 </i>
    <i name="eentropy">     -0.00006429 </i>
    <i name="bandstr">    145.47747013 </i>
    <i name="atom">   1741.10451121 </i>
    <i name="e_fr_energy">    149.23791903 </i>
    <i name="e_wo_entrp">    149.23798332 </i>
    <i name="e_0_energy">    149.23795117 </i>
   </energy>
  </scstep>
  <scstep>
   <time name="dav">    1.07    1.10</time>
   <time name="total">    1.07    1.10</time>
   <energy>
    <i name="e_fr_energy">    -19.63800936 </i>
    <i name="e_wo_entrp">    -19.63775822 </i>
    <i name="e_0_energy">    -19.63788379 </i>
   </energy>
  </scstep>
  <scstep>
   <time name="dav">    1.13    1.15</time>
   <time name="total">    1.14    1.16</time>
   <energy>
    <i name="e_fr_energy">    -24.24791317 </i>
    <i name="e_wo_entrp">    -24.24767005 </i>
    <i name="e_0_energy">    -24.24779161 </i>
   </energy>
  </scstep>
  <scstep>
   <time name="dav">    1.09    1.11</time>
   <time name="total">    1.09    1.12</time>
   <energy>
    <i name="e_fr_energy">    -24.30903697 </i>
    <i name="e_wo_entrp">    -24.30883342 </i>
    <i name="e_0_energy">    -24.30893520 </i>
   </energy>
  </scstep>
  <scstep>
   <time name="dav">    1.13    1.15</time>
   <time name="total">    1.41    1.44</time>
   <energy>
    <i name="e_fr_energy">    -24.31035886 </i>
    <i name="e_wo_entrp">    -24.31016810 </i>
    <i name="e_0_energy">    -24.31026348 </i>
   </energy>
  </scstep>
  <scstep>
   <time name="dav">    1.08    1.08</time>
   <time name="total">    1.44    1.47</time>
   <energy>
    <i name="e_fr_energy">    -23.72840399 </i>
    <i name="e_wo_entrp">    -23.72826298 </i>
    <i name="e_0_energy">    -23.72833349 </i>
   </energy>
  </scstep>
  <scstep>
   <time name="dav">    1.12    1.12</time>
   <time name="total">    1.41    1.43</time>
   <energy>
    <i name="e_fr_energy">    -23.59222218 </i>
    <i name="e_wo_entrp">    -23.59185817 </i>
    <i name="e_0_energy">    -23.59204017 </i>
   </energy>
  </scstep>
  <scstep>
   <time name="dav">    1.04    1.05</time>
   <time name="total">    1.34    1.37</time>
   <energy>
    <i name="e_fr_energy">    -23.56006646 </i>
    <i name="e_wo_entrp">    -23.55991109 </i>
    <i name="e_0_energy">    -23.55998878 </i>
   </energy>
  </scstep>
  <scstep>
   <time name="dav">    1.03    1.03</time>
   <time name="total">    1.33    1.44</time>
   <energy>
    <i name="e_fr_energy">    -23.55659696 </i>
    <i name="e_wo_entrp">    -23.55644460 </i>
    <i name="e_0_energy">    -23.55652078 </i>
   </energy>
  </scstep>
  <scstep>
   <time name="dav">    1.05    1.05</time>
   <time name="total">    1.35    1.39</time>
   <energy>
    <i name="e_fr_energy">    -23.55644391 </i>
    <i name="e_wo_entrp">    -23.55629114 </i>
    <i name="e_0_energy">    -23.55636753 </i>
   </energy>
  </scstep>
  <scstep>
   <time name="dav">    1.06    1.06</time>
   <time name="total">    1.35    1.39</time>
   <energy>
    <i name="e_fr_energy">    -23.55643406 </i>
    <i name="e_wo_entrp">    -23.55628130 </i>
    <i name="e_0_energy">    -23.55635768 </i>
   </energy>
  </scstep>
  <scstep>
   <time name="dav">    1.09    1.09</time>
   <time name="total">    1.38    1.42</time>
   <energy>
    <i name="e_fr_energy">    -23.55643646 </i>
    <i name="e_wo_entrp">    -23.55628388 </i>
    <i name="e_0_energy">    -23.55636017 </i>
   </energy>
  </scstep>
  <scstep>
   <time name="dav">    1.05    1.05</time>
   <time name="total">    1.38    1.40</time>
   <energy>
    <i name="e_fr_energy">    -23.55643569 </i>
    <i name="e_wo_entrp">    -23.55628308 </i>
    <i name="e_0_energy">    -23.55635938 </i>
   </energy>
  </scstep>
  <scstep>
   <time name="dav">    0.88    0.88</time>
   <time name="total">    0.99    1.04</time>
   <energy>
    <i name="alphaZ">    120.56795771 </i>
    <i name="ewald">  -1632.48574301 </i>
    <i name="hartreedc">   -282.02955970 </i>
    <i name="XCdc">    -18.31055439 </i>
    <i name="pawpsdc">   3241.44447237 </i>
    <i name="pawaedc">  -3154.61111436 </i>
    <i name="eentropy">     -0.00015259 </i>
    <i name="bandstr">    -39.23625292 </i>
    <i name="atom">   1741.10451121 </i>
    <i name="e_fr_energy">    -23.55643569 </i>
    <i name="e_wo_entrp">    -23.55628310 </i>
    <i name="e_0_energy">    -23.55635939 </i>
   </energy>
  </scstep>
  <structure>
   <crystal>
    <varray name="basis" >
     <v>       0.00000000       3.04569861       3.04569861 </v>
     <v>       3.04569861       0.00000000       3.04569861 </v>
     <v>       3.04569861       3.04569861       0.00000000 </v>
    </varray>
    <i name="volume">     56.50550656 </i>
    <varray name="rec_basis" >
     <v>      -0.16416595       0.16416595       0.16416595 </v>
     <v>       0.16416595      -0.16416595       0.16416595 </v>
     <v>       0.16416595       0.16416595      -0.16416595 </v>
    </varray>
   </crystal>
   <varray name="positions" >
    <v>       0.75000000       0.75000000       0.75000000 </v>
    <v>       0.25000000       0.25000000       0.25000000 </v>
    <v>       0.00000000       0.00000000       0.00000000 </v>
   </varray>
  </structure>
  <varray name="forces" >
   <v>       0.00000000       0.00000000       0.00000000 </v>
   <v>       0.00000000       0.00000000       0.00000000 </v>
   <v>      -0.00000000      -0.00000000      -0.00000000 </v>
  </varray>
  <varray name="stress" >
   <v>     235.91964145       0.00000000      -0.00000000 </v>
   <v>       0.00000000     235.91964145       0.00000000 </v>
   <v>      -0.00000000      -0.00000000     235.91964145 </v>
  </varray>
  <energy>
   <i name="e_fr_energy">    -23.55643569 </i>
   <i name="e_wo_entrp">    -23.55635939 </i>
   <i name="e_0_energy">     -0.00015259 </i>
  </energy>
  <time name="totalsc">   20.76   23.02</time>
  <eigenvalues>
   <array>
    <dimension dim="1">band</dimension>
    <dimension dim="2">kpoint</dimension>
    <dimension dim="3">spin</dimension>
    <field>eigene</field>
    <field>occ</field>
    <set>
     <set comment="spin 1">
      <set comment="kpoint 1">
       <r>  -21.2883    1.0000 </r>
       <r>  -21.2883    1.0000 </r>
       <r>  -21.2883    1.0000 </r>
       <r>   -3.1776    1.0000 </r>
       <r>    3.8232    1.0000 </r>
       <r>    3.8232    1.0000 </r>
       <r>    3.8232    1.0000 </r>
       <r>    4.6192    1.0000 </r>
       <r>    4.6192    1.0000 </r>
       <r>    8.7381    1.0000 </r>
       <r>    8.7381    1.0000 </r>
       <r>    8.7381    1.0000 </r>
       <r>   10.6086    1.0000 </r>
       <r>   11.7723    0.0000 </r>
       <r>   11.7723    0.0000 </r>
       <r>   11.7723    0.0000 </r>
      </set>
      <set comment="kpoint 2">
       <r>  -21.2904    1.0000 </r>
       <r>  -21.2881    1.0000 </r>
       <r>  -21.2881    1.0000 </r>
       <r>   -3.0995    1.0000 </r>
       <r>    3.7488    1.0000 </r>
       <r>    3.7750    1.0000 </r>
       <r>    3.7750    1.0000 </r>
       <r>    4.6816    1.0000 </r>
       <r>    4.6816    1.0000 </r>
       <r>    8.2403    1.0000 </r>
       <r>    8.6729    1.0000 </r>
       <r>    8.6729    1.0000 </r>
       <r>   10.6355    1.0000 </r>
       <r>   11.5905    0.0000 </r>
       <r>   11.5905    0.0000 </r>
       <r>   12.3109    0.0000 </r>
      </set>
      <set comment="kpoint 3">
       <r>  -21.2960    1.0000 </r>
       <r>  -21.2876    1.0000 </r>
       <r>  -21.2876    1.0000 </r>
       <r>   -2.8732    1.0000 </r>
       <r>    3.5400    1.0000 </r>
       <r>    3.6788    1.0000 </r>
       <r>    3.6788    1.0000 </r>
       <r>    4.8105    1.0000 </r>
       <r>    4.8105    1.0000 </r>
       <r>    7.3049    1.0000 </r>
       <r>    8.5113    1.0000 </r>
       <r>    8.5113    1.0000 </r>
       <r>   10.7002    1.0000 </r>
       <r>   11.4637    0.0000 </r>
       <r>   11.4637    0.0000 </r>
       <r>   13.0993    0.0000 </r>
      </set>
      <set comment="kpoint 4">
       <r>  -21.3039    1.0000 </r>
       <r>  -21.2868    1.0000 </r>
       <r>  -21.2868    1.0000 </r>
       <r>   -2.5245    1.0000 </r>
       <r>    3.2272    1.0000 </r>
       <r>    3.5964    1.0000 </r>
       <r>    3.5964    1.0000 </r>
       <r>    4.9195    1.0000 </r>
       <r>    4.9195    1.0000 </r>
       <r>    6.4102    1.0000 </r>
       <r>    8.3294    1.0000 </r>
       <r>    8.3294    1.0000 </r>
       <r>   10.7780    0.9687 </r>
       <r>   11.4768    0.0000 </r>
       <r>   11.4768    0.0000 </r>
       <r>   13.8365    0.0000 </r>
      </set>
      <set comment="kpoint 5">
       <r>  -21.3120    1.0000 </r>
       <r>  -21.2860    1.0000 </r>
       <r>  -21.2860    1.0000 </r>
       <r>   -2.1019    1.0000 </r>
       <r>    2.8449    1.0000 </r>
       <r>    3.5520    1.0000 </r>
       <r>    3.5520    1.0000 </r>
       <r>    4.9628    1.0000 </r>
       <r>    4.9628    1.0000 </r>
       <r>    5.7151    1.0000 </r>
       <r>    8.1928    1.0000 </r>
       <r>    8.1928    1.0000 </r>
       <r>   10.8557    0.0000 </r>
       <r>   11.6007    0.0000 </r>
       <r>   11.6007    0.0000 </r>
       <r>   13.3397    0.0000 </r>
      </set>
      <set comment="kpoint 6">
       <r>  -21.3187    1.0000 </r>
       <r>  -21.2853    1.0000 </r>
       <r>  -21.2853    1.0000 </r>
       <r>   -1.6880    1.0000 </r>
       <r>    2.4574    1.0000 </r>
       <r>    3.5422    1.0000 </r>
       <r>    3.5422    1.0000 </r>
       <r>    4.9463    1.0000 </r>
       <r>    4.9463    1.0000 </r>
       <r>    5.2687    1.0000 </r>
       <r>    8.1219    1.0000 </r>
       <r>    8.1219    1.0000 </r>
       <r>   10.9318    0.0000 </r>
       <r>   11.7839    0.0000 </r>
       <r>   11.7839    0.0000 </r>
       <r>   12.5047    0.0000 </r>
      </set>
      <set comment="kpoint 7">
       <r>  -21.3224    1.0000 </r>
       <r>  -21.2849    1.0000 </r>
       <r>  -21.2849    1.0000 </r>
       <r>   -1.4134    1.0000 </r>
       <r>    2.1926    1.0000 </r>
       <r>    3.5473    1.0000 </r>
       <r>    3.5473    1.0000 </r>
       <r>    4.9160    1.0000 </r>
       <r>    4.9160    1.0000 </r>
       <r>    5.0589    1.0000 </r>
       <r>    8.0978    1.0000 </r>
       <r>    8.0978    1.0000 </r>
       <r>   10.9968    0.0000 </r>
       <r>   11.9324    0.0000 </r>
       <r>   11.9324    0.0000 </r>
       <r>   12.0186    0.0000 </r>
      </set>
      <set comment="kpoint 8">
       <r>  -21.2903    1.0000 </r>
       <r>  -21.2884    1.0000 </r>
       <r>  -21.2884    1.0000 </r>
       <r>   -3.0738    1.0000 </r>
       <r>    3.5592    1.0000 </r>
       <r>    3.8582    1.0000 </r>
       <r>    3.8582    1.0000 </r>
       <r>    4.6579    1.0000 </r>
       <r>    4.7173    1.0000 </r>
       <r>    8.3221    1.0000 </r>
       <r>    8.5293    1.0000 </r>
       <r>    8.5293    1.0000 </r>
       <r>   10.6018    1.0000 </r>
       <r>   11.5675    0.0000 </r>
       <r>   12.0368    0.0000 </r>
       <r>   12.0902    0.0000 </r>
      </set>
      <set comment="kpoint 9">
       <r>  -21.2945    1.0000 </r>
       <r>  -21.2883    1.0000 </r>
       <r>  -21.2880    1.0000 </r>
       <r>   -2.8984    1.0000 </r>
       <r>    3.3273    1.0000 </r>
       <r>    3.8262    1.0000 </r>
       <r>    3.8473    1.0000 </r>
       <r>    4.7455    1.0000 </r>
       <r>    4.8059    1.0000 </r>
       <r>    7.5965    1.0000 </r>
       <r>    8.3304    1.0000 </r>
       <r>    8.4358    1.0000 </r>
       <r>   10.6939    1.0000 </r>
       <r>   11.3937    0.0000 </r>
       <r>   11.7585    0.0000 </r>
       <r>   12.6969    0.0000 </r>
      </set>
      <set comment="kpoint 10">
       <r>  -21.3015    1.0000 </r>
       <r>  -21.2879    1.0000 </r>
       <r>  -21.2872    1.0000 </r>
       <r>   -2.5930    1.0000 </r>
       <r>    3.0895    1.0000 </r>
       <r>    3.7018    1.0000 </r>
       <r>    3.7892    1.0000 </r>
       <r>    4.8631    1.0000 </r>
       <r>    4.9092    1.0000 </r>
       <r>    6.7134    1.0000 </r>
       <r>    8.1536    1.0000 </r>
       <r>    8.2753    1.0000 </r>
       <r>   10.8984    0.0000 </r>
       <r>   11.3389    0.0000 </r>
       <r>   11.6022    0.0000 </r>
       <r>   13.3530    0.0000 </r>
      </set>
      <set comment="kpoint 11">
       <r>  -21.3093    1.0000 </r>
       <r>  -21.2871    1.0000 </r>
       <r>  -21.2866    1.0000 </r>
       <r>   -2.1987    1.0000 </r>
       <r>    2.8276    1.0000 </r>
       <r>    3.5708    1.0000 </r>
       <r>    3.7310    1.0000 </r>
       <r>    4.9308    1.0000 </r>
       <r>    4.9764    1.0000 </r>
       <r>    5.9587    1.0000 </r>
       <r>    8.0468    1.0000 </r>
       <r>    8.1077    1.0000 </r>
       <r>   10.9138    0.0000 </r>
       <r>   11.5885    0.0000 </r>
       <r>   11.6090    0.0000 </r>
       <r>   13.4390    0.0000 </r>
      </set>
      <set comment="kpoint 12">
       <r>  -21.3163    1.0000 </r>
       <r>  -21.2863    1.0000 </r>
       <r>  -21.2863    1.0000 </r>
       <r>   -1.7854    1.0000 </r>
       <r>    2.5335    1.0000 </r>
       <r>    3.4991    1.0000 </r>
       <r>    3.6812    1.0000 </r>
       <r>    4.9380    1.0000 </r>
       <r>    4.9838    1.0000 </r>
       <r>    5.4278    1.0000 </r>
       <r>    7.9914    1.0000 </r>
       <r>    8.0114    1.0000 </r>
       <r>   10.9070    0.0000 </r>
       <r>   11.7037    0.0000 </r>
       <r>   11.8992    0.0000 </r>
       <r>   12.7091    0.0000 </r>
      </set>
      <set comment="kpoint 13">
       <r>  -21.3208    1.0000 </r>
       <r>  -21.2862    1.0000 </r>
       <r>  -21.2855    1.0000 </r>
       <r>   -1.4640    1.0000 </r>
       <r>    2.2804    1.0000 </r>
       <r>    3.4995    1.0000 </r>
       <r>    3.6261    1.0000 </r>
       <r>    4.9302    1.0000 </r>
       <r>    4.9494    1.0000 </r>
       <r>    5.1379    1.0000 </r>
       <r>    7.9310    1.0000 </r>
       <r>    8.0150    1.0000 </r>
       <r>   10.9690    0.0000 </r>
       <r>   11.7744    0.0000 </r>
       <r>   11.8787    0.0000 </r>
       <r>   12.4535    0.0000 </r>
      </set>
      <set comment="kpoint 14">
       <r>  -21.3219    1.0000 </r>
       <r>  -21.2866    1.0000 </r>
       <r>  -21.2850    1.0000 </r>
       <r>   -1.3687    1.0000 </r>
       <r>    2.2033    1.0000 </r>
       <r>    3.5505    1.0000 </r>
       <r>    3.5561    1.0000 </r>
       <r>    4.9134    1.0000 </r>
       <r>    4.9514    1.0000 </r>
       <r>    5.0699    1.0000 </r>
       <r>    7.8974    1.0000 </r>
       <r>    8.0351    1.0000 </r>
       <r>   11.0479    0.0000 </r>
       <r>   11.5722    0.0000 </r>
       <r>   11.9686    0.0000 </r>
       <r>   12.4931    0.0000 </r>
      </set>
      <set comment="kpoint 15">
       <r>  -21.3195    1.0000 </r>
       <r>  -21.2871    1.0000 </r>
       <r>  -21.2849    1.0000 </r>
       <r>   -1.5515    1.0000 </r>
       <r>    2.3610    1.0000 </r>
       <r>    3.4852    1.0000 </r>
       <r>    3.6278    1.0000 </r>
       <r>    4.9014    1.0000 </r>
       <r>    4.9988    1.0000 </r>
       <r>    5.2151    1.0000 </r>
       <r>    7.8644    1.0000 </r>
       <r>    8.0813    1.0000 </r>
       <r>   10.9988    0.0000 </r>
       <r>   11.7831    0.0000 </r>
       <r>   11.8736    0.0000 </r>
       <r>   12.4860    0.0000 </r>
      </set>
      <set comment="kpoint 16">
       <r>  -21.3140    1.0000 </r>
       <r>  -21.2878    1.0000 </r>
       <r>  -21.2852    1.0000 </r>
       <r>   -1.9184    1.0000 </r>
       <r>    2.6635    1.0000 </r>
       <r>    3.4420    1.0000 </r>
       <r>    3.7178    1.0000 </r>
       <r>    4.9053    1.0000 </r>
       <r>    5.0308    1.0000 </r>
       <r>    5.5842    1.0000 </r>
       <r>    7.8398    1.0000 </r>
       <r>    8.1823    1.0000 </r>
       <r>   10.9889    0.0000 </r>
       <r>   11.6600    0.0000 </r>
       <r>   11.7959    0.0000 </r>
       <r>   12.9542    0.0000 </r>
      </set>
      <set comment="kpoint 17">
       <r>  -21.3066    1.0000 </r>
       <r>  -21.2884    1.0000 </r>
       <r>  -21.2858    1.0000 </r>
       <r>   -2.3356    1.0000 </r>
       <r>    2.9943    1.0000 </r>
       <r>    3.4502    1.0000 </r>
       <r>    3.8118    1.0000 </r>
       <r>    4.8793    1.0000 </r>
       <r>    5.0068    1.0000 </r>
       <r>    6.1906    1.0000 </r>
       <r>    7.8680    1.0000 </r>
       <r>    8.3511    1.0000 </r>
       <r>   11.0460    0.0000 </r>
       <r>   11.4378    0.0000 </r>
       <r>   11.6181    0.0000 </r>
       <r>   13.3308    0.0000 </r>
      </set>
      <set comment="kpoint 18">
       <r>  -21.2991    1.0000 </r>
       <r>  -21.2887    1.0000 </r>
       <r>  -21.2866    1.0000 </r>
       <r>   -2.7067    1.0000 </r>
       <r>    3.2973    1.0000 </r>
       <r>    3.5189    1.0000 </r>
       <r>    3.8868    1.0000 </r>
       <r>    4.7999    1.0000 </r>
       <r>    4.9184    1.0000 </r>
       <r>    6.9893    1.0000 </r>
       <r>    8.0000    1.0000 </r>
       <r>    8.5492    1.0000 </r>
       <r>   10.9941    0.0000 </r>
       <r>   11.2960    0.0000 </r>
       <r>   11.6076    0.0000 </r>
       <r>   12.7564    0.0000 </r>
      </set>
      <set comment="kpoint 19">
       <r>  -21.2931    1.0000 </r>
       <r>  -21.2886    1.0000 </r>
       <r>  -21.2875    1.0000 </r>
       <r>   -2.9724    1.0000 </r>
       <r>    3.5570    1.0000 </r>
       <r>    3.6391    1.0000 </r>
       <r>    3.8880    1.0000 </r>
       <r>    4.7120    1.0000 </r>
       <r>    4.7924    1.0000 </r>
       <r>    7.7913    1.0000 </r>
       <r>    8.2912    1.0000 </r>
       <r>    8.6836    1.0000 </r>
       <r>   10.7642    0.9999 </r>
       <r>   11.3251    0.0000 </r>
       <r>   11.8019    0.0000 </r>
       <r>   12.2396    0.0000 </r>
      </set>
      <set comment="kpoint 20">
       <r>  -21.2959    1.0000 </r>
       <r>  -21.2888    1.0000 </r>
       <r>  -21.2888    1.0000 </r>
       <r>   -2.7793    1.0000 </r>
       <r>    3.0425    1.0000 </r>
       <r>    3.9557    1.0000 </r>
       <r>    3.9557    1.0000 </r>
       <r>    4.7689    1.0000 </r>
       <r>    4.7942    1.0000 </r>
       <r>    7.5836    1.0000 </r>
       <r>    8.1011    1.0000 </r>
       <r>    8.1011    1.0000 </r>
       <r>   10.4691    1.0000 </r>
       <r>   11.6120    0.0000 </r>
       <r>   11.8054    0.0000 </r>
       <r>   12.7882    0.0000 </r>
      </set>
      <set comment="kpoint 21">
       <r>  -21.3010    1.0000 </r>
       <r>  -21.2887    1.0000 </r>
       <r>  -21.2886    1.0000 </r>
       <r>   -2.5315    1.0000 </r>
       <r>    2.7975    1.0000 </r>
       <r>    3.9393    1.0000 </r>
       <r>    3.9752    1.0000 </r>
       <r>    4.8275    1.0000 </r>
       <r>    4.8654    1.0000 </r>
       <r>    6.9779    1.0000 </r>
       <r>    7.9101    1.0000 </r>
       <r>    7.9439    1.0000 </r>
       <r>   10.5688    1.0000 </r>
       <r>   11.6203    0.0000 </r>
       <r>   11.6263    0.0000 </r>
       <r>   13.2092    0.0000 </r>
      </set>
      <set comment="kpoint 22">
       <r>  -21.3076    1.0000 </r>
       <r>  -21.2885    1.0000 </r>
       <r>  -21.2883    1.0000 </r>
       <r>   -2.1903    1.0000 </r>
       <r>    2.6071    1.0000 </r>
       <r>    3.8052    1.0000 </r>
       <r>    3.9412    1.0000 </r>
       <r>    4.9015    1.0000 </r>
       <r>    4.9495    1.0000 </r>
       <r>    6.2600    1.0000 </r>
       <r>    7.7736    1.0000 </r>
       <r>    7.8094    1.0000 </r>
       <r>   10.7432    1.0000 </r>
       <r>   11.5112    0.0000 </r>
       <r>   11.8261    0.0000 </r>
       <r>   13.3381    0.0000 </r>
      </set>
      <set comment="kpoint 23">
       <r>  -21.3138    1.0000 </r>
       <r>  -21.2888    1.0000 </r>
       <r>  -21.2875    1.0000 </r>
       <r>   -1.8162    1.0000 </r>
       <r>    2.4685    1.0000 </r>
       <r>    3.6390    1.0000 </r>
       <r>    3.8772    1.0000 </r>
       <r>    4.9609    1.0000 </r>
       <r>    4.9811    1.0000 </r>
       <r>    5.6654    1.0000 </r>
       <r>    7.6196    1.0000 </r>
       <r>    7.7951    1.0000 </r>
       <r>   10.7616    1.0000 </r>
       <r>   11.5638    0.0000 </r>
       <r>   12.2496    0.0000 </r>
       <r>   12.7732    0.0000 </r>
      </set>
      <set comment="kpoint 24">
       <r>  -21.3181    1.0000 </r>
       <r>  -21.2896    1.0000 </r>
       <r>  -21.2866    1.0000 </r>
       <r>   -1.4987    1.0000 </r>
       <r>    2.3742    1.0000 </r>
       <r>    3.5187    1.0000 </r>
       <r>    3.7794    1.0000 </r>
       <r>    4.9602    1.0000 </r>
       <r>    4.9945    1.0000 </r>
       <r>    5.2989    1.0000 </r>
       <r>    7.5133    1.0000 </r>
       <r>    7.8200    1.0000 </r>
       <r>   10.7888    0.6307 </r>
       <r>   11.7656    0.0000 </r>
       <r>   11.9518    0.0000 </r>
       <r>   12.8245    0.0000 </r>
      </set>
      <set comment="kpoint 25">
       <r>  -21.3197    1.0000 </r>
       <r>  -21.2906    1.0000 </r>
       <r>  -21.2857    1.0000 </r>
       <r>   -1.3438    1.0000 </r>
       <r>    2.3363    1.0000 </r>
       <r>    3.5020    1.0000 </r>
       <r>    3.6507    1.0000 </r>
       <r>    4.8969    1.0000 </r>
       <r>    5.0309    1.0000 </r>
       <r>    5.2009    1.0000 </r>
       <r>    7.4397    1.0000 </r>
       <r>    7.8533    1.0000 </r>
       <r>   10.9360    0.0000 </r>
       <r>   11.4960    0.0000 </r>
       <r>   11.9776    0.0000 </r>
       <r>   13.0969    0.0000 </r>
      </set>
      <set comment="kpoint 26">
       <r>  -21.3183    1.0000 </r>
       <r>  -21.2915    1.0000 </r>
       <r>  -21.2851    1.0000 </r>
       <r>   -1.4186    1.0000 </r>
       <r>    2.3878    1.0000 </r>
       <r>    3.5183    1.0000 </r>
       <r>    3.6004    1.0000 </r>
       <r>    4.8705    1.0000 </r>
       <r>    5.0848    1.0000 </r>
       <r>    5.2934    1.0000 </r>
       <r>    7.3612    1.0000 </r>
       <r>    7.9101    1.0000 </r>
       <r>   11.0538    0.0000 </r>
       <r>   11.5261    0.0000 </r>
       <r>   11.9921    0.0000 </r>
       <r>   13.0434    0.0000 </r>
      </set>
      <set comment="kpoint 27">
       <r>  -21.3145    1.0000 </r>
       <r>  -21.2919    1.0000 </r>
       <r>  -21.2849    1.0000 </r>
       <r>   -1.6904    1.0000 </r>
       <r>    2.5338    1.0000 </r>
       <r>    3.4185    1.0000 </r>
       <r>    3.7692    1.0000 </r>
       <r>    4.8712    1.0000 </r>
       <r>    5.1183    1.0000 </r>
       <r>    5.5819    1.0000 </r>
       <r>    7.2696    1.0000 </r>
       <r>    8.0257    1.0000 </r>
       <r>   11.0822    0.0000 </r>
       <r>   11.8078    0.0000 </r>
       <r>   12.0232    0.0000 </r>
       <r>   12.8408    0.0000 </r>
      </set>
      <set comment="kpoint 28">
       <r>  -21.3091    1.0000 </r>
       <r>  -21.2916    1.0000 </r>
       <r>  -21.2851    1.0000 </r>
       <r>   -2.0578    1.0000 </r>
       <r>    2.7504    1.0000 </r>
       <r>    3.3787    1.0000 </r>
       <r>    3.9280    1.0000 </r>
       <r>    4.8533    1.0000 </r>
       <r>    5.0998    1.0000 </r>
       <r>    6.0664    1.0000 </r>
       <r>    7.2332    1.0000 </r>
       <r>    8.2113    1.0000 </r>
       <r>   11.2503    0.0000 </r>
       <r>   11.5570    0.0000 </r>
       <r>   12.0588    0.0000 </r>
       <r>   12.9008    0.0000 </r>
      </set>
      <set comment="kpoint 29">
       <r>  -21.3035    1.0000 </r>
       <r>  -21.2905    1.0000 </r>
       <r>  -21.2857    1.0000 </r>
       <r>   -2.4204    1.0000 </r>
       <r>    3.0132    1.0000 </r>
       <r>    3.4126    1.0000 </r>
       <r>    3.9892    1.0000 </r>
       <r>    4.8148    1.0000 </r>
       <r>    5.0260    1.0000 </r>
       <r>    6.6101    1.0000 </r>
       <r>    7.4275    1.0000 </r>
       <r>    8.4202    1.0000 </r>
       <r>   11.3502    0.0000 </r>
       <r>   11.4770    0.0000 </r>
       <r>   11.5991    0.0000 </r>
       <r>   12.6817    0.0000 </r>
      </set>
      <set comment="kpoint 30">
       <r>  -21.3039    1.0000 </r>
       <r>  -21.2892    1.0000 </r>
       <r>  -21.2892    1.0000 </r>
       <r>   -2.3504    1.0000 </r>
       <r>    2.5540    1.0000 </r>
       <r>    4.0930    1.0000 </r>
       <r>    4.0930    1.0000 </r>
       <r>    4.7260    1.0000 </r>
       <r>    4.9367    1.0000 </r>
       <r>    6.8962    1.0000 </r>
       <r>    7.6932    1.0000 </r>
       <r>    7.6932    1.0000 </r>
       <r>   10.2965    1.0000 </r>
       <r>   11.4703    0.0000 </r>
       <r>   11.8201    0.0000 </r>
       <r>   13.3573    0.0000 </r>
      </set>
      <set comment="kpoint 31">
       <r>  -21.3089    1.0000 </r>
       <r>  -21.2896    1.0000 </r>
       <r>  -21.2892    1.0000 </r>
       <r>   -2.0808    1.0000 </r>
       <r>    2.4002    1.0000 </r>
       <r>    4.0566    1.0000 </r>
       <r>    4.1251    1.0000 </r>
       <r>    4.7349    1.0000 </r>
       <r>    5.0267    1.0000 </r>
       <r>    6.4306    1.0000 </r>
       <r>    7.5071    1.0000 </r>
       <r>    7.5701    1.0000 </r>
       <r>   10.3607    1.0000 </r>
       <r>   11.3181    0.0000 </r>
       <r>   11.9965    0.0000 </r>
       <r>   13.3567    0.0000 </r>
      </set>
      <set comment="kpoint 32">
       <r>  -21.3136    1.0000 </r>
       <r>  -21.2906    1.0000 </r>
       <r>  -21.2887    1.0000 </r>
       <r>   -1.7752    1.0000 </r>
       <r>    2.3548    1.0000 </r>
       <r>    3.8721    1.0000 </r>
       <r>    4.0857    1.0000 </r>
       <r>    4.8477    1.0000 </r>
       <r>    5.0774    1.0000 </r>
       <r>    5.8811    1.0000 </r>
       <r>    7.2839    1.0000 </r>
       <r>    7.5510    1.0000 </r>
       <r>   10.4741    1.0000 </r>
       <r>   11.3153    0.0000 </r>
       <r>   12.4159    0.0000 </r>
       <r>   12.8669    0.0000 </r>
      </set>
      <set comment="kpoint 33">
       <r>  -21.3166    1.0000 </r>
       <r>  -21.2926    1.0000 </r>
       <r>  -21.2879    1.0000 </r>
       <r>   -1.5036    1.0000 </r>
       <r>    2.4152    1.0000 </r>
       <r>    3.6634    1.0000 </r>
       <r>    3.9780    1.0000 </r>
       <r>    4.9232    1.0000 </r>
       <r>    5.1038    1.0000 </r>
       <r>    5.4649    1.0000 </r>
       <r>    7.0783    1.0000 </r>
       <r>    7.5824    1.0000 </r>
       <r>   10.5248    1.0000 </r>
       <r>   11.5299    0.0000 </r>
       <r>   12.1983    0.0000 </r>
       <r>   12.9482    0.0000 </r>
      </set>
      <set comment="kpoint 34">
       <r>  -21.3173    1.0000 </r>
       <r>  -21.2950    1.0000 </r>
       <r>  -21.2868    1.0000 </r>
       <r>   -1.3377    1.0000 </r>
       <r>    2.5285    1.0000 </r>
       <r>    3.5021    1.0000 </r>
       <r>    3.8147    1.0000 </r>
       <r>    4.8400    1.0000 </r>
       <r>    5.1426    1.0000 </r>
       <r>    5.3818    1.0000 </r>
       <r>    6.9190    1.0000 </r>
       <r>    7.6204    1.0000 </r>
       <r>   10.6359    1.0000 </r>
       <r>   11.6859    0.0000 </r>
       <r>   11.8960    0.0000 </r>
       <r>   13.1061    0.0000 </r>
      </set>
      <set comment="kpoint 35">
       <r>  -21.3159    1.0000 </r>
       <r>  -21.2969    1.0000 </r>
       <r>  -21.2858    1.0000 </r>
       <r>   -1.3267    1.0000 </r>
       <r>    2.5781    1.0000 </r>
       <r>    3.4897    1.0000 </r>
       <r>    3.6349    1.0000 </r>
       <r>    4.7878    1.0000 </r>
       <r>    5.1873    1.0000 </r>
       <r>    5.4981    1.0000 </r>
       <r>    6.7958    1.0000 </r>
       <r>    7.6802    1.0000 </r>
       <r>   10.8597    0.0000 </r>
       <r>   11.4623    0.0000 </r>
       <r>   12.1121    0.0000 </r>
       <r>   12.9863    0.0000 </r>
      </set>
      <set comment="kpoint 36">
       <r>  -21.3134    1.0000 </r>
       <r>  -21.2973    1.0000 </r>
       <r>  -21.2851    1.0000 </r>
       <r>   -1.4774    1.0000 </r>
       <r>    2.5565    1.0000 </r>
       <r>    3.4828    1.0000 </r>
       <r>    3.6486    1.0000 </r>
       <r>    4.8278    1.0000 </r>
       <r>    5.2046    1.0000 </r>
       <r>    5.7095    1.0000 </r>
       <r>    6.7095    1.0000 </r>
       <r>    7.8024    1.0000 </r>
       <r>   11.0211    0.0000 </r>
       <r>   11.7631    0.0000 </r>
       <r>   12.0070    0.0000 </r>
       <r>   12.8796    0.0000 </r>
      </set>
      <set comment="kpoint 37">
       <r>  -21.3111    1.0000 </r>
       <r>  -21.2952    1.0000 </r>
       <r>  -21.2848    1.0000 </r>
       <r>   -1.7464    1.0000 </r>
       <r>    2.5960    1.0000 </r>
       <r>    3.3912    1.0000 </r>
       <r>    3.8422    1.0000 </r>
       <r>    4.8568    1.0000 </r>
       <r>    5.1733    1.0000 </r>
       <r>    5.9444    1.0000 </r>
       <r>    6.7917    1.0000 </r>
       <r>    7.9960    1.0000 </r>
       <r>   11.1475    0.0000 </r>
       <r>   11.7780    0.0000 </r>
       <r>   12.3961    0.0000 </r>
       <r>   12.8315    0.0000 </r>
      </set>
      <set comment="kpoint 38">
       <r>  -21.3127    1.0000 </r>
       <r>  -21.2897    1.0000 </r>
       <r>  -21.2897    1.0000 </r>
       <r>   -1.8958    1.0000 </r>
       <r>    2.2889    1.0000 </r>
       <r>    4.2344    1.0000 </r>
       <r>    4.2344    1.0000 </r>
       <r>    4.5532    1.0000 </r>
       <r>    5.1325    1.0000 </r>
       <r>    6.2421    1.0000 </r>
       <r>    7.4074    1.0000 </r>
       <r>    7.4074    1.0000 </r>
       <r>   10.1445    1.0000 </r>
       <r>   11.0997    0.0000 </r>
       <r>   12.1019    0.0000 </r>
       <r>   13.2881    0.0000 </r>
      </set>
      <set comment="kpoint 39">
       <r>  -21.3165    1.0000 </r>
       <r>  -21.2905    1.0000 </r>
       <r>  -21.2897    1.0000 </r>
       <r>   -1.6787    1.0000 </r>
       <r>    2.3061    1.0000 </r>
       <r>    4.1135    1.0000 </r>
       <r>    4.2538    1.0000 </r>
       <r>    4.6369    1.0000 </r>
       <r>    5.2062    1.0000 </r>
       <r>    5.8382    1.0000 </r>
       <r>    7.2207    1.0000 </r>
       <r>    7.3563    1.0000 </r>
       <r>   10.1740    1.0000 </r>
       <r>   11.0065    0.0000 </r>
       <r>   12.3562    0.0000 </r>
       <r>   12.9460    0.0000 </r>
      </set>
      <set comment="kpoint 40">
       <r>  -21.3185    1.0000 </r>
       <r>  -21.2927    1.0000 </r>
       <r>  -21.2891    1.0000 </r>
       <r>   -1.4800    1.0000 </r>
       <r>    2.4522    1.0000 </r>
       <r>    3.8776    1.0000 </r>
       <r>    4.1782    1.0000 </r>
       <r>    4.8067    1.0000 </r>
       <r>    5.2392    1.0000 </r>
       <r>    5.4469    1.0000 </r>
       <r>    6.9189    1.0000 </r>
       <r>    7.3756    1.0000 </r>
       <r>   10.2542    1.0000 </r>
       <r>   11.1611    0.0000 </r>
       <r>   12.3633    0.0000 </r>
       <r>   12.9400    0.0000 </r>
      </set>
      <set comment="kpoint 41">
       <r>  -21.3178    1.0000 </r>
       <r>  -21.2962    1.0000 </r>
       <r>  -21.2881    1.0000 </r>
       <r>   -1.3420    1.0000 </r>
       <r>    2.6761    1.0000 </r>
       <r>    3.6441    1.0000 </r>
       <r>    4.0177    1.0000 </r>
       <r>    4.7468    1.0000 </r>
       <r>    5.2648    1.0000 </r>
       <r>    5.4121    1.0000 </r>
       <r>    6.6096    1.0000 </r>
       <r>    7.4102    1.0000 </r>
       <r>   10.3555    1.0000 </r>
       <r>   11.5977    0.0000 </r>
       <r>   11.8946    0.0000 </r>
       <r>   12.7434    0.0000 </r>
      </set>
      <set comment="kpoint 42">
       <r>  -21.3151    1.0000 </r>
       <r>  -21.2999    1.0000 </r>
       <r>  -21.2869    1.0000 </r>
       <r>   -1.2894    1.0000 </r>
       <r>    2.8365    1.0000 </r>
       <r>    3.4374    1.0000 </r>
       <r>    3.8153    1.0000 </r>
       <r>    4.6587    1.0000 </r>
       <r>    5.2820    1.0000 </r>
       <r>    5.6627    1.0000 </r>
       <r>    6.3554    1.0000 </r>
       <r>    7.4712    1.0000 </r>
       <r>   10.5513    1.0000 </r>
       <r>   11.5737    0.0000 </r>
       <r>   12.1581    0.0000 </r>
       <r>   12.6864    0.0000 </r>
      </set>
      <set comment="kpoint 43">
       <r>  -21.3127    1.0000 </r>
       <r>  -21.3010    1.0000 </r>
       <r>  -21.2859    1.0000 </r>
       <r>   -1.3346    1.0000 </r>
       <r>    2.7254    1.0000 </r>
       <r>    3.4728    1.0000 </r>
       <r>    3.6235    1.0000 </r>
       <r>    4.7290    1.0000 </r>
       <r>    5.2648    1.0000 </r>
       <r>    5.8408    1.0000 </r>
       <r>    6.3135    1.0000 </r>
       <r>    7.6003    1.0000 </r>
       <r>   10.8251    0.0000 </r>
       <r>   11.5114    0.0000 </r>
       <r>   12.1966    0.0000 </r>
       <r>   12.6978    0.0000 </r>
      </set>
      <set comment="kpoint 44">
       <r>  -21.3201    1.0000 </r>
       <r>  -21.2901    1.0000 </r>
       <r>  -21.2901    1.0000 </r>
       <r>   -1.5565    1.0000 </r>
       <r>    2.3702    1.0000 </r>
       <r>    4.3432    1.0000 </r>
       <r>    4.3432    1.0000 </r>
       <r>    4.3873    1.0000 </r>
       <r>    5.3123    1.0000 </r>
       <r>    5.5267    1.0000 </r>
       <r>    7.2618    1.0000 </r>
       <r>    7.2618    1.0000 </r>
       <r>   10.0264    1.0000 </r>
       <r>   10.7772    0.9757 </r>
       <r>   12.2726    0.0000 </r>
       <r>   12.8553    0.0000 </r>
      </set>
      <set comment="kpoint 45">
       <r>  -21.3220    1.0000 </r>
       <r>  -21.2912    1.0000 </r>
       <r>  -21.2900    1.0000 </r>
       <r>   -1.4408    1.0000 </r>
       <r>    2.5399    1.0000 </r>
       <r>    4.1159    1.0000 </r>
       <r>    4.3319    1.0000 </r>
       <r>    4.6082    1.0000 </r>
       <r>    5.1637    1.0000 </r>
       <r>    5.3594    1.0000 </r>
       <r>    7.0916    1.0000 </r>
       <r>    7.2528    1.0000 </r>
       <r>   10.0464    1.0000 </r>
       <r>   10.7829    0.8796 </r>
       <r>   12.3420    0.0000 </r>
       <r>   12.6709    0.0000 </r>
      </set>
      <set comment="kpoint 46">
       <r>  -21.3212    1.0000 </r>
       <r>  -21.2940    1.0000 </r>
       <r>  -21.2893    1.0000 </r>
       <r>   -1.3527    1.0000 </r>
       <r>    2.7491    1.0000 </r>
       <r>    3.8990    1.0000 </r>
       <r>    4.2154    1.0000 </r>
       <r>    4.6352    1.0000 </r>
       <r>    5.1208    1.0000 </r>
       <r>    5.3665    1.0000 </r>
       <r>    6.7498    1.0000 </r>
       <r>    7.2761    1.0000 </r>
       <r>   10.1382    1.0000 </r>
       <r>   11.1058    0.0000 </r>
       <r>   12.0925    0.0000 </r>
       <r>   12.5390    0.0000 </r>
      </set>
      <set comment="kpoint 47">
       <r>  -21.3181    1.0000 </r>
       <r>  -21.2978    1.0000 </r>
       <r>  -21.2882    1.0000 </r>
       <r>   -1.3007    1.0000 </r>
       <r>    2.8938    1.0000 </r>
       <r>    3.6318    1.0000 </r>
       <r>    4.0251    1.0000 </r>
       <r>    4.5612    1.0000 </r>
       <r>    5.3440    1.0000 </r>
       <r>    5.4492    1.0000 </r>
       <r>    6.4117    1.0000 </r>
       <r>    7.3359    1.0000 </r>
       <r>   10.2994    1.0000 </r>
       <r>   11.6935    0.0000 </r>
       <r>   11.7870    0.0000 </r>
       <r>   12.4549    0.0000 </r>
      </set>
      <set comment="kpoint 48">
       <r>  -21.3243    1.0000 </r>
       <r>  -21.2904    1.0000 </r>
       <r>  -21.2904    1.0000 </r>
       <r>   -1.4013    1.0000 </r>
       <r>    2.6649    1.0000 </r>
       <r>    4.3605    1.0000 </r>
       <r>    4.3989    1.0000 </r>
       <r>    4.3989    1.0000 </r>
       <r>    4.8461    1.0000 </r>
       <r>    5.4226    1.0000 </r>
       <r>    7.2161    1.0000 </r>
       <r>    7.2161    1.0000 </r>
       <r>    9.9603    1.0000 </r>
       <r>   10.5872    1.0000 </r>
       <r>   12.1792    0.0000 </r>
       <r>   12.5414    0.0000 </r>
      </set>
      <set comment="kpoint 49">
       <r>  -21.3240    1.0000 </r>
       <r>  -21.2914    1.0000 </r>
       <r>  -21.2901    1.0000 </r>
       <r>   -1.3714    1.0000 </r>
       <r>    2.7512    1.0000 </r>
       <r>    4.1611    1.0000 </r>
       <r>    4.3566    1.0000 </r>
       <r>    4.5788    1.0000 </r>
       <r>    4.7774    1.0000 </r>
       <r>    5.4221    1.0000 </r>
       <r>    7.0612    1.0000 </r>
       <r>    7.2236    1.0000 </r>
       <r>   10.0019    1.0000 </r>
       <r>   10.7036    1.0000 </r>
       <r>   12.2166    0.0000 </r>
       <r>   12.5067    0.0000 </r>
      </set>
      <set comment="kpoint 50">
       <r>  -21.2986    1.0000 </r>
       <r>  -21.2892    1.0000 </r>
       <r>  -21.2873    1.0000 </r>
       <r>   -2.6850    1.0000 </r>
       <r>    3.0715    1.0000 </r>
       <r>    3.7212    1.0000 </r>
       <r>    3.9678    1.0000 </r>
       <r>    4.7875    1.0000 </r>
       <r>    4.8927    1.0000 </r>
       <r>    7.1492    1.0000 </r>
       <r>    7.8511    1.0000 </r>
       <r>    8.3885    1.0000 </r>
       <r>   10.8381    0.0000 </r>
       <r>   11.4196    0.0000 </r>
       <r>   11.6993    0.0000 </r>
       <r>   12.7082    0.0000 </r>
      </set>
      <set comment="kpoint 51">
       <r>  -21.3048    1.0000 </r>
       <r>  -21.2897    1.0000 </r>
       <r>  -21.2865    1.0000 </r>
       <r>   -2.3602    1.0000 </r>
       <r>    2.8383    1.0000 </r>
       <r>    3.6016    1.0000 </r>
       <r>    3.9613    1.0000 </r>
       <r>    4.8483    1.0000 </r>
       <r>    4.9916    1.0000 </r>
       <r>    6.4743    1.0000 </r>
       <r>    7.5855    1.0000 </r>
       <r>    8.2461    1.0000 </r>
       <r>   11.0304    0.0000 </r>
       <r>   11.5119    0.0000 </r>
       <r>   11.6591    0.0000 </r>
       <r>   13.0517    0.0000 </r>
      </set>
      <set comment="kpoint 52">
       <r>  -21.3115    1.0000 </r>
       <r>  -21.2898    1.0000 </r>
       <r>  -21.2859    1.0000 </r>
       <r>   -1.9749    1.0000 </r>
       <r>    2.6252    1.0000 </r>
       <r>    3.5158    1.0000 </r>
       <r>    3.8674    1.0000 </r>
       <r>    4.8944    1.0000 </r>
       <r>    5.0454    1.0000 </r>
       <r>    5.8341    1.0000 </r>
       <r>    7.5250    1.0000 </r>
       <r>    8.0783    1.0000 </r>
       <r>   10.9966    0.0000 </r>
       <r>   11.5575    0.0000 </r>
       <r>   12.0261    0.0000 </r>
       <r>   13.0195    0.0000 </r>
      </set>
      <set comment="kpoint 53">
       <r>  -21.3169    1.0000 </r>
       <r>  -21.2896    1.0000 </r>
       <r>  -21.2856    1.0000 </r>
       <r>   -1.6107    1.0000 </r>
       <r>    2.4355    1.0000 </r>
       <r>    3.4824    1.0000 </r>
       <r>    3.7461    1.0000 </r>
       <r>    4.9075    1.0000 </r>
       <r>    5.0421    1.0000 </r>
       <r>    5.3898    1.0000 </r>
       <r>    7.5435    1.0000 </r>
       <r>    7.9652    1.0000 </r>
       <r>   10.9487    0.0000 </r>
       <r>   11.7012    0.0000 </r>
       <r>   12.0510    0.0000 </r>
       <r>   12.7079    0.0000 </r>
      </set>
      <set comment="kpoint 54">
       <r>  -21.3200    1.0000 </r>
       <r>  -21.2894    1.0000 </r>
       <r>  -21.2855    1.0000 </r>
       <r>   -1.3794    1.0000 </r>
       <r>    2.3095    1.0000 </r>
       <r>    3.4943    1.0000 </r>
       <r>    3.6480    1.0000 </r>
       <r>    4.9107    1.0000 </r>
       <r>    5.0001    1.0000 </r>
       <r>    5.1865    1.0000 </r>
       <r>    7.5660    1.0000 </r>
       <r>    7.9197    1.0000 </r>
       <r>   11.0202    0.0000 </r>
       <r>   11.4857    0.0000 </r>
       <r>   11.9732    0.0000 </r>
       <r>   12.9168    0.0000 </r>
      </set>
      <set comment="kpoint 55">
       <r>  -21.3056    1.0000 </r>
       <r>  -21.2900    1.0000 </r>
       <r>  -21.2879    1.0000 </r>
       <r>   -2.2691    1.0000 </r>
       <r>    2.5857    1.0000 </r>
       <r>    3.8722    1.0000 </r>
       <r>    4.0718    1.0000 </r>
       <r>    4.8194    1.0000 </r>
       <r>    4.9608    1.0000 </r>
       <r>    6.6052    1.0000 </r>
       <r>    7.4634    1.0000 </r>
       <r>    7.9286    1.0000 </r>
       <r>   10.6222    1.0000 </r>
       <r>   11.4768    0.0000 </r>
       <r>   11.8298    0.0000 </r>
       <r>   13.2378    0.0000 </r>
      </set>
      <set comment="kpoint 56">
       <r>  -21.3107    1.0000 </r>
       <r>  -21.2911    1.0000 </r>
       <r>  -21.2873    1.0000 </r>
       <r>   -1.9432    1.0000 </r>
       <r>    2.4581    1.0000 </r>
       <r>    3.7487    1.0000 </r>
       <r>    4.0398    1.0000 </r>
       <r>    4.8800    1.0000 </r>
       <r>    5.0276    1.0000 </r>
       <r>    6.0836    1.0000 </r>
       <r>    7.2336    1.0000 </r>
       <r>    7.8283    1.0000 </r>
       <r>   10.7413    1.0000 </r>
       <r>   11.3922    0.0000 </r>
       <r>   12.2353    0.0000 </r>
       <r>   13.0898    0.0000 </r>
      </set>
      <set comment="kpoint 57">
       <r>  -21.3149    1.0000 </r>
       <r>  -21.2922    1.0000 </r>
       <r>  -21.2870    1.0000 </r>
       <r>   -1.6221    1.0000 </r>
       <r>    2.4204    1.0000 </r>
       <r>    3.6062    1.0000 </r>
       <r>    3.9394    1.0000 </r>
       <r>    4.9376    1.0000 </r>
       <r>    5.0481    1.0000 </r>
       <r>    5.6080    1.0000 </r>
       <r>    7.1441    1.0000 </r>
       <r>    7.7475    1.0000 </r>
       <r>   10.7564    1.0000 </r>
       <r>   11.4949    0.0000 </r>
       <r>   12.3480    0.0000 </r>
       <r>   12.7997    0.0000 </r>
      </set>
      <set comment="kpoint 58">
       <r>  -21.3174    1.0000 </r>
       <r>  -21.2933    1.0000 </r>
       <r>  -21.2866    1.0000 </r>
       <r>   -1.3905    1.0000 </r>
       <r>    2.4501    1.0000 </r>
       <r>    3.4799    1.0000 </r>
       <r>    3.8271    1.0000 </r>
       <r>    4.9113    1.0000 </r>
       <r>    5.0474    1.0000 </r>
       <r>    5.3736    1.0000 </r>
       <r>    7.0826    1.0000 </r>
       <r>    7.7258    1.0000 </r>
       <r>   10.8057    0.0196 </r>
       <r>   11.5856    0.0000 </r>
       <r>   11.9146    0.0000 </r>
       <r>   13.1409    0.0000 </r>
      </set>
      <set comment="kpoint 59">
       <r>  -21.3176    1.0000 </r>
       <r>  -21.2943    1.0000 </r>
       <r>  -21.2861    1.0000 </r>
       <r>   -1.3228    1.0000 </r>
       <r>    2.4824    1.0000 </r>
       <r>    3.4360    1.0000 </r>
       <r>    3.7370    1.0000 </r>
       <r>    4.8497    1.0000 </r>
       <r>    5.0794    1.0000 </r>
       <r>    5.3670    1.0000 </r>
       <r>    7.0285    1.0000 </r>
       <r>    7.7412    1.0000 </r>
       <r>   10.9720    0.0000 </r>
       <r>   11.3382    0.0000 </r>
       <r>   12.0131    0.0000 </r>
       <r>   13.1980    0.0000 </r>
      </set>
      <set comment="kpoint 60">
       <r>  -21.3157    1.0000 </r>
       <r>  -21.2947    1.0000 </r>
       <r>  -21.2856    1.0000 </r>
       <r>   -1.4439    1.0000 </r>
       <r>    2.4858    1.0000 </r>
       <r>    3.4682    1.0000 </r>
       <r>    3.7376    1.0000 </r>
       <r>    4.8628    1.0000 </r>
       <r>    5.1243    1.0000 </r>
       <r>    5.5009    1.0000 </r>
       <r>    6.9732    1.0000 </r>
       <r>    7.7998    1.0000 </r>
       <r>   11.0174    0.0000 </r>
       <r>   11.5319    0.0000 </r>
       <r>   11.9969    0.0000 </r>
       <r>   13.1012    0.0000 </r>
      </set>
      <set comment="kpoint 61">
       <r>  -21.3125    1.0000 </r>
       <r>  -21.2940    1.0000 </r>
       <r>  -21.2855    1.0000 </r>
       <r>   -1.7126    1.0000 </r>
       <r>    2.5232    1.0000 </r>
       <r>    3.4774    1.0000 </r>
       <r>    3.8713    1.0000 </r>
       <r>    4.8796    1.0000 </r>
       <r>    5.1279    1.0000 </r>
       <r>    5.8162    1.0000 </r>
       <r>    6.9408    1.0000 </r>
       <r>    7.9273    1.0000 </r>
       <r>   11.0755    0.0000 </r>
       <r>   11.5605    0.0000 </r>
       <r>   12.3982    0.0000 </r>
       <r>   12.8602    0.0000 </r>
      </set>
      <set comment="kpoint 62">
       <r>  -21.3086    1.0000 </r>
       <r>  -21.2922    1.0000 </r>
       <r>  -21.2857    1.0000 </r>
       <r>   -2.0460    1.0000 </r>
       <r>    2.6414    1.0000 </r>
       <r>    3.5114    1.0000 </r>
       <r>    3.9914    1.0000 </r>
       <r>    4.8581    1.0000 </r>
       <r>    5.0791    1.0000 </r>
       <r>    6.2056    1.0000 </r>
       <r>    7.0843    1.0000 </r>
       <r>    8.1064    1.0000 </r>
       <r>   11.1561    0.0000 </r>
       <r>   11.4457    0.0000 </r>
       <r>   12.1960    0.0000 </r>
       <r>   12.9271    0.0000 </r>
      </set>
      <set comment="kpoint 63">
       <r>  -21.3129    1.0000 </r>
       <r>  -21.2909    1.0000 </r>
       <r>  -21.2888    1.0000 </r>
       <r>   -1.8343    1.0000 </r>
       <r>    2.3272    1.0000 </r>
       <r>    3.9806    1.0000 </r>
       <r>    4.1866    1.0000 </r>
       <r>    4.7508    1.0000 </r>
       <r>    5.1002    1.0000 </r>
       <r>    6.0963    1.0000 </r>
       <r>    7.1808    1.0000 </r>
       <r>    7.5544    1.0000 </r>
       <r>   10.3768    1.0000 </r>
       <r>   11.1886    0.0000 </r>
       <r>   12.2869    0.0000 </r>
       <r>   13.1215    0.0000 </r>
      </set>
      <set comment="kpoint 64">
       <r>  -21.3158    1.0000 </r>
       <r>  -21.2928    1.0000 </r>
       <r>  -21.2885    1.0000 </r>
       <r>   -1.5853    1.0000 </r>
       <r>    2.3848    1.0000 </r>
       <r>    3.7946    1.0000 </r>
       <r>    4.1552    1.0000 </r>
       <r>    4.8686    1.0000 </r>
       <r>    5.1173    1.0000 </r>
       <r>    5.7027    1.0000 </r>
       <r>    6.9075    1.0000 </r>
       <r>    7.5288    1.0000 </r>
       <r>   10.4614    1.0000 </r>
       <r>   11.2134    0.0000 </r>
       <r>   12.4891    0.0000 </r>
       <r>   12.8136    0.0000 </r>
      </set>
      <set comment="kpoint 65">
       <r>  -21.3168    1.0000 </r>
       <r>  -21.2954    1.0000 </r>
       <r>  -21.2880    1.0000 </r>
       <r>   -1.3927    1.0000 </r>
       <r>    2.5523    1.0000 </r>
       <r>    3.5857    1.0000 </r>
       <r>    4.0555    1.0000 </r>
       <r>    4.8822    1.0000 </r>
       <r>    5.1190    1.0000 </r>
       <r>    5.4803    1.0000 </r>
       <r>    6.6769    1.0000 </r>
       <r>    7.5354    1.0000 </r>
       <r>   10.5311    1.0000 </r>
       <r>   11.4811    0.0000 </r>
       <r>   11.9339    0.0000 </r>
       <r>   12.9532    0.0000 </r>
      </set>
      <set comment="kpoint 66">
       <r>  -21.3157    1.0000 </r>
       <r>  -21.2982    1.0000 </r>
       <r>  -21.2872    1.0000 </r>
       <r>   -1.3002    1.0000 </r>
       <r>    2.7260    1.0000 </r>
       <r>    3.4021    1.0000 </r>
       <r>    3.9167    1.0000 </r>
       <r>    4.7501    1.0000 </r>
       <r>    5.1805    1.0000 </r>
       <r>    5.5400    1.0000 </r>
       <r>    6.4992    1.0000 </r>
       <r>    7.5605    1.0000 </r>
       <r>   10.6807    1.0000 </r>
       <r>   11.5104    0.0000 </r>
       <r>   11.9030    0.0000 </r>
       <r>   12.8215    0.0000 </r>
      </set>
      <set comment="kpoint 67">
       <r>  -21.3138    1.0000 </r>
       <r>  -21.2997    1.0000 </r>
       <r>  -21.2863    1.0000 </r>
       <r>   -1.3288    1.0000 </r>
       <r>    2.7014    1.0000 </r>
       <r>    3.3908    1.0000 </r>
       <r>    3.7899    1.0000 </r>
       <r>    4.7556    1.0000 </r>
       <r>    5.2115    1.0000 </r>
       <r>    5.7052    1.0000 </r>
       <r>    6.4095    1.0000 </r>
       <r>    7.6195    1.0000 </r>
       <r>   10.9138    0.0000 </r>
       <r>   11.3943    0.0000 </r>
       <r>   12.0026    0.0000 </r>
       <r>   12.8345    0.0000 </r>
      </set>
      <set comment="kpoint 68">
       <r>  -21.3127    1.0000 </r>
       <r>  -21.2981    1.0000 </r>
       <r>  -21.2857    1.0000 </r>
       <r>   -1.4771    1.0000 </r>
       <r>    2.5624    1.0000 </r>
       <r>    3.4664    1.0000 </r>
       <r>    3.7758    1.0000 </r>
       <r>    4.8390    1.0000 </r>
       <r>    5.1896    1.0000 </r>
       <r>    5.8235    1.0000 </r>
       <r>    6.5221    1.0000 </r>
       <r>    7.7458    1.0000 </r>
       <r>   11.0355    0.0000 </r>
       <r>   11.5924    0.0000 </r>
       <r>   12.0103    0.0000 </r>
       <r>   12.8551    0.0000 </r>
      </set>
      <set comment="kpoint 69">
       <r>  -21.3191    1.0000 </r>
       <r>  -21.2916    1.0000 </r>
       <r>  -21.2897    1.0000 </r>
       <r>   -1.5170    1.0000 </r>
       <r>    2.4164    1.0000 </r>
       <r>    3.9869    1.0000 </r>
       <r>    4.3079    1.0000 </r>
       <r>    4.7004    1.0000 </r>
       <r>    5.2484    1.0000 </r>
       <r>    5.5026    1.0000 </r>
       <r>    6.9836    1.0000 </r>
       <r>    7.3637    1.0000 </r>
       <r>   10.1813    1.0000 </r>
       <r>   10.9388    0.0000 </r>
       <r>   12.4699    0.0000 </r>
       <r>   12.7853    0.0000 </r>
      </set>
      <set comment="kpoint 70">
       <r>  -21.3195    1.0000 </r>
       <r>  -21.2941    1.0000 </r>
       <r>  -21.2893    1.0000 </r>
       <r>   -1.3855    1.0000 </r>
       <r>    2.6301    1.0000 </r>
       <r>    3.7806    1.0000 </r>
       <r>    4.2644    1.0000 </r>
       <r>    4.7996    1.0000 </r>
       <r>    5.1480    1.0000 </r>
       <r>    5.3603    1.0000 </r>
       <r>    6.6435    1.0000 </r>
       <r>    7.4025    1.0000 </r>
       <r>   10.2708    1.0000 </r>
       <r>   11.0971    0.0000 </r>
       <r>   12.1209    0.0000 </r>
       <r>   12.6547    0.0000 </r>
      </set>
      <set comment="kpoint 71">
       <r>  -21.3174    1.0000 </r>
       <r>  -21.2978    1.0000 </r>
       <r>  -21.2885    1.0000 </r>
       <r>   -1.3046    1.0000 </r>
       <r>    2.8604    1.0000 </r>
       <r>    3.5495    1.0000 </r>
       <r>    4.1303    1.0000 </r>
       <r>    4.6432    1.0000 </r>
       <r>    5.2762    1.0000 </r>
       <r>    5.4360    1.0000 </r>
       <r>    6.3141    1.0000 </r>
       <r>    7.4376    1.0000 </r>
       <r>   10.4075    1.0000 </r>
       <r>   11.5041    0.0000 </r>
       <r>   11.7983    0.0000 </r>
       <r>   12.4365    0.0000 </r>
      </set>
      <set comment="kpoint 72">
       <r>  -21.3142    1.0000 </r>
       <r>  -21.3009    1.0000 </r>
       <r>  -21.2874    1.0000 </r>
       <r>   -1.2833    1.0000 </r>
       <r>    2.9399    1.0000 </r>
       <r>    3.3369    1.0000 </r>
       <r>    3.9476    1.0000 </r>
       <r>    4.6329    1.0000 </r>
       <r>    5.2773    1.0000 </r>
       <r>    5.7593    1.0000 </r>
       <r>    6.0903    1.0000 </r>
       <r>    7.4965    1.0000 </r>
       <r>   10.6362    1.0000 </r>
       <r>   11.4765    0.0000 </r>
       <r>   12.0218    0.0000 </r>
       <r>   12.4706    0.0000 </r>
      </set>
      <set comment="kpoint 73">
       <r>  -21.3227    1.0000 </r>
       <r>  -21.2920    1.0000 </r>
       <r>  -21.2901    1.0000 </r>
       <r>   -1.3757    1.0000 </r>
       <r>    2.7103    1.0000 </r>
       <r>    4.0057    1.0000 </r>
       <r>    4.3692    1.0000 </r>
       <r>    4.6897    1.0000 </r>
       <r>    4.8799    1.0000 </r>
       <r>    5.3902    1.0000 </r>
       <r>    6.8751    1.0000 </r>
       <r>    7.3136    1.0000 </r>
       <r>   10.0765    1.0000 </r>
       <r>   10.7972    0.1961 </r>
       <r>   12.2747    0.0000 </r>
       <r>   12.4515    0.0000 </r>
      </set>
      <set comment="kpoint 74">
       <r>  -21.3208    1.0000 </r>
       <r>  -21.2946    1.0000 </r>
       <r>  -21.2896    1.0000 </r>
       <r>   -1.3301    1.0000 </r>
       <r>    2.8366    1.0000 </r>
       <r>    3.8069    1.0000 </r>
       <r>    4.2943    1.0000 </r>
       <r>    4.6387    1.0000 </r>
       <r>    5.0455    1.0000 </r>
       <r>    5.3670    1.0000 </r>
       <r>    6.5431    1.0000 </r>
       <r>    7.3747    1.0000 </r>
       <r>   10.2061    1.0000 </r>
       <r>   11.0553    0.0000 </r>
       <r>   12.0735    0.0000 </r>
       <r>   12.3510    0.0000 </r>
      </set>
      <set comment="kpoint 75">
       <r>  -21.3131    1.0000 </r>
       <r>  -21.2941    1.0000 </r>
       <r>  -21.2870    1.0000 </r>
       <r>   -1.6724    1.0000 </r>
       <r>    2.4300    1.0000 </r>
       <r>    3.6409    1.0000 </r>
       <r>    4.0291    1.0000 </r>
       <r>    4.9177    1.0000 </r>
       <r>    5.0706    1.0000 </r>
       <r>    5.8939    1.0000 </r>
       <r>    6.8029    1.0000 </r>
       <r>    7.7382    1.0000 </r>
       <r>   10.8435    0.0000 </r>
       <r>   11.3061    0.0000 </r>
       <r>   12.5517    0.0000 </r>
       <r>   12.8069    0.0000 </r>
      </set>
      <set comment="kpoint 76">
       <r>  -21.3146    1.0000 </r>
       <r>  -21.2965    1.0000 </r>
       <r>  -21.2870    1.0000 </r>
       <r>   -1.4440    1.0000 </r>
       <r>    2.5280    1.0000 </r>
       <r>    3.5040    1.0000 </r>
       <r>    3.9781    1.0000 </r>
       <r>    4.9024    1.0000 </r>
       <r>    5.0913    1.0000 </r>
       <r>    5.6676    1.0000 </r>
       <r>    6.5920    1.0000 </r>
       <r>    7.6576    1.0000 </r>
       <r>   10.8845    0.0000 </r>
       <r>   11.3868    0.0000 </r>
       <r>   11.9457    0.0000 </r>
       <r>   12.9885    0.0000 </r>
      </set>
      <set comment="kpoint 77">
       <r>  -21.3152    1.0000 </r>
       <r>  -21.2979    1.0000 </r>
       <r>  -21.2872    1.0000 </r>
       <r>   -1.3150    1.0000 </r>
       <r>    2.6793    1.0000 </r>
       <r>    3.3611    1.0000 </r>
       <r>    3.9550    1.0000 </r>
       <r>    4.8152    1.0000 </r>
       <r>    5.0986    1.0000 </r>
       <r>    5.5538    1.0000 </r>
       <r>    6.5069    1.0000 </r>
       <r>    7.6288    1.0000 </r>
       <r>   10.9659    0.0000 </r>
       <r>   11.2723    0.0000 </r>
       <r>   11.8230    0.0000 </r>
       <r>   12.9186    0.0000 </r>
      </set>
      <set comment="kpoint 78">
       <r>  -21.3165    1.0000 </r>
       <r>  -21.2956    1.0000 </r>
       <r>  -21.2885    1.0000 </r>
[...]
       <r>   11.1892    0.0000 </r>
       <r>   12.0022    0.0000 </r>
       <r>   12.8545    0.0000 </r>
      </set>
      <set comment="kpoint 79">
       <r>  -21.3156    1.0000 </r>
       <r>  -21.2986    1.0000 </r>
       <r>  -21.2886    1.0000 </r>
       <r>   -1.3143    1.0000 </r>
       <r>    2.8070    1.0000 </r>
       <r>    3.4310    1.0000 </r>
       <r>    4.1956    1.0000 </r>
       <r>    4.8264    1.0000 </r>
       <r>    5.0962    1.0000 </r>
       <r>    5.5249    1.0000 </r>
       <r>    6.1755    1.0000 </r>
       <r>    7.5590    1.0000 </r>
       <r>   10.7139    1.0000 </r>
       <r>   11.3804    0.0000 </r>
       <r>   11.5736    0.0000 </r>
       <r>   12.5563    0.0000 </r>
      </set>
      <set comment="kpoint 80">
       <r>  -21.3139    1.0000 </r>
       <r>  -21.3008    1.0000 </r>
       <r>  -21.2882    1.0000 </r>
       <r>   -1.2807    1.0000 </r>
       <r>    2.9752    1.0000 </r>
       <r>    3.2611    1.0000 </r>
       <r>    4.1379    1.0000 </r>
       <r>    4.7131    1.0000 </r>
       <r>    5.1757    1.0000 </r>
       <r>    5.6531    1.0000 </r>
       <r>    5.9808    1.0000 </r>
       <r>    7.5763    1.0000 </r>
       <r>   10.9081    0.0000 </r>
       <r>   11.2659    0.0000 </r>
       <r>   11.6407    0.0000 </r>
       <r>   12.4058    0.0000 </r>
      </set>
      <set comment="kpoint 81">
       <r>  -21.3136    1.0000 </r>
       <r>  -21.3001    1.0000 </r>
       <r>  -21.2876    1.0000 </r>
       <r>   -1.3243    1.0000 </r>
       <r>    2.7711    1.0000 </r>
       <r>    3.3573    1.0000 </r>
       <r>    4.0488    1.0000 </r>
       <r>    4.7847    1.0000 </r>
       <r>    5.1539    1.0000 </r>
       <r>    5.7488    1.0000 </r>
       <r>    6.1143    1.0000 </r>
       <r>    7.5964    1.0000 </r>
       <r>   11.0206    0.0000 </r>
       <r>   11.2536    0.0000 </r>
       <r>   11.6455    0.0000 </r>
       <r>   12.7653    0.0000 </r>
      </set>
      <set comment="kpoint 82">
       <r>  -21.3184    1.0000 </r>
       <r>  -21.2964    1.0000 </r>
       <r>  -21.2896    1.0000 </r>
       <r>   -1.3185    1.0000 </r>
       <r>    2.8485    1.0000 </r>
       <r>    3.6181    1.0000 </r>
       <r>    4.3111    1.0000 </r>
       <r>    4.9086    1.0000 </r>
       <r>    4.9524    1.0000 </r>
       <r>    5.3398    1.0000 </r>
       <r>    6.2719    1.0000 </r>
       <r>    7.4986    1.0000 </r>
       <r>   10.4329    1.0000 </r>
       <r>   11.0979    0.0000 </r>
       <r>   11.8812    0.0000 </r>
       <r>   12.3459    0.0000 </r>
      </set>
      <set comment="kpoint 83">
       <r>  -21.3158    1.0000 </r>
       <r>  -21.2994    1.0000 </r>
       <r>  -21.2892    1.0000 </r>
       <r>   -1.2833    1.0000 </r>
       <r>    3.0091    1.0000 </r>
       <r>    3.4154    1.0000 </r>
       <r>    4.2632    1.0000 </r>
       <r>    4.7405    1.0000 </r>
       <r>    5.2636    1.0000 </r>
       <r>    5.2952    1.0000 </r>
       <r>    5.9992    1.0000 </r>
       <r>    7.5526    1.0000 </r>
       <r>   10.6494    1.0000 </r>
       <r>   11.2973    0.0000 </r>
       <r>   11.6379    0.0000 </r>
       <r>   12.1740    0.0000 </r>
      </set>
      <set comment="kpoint 84">
       <r>  -21.3140    1.0000 </r>
       <r>  -21.3009    1.0000 </r>
       <r>  -21.2892    1.0000 </r>
       <r>   -1.2759    1.0000 </r>
       <r>    3.0806    1.0000 </r>
       <r>    3.2785    1.0000 </r>
       <r>    4.2681    1.0000 </r>
       <r>    4.8685    1.0000 </r>
       <r>    5.1229    1.0000 </r>
       <r>    5.3894    1.0000 </r>
       <r>    5.8609    1.0000 </r>
       <r>    7.6022    1.0000 </r>
       <r>   10.9895    0.0000 </r>
       <r>   11.2637    0.0000 </r>
       <r>   11.3286    0.0000 </r>
       <r>   12.1808    0.0000 </r>
      </set>
     </set>
    </set>
   </array>
  </eigenvalues>
  <separator name="orbital magnetization" >
   <v name="MAGDIPOLOUT">      0.00000000      0.00000000      0.00000000</v>
  </separator>
  <dos>
   <i name="efermi">     10.79116600 </i>
   <total>
    <array>
     <dimension dim="1">gridpoints</dimension>
     <dimension dim="2">spin</dimension>
     <field>energy</field>
     <field>total</field>
     <field>integrated</field>
     <set>
      <set comment="spin 1">
       <r>   -23.0824     0.0000     0.0000 </r>
       <r>   -22.9534     0.0000     0.0000 </r>
       <r>   -22.8245     0.0000     0.0000 </r>
       <r>   -22.6956     0.0000     0.0000 </r>
       <r>   -22.5667     0.0000     0.0000 </r>
       <r>   -22.4377     0.0000     0.0000 </r>
       <r>   -22.3088     0.0000     0.0000 </r>
       <r>   -22.1799     0.0000     0.0000 </r>
       <r>   -22.0510     0.0000     0.0000 </r>
       <r>   -21.9220     0.0000     0.0000 </r>
       <r>   -21.7931     0.0000     0.0000 </r>
       <r>   -21.6642     0.0000     0.0000 </r>
       <r>   -21.5353     0.0000     0.0000 </r>
       <r>   -21.4064     0.0000     0.0000 </r>
       <r>   -21.2774    44.7637     5.7711 </r>
       <r>   -21.1485     0.0000     6.0000 </r>
       <r>   -21.0196     0.0000     6.0000 </r>
       <r>   -20.8907     0.0000     6.0000 </r>
       <r>   -20.7617     0.0000     6.0000 </r>
       <r>   -20.6328     0.0000     6.0000 </r>
       <r>   -20.5039     0.0000     6.0000 </r>
       <r>   -20.3750     0.0000     6.0000 </r>
       <r>   -20.2461     0.0000     6.0000 </r>
       <r>   -20.1171     0.0000     6.0000 </r>
       <r>   -19.9882     0.0000     6.0000 </r>
       <r>   -19.8593     0.0000     6.0000 </r>
       <r>   -19.7304     0.0000     6.0000 </r>
       <r>   -19.6014     0.0000     6.0000 </r>
       <r>   -19.4725     0.0000     6.0000 </r>
       <r>   -19.3436     0.0000     6.0000 </r>
       <r>   -19.2147     0.0000     6.0000 </r>
       <r>   -19.0857     0.0000     6.0000 </r>
       <r>   -18.9568     0.0000     6.0000 </r>
       <r>   -18.8279     0.0000     6.0000 </r>
       <r>   -18.6990     0.0000     6.0000 </r>
       <r>   -18.5701     0.0000     6.0000 </r>
       <r>   -18.4411     0.0000     6.0000 </r>
       <r>   -18.3122     0.0000     6.0000 </r>
       <r>   -18.1833     0.0000     6.0000 </r>
       <r>   -18.0544     0.0000     6.0000 </r>
       <r>   -17.9254     0.0000     6.0000 </r>
       <r>   -17.7965     0.0000     6.0000 </r>
       <r>   -17.6676     0.0000     6.0000 </r>
       <r>   -17.5387     0.0000     6.0000 </r>
       <r>   -17.4097     0.0000     6.0000 </r>
       <r>   -17.2808     0.0000     6.0000 </r>
       <r>   -17.1519     0.0000     6.0000 </r>
       <r>   -17.0230     0.0000     6.0000 </r>
       <r>   -16.8941     0.0000     6.0000 </r>
       <r>   -16.7651     0.0000     6.0000 </r>
       <r>   -16.6362     0.0000     6.0000 </r>
       <r>   -16.5073     0.0000     6.0000 </r>
       <r>   -16.3784     0.0000     6.0000 </r>
       <r>   -16.2494     0.0000     6.0000 </r>
       <r>   -16.1205     0.0000     6.0000 </r>
       <r>   -15.9916     0.0000     6.0000 </r>
       <r>   -15.8627     0.0000     6.0000 </r>
       <r>   -15.7338     0.0000     6.0000 </r>
       <r>   -15.6048     0.0000     6.0000 </r>
       <r>   -15.4759     0.0000     6.0000 </r>
       <r>   -15.3470     0.0000     6.0000 </r>
       <r>   -15.2181     0.0000     6.0000 </r>
       <r>   -15.0891     0.0000     6.0000 </r>
       <r>   -14.9602     0.0000     6.0000 </r>
       <r>   -14.8313     0.0000     6.0000 </r>
       <r>   -14.7024     0.0000     6.0000 </r>
       <r>   -14.5734     0.0000     6.0000 </r>
       <r>   -14.4445     0.0000     6.0000 </r>
       <r>   -14.3156     0.0000     6.0000 </r>
       <r>   -14.1867     0.0000     6.0000 </r>
       <r>   -14.0578     0.0000     6.0000 </r>
       <r>   -13.9288     0.0000     6.0000 </r>
       <r>   -13.7999     0.0000     6.0000 </r>
       <r>   -13.6710     0.0000     6.0000 </r>
       <r>   -13.5421     0.0000     6.0000 </r>
       <r>   -13.4131     0.0000     6.0000 </r>
       <r>   -13.2842     0.0000     6.0000 </r>
       <r>   -13.1553     0.0000     6.0000 </r>
       <r>   -13.0264     0.0000     6.0000 </r>
       <r>   -12.8974     0.0000     6.0000 </r>
       <r>   -12.7685     0.0000     6.0000 </r>
       <r>   -12.6396     0.0000     6.0000 </r>
       <r>   -12.5107     0.0000     6.0000 </r>
       <r>   -12.3818     0.0000     6.0000 </r>
       <r>   -12.2528     0.0000     6.0000 </r>
       <r>   -12.1239     0.0000     6.0000 </r>
       <r>   -11.9950     0.0000     6.0000 </r>
       <r>   -11.8661     0.0000     6.0000 </r>
       <r>   -11.7371     0.0000     6.0000 </r>
       <r>   -11.6082     0.0000     6.0000 </r>
       <r>   -11.4793     0.0000     6.0000 </r>
       <r>   -11.3504     0.0000     6.0000 </r>
       <r>   -11.2214     0.0000     6.0000 </r>
       <r>   -11.0925     0.0000     6.0000 </r>
       <r>   -10.9636     0.0000     6.0000 </r>
       <r>   -10.8347     0.0000     6.0000 </r>
       <r>   -10.7058     0.0000     6.0000 </r>
       <r>   -10.5768     0.0000     6.0000 </r>
       <r>   -10.4479     0.0000     6.0000 </r>
       <r>   -10.3190     0.0000     6.0000 </r>
       <r>   -10.1901     0.0000     6.0000 </r>
       <r>   -10.0611     0.0000     6.0000 </r>
       <r>    -9.9322     0.0000     6.0000 </r>
       <r>    -9.8033     0.0000     6.0000 </r>
       <r>    -9.6744     0.0000     6.0000 </r>
       <r>    -9.5455     0.0000     6.0000 </r>
       <r>    -9.4165     0.0000     6.0000 </r>
       <r>    -9.2876     0.0000     6.0000 </r>
       <r>    -9.1587     0.0000     6.0000 </r>
       <r>    -9.0298     0.0000     6.0000 </r>
       <r>    -8.9008     0.0000     6.0000 </r>
       <r>    -8.7719     0.0000     6.0000 </r>
       <r>    -8.6430     0.0000     6.0000 </r>
       <r>    -8.5141     0.0000     6.0000 </r>
       <r>    -8.3851     0.0000     6.0000 </r>
       <r>    -8.2562     0.0000     6.0000 </r>
       <r>    -8.1273     0.0000     6.0000 </r>
       <r>    -7.9984     0.0000     6.0000 </r>
       <r>    -7.8695     0.0000     6.0000 </r>
       <r>    -7.7405     0.0000     6.0000 </r>
       <r>    -7.6116     0.0000     6.0000 </r>
       <r>    -7.4827     0.0000     6.0000 </r>
       <r>    -7.3538     0.0000     6.0000 </r>
       <r>    -7.2248     0.0000     6.0000 </r>
       <r>    -7.0959     0.0000     6.0000 </r>
       <r>    -6.9670     0.0000     6.0000 </r>
       <r>    -6.8381     0.0000     6.0000 </r>
       <r>    -6.7091     0.0000     6.0000 </r>
       <r>    -6.5802     0.0000     6.0000 </r>
       <r>    -6.4513     0.0000     6.0000 </r>
       <r>    -6.3224     0.0000     6.0000 </r>
       <r>    -6.1935     0.0000     6.0000 </r>
       <r>    -6.0645     0.0000     6.0000 </r>
       <r>    -5.9356     0.0000     6.0000 </r>
       <r>    -5.8067     0.0000     6.0000 </r>
       <r>    -5.6778     0.0000     6.0000 </r>
       <r>    -5.5488     0.0000     6.0000 </r>
       <r>    -5.4199     0.0000     6.0000 </r>
       <r>    -5.2910     0.0000     6.0000 </r>
       <r>    -5.1621     0.0000     6.0000 </r>
       <r>    -5.0332     0.0000     6.0000 </r>
       <r>    -4.9042     0.0000     6.0000 </r>
       <r>    -4.7753     0.0000     6.0000 </r>
       <r>    -4.6464     0.0000     6.0000 </r>
       <r>    -4.5175     0.0000     6.0000 </r>
       <r>    -4.3885     0.0000     6.0000 </r>
       <r>    -4.2596     0.0000     6.0000 </r>
       <r>    -4.1307     0.0000     6.0000 </r>
       <r>    -4.0018     0.0000     6.0000 </r>
       <r>    -3.8728     0.0000     6.0000 </r>
       <r>    -3.7439     0.0000     6.0000 </r>
       <r>    -3.6150     0.0000     6.0000 </r>
       <r>    -3.4861     0.0000     6.0000 </r>
       <r>    -3.3572     0.0000     6.0000 </r>
       <r>    -3.2282     0.0000     6.0000 </r>
       <r>    -3.0993     0.0358     6.0046 </r>
       <r>    -2.9704     0.0518     6.0203 </r>
       <r>    -2.8415     0.2260     6.0537 </r>
       <r>    -2.7125     0.0769     6.0636 </r>
       <r>    -2.5836     0.1539     6.1227 </r>
       <r>    -2.4547     0.2260     6.1538 </r>
       <r>    -2.3258     0.5370     6.2340 </r>
       <r>    -2.1968     0.3018     6.2747 </r>
       <r>    -2.0679     0.2333     6.3314 </r>
       <r>    -1.9390     0.5838     6.4494 </r>
       <r>    -1.8101     0.3061     6.5283 </r>
       <r>    -1.6812     0.7040     6.6670 </r>
       <r>    -1.5522     1.1256     6.8488 </r>
       <r>    -1.4233     1.7983     7.1376 </r>
       <r>    -1.2944     3.7711     7.8635 </r>
       <r>    -1.1655     0.0000     8.0000 </r>
       <r>    -1.0365     0.0000     8.0000 </r>
       <r>    -0.9076     0.0000     8.0000 </r>
       <r>    -0.7787     0.0000     8.0000 </r>
       <r>    -0.6498     0.0000     8.0000 </r>
       <r>    -0.5209     0.0000     8.0000 </r>
       <r>    -0.3919     0.0000     8.0000 </r>
       <r>    -0.2630     0.0000     8.0000 </r>
       <r>    -0.1341     0.0000     8.0000 </r>
       <r>    -0.0052     0.0000     8.0000 </r>
       <r>     0.1238     0.0000     8.0000 </r>
       <r>     0.2527     0.0000     8.0000 </r>
       <r>     0.3816     0.0000     8.0000 </r>
       <r>     0.5105     0.0000     8.0000 </r>
       <r>     0.6395     0.0000     8.0000 </r>
       <r>     0.7684     0.0000     8.0000 </r>
       <r>     0.8973     0.0000     8.0000 </r>
       <r>     1.0262     0.0000     8.0000 </r>
       <r>     1.1551     0.0000     8.0000 </r>
       <r>     1.2841     0.0000     8.0000 </r>
       <r>     1.4130     0.0000     8.0000 </r>
       <r>     1.5419     0.0000     8.0000 </r>
       <r>     1.6708     0.0000     8.0000 </r>
       <r>     1.7998     0.0000     8.0000 </r>
       <r>     1.9287     0.0000     8.0000 </r>
       <r>     2.0576     0.0000     8.0000 </r>
       <r>     2.1865     0.0126     8.0016 </r>
       <r>     2.3155     0.6446     8.1122 </r>
       <r>     2.4444     2.1405     8.4853 </r>
       <r>     2.5733     2.2811     8.9969 </r>
       <r>     2.7022     1.7752     9.2976 </r>
       <r>     2.8311     1.0113     9.5651 </r>
       <r>     2.9601     0.2593     9.7485 </r>
       <r>     3.0890     0.6938     9.9028 </r>
       <r>     3.2179     0.0054     9.9179 </r>
       <r>     3.3468     0.6830    10.0562 </r>
       <r>     3.4758     2.7904    10.5573 </r>
       <r>     3.6047     2.3038    11.3248 </r>
       <r>     3.7336     1.2832    11.8322 </r>
       <r>     3.8625     2.6922    12.4654 </r>
       <r>     3.9915     3.3755    13.1134 </r>
       <r>     4.1204     1.4404    13.4429 </r>
       <r>     4.2493     1.1547    13.7556 </r>
       <r>     4.3782     0.8764    13.9928 </r>
       <r>     4.5071     0.0000    14.0109 </r>
       <r>     4.6361     0.7503    14.1131 </r>
       <r>     4.7650     2.4314    14.5483 </r>
       <r>     4.8939     6.1948    15.5724 </r>
       <r>     5.0228     3.4951    16.5753 </r>
       <r>     5.1518     4.9067    17.5693 </r>
       <r>     5.2807     2.2774    18.0988 </r>
       <r>     5.4096     2.6914    18.5473 </r>
       <r>     5.5385     1.7025    18.8950 </r>
       <r>     5.6674     1.0679    19.1682 </r>
       <r>     5.7964     0.3398    19.3656 </r>
       <r>     5.9253     0.5087    19.5731 </r>
       <r>     6.0542     0.5157    19.6723 </r>
       <r>     6.1831     0.4855    19.8432 </r>
       <r>     6.3121     0.5482    19.9605 </r>
       <r>     6.4410     0.6375    20.0977 </r>
       <r>     6.5699     1.1866    20.2959 </r>
       <r>     6.6988     0.6921    20.4834 </r>
       <r>     6.8278     0.5931    20.6017 </r>
       <r>     6.9567     1.0585    20.7600 </r>
       <r>     7.0856     0.9231    20.9884 </r>
       <r>     7.2145     0.7555    21.1306 </r>
       <r>     7.3434     0.8142    21.3676 </r>
       <r>     7.4724     1.4346    21.6624 </r>
       <r>     7.6013     4.4861    22.3398 </r>
       <r>     7.7302     0.8885    22.6134 </r>
       <r>     7.8591     1.9481    23.0231 </r>
       <r>     7.9881     1.9366    23.3384 </r>
       <r>     8.1170     1.2130    23.6275 </r>
       <r>     8.2459     0.6625    23.7495 </r>
       <r>     8.3748     0.4987    23.8704 </r>
       <r>     8.5038     0.1856    23.9265 </r>
       <r>     8.6327     0.0000    23.9718 </r>
       <r>     8.7616     0.1059    24.0000 </r>
       <r>     8.8905     0.0000    24.0000 </r>
       <r>     9.0194     0.0000    24.0000 </r>
       <r>     9.1484     0.0000    24.0000 </r>
       <r>     9.2773     0.0000    24.0000 </r>
       <r>     9.4062     0.0000    24.0000 </r>
       <r>     9.5351     0.0000    24.0000 </r>
       <r>     9.6641     0.0000    24.0000 </r>
       <r>     9.7930     0.0000    24.0000 </r>
       <r>     9.9219     0.0000    24.0000 </r>
       <r>    10.0508     0.2518    24.0379 </r>
       <r>    10.1797     0.4164    24.1192 </r>
       <r>    10.3087     0.6256    24.2391 </r>
       <r>    10.4376     0.8042    24.3659 </r>
       <r>    10.5665     0.7478    24.5388 </r>
       <r>    10.6954     1.1927    24.7391 </r>
       <r>    10.8244     1.5816    25.0769 </r>
       <r>    10.9533     2.1837    25.4367 </r>
       <r>    11.0822     2.7470    26.0483 </r>
       <r>    11.2111     0.8888    26.2730 </r>
       <r>    11.3401     2.2456    26.6336 </r>
       <r>    11.4690     1.6924    26.9774 </r>
       <r>    11.5979     3.3561    27.7945 </r>
       <r>    11.7268     1.4403    28.2321 </r>
       <r>    11.8557     1.9782    28.5773 </r>
       <r>    11.9847     1.9804    29.0073 </r>
       <r>    12.1136     1.1224    29.4865 </r>
       <r>    12.2425     1.2590    29.7172 </r>
       <r>    12.3714     1.2183    29.9522 </r>
       <r>    12.5004     1.7619    30.3027 </r>
       <r>    12.6293     0.5085    30.4160 </r>
       <r>    12.7582     1.4843    30.6729 </r>
       <r>    12.8871     2.4794    31.1344 </r>
       <r>    13.0161     1.6305    31.4783 </r>
       <r>    13.1450     1.4854    31.7655 </r>
       <r>    13.2739     0.6788    31.8654 </r>
       <r>    13.4028     0.7767    31.9709 </r>
       <r>    13.5317     0.0000    31.9927 </r>
       <r>    13.6607     0.0000    31.9927 </r>
       <r>    13.7896     0.0000    31.9927 </r>
       <r>    13.9185     0.0000    32.0000 </r>
       <r>    14.0474     0.0000    32.0000 </r>
       <r>    14.1764     0.0000    32.0000 </r>
       <r>    14.3053     0.0000    32.0000 </r>
       <r>    14.4342     0.0000    32.0000 </r>
       <r>    14.5631     0.0000    32.0000 </r>
       <r>    14.6920     0.0000    32.0000 </r>
       <r>    14.8210     0.0000    32.0000 </r>
       <r>    14.9499     0.0000    32.0000 </r>
       <r>    15.0788     0.0000    32.0000 </r>
       <r>    15.2077     0.0000    32.0000 </r>
       <r>    15.3367     0.0000    32.0000 </r>
       <r>    15.4656     0.0000    32.0000 </r>
       <r>    15.5945     0.0000    32.0000 </r>
      </set>
     </set>
    </array>
   </total>
  </dos>
 </calculation>
 <structure name="finalpos" >
  <crystal>
   <varray name="basis" >
    <v>       0.00000000       3.04569861       3.04569861 </v>
    <v>       3.04569861       0.00000000       3.04569861 </v>
    <v>       3.04569861       3.04569861       0.00000000 </v>
   </varray>
   <i name="volume">     56.50550656 </i>
   <varray name="rec_basis" >
    <v>      -0.16416595       0.16416595       0.16416595 </v>
    <v>       0.16416595      -0.16416595       0.16416595 </v>
    <v>       0.16416595       0.16416595      -0.16416595 </v>
   </varray>
  </crystal>
  <varray name="positions" >
   <v>       0.75000000       0.75000000       0.75000000 </v>
   <v>       0.25000000       0.25000000       0.25000000 </v>
   <v>       0.00000000       0.00000000       0.00000000 </v>
  </varray>
 </structure>
</modeling>
