unknown system
           1
     0.000000    3.045699    3.045699
     3.045699    0.000000    3.045699
     3.045699    3.045699    0.000000
   Hf   Sb   Pt
   1   1   1
Direct configuration=     1
   0.75000000  0.75000000  0.75000000
   0.25000000  0.25000000  0.25000000
   0.00000000  0.00000000  0.00000000
