   2   2   0   0
  0.2783368E+02  0.4285865E-09  0.4285865E-09  0.4285865E-09  0.0000000E+00
  1.000000000000000E-004
  CAR 
 unknown system                          
     15.18358010     -6.74821472  301      5.24573557      1.00000000
     -6.748  0.0000E+00  0.0000E+00
     -6.675  0.0000E+00  0.0000E+00
     -6.602  0.0000E+00  0.0000E+00
     -6.529  0.0000E+00  0.0000E+00
     -6.456  0.0000E+00  0.0000E+00
     -6.383  0.0000E+00  0.0000E+00
     -6.310  0.0000E+00  0.0000E+00
     -6.236  0.0000E+00  0.0000E+00
     -6.163  0.0000E+00  0.0000E+00
     -6.090  0.0000E+00  0.0000E+00
     -6.017  0.0000E+00  0.0000E+00
     -5.944  0.0000E+00  0.0000E+00
     -5.871  0.0000E+00  0.0000E+00
     -5.798  0.0000E+00  0.0000E+00
     -5.725  0.7979E-01  0.7071E-03
     -5.652  0.1676E+00  0.9713E-02
     -5.579  0.2239E+00  0.2375E-01
     -5.505  0.2685E+00  0.4188E-01
     -5.432  0.3181E+00  0.6326E-01
     -5.359  0.3544E+00  0.8783E-01
     -5.286  0.3958E+00  0.1152E+00
     -5.213  0.4337E+00  0.1456E+00
     -5.140  0.4718E+00  0.1787E+00
     -5.067  0.5130E+00  0.2146E+00
     -4.994  0.5524E+00  0.2536E+00
     -4.921  0.5947E+00  0.2955E+00
     -4.847  0.6402E+00  0.3406E+00
     -4.774  0.6893E+00  0.3892E+00
     -4.701  0.7435E+00  0.4415E+00
     -4.628  0.8034E+00  0.4980E+00
     -4.555  0.8748E+00  0.5592E+00
     -4.482  0.9624E+00  0.6263E+00
     -4.409  0.1071E+01  0.7005E+00
     -4.336  0.1225E+01  0.7838E+00
     -4.263  0.1740E+01  0.8848E+00
     -4.190  0.1569E+01  0.1003E+01
     -4.116  0.1593E+01  0.1120E+01
     -4.043  0.1588E+01  0.1237E+01
     -3.970  0.1571E+01  0.1351E+01
     -3.897  0.1592E+01  0.1467E+01
     -3.824  0.1609E+01  0.1584E+01
     -3.751  0.1694E+01  0.1705E+01
     -3.678  0.1917E+01  0.1833E+01
     -3.605  0.1207E+01  0.1989E+01
     -3.532  0.0000E+00  0.2000E+01
     -3.458  0.0000E+00  0.2000E+01
     -3.385  0.0000E+00  0.2000E+01
     -3.312  0.0000E+00  0.2000E+01
     -3.239  0.0000E+00  0.2000E+01
     -3.166  0.0000E+00  0.2000E+01
     -3.093  0.0000E+00  0.2000E+01
     -3.020  0.0000E+00  0.2000E+01
     -2.947  0.0000E+00  0.2000E+01
     -2.874  0.0000E+00  0.2000E+01
     -2.800  0.0000E+00  0.2000E+01
     -2.727  0.0000E+00  0.2000E+01
     -2.654  0.0000E+00  0.2000E+01
     -2.581  0.0000E+00  0.2000E+01
     -2.508  0.0000E+00  0.2000E+01
     -2.435  0.0000E+00  0.2000E+01
     -2.362  0.0000E+00  0.2000E+01
     -2.289  0.0000E+00  0.2000E+01
     -2.216  0.0000E+00  0.2000E+01
     -2.143  0.0000E+00  0.2000E+01
     -2.069  0.0000E+00  0.2000E+01
     -1.996  0.0000E+00  0.2000E+01
     -1.923  0.0000E+00  0.2000E+01
     -1.850  0.0000E+00  0.2000E+01
     -1.777  0.0000E+00  0.2000E+01
     -1.704  0.0000E+00  0.2000E+01
     -1.631  0.0000E+00  0.2000E+01
     -1.558  0.0000E+00  0.2000E+01
     -1.485  0.0000E+00  0.2000E+01
     -1.411  0.0000E+00  0.2000E+01
     -1.338  0.0000E+00  0.2000E+01
     -1.265  0.0000E+00  0.2000E+01
     -1.192  0.0000E+00  0.2000E+01
     -1.119  0.0000E+00  0.2000E+01
     -1.046  0.0000E+00  0.2000E+01
     -0.973  0.0000E+00  0.2000E+01
     -0.900  0.0000E+00  0.2000E+01
     -0.827  0.0000E+00  0.2000E+01
     -0.754  0.0000E+00  0.2000E+01
     -0.680  0.0000E+00  0.2000E+01
     -0.607  0.0000E+00  0.2000E+01
     -0.534  0.0000E+00  0.2000E+01
     -0.461  0.7800E-01  0.2001E+01
     -0.388  0.7488E+00  0.2023E+01
     -0.315  0.1275E+01  0.2092E+01
     -0.242  0.2311E+01  0.2218E+01
     -0.169  0.4765E+01  0.2462E+01
     -0.096  0.2189E+01  0.2697E+01
     -0.022  0.1598E+01  0.2833E+01
      0.051  0.1258E+01  0.2936E+01
      0.124  0.1077E+01  0.3021E+01
      0.197  0.9305E+00  0.3094E+01
      0.270  0.8110E+00  0.3157E+01
      0.343  0.7403E+00  0.3214E+01
      0.416  0.6760E+00  0.3265E+01
      0.489  0.6079E+00  0.3312E+01
      0.562  0.5548E+00  0.3355E+01
      0.635  0.5213E+00  0.3394E+01
      0.709  0.4884E+00  0.3431E+01
      0.782  0.4532E+00  0.3465E+01
      0.855  0.4204E+00  0.3497E+01
      0.928  0.3882E+00  0.3527E+01
      1.001  0.3698E+00  0.3554E+01
      1.074  0.3505E+00  0.3581E+01
      1.147  0.3317E+00  0.3606E+01
      1.220  0.3118E+00  0.3629E+01
      1.293  0.2894E+00  0.3651E+01
      1.367  0.2706E+00  0.3671E+01
      1.440  0.2595E+00  0.3691E+01
      1.513  0.2483E+00  0.3709E+01
      1.586  0.2367E+00  0.3727E+01
      1.659  0.2488E+00  0.3744E+01
      1.732  0.7050E+00  0.3781E+01
      1.805  0.1035E+01  0.3844E+01
      1.878  0.1561E+01  0.3941E+01
      1.951  0.1506E+01  0.4054E+01
      2.025  0.1281E+01  0.4153E+01
      2.098  0.1255E+01  0.4246E+01
      2.171  0.1259E+01  0.4337E+01
      2.244  0.1151E+01  0.4424E+01
      2.317  0.1119E+01  0.4507E+01
      2.390  0.1157E+01  0.4590E+01
      2.463  0.1220E+01  0.4677E+01
      2.536  0.1288E+01  0.4770E+01
      2.609  0.1293E+01  0.4864E+01
      2.682  0.1383E+01  0.4964E+01
      2.756  0.1463E+01  0.5066E+01
      2.829  0.1672E+01  0.5181E+01
      2.902  0.1929E+01  0.5311E+01
      2.975  0.1841E+01  0.5446E+01
      3.048  0.1793E+01  0.5580E+01
      3.121  0.1776E+01  0.5710E+01
      3.194  0.1756E+01  0.5839E+01
      3.267  0.1721E+01  0.5967E+01
      3.340  0.1683E+01  0.6091E+01
      3.414  0.1681E+01  0.6214E+01
      3.487  0.1657E+01  0.6336E+01
      3.560  0.1622E+01  0.6456E+01
      3.633  0.1598E+01  0.6573E+01
      3.706  0.1578E+01  0.6690E+01
      3.779  0.1542E+01  0.6803E+01
      3.852  0.1539E+01  0.6916E+01
      3.925  0.1528E+01  0.7028E+01
      3.998  0.1517E+01  0.7139E+01
      4.071  0.1501E+01  0.7250E+01
      4.145  0.1479E+01  0.7359E+01
      4.218  0.1400E+01  0.7466E+01
      4.291  0.1080E+01  0.7554E+01
      4.364  0.9190E+00  0.7626E+01
      4.437  0.7963E+00  0.7689E+01
      4.510  0.7068E+00  0.7743E+01
      4.583  0.6238E+00  0.7792E+01
      4.656  0.5586E+00  0.7835E+01
      4.729  0.4909E+00  0.7874E+01
      4.803  0.4220E+00  0.7907E+01
      4.876  0.3633E+00  0.7936E+01
      4.949  0.3100E+00  0.7961E+01
      5.022  0.2357E+00  0.7981E+01
      5.095  0.1322E+00  0.7994E+01
      5.168  0.5238E-02  0.8000E+01
      5.241  0.0000E+00  0.8000E+01
      5.314  0.0000E+00  0.8000E+01
      5.387  0.0000E+00  0.8000E+01
      5.460  0.0000E+00  0.8000E+01
      5.534  0.0000E+00  0.8000E+01
      5.607  0.0000E+00  0.8000E+01
      5.680  0.0000E+00  0.8000E+01
      5.753  0.0000E+00  0.8000E+01
      5.826  0.0000E+00  0.8000E+01
      5.899  0.0000E+00  0.8000E+01
      5.972  0.0000E+00  0.8000E+01
      6.045  0.0000E+00  0.8000E+01
      6.118  0.0000E+00  0.8000E+01
      6.192  0.0000E+00  0.8000E+01
      6.265  0.0000E+00  0.8000E+01
      6.338  0.3056E-01  0.8000E+01
      6.411  0.1462E+00  0.8007E+01
      6.484  0.2264E+00  0.8021E+01
      6.557  0.2895E+00  0.8040E+01
      6.630  0.3578E+00  0.8063E+01
      6.703  0.4639E+00  0.8093E+01
      6.776  0.5806E+00  0.8131E+01
      6.849  0.6891E+00  0.8178E+01
      6.923  0.7835E+00  0.8232E+01
      6.996  0.8761E+00  0.8292E+01
      7.069  0.9763E+00  0.8360E+01
      7.142  0.1086E+01  0.8435E+01
      7.215  0.1205E+01  0.8519E+01
      7.288  0.1345E+01  0.8612E+01
      7.361  0.1540E+01  0.8717E+01
      7.434  0.1858E+01  0.8840E+01
      7.507  0.2129E+01  0.8988E+01
      7.581  0.2117E+01  0.9144E+01
      7.654  0.2036E+01  0.9295E+01
      7.727  0.1983E+01  0.9448E+01
      7.800  0.1706E+01  0.9583E+01
      7.873  0.1552E+01  0.9702E+01
      7.946  0.1449E+01  0.9811E+01
      8.019  0.1386E+01  0.9918E+01
      8.092  0.1013E+01  0.1001E+02
      8.165  0.8374E+00  0.1007E+02
      8.239  0.9206E+00  0.1014E+02
      8.312  0.9472E+00  0.1021E+02
      8.385  0.9425E+00  0.1027E+02
      8.458  0.1040E+01  0.1035E+02
      8.531  0.1008E+01  0.1042E+02
      8.604  0.1282E+01  0.1050E+02
      8.677  0.1603E+01  0.1061E+02
      8.750  0.2933E+01  0.1076E+02
      8.823  0.2715E+01  0.1101E+02
      8.896  0.2136E+01  0.1118E+02
      8.970  0.1995E+01  0.1133E+02
      9.043  0.1689E+01  0.1146E+02
      9.116  0.1714E+01  0.1159E+02
      9.189  0.1624E+01  0.1171E+02
      9.262  0.1514E+01  0.1183E+02
      9.335  0.1324E+01  0.1193E+02
      9.408  0.1282E+01  0.1203E+02
      9.481  0.1354E+01  0.1212E+02
      9.554  0.1362E+01  0.1222E+02
      9.628  0.1556E+01  0.1232E+02
      9.701  0.1685E+01  0.1244E+02
      9.774  0.1790E+01  0.1257E+02
      9.847  0.1925E+01  0.1271E+02
      9.920  0.1478E+01  0.1284E+02
      9.993  0.1412E+01  0.1295E+02
     10.066  0.1550E+01  0.1305E+02
     10.139  0.1603E+01  0.1317E+02
     10.212  0.1664E+01  0.1329E+02
     10.285  0.1505E+01  0.1340E+02
     10.359  0.1411E+01  0.1351E+02
     10.432  0.1298E+01  0.1361E+02
     10.505  0.1257E+01  0.1370E+02
     10.578  0.1247E+01  0.1379E+02
     10.651  0.1304E+01  0.1388E+02
     10.724  0.1248E+01  0.1398E+02
     10.797  0.1190E+01  0.1407E+02
     10.870  0.1286E+01  0.1416E+02
     10.943  0.1207E+01  0.1425E+02
     11.017  0.9531E+00  0.1433E+02
     11.090  0.9707E+00  0.1440E+02
     11.163  0.1053E+01  0.1447E+02
     11.236  0.1067E+01  0.1455E+02
     11.309  0.1126E+01  0.1463E+02
     11.382  0.1234E+01  0.1472E+02
     11.455  0.1204E+01  0.1481E+02
     11.528  0.1205E+01  0.1490E+02
     11.601  0.1205E+01  0.1498E+02
     11.674  0.1150E+01  0.1507E+02
     11.748  0.1058E+01  0.1515E+02
     11.821  0.1075E+01  0.1523E+02
     11.894  0.1054E+01  0.1531E+02
     11.967  0.9029E+00  0.1538E+02
     12.040  0.8596E+00  0.1544E+02
     12.113  0.9336E+00  0.1551E+02
     12.186  0.7869E+00  0.1557E+02
     12.259  0.5789E+00  0.1562E+02
     12.332  0.4393E+00  0.1566E+02
     12.406  0.3813E+00  0.1569E+02
     12.479  0.3588E+00  0.1572E+02
     12.552  0.3450E+00  0.1574E+02
     12.625  0.3285E+00  0.1577E+02
     12.698  0.3106E+00  0.1579E+02
     12.771  0.2914E+00  0.1581E+02
     12.844  0.2711E+00  0.1583E+02
     12.917  0.2465E+00  0.1585E+02
     12.990  0.2344E+00  0.1587E+02
     13.064  0.2290E+00  0.1589E+02
     13.137  0.2158E+00  0.1590E+02
     13.210  0.1866E+00  0.1592E+02
     13.283  0.1611E+00  0.1593E+02
     13.356  0.1407E+00  0.1594E+02
     13.429  0.1251E+00  0.1595E+02
     13.502  0.1123E+00  0.1596E+02
     13.575  0.1034E+00  0.1597E+02
     13.648  0.9498E-01  0.1597E+02
     13.721  0.8834E-01  0.1598E+02
     13.795  0.9205E-01  0.1599E+02
     13.868  0.7100E-01  0.1599E+02
     13.941  0.3608E-01  0.1600E+02
     14.014  0.1782E-01  0.1600E+02
     14.087  0.5930E-02  0.1600E+02
     14.160  0.4217E-03  0.1600E+02
     14.233  0.0000E+00  0.1600E+02
     14.306  0.0000E+00  0.1600E+02
     14.379  0.0000E+00  0.1600E+02
     14.453  0.0000E+00  0.1600E+02
     14.526  0.0000E+00  0.1600E+02
     14.599  0.0000E+00  0.1600E+02
     14.672  0.0000E+00  0.1600E+02
     14.745  0.0000E+00  0.1600E+02
     14.818  0.0000E+00  0.1600E+02
     14.891  0.0000E+00  0.1600E+02
     14.964  0.0000E+00  0.1600E+02
     15.037  0.0000E+00  0.1600E+02
     15.110  0.0000E+00  0.1600E+02
     15.184  0.0000E+00  0.1600E+02
