    2    2    1    1
  0.2783368E+02  0.4285865E-09  0.4285865E-09  0.4285865E-09  0.0000000E+00
  1.000000000000000E-004
  CAR 
 unknown system                          
      8    195      8
 
  0.0000000E+00  0.0000000E+00  0.0000000E+00  0.1714678E-03
    1       -5.751315   1.000000
    2        5.181328   1.000000
    3        5.181328   1.000000
    4        5.181328   1.000000
    5        7.125574   0.000000
    6        8.304047   0.000000
    7        8.304047   0.000000
    8        8.304047   0.000000
 
  0.5555556E-01  0.0000000E+00  0.0000000E+00  0.1371742E-02
    1       -5.721198   1.000000
    2        4.772303   1.000000
    3        5.137038   1.000000
    4        5.137038   1.000000
    5        7.364355   0.000000
    6        8.371837   0.000000
    7        8.371837   0.000000
    8        8.406995   0.000000
 
  0.1111111E+00  0.0000000E+00  0.0000000E+00  0.1371742E-02
    1       -5.631639   1.000000
    2        3.961523   1.000000
    3        5.019406   1.000000
    4        5.019406   1.000000
    5        7.495140   0.000000
    6        8.549203   0.000000
    7        8.549204   0.000000
    8        8.918606   0.000000
 
  0.1666667E+00  0.0000000E+00  0.0000000E+00  0.1371742E-02
    1       -5.485505   1.000000
    2        3.075154   1.000000
    3        4.861225   1.000000
    4        4.861226   1.000000
    5        7.369267   0.000000
    6        8.769369   0.000000
    7        8.769369   0.000000
    8        9.727358   0.000000
 
  0.2222222E+00  0.0000000E+00  0.0000000E+00  0.1371742E-02
    1       -5.288358   1.000000
    2        2.207801   1.000000
    3        4.693389   1.000000
    4        4.693389   1.000000
    5        7.181015   0.000000
    6        8.949100   0.000000
    7        8.949101   0.000000
    8       10.599320   0.000000
 
  0.2777778E+00  0.0000000E+00  0.0000000E+00  0.1371742E-02
    1       -5.050249   1.000000
    2        1.401088   1.000000
    3        4.537503   1.000000
    4        4.537503   1.000000
    5        6.999384   0.000000
    6        9.030312   0.000000
    7        9.030313   0.000000
    8       11.427430   0.000000
 
  0.3333333E+00  0.0000000E+00  0.0000000E+00  0.1371742E-02
    1       -4.789028   1.000000
    2        0.687760   1.000000
    3        4.406942   1.000000
    4        4.406942   1.000000
    5        6.848026   0.000000
    6        9.020510   0.000000
    7        9.020510   0.000000
    8       11.894193   0.000000
 
  0.3888889E+00  0.0000000E+00  0.0000000E+00  0.1371742E-02
    1       -4.535907   1.000000
    2        0.107227   1.000000
    3        4.309509   1.000000
    4        4.309510   1.000000
    5        6.736381   0.000000
    6        8.969553   0.000000
    7        8.969554   0.000000
    8       11.864061   0.000000
 
  0.4444444E+00  0.0000000E+00  0.0000000E+00  0.1371742E-02
    1       -4.341207   1.000000
    2       -0.285519   1.000000
    3        4.249596   1.000000
    4        4.249596   1.000000
    5        6.668375   0.000000
    6        8.922421   0.000000
    7        8.922422   0.000000
    8       11.777743   0.000000
 
  0.5000000E+00  0.0000000E+00  0.0000000E+00  0.6858711E-03
    1       -4.266005   1.000000
    2       -0.427030   1.000000
    3        4.229402   1.000000
    4        4.229402   1.000000
    5        6.645571   0.000000
    6        8.904165   0.000000
    7        8.904165   0.000000
    8       11.744049   0.000000
 
  0.5555556E-01  0.5555556E-01  0.0000000E+00  0.1028807E-02
    1       -5.711129   1.000000
    2        4.790790   1.000000
    3        5.040040   1.000000
    4        5.040041   1.000000
    5        7.496666   0.000000
    6        8.188753   0.000000
    7        8.500936   0.000000
    8        8.500937   0.000000
 
  0.1111111E+00  0.5555556E-01  0.0000000E+00  0.4115226E-02
    1       -5.641300   1.000000
    2        4.163715   1.000000
    3        4.884475   1.000000
    4        4.970283   1.000000
    5        7.710849   0.000000
    6        8.194910   0.000000
    7        8.729204   0.000000
    8        8.870728   0.000000
 
  0.1666667E+00  0.5555556E-01  0.0000000E+00  0.4115226E-02
    1       -5.513856   1.000000
    2        3.328993   1.000000
    3        4.705849   1.000000
    4        4.855676   1.000000
    5        7.644769   0.000000
    6        8.371726   0.000000
    7        8.990512   0.000000
    8        9.541856   0.000000
 
  0.2222222E+00  0.5555556E-01  0.0000000E+00  0.4115226E-02
    1       -5.333320   1.000000
    2        2.473196   1.000000
    3        4.532261   1.000000
    4        4.690199   1.000000
    5        7.474993   0.000000
    6        8.596229   0.000000
    7        9.204169   0.000000
    8       10.237300   0.000000
 
  0.2777778E+00  0.5555556E-01  0.0000000E+00  0.4115226E-02
    1       -5.108000   1.000000
    2        1.657049   1.000000
    3        4.382004   1.000000
    4        4.508254   1.000000
    5        7.295634   0.000000
    6        8.761228   0.000000
    7        9.304611   0.000000
    8       10.811185   0.000000
 
  0.3333333E+00  0.5555556E-01  0.0000000E+00  0.4115226E-02
    1       -4.852667   1.000000
    2        0.918211   1.000000
    3        4.265972   1.000000
    4        4.334658   1.000000
    5        7.137970   0.000000
    6        8.823030   0.000000
    7        9.288000   0.000000
    8       11.324681   0.000000
 
  0.3888889E+00  0.5555556E-01  0.0000000E+00  0.4115226E-02
    1       -4.593284   1.000000
    2        0.294580   1.000000
    3        4.184697   1.000000
    4        4.190107   1.000000
    5        7.015032   0.000000
    6        8.819864   0.000000
    7        9.204697   0.000000
    8       11.762700   0.000000
 
  0.4444444E+00  0.5555556E-01  0.0000000E+00  0.4115226E-02
    1       -4.373440   1.000000
    2       -0.163670   1.000000
    3        4.067663   1.000000
    4        4.157167   1.000000
    5        6.932797   0.000000
    6        8.807829   0.000000
    7        9.107906   0.000000
    8       11.906828   0.000000
 
  0.5000000E+00  0.5555556E-01  0.0000000E+00  0.4115226E-02
    1       -4.253077   1.000000
    2       -0.392961   1.000000
    3        3.989370   1.000000
    4        4.167647   1.000000
    5        6.893956   0.000000
    6        8.821351   0.000000
    7        9.030577   0.000000
    8       11.912980   0.000000
 
 -0.4444444E+00  0.5555556E-01  0.0000000E+00  0.4115226E-02
    1       -4.278558   1.000000
    2       -0.345441   1.000000
    3        3.953541   1.000000
    4        4.220302   1.000000
    5        6.899554   0.000000
    6        8.873569   0.000000
    7        8.986747   0.000000
    8       11.928856   0.000000
 
 -0.3888889E+00  0.5555556E-01  0.0000000E+00  0.4115226E-02
    1       -4.439118   1.000000
    2       -0.032272   1.000000
    3        3.962405   1.000000
    4        4.312291   1.000000
    5        6.949551   0.000000
    6        8.961364   0.000000
    7        8.974930   0.000000
    8       11.955042   0.000000
 
 -0.3333333E+00  0.5555556E-01  0.0000000E+00  0.4115226E-02
    1       -4.678280   1.000000
    2        0.487921   1.000000
    3        4.016870   1.000000
    4        4.438870   1.000000
    5        7.042747   0.000000
    6        8.977181   0.000000
    7        9.064386   0.000000
    8       11.847945   0.000000
 
 -0.2777778E+00  0.5555556E-01  0.0000000E+00  0.4115226E-02
    1       -4.940158   1.000000
    2        1.154456   1.000000
    3        4.116350   1.000000
    4        4.592730   1.000000
    5        7.175967   0.000000
    6        8.956348   0.000000
    7        9.137316   0.000000
    8       11.382447   0.000000
 
 -0.2222222E+00  0.5555556E-01  0.0000000E+00  0.4115226E-02
    1       -5.187647   1.000000
    2        1.921530   1.000000
    3        4.258364   1.000000
    4        4.762445   1.000000
    5        7.341613   0.000000
    6        8.866871   0.000000
    7        9.105825   0.000000
    8       10.747190   0.000000
 
 -0.1666667E+00  0.5555556E-01  0.0000000E+00  0.4115226E-02
    1       -5.399211   1.000000
    2        2.750973   1.000000
    3        4.438090   1.000000
    4        4.930214   1.000000
    5        7.520827   0.000000
    6        8.698578   0.000000
    7        8.910249   0.000000
    8       10.074300   0.000000
 
 -0.1111111E+00  0.5555556E-01  0.0000000E+00  0.4115226E-02
    1       -5.562691   1.000000
    2        3.594122   1.000000
    3        4.649331   1.000000
    4        5.069539   1.000000
    5        7.657754   0.000000
    6        8.507489   0.000000
    7        8.600264   0.000000
    8        9.394213   0.000000
 
 -0.5555556E-01  0.5555556E-01  0.0000000E+00  0.2057613E-02
    1       -5.671208   1.000000
    2        4.343632   1.000000
    3        4.895172   1.000000
    4        5.147184   1.000000
    5        7.589216   0.000000
    6        8.378048   0.000000
    7        8.384871   0.000000
    8        8.796496   0.000000
 
  0.1111111E+00  0.1111111E+00  0.0000000E+00  0.1028807E-02
    1       -5.591386   1.000000
    2        4.028677   1.000000
    3        4.700599   1.000000
    4        4.700600   1.000000
    5        7.748794   0.000000
    6        8.323371   0.000000
    7        9.005631   0.000000
    8        9.005631   0.000000
 
  0.1666667E+00  0.1111111E+00  0.0000000E+00  0.4115226E-02
    1       -5.483369   1.000000
    2        3.426340   1.000000
    3        4.503995   1.000000
    4        4.559164   1.000000
    5        7.681352   0.000000
    6        8.446605   0.000000
    7        9.315542   0.000000
    8        9.479262   0.000000
 
  0.2222222E+00  0.1111111E+00  0.0000000E+00  0.4115226E-02
    1       -5.320946   1.000000
    2        2.661397   1.000000
    3        4.321118   1.000000
    4        4.398470   1.000000
    5        7.697574   0.000000
    6        8.477056   0.000000
    7        9.581628   0.000000
    8        9.882014   0.000000
 
  0.2777778E+00  0.1111111E+00  0.0000000E+00  0.4115226E-02
    1       -5.111007   1.000000
    2        1.882490   1.000000
    3        4.168740   1.000000
    4        4.193957   1.000000
    5        7.657265   0.000000
    6        8.605317   0.000000
    7        9.728705   0.000000
    8       10.063250   0.000000
 
  0.3333333E+00  0.1111111E+00  0.0000000E+00  0.4115226E-02
    1       -4.865855   1.000000
    2        1.149923   1.000000
    3        3.978446   1.000000
    4        4.056784   1.000000
    5        7.555745   0.000000
    6        8.729089   0.000000
    7        9.733466   0.000000
    8       10.340870   0.000000
 
  0.3888889E+00  0.1111111E+00  0.0000000E+00  0.4115226E-02
    1       -4.607046   1.000000
    2        0.507724   1.000000
    3        3.777758   1.000000
    4        3.990682   1.000000
    5        7.450296   0.000000
    6        8.761979   0.000000
    7        9.640777   0.000000
    8       10.844332   0.000000
 
  0.4444444E+00  0.1111111E+00  0.0000000E+00  0.4115226E-02
    1       -4.371519   1.000000
    2        0.004762   1.000000
    3        3.607634   1.000000
    4        3.972760   1.000000
    5        7.371330   0.000000
    6        8.755427   0.000000
    7        9.511886   0.000000
    8       11.479818   0.000000
 
  0.5000000E+00  0.1111111E+00  0.0000000E+00  0.4115226E-02
    1       -4.214321   1.000000
    2       -0.297369   1.000000
    3        3.477812   1.000000
    4        4.003013   1.000000
    5        7.330951   0.000000
    6        8.764099   0.000000
    7        9.388498   0.000000
    8       12.044250   0.000000
 
 -0.4444444E+00  0.1111111E+00  0.0000000E+00  0.4115226E-02
    1       -4.190320   1.000000
    2       -0.340924   1.000000
    3        3.394767   1.000000
    4        4.079371   1.000000
    5        7.333080   0.000000
    6        8.812140   0.000000
    7        9.290848   0.000000
    8       12.286142   0.000000
 
 -0.3888889E+00  0.1111111E+00  0.0000000E+00  0.4115226E-02
    1       -4.309492   1.000000
    2       -0.115759   1.000000
    3        3.363271   1.000000
    4        4.197701   1.000000
    5        7.377650   0.000000
    6        8.904309   0.000000
    7        9.222347   0.000000
    8       12.223421   0.000000
 
 -0.3333333E+00  0.1111111E+00  0.0000000E+00  0.4115226E-02
    1       -4.526471   1.000000
    2        0.329838   1.000000
    3        3.387286   1.000000
    4        4.351283   1.000000
    5        7.462175   0.000000
    6        9.028598   0.000000
    7        9.169925   0.000000
    8       11.795558   0.000000
 
 -0.2777778E+00  0.1111111E+00  0.0000000E+00  0.4115226E-02
    1       -4.782605   1.000000
    2        0.930031   1.000000
    3        3.470973   1.000000
    4        4.529879   1.000000
    5        7.581567   0.000000
    6        9.101567   0.000000
    7        9.144537   0.000000
    8       11.172350   0.000000
 
 -0.2222222E+00  0.1111111E+00  0.0000000E+00  0.4115226E-02
    1       -5.035004   1.000000
    2        1.626930   1.000000
    3        3.620758   1.000000
    4        4.717969   1.000000
    5        7.724724   0.000000
    6        8.976469   0.000000
    7        9.152388   0.000000
    8       10.625958   0.000000
 
 -0.1666667E+00  0.1111111E+00  0.0000000E+00  0.4115226E-02
    1       -5.257914   1.000000
    2        2.362505   1.000000
    3        3.850720   1.000000
    4        4.892353   1.000000
    5        7.860562   0.000000
    6        8.790096   0.000000
    7        8.936380   0.000000
    8       10.270553   0.000000
 
 -0.1111111E+00  0.1111111E+00  0.0000000E+00  0.2057613E-02
    1       -5.436573   1.000000
    2        3.053107   1.000000
    3        4.191482   1.000000
    4        5.021065   1.000000
    5        7.880873   0.000000
    6        8.605243   0.000000
    7        8.654431   0.000000
    8        9.918996   0.000000
 
  0.1666667E+00  0.1666667E+00  0.0000000E+00  0.1028807E-02
    1       -5.394944   1.000000
    2        3.195540   1.000000
    3        4.292989   1.000000
    4        4.292989   1.000000
    5        7.400759   0.000000
    6        8.756838   0.000000
    7        9.683644   0.000000
    8        9.683644   0.000000
 
  0.2222222E+00  0.1666667E+00  0.0000000E+00  0.4115226E-02
    1       -5.251541   1.000000
    2        2.654102   1.000000
    3        4.099232   1.000000
    4        4.099682   1.000000
    5        7.327977   0.000000
    6        8.719820   0.000000
    7        9.944234   0.000000
    8       10.021012   0.000000
 
  0.2777778E+00  0.1666667E+00  0.0000000E+00  0.4115226E-02
    1       -5.058921   1.000000
    2        1.992798   1.000000
    3        3.870665   1.000000
    4        3.939438   1.000000
    5        7.407472   0.000000
    6        8.707207   0.000000
    7        9.899525   0.000000
    8       10.243698   0.000000
 
  0.3333333E+00  0.1666667E+00  0.0000000E+00  0.4115226E-02
    1       -4.827470   1.000000
    2        1.321017   1.000000
    3        3.609185   1.000000
    4        3.823565   1.000000
    5        7.468988   0.000000
    6        8.894679   0.000000
    7        9.803381   0.000000
    8       10.301932   0.000000
 
  0.3888889E+00  0.1666667E+00  0.0000000E+00  0.4115226E-02
    1       -4.575239   1.000000
    2        0.700682   1.000000
    3        3.351257   1.000000
    4        3.757162   1.000000
    5        7.456877   0.000000
    6        9.148805   0.000000
    7        9.915906   0.000000
    8       10.225992   0.000000
 
  0.4444444E+00  0.1666667E+00  0.0000000E+00  0.4115226E-02
    1       -4.333291   1.000000
    2        0.185627   1.000000
    3        3.122395   1.000000
    4        3.742723   1.000000
    5        7.428844   0.000000
    6        9.194629   0.000000
    7       10.084739   0.000000
    8       10.450163   0.000000
 
  0.5000000E+00  0.1666667E+00  0.0000000E+00  0.4115226E-02
    1       -4.150098   1.000000
    2       -0.163224   1.000000
    3        2.937637   1.000000
    4        3.780374   1.000000
    5        7.428264   0.000000
    6        9.162888   0.000000
    7        9.930992   0.000000
    8       11.210124   0.000000
 
 -0.4444444E+00  0.1666667E+00  0.0000000E+00  0.4115226E-02
    1       -4.082167   1.000000
    2       -0.283323   1.000000
    3        2.806643   1.000000
    4        3.868064   1.000000
    5        7.470917   0.000000
    6        9.150558   0.000000
    7        9.791928   0.000000
    8       12.030274   0.000000
 
 -0.3888889E+00  0.1666667E+00  0.0000000E+00  0.4115226E-02
    1       -4.156365   1.000000
    2       -0.146932   1.000000
    3        2.737145   1.000000
    4        4.001350   1.000000
    5        7.558261   0.000000
    6        9.180705   0.000000
    7        9.674549   0.000000
    8       12.416561   0.000000
 
 -0.3333333E+00  0.1666667E+00  0.0000000E+00  0.4115226E-02
    1       -4.343202   1.000000
    2        0.211620   1.000000
    3        2.737525   1.000000
    4        4.172707   1.000000
    5        7.683441   0.000000
    6        9.255071   0.000000
    7        9.567044   0.000000
    8       11.737519   0.000000
 
 -0.2777778E+00  0.1666667E+00  0.0000000E+00  0.4115226E-02
    1       -4.586046   1.000000
    2        0.721956   1.000000
    3        2.820483   1.000000
    4        4.370307   1.000000
    5        7.831959   0.000000
    6        9.350157   0.000000
    7        9.436475   0.000000
    8       10.993911   0.000000
 
 -0.2222222E+00  0.1666667E+00  0.0000000E+00  0.4115226E-02
    1       -4.837468   1.000000
    2        1.306335   1.000000
    3        3.009654   1.000000
    4        4.575860   1.000000
    5        7.974719   0.000000
    6        9.243943   0.000000
    7        9.361149   0.000000
    8       10.431973   0.000000
 
 -0.1666667E+00  0.1666667E+00  0.0000000E+00  0.2057613E-02
    1       -5.067280   1.000000
    2        1.878517   1.000000
    3        3.345301   1.000000
    4        4.762071   1.000000
    5        8.035778   0.000000
    6        9.001199   0.000000
    7        9.129090   0.000000
    8       10.267602   0.000000
 
  0.2222222E+00  0.2222222E+00  0.0000000E+00  0.1028807E-02
    1       -5.127403   1.000000
    2        2.364673   1.000000
    3        3.894437   1.000000
    4        3.894437   1.000000
    5        7.038719   0.000000
    6        8.555743   0.000000
    7       10.452083   0.000000
    8       10.452084   0.000000
 
  0.2777778E+00  0.2222222E+00  0.0000000E+00  0.4115226E-02
    1       -4.953462   1.000000
    2        1.883745   1.000000
    3        3.675372   1.000000
    4        3.724325   1.000000
    5        6.992387   0.000000
    6        8.362158   0.000000
    7       10.595754   0.000000
    8       10.785469   0.000000
 
  0.3333333E+00  0.2222222E+00  0.0000000E+00  0.4115226E-02
    1       -4.738605   1.000000
    2        1.334353   1.000000
    3        3.383096   1.000000
    4        3.599528   1.000000
    5        7.098678   0.000000
    6        8.357944   0.000000
    7       10.480220   0.000000
    8       10.939077   0.000000
 
  0.3888889E+00  0.2222222E+00  0.0000000E+00  0.4115226E-02
    1       -4.498295   1.000000
    2        0.791869   1.000000
    3        3.060249   1.000000
    4        3.526093   1.000000
    5        7.174277   0.000000
    6        8.671227   0.000000
    7       10.323581   0.000000
    8       10.912802   0.000000
 
  0.4444444E+00  0.2222222E+00  0.0000000E+00  0.4115226E-02
    1       -4.258865   1.000000
    2        0.313916   1.000000
    3        2.756269   1.000000
    4        3.506954   1.000000
    5        7.192066   0.000000
    6        9.254752   0.000000
    7       10.192517   0.000000
    8       10.780576   0.000000
 
  0.5000000E+00  0.2222222E+00  0.0000000E+00  0.4115226E-02
    1       -4.062081   1.000000
    2       -0.039414   1.000000
    3        2.500605   1.000000
    4        3.542615   1.000000
    5        7.217691   0.000000
    6        9.844852   0.000000
    7       10.260302   0.000000
    8       10.611205   0.000000
 
 -0.4444444E+00  0.2222222E+00  0.0000000E+00  0.4115226E-02
    1       -3.961092   1.000000
    2       -0.205309   1.000000
    3        2.310033   1.000000
    4        3.631368   1.000000
    5        7.285764   0.000000
    6        9.899093   0.000000
    7       10.441342   0.000000
    8       11.011045   0.000000
 
 -0.3888889E+00  0.2222222E+00  0.0000000E+00  0.4115226E-02
    1       -3.992405   1.000000
    2       -0.145877   1.000000
    3        2.197470   1.000000
    4        3.769034   1.000000
    5        7.404828   0.000000
    6        9.878966   0.000000
    7       10.280415   0.000000
    8       11.936340   0.000000
 
 -0.3333333E+00  0.2222222E+00  0.0000000E+00  0.4115226E-02
    1       -4.143210   1.000000
    2        0.116808   1.000000
    3        2.179089   1.000000
    4        3.948200   1.000000
    5        7.569686   0.000000
    6        9.892452   0.000000
    7       10.111943   0.000000
    8       11.695752   0.000000
 
 -0.2777778E+00  0.2222222E+00  0.0000000E+00  0.4115226E-02
    1       -4.364437   1.000000
    2        0.507422   1.000000
    3        2.282178   1.000000
    4        4.156792   1.000000
    5        7.761743   0.000000
    6        9.891607   0.000000
    7        9.930018   0.000000
    8       10.877200   0.000000
 
 -0.2222222E+00  0.2222222E+00  0.0000000E+00  0.2057613E-02
    1       -4.607084   1.000000
    2        0.929588   1.000000
    3        2.549289   1.000000
    4        4.375687   1.000000
    5        7.935468   0.000000
    6        9.584804   0.000000
    7        9.800713   0.000000
    8       10.371547   0.000000
 
  0.2777778E+00  0.2777778E+00  0.0000000E+00  0.1028807E-02
    1       -4.798846   1.000000
    2        1.563809   1.000000
    3        3.542675   1.000000
    4        3.542675   1.000000
    5        6.730718   0.000000
    6        8.011863   0.000000
    7       11.268173   0.000000
    8       11.268187   0.000000
 
  0.3333333E+00  0.2777778E+00  0.0000000E+00  0.4115226E-02
    1       -4.602970   1.000000
    2        1.141856   1.000000
    3        3.318696   1.000000
    4        3.406208   1.000000
    5        6.720138   0.000000
    6        7.817450   0.000000
    7       11.409401   0.000000
    8       11.578321   0.000000
 
  0.3888889E+00  0.2777778E+00  0.0000000E+00  0.4115226E-02
    1       -4.379549   1.000000
    2        0.703510   1.000000
    3        2.983480   1.000000
    4        3.321737   1.000000
    5        6.840064   0.000000
    6        7.894948   0.000000
    7       11.298483   0.000000
    8       11.654624   0.000000
 
  0.4444444E+00  0.2777778E+00  0.0000000E+00  0.4115226E-02
    1       -4.151474   1.000000
    2        0.304774   1.000000
    3        2.612025   1.000000
    4        3.292765   1.000000
    5        6.910183   0.000000
    6        8.333104   0.000000
    7       11.144146   0.000000
    8       11.560932   0.000000
 
  0.5000000E+00  0.2777778E+00  0.0000000E+00  0.4115226E-02
    1       -3.954806   1.000000
    2       -0.003278   1.000000
    3        2.271251   1.000000
    4        3.320316   1.000000
    5        6.953338   0.000000
    6        9.031072   0.000000
    7       11.000795   0.000000
    8       11.391179   0.000000
 
 -0.4444444E+00  0.2777778E+00  0.0000000E+00  0.4115226E-02
    1       -3.836569   1.000000
    2       -0.167909   1.000000
    3        2.001852   1.000000
    4        3.403155   1.000000
    5        7.029649   0.000000
    6        9.873618   0.000000
    7       10.893922   0.000000
    8       11.197573   0.000000
 
 -0.3888889E+00  0.2777778E+00  0.0000000E+00  0.4115226E-02
    1       -3.834729   1.000000
    2       -0.155217   1.000000
    3        1.832416   1.000000
    4        3.537618   1.000000
    5        7.158532   0.000000
    6       10.658810   0.000000
    7       10.978699   0.000000
    8       10.989574   0.000000
 
 -0.3333333E+00  0.2777778E+00  0.0000000E+00  0.4115226E-02
    1       -3.948621   1.000000
    2        0.014421   1.000000
    3        1.794763   1.000000
    4        3.716853   1.000000
    5        7.339028   0.000000
    6       10.720928   0.000000
    7       10.732725   0.000000
    8       11.666210   0.000000
 
 -0.2777778E+00  0.2777778E+00  0.0000000E+00  0.2057613E-02
    1       -4.140341   1.000000
    2        0.263193   1.000000
    3        1.932938   1.000000
    4        3.929415   1.000000
    5        7.555146   0.000000
    6       10.362144   0.000000
    7       10.614199   0.000000
    8       10.928484   0.000000
 
  0.3333333E+00  0.3333333E+00  0.0000000E+00  0.1028807E-02
    1       -4.427919   1.000000
    2        0.818469   1.000000
    3        3.256793   1.000000
    4        3.256793   1.000000
    5        6.500703   0.000000
    6        7.466072   0.000000
    7       12.108622   0.000000
    8       12.108623   0.000000
 
  0.3888889E+00  0.3333333E+00  0.0000000E+00  0.4115226E-02
    1       -4.226212   1.000000
    2        0.462864   1.000000
    3        3.043914   1.000000
    4        3.159082   1.000000
    5        6.529004   0.000000
    6        7.330850   0.000000
    7       12.265983   0.000000
    8       12.382846   0.000000
 
  0.4444444E+00  0.3333333E+00  0.0000000E+00  0.4115226E-02
    1       -4.018814   1.000000
    2        0.140409   1.000000
    3        2.692176   1.000000
    4        3.117278   1.000000
    5        6.649993   0.000000
    6        7.527210   0.000000
    7       12.167559   0.000000
    8       12.384717   0.000000
 
  0.5000000E+00  0.3333333E+00  0.0000000E+00  0.4115226E-02
    1       -3.837608   1.000000
    2       -0.102003   1.000000
    3        2.301084   1.000000
    4        3.132975   1.000000
    5        6.718409   0.000000
    6        8.091652   0.000000
    7       12.019022   0.000000
    8       12.236668   0.000000
 
 -0.4444444E+00  0.3333333E+00  0.0000000E+00  0.4115226E-02
    1       -3.722558   1.000000
    2       -0.226320   1.000000
    3        1.954952   1.000000
    4        3.205481   1.000000
    5        6.797631   0.000000
    6        8.877366   0.000000
    7       11.875834   0.000000
    8       12.021458   0.000000
 
 -0.3888889E+00  0.3333333E+00  0.0000000E+00  0.4115226E-02
    1       -3.706023   1.000000
    2       -0.217931   1.000000
    3        1.715628   1.000000
    4        3.331743   1.000000
    5        6.927139   0.000000
    6        9.791661   0.000000
    7       11.740150   0.000000
    8       11.751844   0.000000
 
 -0.3333333E+00  0.3333333E+00  0.0000000E+00  0.2057613E-02
    1       -3.790537   1.000000
    2       -0.112345   1.000000
    3        1.643082   1.000000
    4        3.505669   1.000000
    5        7.111722   0.000000
    6       10.773793   0.000000
    7       11.317606   0.000000
    8       11.562596   0.000000
 
  0.3888889E+00  0.3888889E+00  0.0000000E+00  0.1028807E-02
    1       -4.051080   1.000000
    2        0.169793   1.000000
    3        3.047104   1.000000
    4        3.047104   1.000000
    5        6.360861   0.000000
    6        7.020129   0.000000
    7       12.953450   0.000000
    8       12.953451   0.000000
 
  0.4444444E+00  0.3888889E+00  0.0000000E+00  0.4115226E-02
    1       -3.874766   1.000000
    2       -0.094701   1.000000
    3        2.857955   1.000000
    4        2.990824   1.000000
    5        6.425617   0.000000
    6        6.965365   0.000000
    7       13.119834   0.000000
    8       13.177410   0.000000
 
  0.5000000E+00  0.3888889E+00  0.0000000E+00  0.4115226E-02
    1       -3.726466   1.000000
    2       -0.277827   1.000000
    3        2.516354   1.000000
    4        2.992460   1.000000
    5        6.535040   0.000000
    6        7.298201   0.000000
    7       13.026418   0.000000
    8       13.099310   0.000000
 
 -0.4444444E+00  0.3888889E+00  0.0000000E+00  0.4115226E-02
    1       -3.638886   1.000000
    2       -0.348369   1.000000
    3        2.143497   1.000000
    4        3.051909   1.000000
    5        6.618299   0.000000
    6        7.970046   0.000000
    7       12.851855   0.000000
    8       12.856778   0.000000
 
 -0.3888889E+00  0.3888889E+00  0.0000000E+00  0.2057613E-02
    1       -3.633183   1.000000
    2       -0.309750   1.000000
    3        1.845317   1.000000
    4        3.166757   1.000000
    5        6.744105   0.000000
    6        8.825234   0.000000
    7       12.410810   0.000000
    8       12.548701   0.000000
 
  0.4444444E+00  0.4444444E+00  0.0000000E+00  0.1028807E-02
    1       -3.740740   1.000000
    2       -0.305694   1.000000
    3        2.919344   1.000000
    4        2.919344   1.000000
    5        6.312867   0.000000
    6        6.708501   0.000000
    7       13.747790   0.000000
    8       13.747791   0.000000
 
  0.5000000E+00  0.4444444E+00  0.0000000E+00  0.4115226E-02
    1       -3.643986   1.000000
    2       -0.430041   1.000000
    3        2.764251   1.000000
    4        2.905737   1.000000
    5        6.398056   0.000000
    6        6.754981   0.000000
    7       13.855904   0.000000
    8       13.857812   0.000000
 
 -0.4444444E+00  0.4444444E+00  0.0000000E+00  0.2057613E-02
    1       -3.608011   1.000000
    2       -0.439114   1.000000
    3        2.457690   1.000000
    4        2.950518   1.000000
    5        6.496727   0.000000
    6        7.220757   0.000000
    7       13.534432   0.000000
    8       13.589418   0.000000
 
  0.5000000E+00  0.5000000E+00  0.0000000E+00  0.5144033E-03
    1       -3.613084   1.000000
    2       -0.488790   1.000000
    3        2.876450   1.000000
    4        2.876450   1.000000
    5        6.319614   0.000000
    6        6.580822   0.000000
    7       14.186680   0.000000
    8       14.186680   0.000000
 