 running on   48 total cores
 distrk:  each k-point on   12 cores,    4 groups
 distr:  one band on   12 cores,    1 groups
 using from now: INCAR     
 vasp.5.4.4.18Apr17-6-g9f103f2a35 (build Nov 04 2020 14:40:39) complex          
  
 POSCAR found type information on POSCAR  Al Sb
 POSCAR found :  2 types and       2 ions
 scaLAPACK will be used

 ----------------------------------------------------------------------------- 
|                                                                             |
|           W    W    AA    RRRRR   N    N  II  N    N   GGGG   !!!           |
|           W    W   A  A   R    R  NN   N  II  NN   N  G    G  !!!           |
|           W    W  A    A  R    R  N N  N  II  N N  N  G       !!!           |
|           W WW W  AAAAAA  RRRRR   N  N N  II  N  N N  G  GGG   !            |
|           WW  WW  A    A  R   R   N   NN  II  N   NN  G    G                |
|           W    W  A    A  R    R  N    N  II  N    N   GGGG   !!!           |
|                                                                             |
|      You have enabled k-point parallelism (KPAR>1).                         |
|      This developmental code was originally  written by Paul Kent at ORNL,  |
|      and carefully double checked in Vienna.                                |
|      GW as well as linear response parallelism added by Martijn Marsman     |
|      and Georg Kresse.                                                      |
|      Carefully verify results versus KPAR=1.                                |
|      Report problems to Paul Kent and Vienna.                               |
|                                                                             |
 ----------------------------------------------------------------------------- 

 LDA part: xc-table for Pade appr. of Perdew
 POSCAR found type information on POSCAR  Al Sb
 POSCAR found :  2 types and       2 ions
 generate k-points for:   18   18   18
 POSCAR, INCAR and KPOINTS ok, starting setup
 FFT: planning ...
 WAVECAR not read
 entering main loop
       N       E                     dE             d eps       ncg     rms          rms(c)
DAV:   1     0.143691443524E+02    0.14369E+02   -0.29228E+03  3120   0.746E+02
DAV:   2    -0.774659740070E+01   -0.22116E+02   -0.21798E+02  4272   0.859E+01
DAV:   3    -0.821710762998E+01   -0.47051E+00   -0.47051E+00  4240   0.143E+01
DAV:   4    -0.821979427190E+01   -0.26866E-02   -0.26866E-02  4608   0.126E+00
DAV:   5    -0.821980582958E+01   -0.11558E-04   -0.11558E-04  4264   0.674E-02    0.217E+00
RMM:   6    -0.814958229630E+01    0.70224E-01   -0.53738E-02  3123   0.135E+00    0.130E+00
RMM:   7    -0.812606755827E+01    0.23515E-01   -0.76070E-02  3184   0.169E+00    0.196E-01
RMM:   8    -0.812680314958E+01   -0.73559E-03   -0.32645E-03  3291   0.416E-01    0.527E-02
RMM:   9    -0.812713257047E+01   -0.32942E-03   -0.57794E-04  3317   0.168E-01    0.156E-02
RMM:  10    -0.812713202487E+01    0.54560E-06   -0.49588E-05  3688   0.511E-02    0.495E-03
RMM:  11    -0.812713433679E+01   -0.23119E-05   -0.95058E-06  3511   0.237E-02    0.217E-03
RMM:  12    -0.812713484828E+01   -0.51149E-06   -0.51415E-07  2596   0.643E-03
   1 F= -.81271348E+01 E0= -.81271348E+01  d E =0.000000E+00
