   2   2   1   0
  0.9507742E+01  0.2995993E-09  0.2995993E-09  0.2995993E-09  0.1000000E-15
   1.0000000000000000E-004
  CAR 
 unknown system                          
     39.97379088    -16.03037869  301      5.72592641      1.00000000
    -16.030  0.0000E+00  0.0000E+00  0.0000E+00  0.0000E+00
    -15.844  0.0000E+00  0.0000E+00  0.0000E+00  0.0000E+00
    -15.657  0.0000E+00  0.0000E+00  0.0000E+00  0.0000E+00
    -15.470  0.0000E+00  0.0000E+00  0.0000E+00  0.0000E+00
    -15.284  0.0000E+00  0.0000E+00  0.0000E+00  0.0000E+00
    -15.097  0.0000E+00  0.0000E+00  0.0000E+00  0.0000E+00
    -14.910  0.0000E+00  0.0000E+00  0.0000E+00  0.0000E+00
    -14.724  0.0000E+00  0.0000E+00  0.0000E+00  0.0000E+00
    -14.537  0.0000E+00  0.0000E+00  0.0000E+00  0.0000E+00
    -14.350  0.0000E+00  0.0000E+00  0.0000E+00  0.0000E+00
    -14.164  0.0000E+00  0.0000E+00  0.0000E+00  0.0000E+00
    -13.977  0.0000E+00  0.0000E+00  0.0000E+00  0.0000E+00
    -13.790  0.0000E+00  0.0000E+00  0.0000E+00  0.0000E+00
    -13.604  0.7245E-08  0.7246E-08  0.1353E-08  0.1353E-08
    -13.417  0.2745E-03  0.2745E-03  0.5125E-04  0.5125E-04
    -13.230  0.1715E-02  0.1715E-02  0.3714E-03  0.3714E-03
    -13.043  0.2807E-02  0.2807E-02  0.8955E-03  0.8955E-03
    -12.857  0.4051E-02  0.4051E-02  0.1652E-02  0.1652E-02
    -12.670  0.5760E-02  0.5760E-02  0.2727E-02  0.2727E-02
    -12.483  0.8494E-02  0.8494E-02  0.4313E-02  0.4313E-02
    -12.297  0.1457E-01  0.1457E-01  0.7032E-02  0.7032E-02
    -12.110  0.3804E-01  0.3805E-01  0.1413E-01  0.1413E-01
    -11.923  0.1357E-01  0.1357E-01  0.1667E-01  0.1667E-01
    -11.737  0.8072E-07  0.8070E-07  0.1667E-01  0.1667E-01
    -11.550  0.0000E+00  0.0000E+00  0.1667E-01  0.1667E-01
    -11.363  0.0000E+00  0.0000E+00  0.1667E-01  0.1667E-01
    -11.177  0.0000E+00  0.0000E+00  0.1667E-01  0.1667E-01
    -10.990  0.0000E+00  0.0000E+00  0.1667E-01  0.1667E-01
    -10.803  0.0000E+00  0.0000E+00  0.1667E-01  0.1667E-01
    -10.617  0.0000E+00  0.0000E+00  0.1667E-01  0.1667E-01
    -10.430  0.0000E+00  0.0000E+00  0.1667E-01  0.1667E-01
    -10.243  0.0000E+00  0.0000E+00  0.1667E-01  0.1667E-01
    -10.057  0.0000E+00  0.0000E+00  0.1667E-01  0.1667E-01
     -9.870  0.0000E+00  0.0000E+00  0.1667E-01  0.1667E-01
     -9.683  0.0000E+00  0.0000E+00  0.1667E-01  0.1667E-01
     -9.497  0.0000E+00  0.0000E+00  0.1667E-01  0.1667E-01
     -9.310  0.0000E+00  0.0000E+00  0.1667E-01  0.1667E-01
     -9.123  0.0000E+00  0.0000E+00  0.1667E-01  0.1667E-01
     -8.937  0.0000E+00  0.0000E+00  0.1667E-01  0.1667E-01
     -8.750  0.0000E+00  0.0000E+00  0.1667E-01  0.1667E-01
     -8.563  0.0000E+00  0.0000E+00  0.1667E-01  0.1667E-01
     -8.376  0.0000E+00  0.0000E+00  0.1667E-01  0.1667E-01
     -8.190  0.0000E+00  0.0000E+00  0.1667E-01  0.1667E-01
     -8.003  0.0000E+00  0.0000E+00  0.1667E-01  0.1667E-01
     -7.816  0.0000E+00  0.0000E+00  0.1667E-01  0.1667E-01
     -7.630  0.0000E+00  0.0000E+00  0.1667E-01  0.1667E-01
     -7.443  0.0000E+00  0.0000E+00  0.1667E-01  0.1667E-01
     -7.256  0.0000E+00  0.0000E+00  0.1667E-01  0.1667E-01
     -7.070  0.0000E+00  0.0000E+00  0.1667E-01  0.1667E-01
     -6.883  0.0000E+00  0.0000E+00  0.1667E-01  0.1667E-01
     -6.696  0.0000E+00  0.0000E+00  0.1667E-01  0.1667E-01
     -6.510  0.0000E+00  0.0000E+00  0.1667E-01  0.1667E-01
     -6.323  0.0000E+00  0.0000E+00  0.1667E-01  0.1667E-01
     -6.136  0.0000E+00  0.0000E+00  0.1667E-01  0.1667E-01
     -5.950  0.0000E+00  0.0000E+00  0.1667E-01  0.1667E-01
     -5.763  0.0000E+00  0.0000E+00  0.1667E-01  0.1667E-01
     -5.576  0.0000E+00  0.0000E+00  0.1667E-01  0.1667E-01
     -5.390  0.0000E+00  0.0000E+00  0.1667E-01  0.1667E-01
     -5.203  0.0000E+00  0.0000E+00  0.1667E-01  0.1667E-01
     -5.016  0.0000E+00  0.0000E+00  0.1667E-01  0.1667E-01
     -4.830  0.0000E+00  0.0000E+00  0.1667E-01  0.1667E-01
     -4.643  0.0000E+00  0.0000E+00  0.1667E-01  0.1667E-01
     -4.456  0.0000E+00  0.0000E+00  0.1667E-01  0.1667E-01
     -4.270  0.0000E+00  0.0000E+00  0.1667E-01  0.1667E-01
     -4.083  0.0000E+00  0.0000E+00  0.1667E-01  0.1667E-01
     -3.896  0.0000E+00  0.0000E+00  0.1667E-01  0.1667E-01
     -3.709  0.0000E+00  0.0000E+00  0.1667E-01  0.1667E-01
     -3.523  0.0000E+00  0.0000E+00  0.1667E-01  0.1667E-01
     -3.336  0.0000E+00  0.0000E+00  0.1667E-01  0.1667E-01
     -3.149  0.0000E+00  0.0000E+00  0.1667E-01  0.1667E-01
     -2.963  0.0000E+00  0.0000E+00  0.1667E-01  0.1667E-01
     -2.776  0.0000E+00  0.0000E+00  0.1667E-01  0.1667E-01
     -2.589  0.0000E+00  0.0000E+00  0.1667E-01  0.1667E-01
     -2.403  0.0000E+00  0.0000E+00  0.1667E-01  0.1667E-01
     -2.216  0.0000E+00  0.0000E+00  0.1667E-01  0.1667E-01
     -2.029  0.0000E+00  0.0000E+00  0.1667E-01  0.1667E-01
     -1.843  0.0000E+00  0.0000E+00  0.1667E-01  0.1667E-01
     -1.656  0.9373E-09  0.9371E-09  0.1667E-01  0.1667E-01
     -1.469  0.1683E-03  0.1683E-03  0.1670E-01  0.1670E-01
     -1.283  0.1813E-02  0.1813E-02  0.1704E-01  0.1704E-01
     -1.096  0.3342E-02  0.3342E-02  0.1766E-01  0.1766E-01
     -0.909  0.4544E-02  0.4544E-02  0.1851E-01  0.1851E-01
     -0.723  0.6301E-02  0.6301E-02  0.1968E-01  0.1968E-01
     -0.536  0.1043E-01  0.1043E-01  0.2163E-01  0.2163E-01
     -0.349  0.1325E-01  0.1325E-01  0.2411E-01  0.2411E-01
     -0.163  0.1724E-01  0.1724E-01  0.2732E-01  0.2732E-01
      0.024  0.1296E-01  0.1296E-01  0.2974E-01  0.2974E-01
      0.211  0.7795E-02  0.7795E-02  0.3120E-01  0.3120E-01
      0.398  0.5043E-02  0.5043E-02  0.3214E-01  0.3214E-01
      0.584  0.1153E-01  0.1153E-01  0.3429E-01  0.3429E-01
      0.771  0.2580E-01  0.2580E-01  0.3911E-01  0.3911E-01
      0.958  0.3522E-01  0.3523E-01  0.4568E-01  0.4569E-01
      1.144  0.3294E-01  0.3294E-01  0.5183E-01  0.5184E-01
      1.331  0.2001E-01  0.2001E-01  0.5557E-01  0.5557E-01
      1.518  0.1792E-01  0.1792E-01  0.5892E-01  0.5892E-01
      1.704  0.1242E-01  0.1242E-01  0.6123E-01  0.6123E-01
      1.891  0.1217E-01  0.1217E-01  0.6351E-01  0.6351E-01
      2.078  0.7908E-02  0.7908E-02  0.6498E-01  0.6498E-01
      2.264  0.5662E-02  0.5662E-02  0.6604E-01  0.6604E-01
      2.451  0.4260E-02  0.4260E-02  0.6683E-01  0.6683E-01
      2.638  0.8688E-02  0.8688E-02  0.6846E-01  0.6846E-01
      2.824  0.1670E-01  0.1670E-01  0.7157E-01  0.7157E-01
      3.011  0.2546E-01  0.2546E-01  0.7633E-01  0.7633E-01
      3.198  0.4408E-01  0.4408E-01  0.8455E-01  0.8455E-01
      3.384  0.7277E-01  0.7277E-01  0.9814E-01  0.9814E-01
      3.571  0.2392E-01  0.2392E-01  0.1026E+00  0.1026E+00
      3.758  0.4867E-01  0.4867E-01  0.1117E+00  0.1117E+00
      3.944  0.2752E-01  0.2753E-01  0.1168E+00  0.1168E+00
      4.131  0.1650E-01  0.1650E-01  0.1199E+00  0.1199E+00
      4.318  0.1676E-01  0.1676E-01  0.1230E+00  0.1230E+00
      4.504  0.1614E-01  0.1614E-01  0.1261E+00  0.1261E+00
      4.691  0.1202E-01  0.1202E-01  0.1283E+00  0.1283E+00
      4.878  0.1276E-01  0.1276E-01  0.1307E+00  0.1307E+00
      5.065  0.1385E-01  0.1385E-01  0.1333E+00  0.1333E+00
      5.251  0.1142E-01  0.1142E-01  0.1354E+00  0.1354E+00
      5.438  0.1505E-01  0.1505E-01  0.1382E+00  0.1382E+00
      5.625  0.9101E-02  0.9101E-02  0.1399E+00  0.1399E+00
      5.811  0.1554E-01  0.1554E-01  0.1428E+00  0.1428E+00
      5.998  0.8590E-02  0.8590E-02  0.1444E+00  0.1444E+00
      6.185  0.1334E-01  0.1334E-01  0.1469E+00  0.1469E+00
      6.371  0.1173E-01  0.1173E-01  0.1491E+00  0.1491E+00
      6.558  0.4877E-02  0.4876E-02  0.1500E+00  0.1500E+00
      6.745  0.1060E-04  0.1059E-04  0.1500E+00  0.1500E+00
      6.931  0.0000E+00  0.0000E+00  0.1500E+00  0.1500E+00
      7.118  0.0000E+00  0.0000E+00  0.1500E+00  0.1500E+00
      7.305  0.0000E+00  0.0000E+00  0.1500E+00  0.1500E+00
      7.491  0.0000E+00  0.0000E+00  0.1500E+00  0.1500E+00
      7.678  0.2277E-08  0.2277E-08  0.1500E+00  0.1500E+00
      7.865  0.1457E-04  0.1457E-04  0.1500E+00  0.1500E+00
      8.051  0.7075E-04  0.7074E-04  0.1500E+00  0.1500E+00
      8.238  0.1442E-03  0.1442E-03  0.1500E+00  0.1500E+00
      8.425  0.1327E-03  0.1327E-03  0.1501E+00  0.1501E+00
      8.611  0.2548E-03  0.2548E-03  0.1501E+00  0.1501E+00
      8.798  0.2862E-03  0.2862E-03  0.1502E+00  0.1502E+00
      8.985  0.8304E-04  0.8304E-04  0.1502E+00  0.1502E+00
      9.171  0.6642E-03  0.6642E-03  0.1503E+00  0.1503E+00
      9.358  0.4374E-03  0.4374E-03  0.1504E+00  0.1504E+00
      9.545  0.2863E-03  0.2863E-03  0.1504E+00  0.1504E+00
      9.732  0.3921E-03  0.3921E-03  0.1505E+00  0.1505E+00
      9.918  0.1099E-02  0.1099E-02  0.1507E+00  0.1507E+00
     10.105  0.4675E-03  0.4675E-03  0.1508E+00  0.1508E+00
     10.292  0.8213E-03  0.8213E-03  0.1510E+00  0.1510E+00
     10.478  0.4831E-03  0.4831E-03  0.1511E+00  0.1511E+00
     10.665  0.1723E-02  0.1723E-02  0.1514E+00  0.1514E+00
     10.852  0.1051E-02  0.1051E-02  0.1516E+00  0.1516E+00
     11.038  0.5848E-03  0.5848E-03  0.1517E+00  0.1517E+00
     11.225  0.1750E-02  0.1750E-02  0.1520E+00  0.1520E+00
     11.412  0.1665E-02  0.1665E-02  0.1523E+00  0.1523E+00
     11.598  0.1750E-02  0.1750E-02  0.1526E+00  0.1526E+00
     11.785  0.1427E-02  0.1427E-02  0.1529E+00  0.1529E+00
     11.972  0.3535E-02  0.3535E-02  0.1536E+00  0.1536E+00
     12.158  0.3055E-02  0.3055E-02  0.1541E+00  0.1541E+00
     12.345  0.3980E-02  0.3980E-02  0.1549E+00  0.1549E+00
     12.532  0.4690E-02  0.4690E-02  0.1558E+00  0.1558E+00
     12.718  0.6527E-02  0.6527E-02  0.1570E+00  0.1570E+00
     12.905  0.4739E-02  0.4739E-02  0.1579E+00  0.1579E+00
     13.092  0.5591E-02  0.5591E-02  0.1589E+00  0.1589E+00
     13.278  0.4781E-02  0.4781E-02  0.1598E+00  0.1598E+00
     13.465  0.6713E-02  0.6713E-02  0.1611E+00  0.1611E+00
     13.652  0.3139E-02  0.3139E-02  0.1616E+00  0.1616E+00
     13.839  0.4739E-02  0.4739E-02  0.1625E+00  0.1625E+00
     14.025  0.5432E-02  0.5432E-02  0.1635E+00  0.1635E+00
     14.212  0.4110E-02  0.4110E-02  0.1643E+00  0.1643E+00
     14.399  0.2472E-02  0.2472E-02  0.1648E+00  0.1648E+00
     14.585  0.5219E-02  0.5219E-02  0.1657E+00  0.1657E+00
     14.772  0.4090E-02  0.4090E-02  0.1665E+00  0.1665E+00
     14.959  0.8807E-03  0.8807E-03  0.1667E+00  0.1667E+00
     15.145  0.1838E-03  0.1838E-03  0.1667E+00  0.1667E+00
     15.332  0.4409E-02  0.4409E-02  0.1675E+00  0.1675E+00
     15.519  0.4308E-02  0.4308E-02  0.1683E+00  0.1683E+00
     15.705  0.6034E-02  0.6034E-02  0.1695E+00  0.1695E+00
     15.892  0.6498E-02  0.6498E-02  0.1707E+00  0.1707E+00
     16.079  0.5772E-02  0.5772E-02  0.1717E+00  0.1717E+00
     16.265  0.8210E-02  0.8210E-02  0.1733E+00  0.1733E+00
     16.452  0.4908E-02  0.4908E-02  0.1742E+00  0.1742E+00
     16.639  0.6818E-02  0.6818E-02  0.1755E+00  0.1755E+00
     16.825  0.9136E-02  0.9136E-02  0.1772E+00  0.1772E+00
     17.012  0.1390E-01  0.1390E-01  0.1798E+00  0.1798E+00
     17.199  0.1014E-01  0.1014E-01  0.1817E+00  0.1817E+00
     17.385  0.9738E-02  0.9738E-02  0.1835E+00  0.1835E+00
     17.572  0.9424E-02  0.9424E-02  0.1852E+00  0.1852E+00
     17.759  0.8959E-02  0.8959E-02  0.1869E+00  0.1869E+00
     17.945  0.7618E-02  0.7618E-02  0.1883E+00  0.1883E+00
     18.132  0.7276E-02  0.7276E-02  0.1897E+00  0.1897E+00
     18.319  0.5544E-02  0.5544E-02  0.1907E+00  0.1907E+00
     18.506  0.5731E-02  0.5731E-02  0.1918E+00  0.1918E+00
     18.692  0.3269E-02  0.3269E-02  0.1924E+00  0.1924E+00
     18.879  0.5584E-02  0.5584E-02  0.1934E+00  0.1934E+00
     19.066  0.2870E-02  0.2870E-02  0.1940E+00  0.1940E+00
     19.252  0.2741E-02  0.2741E-02  0.1945E+00  0.1945E+00
     19.439  0.4270E-02  0.4270E-02  0.1953E+00  0.1953E+00
     19.626  0.1857E-02  0.1858E-02  0.1956E+00  0.1956E+00
     19.812  0.2860E-02  0.2860E-02  0.1962E+00  0.1962E+00
     19.999  0.3588E-02  0.3589E-02  0.1968E+00  0.1968E+00
     20.186  0.3746E-02  0.3746E-02  0.1975E+00  0.1975E+00
     20.372  0.3429E-02  0.3429E-02  0.1982E+00  0.1982E+00
     20.559  0.5032E-02  0.5032E-02  0.1991E+00  0.1991E+00
     20.746  0.6632E-02  0.6632E-02  0.2004E+00  0.2004E+00
     20.932  0.1265E-01  0.1265E-01  0.2027E+00  0.2027E+00
     21.119  0.9560E-02  0.9560E-02  0.2045E+00  0.2045E+00
     21.306  0.1167E-01  0.1167E-01  0.2067E+00  0.2067E+00
     21.492  0.6803E-02  0.6803E-02  0.2080E+00  0.2080E+00
     21.679  0.8113E-02  0.8113E-02  0.2095E+00  0.2095E+00
     21.866  0.6745E-02  0.6745E-02  0.2107E+00  0.2107E+00
     22.052  0.7580E-02  0.7580E-02  0.2121E+00  0.2121E+00
     22.239  0.4482E-02  0.4482E-02  0.2130E+00  0.2130E+00
     22.426  0.5055E-02  0.5055E-02  0.2139E+00  0.2139E+00
     22.612  0.4070E-02  0.4070E-02  0.2147E+00  0.2147E+00
     22.799  0.5168E-02  0.5168E-02  0.2156E+00  0.2156E+00
     22.986  0.2875E-02  0.2875E-02  0.2162E+00  0.2162E+00
     23.173  0.1927E-02  0.1927E-02  0.2165E+00  0.2165E+00
     23.359  0.3772E-02  0.3772E-02  0.2172E+00  0.2172E+00
     23.546  0.3395E-02  0.3396E-02  0.2179E+00  0.2179E+00
     23.733  0.2386E-02  0.2386E-02  0.2183E+00  0.2183E+00
     23.919  0.2951E-02  0.2951E-02  0.2189E+00  0.2189E+00
     24.106  0.3614E-02  0.3614E-02  0.2196E+00  0.2196E+00
     24.293  0.1932E-02  0.1932E-02  0.2199E+00  0.2199E+00
     24.479  0.3761E-02  0.3761E-02  0.2206E+00  0.2206E+00
     24.666  0.3147E-02  0.3147E-02  0.2212E+00  0.2212E+00
     24.853  0.3540E-02  0.3540E-02  0.2219E+00  0.2219E+00
     25.039  0.1724E-02  0.1724E-02  0.2222E+00  0.2222E+00
     25.226  0.3543E-02  0.3543E-02  0.2228E+00  0.2228E+00
     25.413  0.2800E-02  0.2800E-02  0.2234E+00  0.2234E+00
     25.599  0.4366E-02  0.4366E-02  0.2242E+00  0.2242E+00
     25.786  0.2162E-02  0.2162E-02  0.2246E+00  0.2246E+00
     25.973  0.3568E-02  0.3568E-02  0.2253E+00  0.2253E+00
     26.159  0.4215E-02  0.4215E-02  0.2260E+00  0.2260E+00
     26.346  0.5399E-02  0.5399E-02  0.2270E+00  0.2270E+00
     26.533  0.2359E-02  0.2359E-02  0.2275E+00  0.2275E+00
     26.719  0.3312E-02  0.3312E-02  0.2281E+00  0.2281E+00
     26.906  0.5124E-02  0.5124E-02  0.2291E+00  0.2291E+00
     27.093  0.6750E-02  0.6750E-02  0.2303E+00  0.2303E+00
     27.280  0.4494E-02  0.4495E-02  0.2312E+00  0.2312E+00
     27.466  0.3323E-02  0.3323E-02  0.2318E+00  0.2318E+00
     27.653  0.3530E-02  0.3530E-02  0.2324E+00  0.2324E+00
     27.840  0.3427E-02  0.3427E-02  0.2331E+00  0.2331E+00
     28.026  0.6323E-02  0.6323E-02  0.2343E+00  0.2343E+00
     28.213  0.5285E-02  0.5285E-02  0.2352E+00  0.2352E+00
     28.400  0.2897E-02  0.2897E-02  0.2358E+00  0.2358E+00
     28.586  0.3172E-02  0.3172E-02  0.2364E+00  0.2364E+00
     28.773  0.4568E-02  0.4568E-02  0.2372E+00  0.2372E+00
     28.960  0.7606E-02  0.7606E-02  0.2387E+00  0.2387E+00
     29.146  0.4321E-02  0.4321E-02  0.2395E+00  0.2395E+00
     29.333  0.5904E-02  0.5904E-02  0.2406E+00  0.2406E+00
     29.520  0.5542E-02  0.5542E-02  0.2416E+00  0.2416E+00
     29.706  0.3308E-02  0.3308E-02  0.2422E+00  0.2422E+00
     29.893  0.9286E-02  0.9286E-02  0.2439E+00  0.2439E+00
     30.080  0.7586E-02  0.7586E-02  0.2454E+00  0.2454E+00
     30.266  0.3799E-02  0.3799E-02  0.2461E+00  0.2461E+00
     30.453  0.4746E-02  0.4746E-02  0.2470E+00  0.2470E+00
     30.640  0.5463E-02  0.5463E-02  0.2480E+00  0.2480E+00
     30.826  0.3668E-02  0.3668E-02  0.2487E+00  0.2487E+00
     31.013  0.7307E-02  0.7306E-02  0.2500E+00  0.2500E+00
     31.200  0.4497E-02  0.4497E-02  0.2509E+00  0.2509E+00
     31.386  0.4421E-02  0.4421E-02  0.2517E+00  0.2517E+00
     31.573  0.4580E-02  0.4580E-02  0.2525E+00  0.2525E+00
     31.760  0.3212E-02  0.3213E-02  0.2531E+00  0.2531E+00
     31.947  0.2294E-02  0.2294E-02  0.2536E+00  0.2536E+00
     32.133  0.4711E-02  0.4711E-02  0.2545E+00  0.2545E+00
     32.320  0.3058E-02  0.3058E-02  0.2550E+00  0.2550E+00
     32.507  0.3731E-02  0.3731E-02  0.2557E+00  0.2557E+00
     32.693  0.3997E-02  0.3997E-02  0.2565E+00  0.2565E+00
     32.880  0.1863E-02  0.1863E-02  0.2568E+00  0.2568E+00
     33.067  0.2066E-02  0.2066E-02  0.2572E+00  0.2572E+00
     33.253  0.2587E-02  0.2587E-02  0.2577E+00  0.2577E+00
     33.440  0.2899E-02  0.2899E-02  0.2582E+00  0.2582E+00
     33.627  0.2437E-02  0.2437E-02  0.2587E+00  0.2587E+00
     33.813  0.2530E-02  0.2530E-02  0.2592E+00  0.2592E+00
     34.000  0.3093E-02  0.3093E-02  0.2597E+00  0.2597E+00
     34.187  0.3636E-02  0.3636E-02  0.2604E+00  0.2604E+00
     34.373  0.3132E-02  0.3132E-02  0.2610E+00  0.2610E+00
     34.560  0.3961E-02  0.3961E-02  0.2617E+00  0.2617E+00
     34.747  0.4058E-02  0.4058E-02  0.2625E+00  0.2625E+00
     34.933  0.3664E-02  0.3664E-02  0.2632E+00  0.2632E+00
     35.120  0.5045E-02  0.5045E-02  0.2641E+00  0.2641E+00
     35.307  0.3963E-02  0.3963E-02  0.2649E+00  0.2649E+00
     35.493  0.3066E-02  0.3066E-02  0.2654E+00  0.2654E+00
     35.680  0.4066E-02  0.4066E-02  0.2662E+00  0.2662E+00
     35.867  0.1181E-02  0.1109E-02  0.2664E+00  0.2664E+00
     36.053  0.6527E-03  0.7255E-03  0.2665E+00  0.2665E+00
     36.240  0.2188E-03  0.2188E-03  0.2666E+00  0.2666E+00
     36.427  0.1222E-03  0.1222E-03  0.2666E+00  0.2666E+00
     36.614  0.3342E-03  0.3342E-03  0.2667E+00  0.2667E+00
     36.800  0.1482E-07  0.1483E-07  0.2667E+00  0.2667E+00
     36.987  0.0000E+00  0.0000E+00  0.2667E+00  0.2667E+00
     37.174  0.1382E-16  0.1381E-16  0.2667E+00  0.2667E+00
     37.360  0.1260E-05  0.1260E-05  0.2667E+00  0.2667E+00
     37.547  0.4465E-04  0.4465E-04  0.2667E+00  0.2667E+00
     37.734  0.1789E-07  0.1789E-07  0.2667E+00  0.2667E+00
     37.920  0.0000E+00  0.0000E+00  0.2667E+00  0.2667E+00
     38.107  0.0000E+00  0.0000E+00  0.2667E+00  0.2667E+00
     38.294  0.0000E+00  0.0000E+00  0.2667E+00  0.2667E+00
     38.480  0.0000E+00  0.0000E+00  0.2667E+00  0.2667E+00
     38.667  0.0000E+00  0.0000E+00  0.2667E+00  0.2667E+00
     38.854  0.0000E+00  0.0000E+00  0.2667E+00  0.2667E+00
     39.040  0.0000E+00  0.0000E+00  0.2667E+00  0.2667E+00
     39.227  0.0000E+00  0.0000E+00  0.2667E+00  0.2667E+00
     39.414  0.0000E+00  0.0000E+00  0.2667E+00  0.2667E+00
     39.600  0.0000E+00  0.0000E+00  0.2667E+00  0.2667E+00
     39.787  0.0000E+00  0.0000E+00  0.2667E+00  0.2667E+00
     39.974  0.0000E+00  0.0000E+00  0.2667E+00  0.2667E+00
     39.97379088    -16.03037869  301      5.72592641      1.00000000
    -16.030  0.0000E+00  0.0000E+00  0.0000E+00  0.0000E+00  0.0000E+00  0.0000E+00  0.0000E+00  0.0000E+00  0.0000E+00  0.0000E+00  0.0000E+00  0.0000E+00  0.0000E+00  0.0000E+00  0.0000E+00  0.0000E+00  0.0000E+00  0.0000E+00
    -15.844  0.0000E+00  0.0000E+00  0.0000E+00  0.0000E+00  0.0000E+00  0.0000E+00  0.0000E+00  0.0000E+00  0.0000E+00  0.0000E+00  0.0000E+00  0.0000E+00  0.0000E+00  0.0000E+00  0.0000E+00  0.0000E+00  0.0000E+00  0.0000E+00
    -15.657  0.0000E+00  0.0000E+00  0.0000E+00  0.0000E+00  0.0000E+00  0.0000E+00  0.0000E+00  0.0000E+00  0.0000E+00  0.0000E+00  0.0000E+00  0.0000E+00  0.0000E+00  0.0000E+00  0.0000E+00  0.0000E+00  0.0000E+00  0.0000E+00
    -15.470  0.0000E+00  0.0000E+00  0.0000E+00  0.0000E+00  0.0000E+00  0.0000E+00  0.0000E+00  0.0000E+00  0.0000E+00  0.0000E+00  0.0000E+00  0.0000E+00  0.0000E+00  0.0000E+00  0.0000E+00  0.0000E+00  0.0000E+00  0.0000E+00
    -15.284  0.0000E+00  0.0000E+00  0.0000E+00  0.0000E+00  0.0000E+00  0.0000E+00  0.0000E+00  0.0000E+00  0.0000E+00  0.0000E+00  0.0000E+00  0.0000E+00  0.0000E+00  0.0000E+00  0.0000E+00  0.0000E+00  0.0000E+00  0.0000E+00
    -15.097  0.0000E+00  0.0000E+00  0.0000E+00  0.0000E+00  0.0000E+00  0.0000E+00  0.0000E+00  0.0000E+00  0.0000E+00  0.0000E+00  0.0000E+00  0.0000E+00  0.0000E+00  0.0000E+00  0.0000E+00  0.0000E+00  0.0000E+00  0.0000E+00
    -14.910  0.0000E+00  0.0000E+00  0.0000E+00  0.0000E+00  0.0000E+00  0.0000E+00  0.0000E+00  0.0000E+00  0.0000E+00  0.0000E+00  0.0000E+00  0.0000E+00  0.0000E+00  0.0000E+00  0.0000E+00  0.0000E+00  0.0000E+00  0.0000E+00
    -14.724  0.0000E+00  0.0000E+00  0.0000E+00  0.0000E+00  0.0000E+00  0.0000E+00  0.0000E+00  0.0000E+00  0.0000E+00  0.0000E+00  0.0000E+00  0.0000E+00  0.0000E+00  0.0000E+00  0.0000E+00  0.0000E+00  0.0000E+00  0.0000E+00
    -14.537  0.0000E+00  0.0000E+00  0.0000E+00  0.0000E+00  0.0000E+00  0.0000E+00  0.0000E+00  0.0000E+00  0.0000E+00  0.0000E+00  0.0000E+00  0.0000E+00  0.0000E+00  0.0000E+00  0.0000E+00  0.0000E+00  0.0000E+00  0.0000E+00
    -14.350  0.0000E+00  0.0000E+00  0.0000E+00  0.0000E+00  0.0000E+00  0.0000E+00  0.0000E+00  0.0000E+00  0.0000E+00  0.0000E+00  0.0000E+00  0.0000E+00  0.0000E+00  0.0000E+00  0.0000E+00  0.0000E+00  0.0000E+00  0.0000E+00
    -14.164  0.0000E+00  0.0000E+00  0.0000E+00  0.0000E+00  0.0000E+00  0.0000E+00  0.0000E+00  0.0000E+00  0.0000E+00  0.0000E+00  0.0000E+00  0.0000E+00  0.0000E+00  0.0000E+00  0.0000E+00  0.0000E+00  0.0000E+00  0.0000E+00
    -13.977  0.0000E+00  0.0000E+00  0.0000E+00  0.0000E+00  0.0000E+00  0.0000E+00  0.0000E+00  0.0000E+00  0.0000E+00  0.0000E+00  0.0000E+00  0.0000E+00  0.0000E+00  0.0000E+00  0.0000E+00  0.0000E+00  0.0000E+00  0.0000E+00
    -13.790  0.0000E+00  0.0000E+00  0.0000E+00  0.0000E+00  0.0000E+00  0.0000E+00  0.0000E+00  0.0000E+00  0.0000E+00  0.0000E+00  0.0000E+00  0.0000E+00  0.0000E+00  0.0000E+00  0.0000E+00  0.0000E+00  0.0000E+00  0.0000E+00
    -13.604  0.3799E-07  0.3800E-07  0.2804E-10  0.2805E-10  0.2804E-10  0.2805E-10  0.2804E-10  0.2805E-10  0.4850E-14  0.4850E-14  0.4850E-14  0.4850E-14  0.1518E-12  0.1518E-12  0.4850E-14  0.4850E-14  0.1518E-12  0.1518E-12
    -13.417  0.1389E-02  0.1390E-02  0.9492E-05  0.9493E-05  0.9492E-05  0.9493E-05  0.9492E-05  0.9493E-05  0.2756E-08  0.2756E-08  0.2756E-08  0.2756E-08  0.1843E-06  0.1843E-06  0.2756E-08  0.2756E-08  0.1843E-06  0.1843E-06
    -13.230  0.7886E-02  0.7886E-02  0.1879E-03  0.1879E-03  0.1879E-03  0.1879E-03  0.1879E-03  0.1879E-03  0.1385E-06  0.1385E-06  0.1385E-06  0.1385E-06  0.1054E-04  0.1055E-04  0.1385E-06  0.1385E-06  0.1054E-04  0.1055E-04
    -13.043  0.1101E-01  0.1101E-01  0.5908E-03  0.5908E-03  0.5908E-03  0.5908E-03  0.5908E-03  0.5908E-03  0.7261E-06  0.7261E-06  0.7261E-06  0.7261E-06  0.6899E-04  0.6899E-04  0.7261E-06  0.7261E-06  0.6899E-04  0.6899E-04
    -12.857  0.1301E-01  0.1301E-01  0.1232E-02  0.1232E-02  0.1232E-02  0.1232E-02  0.1232E-02  0.1232E-02  0.2007E-05  0.2007E-05  0.2007E-05  0.2007E-05  0.2483E-03  0.2483E-03  0.2007E-05  0.2007E-05  0.2483E-03  0.2483E-03
    -12.670  0.1435E-01  0.1435E-01  0.2212E-02  0.2212E-02  0.2212E-02  0.2212E-02  0.2212E-02  0.2212E-02  0.4159E-05  0.4159E-05  0.4159E-05  0.4159E-05  0.6889E-03  0.6889E-03  0.4159E-05  0.4159E-05  0.6889E-03  0.6889E-03
    -12.483  0.1486E-01  0.1486E-01  0.3775E-02  0.3775E-02  0.3775E-02  0.3775E-02  0.3775E-02  0.3775E-02  0.7168E-05  0.7168E-05  0.7168E-05  0.7168E-05  0.1809E-02  0.1809E-02  0.7168E-05  0.7168E-05  0.1809E-02  0.1809E-02
    -12.297  0.1447E-01  0.1447E-01  0.6967E-02  0.6967E-02  0.6967E-02  0.6967E-02  0.6967E-02  0.6967E-02  0.1117E-04  0.1117E-04  0.1117E-04  0.1117E-04  0.5136E-02  0.5137E-02  0.1117E-04  0.1117E-04  0.5136E-02  0.5137E-02
    -12.110  0.1162E-01  0.1162E-01  0.1631E-01  0.1631E-01  0.1631E-01  0.1631E-01  0.1631E-01  0.1631E-01  0.1475E-04  0.1475E-04  0.1475E-04  0.1475E-04  0.2367E-01  0.2367E-01  0.1475E-04  0.1475E-04  0.2367E-01  0.2367E-01
    -11.923  0.1349E-02  0.1349E-02  0.4330E-02  0.4330E-02  0.4330E-02  0.4330E-02  0.4330E-02  0.4330E-02  0.2769E-05  0.2769E-05  0.2769E-05  0.2769E-05  0.1189E-01  0.1189E-01  0.2769E-05  0.2769E-05  0.1189E-01  0.1189E-01
    -11.737  0.2163E-08  0.2163E-08  0.2211E-07  0.2210E-07  0.2211E-07  0.2210E-07  0.2211E-07  0.2210E-07  0.6231E-11  0.6229E-11  0.6231E-11  0.6229E-11  0.7895E-07  0.7893E-07  0.6231E-11  0.6229E-11  0.7895E-07  0.7893E-07
    -11.550  0.0000E+00  0.0000E+00  0.0000E+00  0.0000E+00  0.0000E+00  0.0000E+00  0.0000E+00  0.0000E+00  0.0000E+00  0.0000E+00  0.0000E+00  0.0000E+00  0.0000E+00  0.0000E+00  0.0000E+00  0.0000E+00  0.0000E+00  0.0000E+00
    -11.363  0.0000E+00  0.0000E+00  0.0000E+00  0.0000E+00  0.0000E+00  0.0000E+00  0.0000E+00  0.0000E+00  0.0000E+00  0.0000E+00  0.0000E+00  0.0000E+00  0.0000E+00  0.0000E+00  0.0000E+00  0.0000E+00  0.0000E+00  0.0000E+00
    -11.177  0.0000E+00  0.0000E+00  0.0000E+00  0.0000E+00  0.0000E+00  0.0000E+00  0.0000E+00  0.0000E+00  0.0000E+00  0.0000E+00  0.0000E+00  0.0000E+00  0.0000E+00  0.0000E+00  0.0000E+00  0.0000E+00  0.0000E+00  0.0000E+00
    -10.990  0.0000E+00  0.0000E+00  0.0000E+00  0.0000E+00  0.0000E+00  0.0000E+00  0.0000E+00  0.0000E+00  0.0000E+00  0.0000E+00  0.0000E+00  0.0000E+00  0.0000E+00  0.0000E+00  0.0000E+00  0.0000E+00  0.0000E+00  0.0000E+00
    -10.803  0.0000E+00  0.0000E+00  0.0000E+00  0.0000E+00  0.0000E+00  0.0000E+00  0.0000E+00  0.0000E+00  0.0000E+00  0.0000E+00  0.0000E+00  0.0000E+00  0.0000E+00  0.0000E+00  0.0000E+00  0.0000E+00  0.0000E+00  0.0000E+00
    -10.617  0.0000E+00  0.0000E+00  0.0000E+00  0.0000E+00  0.0000E+00  0.0000E+00  0.0000E+00  0.0000E+00  0.0000E+00  0.0000E+00  0.0000E+00  0.0000E+00  0.0000E+00  0.0000E+00  0.0000E+00  0.0000E+00  0.0000E+00  0.0000E+00
    -10.430  0.0000E+00  0.0000E+00  0.0000E+00  0.0000E+00  0.0000E+00  0.0000E+00  0.0000E+00  0.0000E+00  0.0000E+00  0.0000E+00  0.0000E+00  0.0000E+00  0.0000E+00  0.0000E+00  0.0000E+00  0.0000E+00  0.0000E+00  0.0000E+00
    -10.243  0.0000E+00  0.0000E+00  0.0000E+00  0.0000E+00  0.0000E+00  0.0000E+00  0.0000E+00  0.0000E+00  0.0000E+00  0.0000E+00  0.0000E+00  0.0000E+00  0.0000E+00  0.0000E+00  0.0000E+00  0.0000E+00  0.0000E+00  0.0000E+00
    -10.057  0.0000E+00  0.0000E+00  0.0000E+00  0.0000E+00  0.0000E+00  0.0000E+00  0.0000E+00  0.0000E+00  0.0000E+00  0.0000E+00  0.0000E+00  0.0000E+00  0.0000E+00  0.0000E+00  0.0000E+00  0.0000E+00  0.0000E+00  0.0000E+00
     -9.870  0.0000E+00  0.0000E+00  0.0000E+00  0.0000E+00  0.0000E+00  0.0000E+00  0.0000E+00  0.0000E+00  0.0000E+00  0.0000E+00  0.0000E+00  0.0000E+00  0.0000E+00  0.0000E+00  0.0000E+00  0.0000E+00  0.0000E+00  0.0000E+00
     -9.683  0.0000E+00  0.0000E+00  0.0000E+00  0.0000E+00  0.0000E+00  0.0000E+00  0.0000E+00  0.0000E+00  0.0000E+00  0.0000E+00  0.0000E+00  0.0000E+00  0.0000E+00  0.0000E+00  0.0000E+00  0.0000E+00  0.0000E+00  0.0000E+00
     -9.497  0.0000E+00  0.0000E+00  0.0000E+00  0.0000E+00  0.0000E+00  0.0000E+00  0.0000E+00  0.0000E+00  0.0000E+00  0.0000E+00  0.0000E+00  0.0000E+00  0.0000E+00  0.0000E+00  0.0000E+00  0.0000E+00  0.0000E+00  0.0000E+00
     -9.310  0.0000E+00  0.0000E+00  0.0000E+00  0.0000E+00  0.0000E+00  0.0000E+00  0.0000E+00  0.0000E+00  0.0000E+00  0.0000E+00  0.0000E+00  0.0000E+00  0.0000E+00  0.0000E+00  0.0000E+00  0.0000E+00  0.0000E+00  0.0000E+00
     -9.123  0.0000E+00  0.0000E+00  0.0000E+00  0.0000E+00  0.0000E+00  0.0000E+00  0.0000E+00  0.0000E+00  0.0000E+00  0.0000E+00  0.0000E+00  0.0000E+00  0.0000E+00  0.0000E+00  0.0000E+00  0.0000E+00  0.0000E+00  0.0000E+00
     -8.937  0.0000E+00  0.0000E+00  0.0000E+00  0.0000E+00  0.0000E+00  0.0000E+00  0.0000E+00  0.0000E+00  0.0000E+00  0.0000E+00  0.0000E+00  0.0000E+00  0.0000E+00  0.0000E+00  0.0000E+00  0.0000E+00  0.0000E+00  0.0000E+00
     -8.750  0.0000E+00  0.0000E+00  0.0000E+00  0.0000E+00  0.0000E+00  0.0000E+00  0.0000E+00  0.0000E+00  0.0000E+00  0.0000E+00  0.0000E+00  0.0000E+00  0.0000E+00  0.0000E+00  0.0000E+00  0.0000E+00  0.0000E+00  0.0000E+00
     -8.563  0.0000E+00  0.0000E+00  0.0000E+00  0.0000E+00  0.0000E+00  0.0000E+00  0.0000E+00  0.0000E+00  0.0000E+00  0.0000E+00  0.0000E+00  0.0000E+00  0.0000E+00  0.0000E+00  0.0000E+00  0.0000E+00  0.0000E+00  0.0000E+00
     -8.376  0.0000E+00  0.0000E+00  0.0000E+00  0.0000E+00  0.0000E+00  0.0000E+00  0.0000E+00  0.0000E+00  0.0000E+00  0.0000E+00  0.0000E+00  0.0000E+00  0.0000E+00  0.0000E+00  0.0000E+00  0.0000E+00  0.0000E+00  0.0000E+00
     -8.190  0.0000E+00  0.0000E+00  0.0000E+00  0.0000E+00  0.0000E+00  0.0000E+00  0.0000E+00  0.0000E+00  0.0000E+00  0.0000E+00  0.0000E+00  0.0000E+00  0.0000E+00  0.0000E+00  0.0000E+00  0.0000E+00  0.0000E+00  0.0000E+00
     -8.003  0.0000E+00  0.0000E+00  0.0000E+00  0.0000E+00  0.0000E+00  0.0000E+00  0.0000E+00  0.0000E+00  0.0000E+00  0.0000E+00  0.0000E+00  0.0000E+00  0.0000E+00  0.0000E+00  0.0000E+00  0.0000E+00  0.0000E+00  0.0000E+00
     -7.816  0.0000E+00  0.0000E+00  0.0000E+00  0.0000E+00  0.0000E+00  0.0000E+00  0.0000E+00  0.0000E+00  0.0000E+00  0.0000E+00  0.0000E+00  0.0000E+00  0.0000E+00  0.0000E+00  0.0000E+00  0.0000E+00  0.0000E+00  0.0000E+00
     -7.630  0.0000E+00  0.0000E+00  0.0000E+00  0.0000E+00  0.0000E+00  0.0000E+00  0.0000E+00  0.0000E+00  0.0000E+00  0.0000E+00  0.0000E+00  0.0000E+00  0.0000E+00  0.0000E+00  0.0000E+00  0.0000E+00  0.0000E+00  0.0000E+00
     -7.443  0.0000E+00  0.0000E+00  0.0000E+00  0.0000E+00  0.0000E+00  0.0000E+00  0.0000E+00  0.0000E+00  0.0000E+00  0.0000E+00  0.0000E+00  0.0000E+00  0.0000E+00  0.0000E+00  0.0000E+00  0.0000E+00  0.0000E+00  0.0000E+00
     -7.256  0.0000E+00  0.0000E+00  0.0000E+00  0.0000E+00  0.0000E+00  0.0000E+00  0.0000E+00  0.0000E+00  0.0000E+00  0.0000E+00  0.0000E+00  0.0000E+00  0.0000E+00  0.0000E+00  0.0000E+00  0.0000E+00  0.0000E+00  0.0000E+00
     -7.070  0.0000E+00  0.0000E+00  0.0000E+00  0.0000E+00  0.0000E+00  0.0000E+00  0.0000E+00  0.0000E+00  0.0000E+00  0.0000E+00  0.0000E+00  0.0000E+00  0.0000E+00  0.0000E+00  0.0000E+00  0.0000E+00  0.0000E+00  0.0000E+00
     -6.883  0.0000E+00  0.0000E+00  0.0000E+00  0.0000E+00  0.0000E+00  0.0000E+00  0.0000E+00  0.0000E+00  0.0000E+00  0.0000E+00  0.0000E+00  0.0000E+00  0.0000E+00  0.0000E+00  0.0000E+00  0.0000E+00  0.0000E+00  0.0000E+00
     -6.696  0.0000E+00  0.0000E+00  0.0000E+00  0.0000E+00  0.0000E+00  0.0000E+00  0.0000E+00  0.0000E+00  0.0000E+00  0.0000E+00  0.0000E+00  0.0000E+00  0.0000E+00  0.0000E+00  0.0000E+00  0.0000E+00  0.0000E+00  0.0000E+00