unknown system                          
            1
     0.000000    2.118487    2.118487
     2.118487    0.000000    2.118487
     2.118487    2.118487    0.000000
   Cu   O 
     1     1
Direct configuration=     1
   0.00000000  0.00000000  0.00000000
   0.50000000  0.50000000  0.50000000
unknown system                          
            1
     0.000000    2.088173    2.088173
     2.088173    0.000000    2.088173
     2.088173    2.088173   -0.000000
   Cu   O 
     1     1
Direct configuration=     2
  -0.00000000 -0.00000000  0.00000000
   0.50000000  0.50000000  0.50000000
unknown system                          
            1
     0.000000    2.094839    2.094839
     2.094839    0.000000    2.094839
     2.094839    2.094839   -0.000000
   Cu   O 
     1     1
Direct configuration=     3
  -0.00000000 -0.00000000  0.00000000
   0.50000000  0.50000000  0.50000000
unknown system                          
            1
     0.000000    2.110776    2.110776
     2.110776    0.000000    2.110776
     2.110776    2.110776   -0.000000
   Cu   O 
     1     1
Direct configuration=     4
  -0.00000000 -0.00000000  0.00000000
   0.50000000  0.50000000  0.50000000
