unknown system                          
            1
    -1.448631    1.448631    1.448631
     1.448631   -1.448631    1.448631
     1.448631    1.448631   -1.448631
   Fe
     1
Direct configuration=     1
   0.00000000  0.00000000  0.00000000
