   2   2   1   0
  0.9968555E+01  0.3043634E-09  0.3043634E-09  0.3043634E-09  0.0000000E+00
   1.0000000000000000E-004
  CAR 
 unknown system                          
     37.84416617    -16.21717733  301      4.95585455      1.00000000
    -16.217  0.0000E+00  0.0000E+00  0.0000E+00  0.0000E+00
    -16.037  0.0000E+00  0.0000E+00  0.0000E+00  0.0000E+00
    -15.857  0.0000E+00  0.0000E+00  0.0000E+00  0.0000E+00
    -15.677  0.0000E+00  0.0000E+00  0.0000E+00  0.0000E+00
    -15.496  0.0000E+00  0.0000E+00  0.0000E+00  0.0000E+00
    -15.316  0.0000E+00  0.0000E+00  0.0000E+00  0.0000E+00
    -15.136  0.0000E+00  0.0000E+00  0.0000E+00  0.0000E+00
    -14.956  0.0000E+00  0.0000E+00  0.0000E+00  0.0000E+00
    -14.776  0.0000E+00  0.0000E+00  0.0000E+00  0.0000E+00
    -14.595  0.0000E+00  0.0000E+00  0.0000E+00  0.0000E+00
    -14.415  0.0000E+00  0.0000E+00  0.0000E+00  0.0000E+00
    -14.235  0.0000E+00  0.0000E+00  0.0000E+00  0.0000E+00
    -14.055  0.0000E+00  0.0000E+00  0.0000E+00  0.0000E+00
    -13.875  0.0000E+00  0.0000E+00  0.0000E+00  0.0000E+00
    -13.694  0.6963E-01  0.6936E-01  0.2399E-02  0.2376E-02
    -13.514  0.1908E+00  0.1906E+00  0.2332E-01  0.2326E-01
    -13.334  0.2713E+00  0.2711E+00  0.5987E-01  0.5978E-01
    -13.154  0.3701E+00  0.3698E+00  0.1146E+00  0.1145E+00
    -12.973  0.5504E+00  0.5499E+00  0.1957E+00  0.1955E+00
    -12.793  0.9763E+00  0.9746E+00  0.3252E+00  0.3248E+00
    -12.613  0.3607E+01  0.3604E+01  0.6217E+00  0.6206E+00
    -12.433  0.1601E+01  0.1601E+01  0.1000E+01  0.1000E+01
    -12.253  0.0000E+00  0.0000E+00  0.1000E+01  0.1000E+01
    -12.072  0.0000E+00  0.0000E+00  0.1000E+01  0.1000E+01
    -11.892  0.0000E+00  0.0000E+00  0.1000E+01  0.1000E+01
    -11.712  0.0000E+00  0.0000E+00  0.1000E+01  0.1000E+01
    -11.532  0.0000E+00  0.0000E+00  0.1000E+01  0.1000E+01
    -11.352  0.0000E+00  0.0000E+00  0.1000E+01  0.1000E+01
    -11.171  0.0000E+00  0.0000E+00  0.1000E+01  0.1000E+01
    -10.991  0.0000E+00  0.0000E+00  0.1000E+01  0.1000E+01
    -10.811  0.0000E+00  0.0000E+00  0.1000E+01  0.1000E+01
    -10.631  0.0000E+00  0.0000E+00  0.1000E+01  0.1000E+01
    -10.451  0.0000E+00  0.0000E+00  0.1000E+01  0.1000E+01
    -10.270  0.0000E+00  0.0000E+00  0.1000E+01  0.1000E+01
    -10.090  0.0000E+00  0.0000E+00  0.1000E+01  0.1000E+01
     -9.910  0.0000E+00  0.0000E+00  0.1000E+01  0.1000E+01
     -9.730  0.0000E+00  0.0000E+00  0.1000E+01  0.1000E+01
     -9.550  0.0000E+00  0.0000E+00  0.1000E+01  0.1000E+01
     -9.369  0.0000E+00  0.0000E+00  0.1000E+01  0.1000E+01
     -9.189  0.0000E+00  0.0000E+00  0.1000E+01  0.1000E+01
     -9.009  0.0000E+00  0.0000E+00  0.1000E+01  0.1000E+01
     -8.829  0.0000E+00  0.0000E+00  0.1000E+01  0.1000E+01
     -8.649  0.0000E+00  0.0000E+00  0.1000E+01  0.1000E+01
     -8.468  0.0000E+00  0.0000E+00  0.1000E+01  0.1000E+01
     -8.288  0.0000E+00  0.0000E+00  0.1000E+01  0.1000E+01
     -8.108  0.0000E+00  0.0000E+00  0.1000E+01  0.1000E+01
     -7.928  0.0000E+00  0.0000E+00  0.1000E+01  0.1000E+01
     -7.748  0.0000E+00  0.0000E+00  0.1000E+01  0.1000E+01
     -7.567  0.0000E+00  0.0000E+00  0.1000E+01  0.1000E+01
     -7.387  0.0000E+00  0.0000E+00  0.1000E+01  0.1000E+01
     -7.207  0.0000E+00  0.0000E+00  0.1000E+01  0.1000E+01
     -7.027  0.0000E+00  0.0000E+00  0.1000E+01  0.1000E+01
     -6.847  0.0000E+00  0.0000E+00  0.1000E+01  0.1000E+01
     -6.666  0.0000E+00  0.0000E+00  0.1000E+01  0.1000E+01
     -6.486  0.0000E+00  0.0000E+00  0.1000E+01  0.1000E+01
     -6.306  0.0000E+00  0.0000E+00  0.1000E+01  0.1000E+01
     -6.126  0.0000E+00  0.0000E+00  0.1000E+01  0.1000E+01
     -5.946  0.0000E+00  0.0000E+00  0.1000E+01  0.1000E+01
     -5.765  0.0000E+00  0.0000E+00  0.1000E+01  0.1000E+01
     -5.585  0.0000E+00  0.0000E+00  0.1000E+01  0.1000E+01
     -5.405  0.0000E+00  0.0000E+00  0.1000E+01  0.1000E+01
     -5.225  0.0000E+00  0.0000E+00  0.1000E+01  0.1000E+01
     -5.044  0.0000E+00  0.0000E+00  0.1000E+01  0.1000E+01
     -4.864  0.0000E+00  0.0000E+00  0.1000E+01  0.1000E+01
     -4.684  0.0000E+00  0.0000E+00  0.1000E+01  0.1000E+01
     -4.504  0.0000E+00  0.0000E+00  0.1000E+01  0.1000E+01
     -4.324  0.0000E+00  0.0000E+00  0.1000E+01  0.1000E+01
     -4.143  0.0000E+00  0.0000E+00  0.1000E+01  0.1000E+01
     -3.963  0.0000E+00  0.0000E+00  0.1000E+01  0.1000E+01
     -3.783  0.0000E+00  0.0000E+00  0.1000E+01  0.1000E+01
     -3.603  0.0000E+00  0.0000E+00  0.1000E+01  0.1000E+01
     -3.423  0.0000E+00  0.0000E+00  0.1000E+01  0.1000E+01
     -3.242  0.0000E+00  0.0000E+00  0.1000E+01  0.1000E+01
     -3.062  0.0000E+00  0.0000E+00  0.1000E+01  0.1000E+01
     -2.882  0.0000E+00  0.0000E+00  0.1000E+01  0.1000E+01
     -2.702  0.0000E+00  0.0000E+00  0.1000E+01  0.1000E+01
     -2.522  0.0000E+00  0.0000E+00  0.1000E+01  0.1000E+01
     -2.341  0.0000E+00  0.0000E+00  0.1000E+01  0.1000E+01
     -2.161  0.0000E+00  0.0000E+00  0.1000E+01  0.1000E+01
     -1.981  0.0000E+00  0.0000E+00  0.1000E+01  0.1000E+01
     -1.801  0.0000E+00  0.0000E+00  0.1000E+01  0.1000E+01
     -1.621  0.1162E+00  0.1160E+00  0.1007E+01  0.1007E+01
     -1.440  0.2042E+00  0.2041E+00  0.1036E+01  0.1036E+01
     -1.260  0.2986E+00  0.2985E+00  0.1081E+01  0.1081E+01
     -1.080  0.4227E+00  0.4224E+00  0.1145E+01  0.1145E+01
     -0.900  0.7020E+00  0.7013E+00  0.1242E+01  0.1242E+01
     -0.720  0.9059E+00  0.9055E+00  0.1391E+01  0.1391E+01
     -0.539  0.1329E+01  0.1335E+01  0.1580E+01  0.1580E+01
     -0.359  0.1095E+01  0.1098E+01  0.1746E+01  0.1746E+01
     -0.179  0.5311E+00  0.5338E+00  0.1866E+01  0.1866E+01
      0.001  0.1818E+00  0.1813E+00  0.1910E+01  0.1910E+01
      0.181  0.1136E+01  0.1133E+01  0.2001E+01  0.2000E+01
      0.362  0.2229E+01  0.2230E+01  0.2286E+01  0.2285E+01
      0.542  0.3983E+01  0.3976E+01  0.2678E+01  0.2676E+01
      0.722  0.1793E+01  0.1795E+01  0.3090E+01  0.3089E+01
      0.902  0.1266E+01  0.1267E+01  0.3344E+01  0.3344E+01
      1.082  0.9906E+00  0.9913E+00  0.3546E+01  0.3546E+01
      1.263  0.8008E+00  0.8012E+00  0.3705E+01  0.3705E+01
      1.443  0.6080E+00  0.6086E+00  0.3835E+01  0.3835E+01
      1.623  0.4179E+00  0.4185E+00  0.3926E+01  0.3926E+01
      1.803  0.2305E+00  0.2307E+00  0.3978E+01  0.3978E+01
      1.983  0.5624E+00  0.5605E+00  0.4038E+01  0.4038E+01
      2.164  0.1415E+01  0.1414E+01  0.4201E+01  0.4200E+01
      2.344  0.2234E+01  0.2232E+01  0.4467E+01  0.4467E+01
      2.524  0.5328E+01  0.5322E+01  0.4929E+01  0.4928E+01
      2.704  0.7656E+01  0.7624E+01  0.5818E+01  0.5817E+01
      2.884  0.1980E+01  0.2027E+01  0.6104E+01  0.6103E+01
      3.065  0.6332E+01  0.6363E+01  0.6630E+01  0.6629E+01
      3.245  0.1588E+01  0.1588E+01  0.6987E+01  0.6986E+01
      3.425  0.9420E+00  0.9412E+00  0.7150E+01  0.7149E+01
      3.605  0.1404E+01  0.1409E+01  0.7357E+01  0.7356E+01
      3.786  0.8710E+00  0.8716E+00  0.7547E+01  0.7546E+01
      3.966  0.8122E+00  0.8123E+00  0.7697E+01  0.7696E+01
      4.146  0.7937E+00  0.7937E+00  0.7841E+01  0.7840E+01
      4.326  0.9060E+00  0.9037E+00  0.7988E+01  0.7987E+01
      4.506  0.8430E+00  0.8431E+00  0.8142E+01  0.8141E+01
      4.687  0.7963E+00  0.7964E+00  0.8288E+01  0.8288E+01
      4.867  0.7884E+00  0.7884E+00  0.8431E+01  0.8430E+01
      5.047  0.7655E+00  0.7655E+00  0.8570E+01  0.8570E+01
      5.227  0.7736E+00  0.7730E+00  0.8708E+01  0.8707E+01
      5.407  0.7447E+00  0.7453E+00  0.8848E+01  0.8848E+01
      5.588  0.5284E+00  0.5362E+00  0.8984E+01  0.8984E+01
      5.768  0.4518E-02  0.4518E-02  0.9000E+01  0.9000E+01
      5.948  0.0000E+00  0.0000E+00  0.9000E+01  0.9000E+01
      6.128  0.0000E+00  0.0000E+00  0.9000E+01  0.9000E+01
      6.308  0.0000E+00  0.0000E+00  0.9000E+01  0.9000E+01
      6.489  0.0000E+00  0.0000E+00  0.9000E+01  0.9000E+01
      6.669  0.0000E+00  0.0000E+00  0.9000E+01  0.9000E+01
      6.849  0.4965E-03  0.4947E-03  0.9000E+01  0.9000E+01
      7.029  0.5954E-02  0.5947E-02  0.9001E+01  0.9001E+01
      7.209  0.7930E-02  0.7927E-02  0.9002E+01  0.9002E+01
      7.390  0.1087E-01  0.1086E-01  0.9003E+01  0.9003E+01
      7.570  0.1393E-01  0.1393E-01  0.9006E+01  0.9006E+01
      7.750  0.1674E-01  0.1673E-01  0.9008E+01  0.9008E+01
      7.930  0.1985E-01  0.1985E-01  0.9012E+01  0.9012E+01
      8.110  0.2314E-01  0.2313E-01  0.9016E+01  0.9016E+01
      8.291  0.2685E-01  0.2684E-01  0.9020E+01  0.9020E+01
      8.471  0.3078E-01  0.3078E-01  0.9025E+01  0.9025E+01
      8.651  0.3489E-01  0.3488E-01  0.9031E+01  0.9031E+01
      8.831  0.3922E-01  0.3921E-01  0.9038E+01  0.9038E+01
      9.011  0.4438E-01  0.4437E-01  0.9045E+01  0.9045E+01
      9.192  0.4988E-01  0.4987E-01  0.9054E+01  0.9054E+01
      9.372  0.5574E-01  0.5573E-01  0.9063E+01  0.9063E+01
      9.552  0.6196E-01  0.6195E-01  0.9074E+01  0.9074E+01
      9.732  0.6934E-01  0.6933E-01  0.9086E+01  0.9086E+01
      9.912  0.7754E-01  0.7753E-01  0.9099E+01  0.9099E+01
     10.093  0.8660E-01  0.8659E-01  0.9114E+01  0.9114E+01
     10.273  0.9656E-01  0.9655E-01  0.9130E+01  0.9130E+01
     10.453  0.1083E+00  0.1083E+00  0.9149E+01  0.9149E+01
     10.633  0.1225E+00  0.1225E+00  0.9169E+01  0.9169E+01
     10.813  0.1396E+00  0.1396E+00  0.9193E+01  0.9193E+01
     10.994  0.1606E+00  0.1606E+00  0.9220E+01  0.9220E+01
     11.174  0.2238E+00  0.2237E+00  0.9253E+01  0.9253E+01
     11.354  0.3538E+00  0.3537E+00  0.9304E+01  0.9304E+01
     11.534  0.3559E+00  0.3559E+00  0.9367E+01  0.9367E+01
     11.715  0.3383E+00  0.3383E+00  0.9430E+01  0.9430E+01
     11.895  0.3340E+00  0.3340E+00  0.9491E+01  0.9490E+01
     12.075  0.3232E+00  0.3232E+00  0.9550E+01  0.9550E+01
     12.255  0.3164E+00  0.3164E+00  0.9608E+01  0.9608E+01
     12.435  0.3075E+00  0.3075E+00  0.9664E+01  0.9664E+01
     12.616  0.2935E+00  0.2935E+00  0.9718E+01  0.9718E+01
     12.796  0.2855E+00  0.2855E+00  0.9770E+01  0.9770E+01
     12.976  0.2852E+00  0.2852E+00  0.9822E+01  0.9821E+01
     13.156  0.3029E+00  0.3029E+00  0.9874E+01  0.9874E+01
     13.336  0.3014E+00  0.3015E+00  0.9930E+01  0.9930E+01
     13.517  0.1860E+00  0.1861E+00  0.9975E+01  0.9975E+01
     13.697  0.6180E-01  0.6199E-01  0.9998E+01  0.9998E+01
     13.877  0.7122E-02  0.7082E-02  0.1000E+02  0.1000E+02
     14.057  0.1429E+00  0.1428E+00  0.1001E+02  0.1001E+02
     14.237  0.2650E+00  0.2649E+00  0.1005E+02  0.1005E+02
     14.418  0.3373E+00  0.3373E+00  0.1010E+02  0.1010E+02
     14.598  0.4060E+00  0.4061E+00  0.1017E+02  0.1017E+02
     14.778  0.3757E+00  0.3758E+00  0.1024E+02  0.1024E+02
     14.958  0.3418E+00  0.3418E+00  0.1031E+02  0.1031E+02
     15.138  0.3666E+00  0.3666E+00  0.1037E+02  0.1037E+02
     15.319  0.3688E+00  0.3688E+00  0.1044E+02  0.1044E+02
     15.499  0.4493E+00  0.4492E+00  0.1051E+02  0.1051E+02
     15.679  0.5904E+00  0.5898E+00  0.1060E+02  0.1060E+02
     15.859  0.6766E+00  0.6764E+00  0.1071E+02  0.1071E+02
     16.039  0.6597E+00  0.6598E+00  0.1082E+02  0.1082E+02
     16.220  0.5873E+00  0.5873E+00  0.1092E+02  0.1092E+02
     16.400  0.5679E+00  0.5679E+00  0.1103E+02  0.1103E+02
     16.580  0.5213E+00  0.5213E+00  0.1113E+02  0.1113E+02
     16.760  0.5030E+00  0.5030E+00  0.1122E+02  0.1122E+02
     16.940  0.4689E+00  0.4689E+00  0.1131E+02  0.1131E+02
     17.121  0.3865E+00  0.3865E+00  0.1138E+02  0.1138E+02
     17.301  0.3326E+00  0.3326E+00  0.1145E+02  0.1145E+02
     17.481  0.2973E+00  0.2973E+00  0.1150E+02  0.1150E+02
     17.661  0.2637E+00  0.2638E+00  0.1155E+02  0.1155E+02
     17.841  0.2440E+00  0.2440E+00  0.1160E+02  0.1160E+02
     18.022  0.2210E+00  0.2210E+00  0.1164E+02  0.1164E+02
     18.202  0.1995E+00  0.1995E+00  0.1168E+02  0.1168E+02
     18.382  0.1861E+00  0.1861E+00  0.1171E+02  0.1171E+02
     18.562  0.1973E+00  0.1973E+00  0.1175E+02  0.1175E+02
     18.742  0.2010E+00  0.2010E+00  0.1178E+02  0.1178E+02
     18.923  0.2096E+00  0.2096E+00  0.1182E+02  0.1182E+02
     19.103  0.2116E+00  0.2116E+00  0.1186E+02  0.1186E+02
     19.283  0.3233E+00  0.3232E+00  0.1191E+02  0.1191E+02
     19.463  0.4585E+00  0.4584E+00  0.1197E+02  0.1197E+02
     19.644  0.7651E+00  0.7650E+00  0.1208E+02  0.1208E+02
     19.824  0.7145E+00  0.7145E+00  0.1221E+02  0.1221E+02
     20.004  0.7110E+00  0.7110E+00  0.1234E+02  0.1234E+02
     20.184  0.5517E+00  0.5517E+00  0.1245E+02  0.1245E+02
     20.364  0.4665E+00  0.4665E+00  0.1254E+02  0.1254E+02
     20.545  0.4208E+00  0.4208E+00  0.1262E+02  0.1262E+02
     20.725  0.3823E+00  0.3823E+00  0.1270E+02  0.1270E+02
     20.905  0.3603E+00  0.3603E+00  0.1276E+02  0.1276E+02
     21.085  0.3416E+00  0.3416E+00  0.1283E+02  0.1283E+02
     21.265  0.2111E+00  0.2111E+00  0.1287E+02  0.1287E+02
     21.446  0.1942E+00  0.1942E+00  0.1291E+02  0.1291E+02
     21.626  0.1919E+00  0.1919E+00  0.1294E+02  0.1294E+02
     21.806  0.1953E+00  0.1953E+00  0.1298E+02  0.1298E+02
     21.986  0.1832E+00  0.1832E+00  0.1301E+02  0.1301E+02
     22.166  0.1720E+00  0.1720E+00  0.1304E+02  0.1304E+02
     22.347  0.1725E+00  0.1725E+00  0.1307E+02  0.1307E+02
     22.527  0.1789E+00  0.1789E+00  0.1311E+02  0.1311E+02
     22.707  0.1842E+00  0.1842E+00  0.1314E+02  0.1314E+02
     22.887  0.1831E+00  0.1831E+00  0.1317E+02  0.1317E+02
     23.067  0.1875E+00  0.1875E+00  0.1320E+02  0.1320E+02
     23.248  0.1868E+00  0.1868E+00  0.1324E+02  0.1324E+02
     23.428  0.1663E+00  0.1663E+00  0.1327E+02  0.1327E+02
     23.608  0.1737E+00  0.1737E+00  0.1330E+02  0.1330E+02
     23.788  0.1862E+00  0.1862E+00  0.1333E+02  0.1333E+02
     23.968  0.1948E+00  0.1948E+00  0.1337E+02  0.1337E+02
     24.149  0.2049E+00  0.2049E+00  0.1340E+02  0.1340E+02
     24.329  0.2177E+00  0.2177E+00  0.1344E+02  0.1344E+02
     24.509  0.2281E+00  0.2281E+00  0.1348E+02  0.1348E+02
     24.689  0.2360E+00  0.2360E+00  0.1352E+02  0.1352E+02
     24.869  0.2152E+00  0.2152E+00  0.1356E+02  0.1356E+02
     25.050  0.2307E+00  0.2307E+00  0.1360E+02  0.1360E+02
     25.230  0.2472E+00  0.2472E+00  0.1365E+02  0.1365E+02
     25.410  0.2772E+00  0.2772E+00  0.1369E+02  0.1369E+02
     25.590  0.3094E+00  0.3094E+00  0.1375E+02  0.1375E+02
     25.770  0.3413E+00  0.3413E+00  0.1381E+02  0.1381E+02
     25.951  0.3562E+00  0.3562E+00  0.1387E+02  0.1387E+02
     26.131  0.3003E+00  0.3003E+00  0.1393E+02  0.1393E+02
     26.311  0.2416E+00  0.2416E+00  0.1398E+02  0.1398E+02
     26.491  0.2187E+00  0.2187E+00  0.1402E+02  0.1402E+02
     26.671  0.2021E+00  0.2021E+00  0.1406E+02  0.1406E+02
     26.852  0.1454E+00  0.1455E+00  0.1409E+02  0.1409E+02
     27.032  0.1614E+00  0.1614E+00  0.1412E+02  0.1412E+02
     27.212  0.2894E+00  0.2894E+00  0.1416E+02  0.1416E+02
     27.392  0.3216E+00  0.3215E+00  0.1421E+02  0.1421E+02
     27.573  0.4054E+00  0.4055E+00  0.1428E+02  0.1428E+02
     27.753  0.3846E+00  0.3846E+00  0.1435E+02  0.1435E+02
     27.933  0.4135E+00  0.4135E+00  0.1442E+02  0.1442E+02
     28.113  0.3991E+00  0.3991E+00  0.1449E+02  0.1449E+02
     28.293  0.3606E+00  0.3606E+00  0.1456E+02  0.1456E+02
     28.474  0.3667E+00  0.3667E+00  0.1463E+02  0.1463E+02
     28.654  0.3582E+00  0.3582E+00  0.1469E+02  0.1469E+02
     28.834  0.3411E+00  0.3411E+00  0.1475E+02  0.1475E+02
     29.014  0.3266E+00  0.3267E+00  0.1481E+02  0.1481E+02
     29.194  0.3144E+00  0.3144E+00  0.1487E+02  0.1487E+02
     29.375  0.3135E+00  0.3130E+00  0.1493E+02  0.1493E+02
     29.555  0.3148E+00  0.3148E+00  0.1499E+02  0.1499E+02
     29.735  0.2892E+00  0.2892E+00  0.1505E+02  0.1505E+02
     29.915  0.2628E+00  0.2629E+00  0.1510E+02  0.1510E+02
     30.095  0.2429E+00  0.2429E+00  0.1514E+02  0.1514E+02
     30.276  0.2274E+00  0.2274E+00  0.1518E+02  0.1518E+02
     30.456  0.2164E+00  0.2164E+00  0.1522E+02  0.1522E+02
     30.636  0.2099E+00  0.2099E+00  0.1526E+02  0.1526E+02
     30.816  0.2034E+00  0.2034E+00  0.1530E+02  0.1530E+02
     30.996  0.1960E+00  0.1961E+00  0.1534E+02  0.1534E+02
     31.177  0.1880E+00  0.1881E+00  0.1537E+02  0.1537E+02
     31.357  0.1825E+00  0.1827E+00  0.1540E+02  0.1540E+02
     31.537  0.1761E+00  0.1763E+00  0.1544E+02  0.1544E+02
     31.717  0.1722E+00  0.1725E+00  0.1547E+02  0.1547E+02
     31.897  0.2096E+00  0.2099E+00  0.1550E+02  0.1550E+02
     32.078  0.2525E+00  0.2528E+00  0.1554E+02  0.1554E+02
     32.258  0.2567E+00  0.2576E+00  0.1559E+02  0.1559E+02
     32.438  0.1225E+00  0.1231E+00  0.1562E+02  0.1562E+02
     32.618  0.1084E+00  0.1088E+00  0.1564E+02  0.1564E+02
     32.798  0.1975E+00  0.1975E+00  0.1567E+02  0.1567E+02
     32.979  0.4138E+00  0.4199E+00  0.1572E+02  0.1573E+02
     33.159  0.3735E+00  0.3595E+00  0.1580E+02  0.1580E+02
     33.339  0.2739E+00  0.2740E+00  0.1586E+02  0.1586E+02
     33.519  0.2061E+00  0.2060E+00  0.1590E+02  0.1590E+02
     33.699  0.1877E+00  0.1876E+00  0.1593E+02  0.1593E+02
     33.880  0.1641E+00  0.1644E+00  0.1597E+02  0.1597E+02
     34.060  0.7271E-01  0.7290E-01  0.1599E+02  0.1599E+02
     34.240  0.1170E-01  0.1171E-01  0.1599E+02  0.1599E+02
     34.420  0.9266E-02  0.9267E-02  0.1599E+02  0.1599E+02
     34.600  0.7821E-02  0.7822E-02  0.1600E+02  0.1600E+02
     34.781  0.6399E-02  0.6400E-02  0.1600E+02  0.1600E+02
     34.961  0.4999E-02  0.5001E-02  0.1600E+02  0.1600E+02
     35.141  0.3623E-02  0.3624E-02  0.1600E+02  0.1600E+02
     35.321  0.5914E-02  0.5899E-02  0.1600E+02  0.1600E+02
     35.502  0.0000E+00  0.0000E+00  0.1600E+02  0.1600E+02
     35.682  0.0000E+00  0.0000E+00  0.1600E+02  0.1600E+02
     35.862  0.0000E+00  0.0000E+00  0.1600E+02  0.1600E+02
     36.042  0.0000E+00  0.0000E+00  0.1600E+02  0.1600E+02
     36.222  0.0000E+00  0.0000E+00  0.1600E+02  0.1600E+02
     36.403  0.0000E+00  0.0000E+00  0.1600E+02  0.1600E+02
     36.583  0.0000E+00  0.0000E+00  0.1600E+02  0.1600E+02
     36.763  0.0000E+00  0.0000E+00  0.1600E+02  0.1600E+02
     36.943  0.0000E+00  0.0000E+00  0.1600E+02  0.1600E+02
     37.123  0.0000E+00  0.0000E+00  0.1600E+02  0.1600E+02
     37.304  0.0000E+00  0.0000E+00  0.1600E+02  0.1600E+02
     37.484  0.0000E+00  0.0000E+00  0.1600E+02  0.1600E+02
     37.664  0.0000E+00  0.0000E+00  0.1600E+02  0.1600E+02
     37.844  0.0000E+00  0.0000E+00  0.1600E+02  0.1600E+02
     37.84416617    -16.21717733  301      4.95585455      1.00000000
    -16.217  0.0000E+00  0.0000E+00  0.0000E+00  0.0000E+00  0.0000E+00  0.0000E+00  0.0000E+00  0.0000E+00  0.0000E+00  0.0000E+00  0.0000E+00  0.0000E+00  0.0000E+00  0.0000E+00  0.0000E+00  0.0000E+00  0.0000E+00  0.0000E+00
    -16.037  0.0000E+00  0.0000E+00  0.0000E+00  0.0000E+00  0.0000E+00  0.0000E+00  0.0000E+00  0.0000E+00  0.0000E+00  0.0000E+00  0.0000E+00  0.0000E+00  0.0000E+00  0.0000E+00  0.0000E+00  0.0000E+00  0.0000E+00  0.0000E+00
    -15.857  0.0000E+00  0.0000E+00  0.0000E+00  0.0000E+00  0.0000E+00  0.0000E+00  0.0000E+00  0.0000E+00  0.0000E+00  0.0000E+00  0.0000E+00  0.0000E+00  0.0000E+00  0.0000E+00  0.0000E+00  0.0000E+00  0.0000E+00  0.0000E+00
    -15.677  0.0000E+00  0.0000E+00  0.0000E+00  0.0000E+00  0.0000E+00  0.0000E+00  0.0000E+00  0.0000E+00  0.0000E+00  0.0000E+00  0.0000E+00  0.0000E+00  0.0000E+00  0.0000E+00  0.0000E+00  0.0000E+00  0.0000E+00  0.0000E+00
    -15.496  0.0000E+00  0.0000E+00  0.0000E+00  0.0000E+00  0.0000E+00  0.0000E+00  0.0000E+00  0.0000E+00  0.0000E+00  0.0000E+00  0.0000E+00  0.0000E+00  0.0000E+00  0.0000E+00  0.0000E+00  0.0000E+00  0.0000E+00  0.0000E+00
    -15.316  0.0000E+00  0.0000E+00  0.0000E+00  0.0000E+00  0.0000E+00  0.0000E+00  0.0000E+00  0.0000E+00  0.0000E+00  0.0000E+00  0.0000E+00  0.0000E+00  0.0000E+00  0.0000E+00  0.0000E+00  0.0000E+00  0.0000E+00  0.0000E+00
    -15.136  0.0000E+00  0.0000E+00  0.0000E+00  0.0000E+00  0.0000E+00  0.0000E+00  0.0000E+00  0.0000E+00  0.0000E+00  0.0000E+00  0.0000E+00  0.0000E+00  0.0000E+00  0.0000E+00  0.0000E+00  0.0000E+00  0.0000E+00  0.0000E+00
    -14.956  0.0000E+00  0.0000E+00  0.0000E+00  0.0000E+00  0.0000E+00  0.0000E+00  0.0000E+00  0.0000E+00  0.0000E+00  0.0000E+00  0.0000E+00  0.0000E+00  0.0000E+00  0.0000E+00  0.0000E+00  0.0000E+00  0.0000E+00  0.0000E+00
    -14.776  0.0000E+00  0.0000E+00  0.0000E+00  0.0000E+00  0.0000E+00  0.0000E+00  0.0000E+00  0.0000E+00  0.0000E+00  0.0000E+00  0.0000E+00  0.0000E+00  0.0000E+00  0.0000E+00  0.0000E+00  0.0000E+00  0.0000E+00  0.0000E+00
    -14.595  0.0000E+00  0.0000E+00  0.0000E+00  0.0000E+00  0.0000E+00  0.0000E+00  0.0000E+00  0.0000E+00  0.0000E+00  0.0000E+00  0.0000E+00  0.0000E+00  0.0000E+00  0.0000E+00  0.0000E+00  0.0000E+00  0.0000E+00  0.0000E+00
    -14.415  0.0000E+00  0.0000E+00  0.0000E+00  0.0000E+00  0.0000E+00  0.0000E+00  0.0000E+00  0.0000E+00  0.0000E+00  0.0000E+00  0.0000E+00  0.0000E+00  0.0000E+00  0.0000E+00  0.0000E+00  0.0000E+00  0.0000E+00  0.0000E+00
    -14.235  0.0000E+00  0.0000E+00  0.0000E+00  0.0000E+00  0.0000E+00  0.0000E+00  0.0000E+00  0.0000E+00  0.0000E+00  0.0000E+00  0.0000E+00  0.0000E+00  0.0000E+00  0.0000E+00  0.0000E+00  0.0000E+00  0.0000E+00  0.0000E+00
    -14.055  0.0000E+00  0.0000E+00  0.0000E+00  0.0000E+00  0.0000E+00  0.0000E+00  0.0000E+00  0.0000E+00  0.0000E+00  0.0000E+00  0.0000E+00  0.0000E+00  0.0000E+00  0.0000E+00  0.0000E+00  0.0000E+00  0.0000E+00  0.0000E+00
    -13.875  0.0000E+00  0.0000E+00  0.0000E+00  0.0000E+00  0.0000E+00  0.0000E+00  0.0000E+00  0.0000E+00  0.0000E+00  0.0000E+00  0.0000E+00  0.0000E+00  0.0000E+00  0.0000E+00  0.0000E+00  0.0000E+00  0.0000E+00  0.0000E+00
    -13.694  0.4874E-02  0.4857E-02  0.4804E-04  0.4769E-04  0.4804E-04  0.4769E-04  0.4804E-04  0.4769E-04  0.1527E-07  0.1513E-07  0.1527E-07  0.1513E-07  0.1369E-05  0.1355E-05  0.1527E-07  0.1513E-07  0.1369E-05  0.1355E-05
    -13.514  0.1143E-01  0.1143E-01  0.4223E-03  0.4213E-03  0.4223E-03  0.4213E-03  0.4223E-03  0.4213E-03  0.3648E-06  0.3636E-06  0.3648E-06  0.3636E-06  0.3726E-04  0.3712E-04  0.3648E-06  0.3636E-06  0.3726E-04  0.3712E-04
    -13.334  0.1309E-01  0.1309E-01  0.1026E-02  0.1025E-02  0.1026E-02  0.1025E-02  0.1026E-02  0.1025E-02  0.1350E-05  0.1348E-05  0.1350E-05  0.1348E-05  0.1761E-03  0.1756E-03  0.1350E-05  0.1348E-05  0.1761E-03  0.1756E-03
    -13.154  0.1362E-01  0.1362E-01  0.1872E-02  0.1870E-02  0.1872E-02  0.1870E-02  0.1872E-02  0.1870E-02  0.2917E-05  0.2913E-05  0.2917E-05  0.2913E-05  0.5518E-03  0.5507E-03  0.2917E-05  0.2913E-05  0.5518E-03  0.5507E-03
    -12.973  0.1413E-01  0.1413E-01  0.3309E-02  0.3305E-02  0.3309E-02  0.3305E-02  0.3309E-02  0.3305E-02  0.5332E-05  0.5327E-05  0.5332E-05  0.5327E-05  0.1505E-02  0.1502E-02  0.5332E-05  0.5327E-05  0.1505E-02  0.1502E-02
    -12.793  0.1467E-01  0.1467E-01  0.6344E-02  0.6333E-02  0.6344E-02  0.6333E-02  0.6344E-02  0.6333E-02  0.8680E-05  0.8669E-05  0.8680E-05  0.8669E-05  0.4508E-02  0.4495E-02  0.8680E-05  0.8669E-05  0.4508E-02  0.4495E-02
    -12.613  0.1676E-01  0.1677E-01  0.2373E-01  0.2375E-01  0.2373E-01  0.2375E-01  0.2373E-01  0.2375E-01  0.1844E-04  0.1845E-04  0.1844E-04  0.1845E-04  0.2556E-01  0.2548E-01  0.1844E-04  0.1845E-04  0.2556E-01  0.2548E-01
    -12.433  0.3136E-02  0.3136E-02  0.7109E-02  0.7109E-02  0.7109E-02  0.7109E-02  0.7109E-02  0.7109E-02  0.4396E-05  0.4397E-05  0.4396E-05  0.4397E-05  0.1873E-01  0.1873E-01  0.4396E-05  0.4397E-05  0.1873E-01  0.1873E-01
    -12.253  0.0000E+00  0.0000E+00  0.0000E+00  0.0000E+00  0.0000E+00  0.0000E+00  0.0000E+00  0.0000E+00  0.0000E+00  0.0000E+00  0.0000E+00  0.0000E+00  0.0000E+00  0.0000E+00  0.0000E+00  0.0000E+00  0.0000E+00  0.0000E+00
    -12.072  0.0000E+00  0.0000E+00  0.0000E+00  0.0000E+00  0.0000E+00  0.0000E+00  0.0000E+00  0.0000E+00  0.0000E+00  0.0000E+00  0.0000E+00  0.0000E+00  0.0000E+00  0.0000E+00  0.0000E+00  0.0000E+00  0.0000E+00  0.0000E+00
    -11.892  0.0000E+00  0.0000E+00  0.0000E+00  0.0000E+00  0.0000E+00  0.0000E+00  0.0000E+00  0.0000E+00  0.0000E+00  0.0000E+00  0.0000E+00  0.0000E+00  0.0000E+00  0.0000E+00  0.0000E+00  0.0000E+00  0.0000E+00  0.0000E+00
    -11.712  0.0000E+00  0.0000E+00  0.0000E+00  0.0000E+00  0.0000E+00  0.0000E+00  0.0000E+00  0.0000E+00  0.0000E+00  0.0000E+00  0.0000E+00  0.0000E+00  0.0000E+00  0.0000E+00  0.0000E+00  0.0000E+00  0.0000E+00  0.0000E+00
    -11.532  0.0000E+00  0.0000E+00  0.0000E+00  0.0000E+00  0.0000E+00  0.0000E+00  0.0000E+00  0.0000E+00  0.0000E+00  0.0000E+00  0.0000E+00  0.0000E+00  0.0000E+00  0.0000E+00  0.0000E+00  0.0000E+00  0.0000E+00  0.0000E+00
    -11.352  0.0000E+00  0.0000E+00  0.0000E+00  0.0000E+00  0.0000E+00  0.0000E+00  0.0000E+00  0.0000E+00  0.0000E+00  0.0000E+00  0.0000E+00  0.0000E+00  0.0000E+00  0.0000E+00  0.0000E+00  0.0000E+00  0.0000E+00  0.0000E+00
    -11.171  0.0000E+00  0.0000E+00  0.0000E+00  0.0000E+00  0.0000E+00  0.0000E+00  0.0000E+00  0.0000E+00  0.0000E+00  0.0000E+00  0.0000E+00  0.0000E+00  0.0000E+00  0.0000E+00  0.0000E+00  0.0000E+00  0.0000E+00  0.0000E+00
    -10.991  0.0000E+00  0.0000E+00  0.0000E+00  0.0000E+00  0.0000E+00  0.0000E+00  0.0000E+00  0.0000E+00  0.0000E+00  0.0000E+00  0.0000E+00  0.0000E+00  0.0000E+00  0.0000E+00  0.0000E+00  0.0000E+00  0.0000E+00  0.0000E+00
    -10.811  0.0000E+00  0.0000E+00  0.0000E+00  0.0000E+00  0.0000E+00  0.0000E+00  0.0000E+00  0.0000E+00  0.0000E+00  0.0000E+00  0.0000E+00  0.0000E+00  0.0000E+00  0.0000E+00  0.0000E+00  0.0000E+00  0.0000E+00  0.0000E+00
    -10.631  0.0000E+00  0.0000E+00  0.0000E+00  0.0000E+00  0.0000E+00  0.0000E+00  0.0000E+00  0.0000E+00  0.0000E+00  0.0000E+00  0.0000E+00  0.0000E+00  0.0000E+00  0.0000E+00  0.0000E+00  0.0000E+00  0.0000E+00  0.0000E+00
    -10.451  0.0000E+00  0.0000E+00  0.0000E+00  0.0000E+00  0.0000E+00  0.0000E+00  0.0000E+00  0.0000E+00  0.0000E+00  0.0000E+00  0.0000E+00  0.0000E+00  0.0000E+00  0.0000E+00  0.0000E+00  0.0000E+00  0.0000E+00  0.0000E+00
    -10.270  0.0000E+00  0.0000E+00  0.0000E+00  0.0000E+00  0.0000E+00  0.0000E+00  0.0000E+00  0.0000E+00  0.0000E+00  0.0000E+00  0.0000E+00  0.0000E+00  0.0000E+00  0.0000E+00  0.0000E+00  0.0000E+00  0.0000E+00  0.0000E+00
    -10.090  0.0000E+00  0.0000E+00  0.0000E+00  0.0000E+00  0.0000E+00  0.0000E+00  0.0000E+00  0.0000E+00  0.0000E+00  0.0000E+00  0.0000E+00  0.0000E+00  0.0000E+00  0.0000E+00  0.0000E+00  0.0000E+00  0.0000E+00  0.0000E+00
     -9.910  0.0000E+00  0.0000E+00  0.0000E+00  0.0000E+00  0.0000E+00  0.0000E+00  0.0000E+00  0.0000E+00  0.0000E+00  0.0000E+00  0.0000E+00  0.0000E+00  0.0000E+00  0.0000E+00  0.0000E+00  0.0000E+00  0.0000E+00  0.0000E+00
     -9.730  0.0000E+00  0.0000E+00  0.0000E+00  0.0000E+00  0.0000E+00  0.0000E+00  0.0000E+00  0.0000E+00  0.0000E+00  0.0000E+00  0.0000E+00  0.0000E+00  0.0000E+00  0.0000E+00  0.0000E+00  0.0000E+00  0.0000E+00  0.0000E+00
     -9.550  0.0000E+00  0.0000E+00  0.0000E+00  0.0000E+00  0.0000E+00  0.0000E+00  0.0000E+00  0.0000E+00  0.0000E+00  0.0000E+00  0.0000E+00  0.0000E+00  0.0000E+00  0.0000E+00  0.0000E+00  0.0000E+00  0.0000E+00  0.0000E+00
     -9.369  0.0000E+00  0.0000E+00  0.0000E+00  0.0000E+00  0.0000E+00  0.0000E+00  0.0000E+00  0.0000E+00  0.0000E+00  0.0000E+00  0.0000E+00  0.0000E+00  0.0000E+00  0.0000E+00  0.0000E+00  0.0000E+00  0.0000E+00  0.0000E+00
     -9.189  0.0000E+00  0.0000E+00  0.0000E+00  0.0000E+00  0.0000E+00  0.0000E+00  0.0000E+00  0.0000E+00  0.0000E+00  0.0000E+00  0.0000E+00  0.0000E+00  0.0000E+00  0.0000E+00  0.0000E+00  0.0000E+00  0.0000E+00  0.0000E+00
     -9.009  0.0000E+00  0.0000E+00  0.0000E+00  0.0000E+00  0.0000E+00  0.0000E+00  0.0000E+00  0.0000E+00  0.0000E+00  0.0000E+00  0.0000E+00  0.0000E+00  0.0000E+00  0.0000E+00  0.0000E+00  0.0000E+00  0.0000E+00  0.0000E+00
     -8.829  0.0000E+00  0.0000E+00  0.0000E+00  0.0000E+00  0.0000E+00  0.0000E+00  0.0000E+00  0.0000E+00  0.0000E+00  0.0000E+00  0.0000E+00  0.0000E+00  0.0000E+00  0.0000E+00  0.0000E+00  0.0000E+00  0.0000E+00  0.0000E+00
     -8.649  0.0000E+00  0.0000E+00  0.0000E+00  0.0000E+00  0.0000E+00  0.0000E+00  0.0000E+00  0.0000E+00  0.0000E+00  0.0000E+00  0.0000E+00  0.0000E+00  0.0000E+00  0.0000E+00  0.0000E+00  0.0000E+00  0.0000E+00  0.0000E+00
     -8.468  0.0000E+00  0.0000E+00  0.0000E+00  0.0000E+00  0.0000E+00  0.0000E+00  0.0000E+00  0.0000E+00  0.0000E+00  0.0000E+00  0.0000E+00  0.0000E+00  0.0000E+00  0.0000E+00  0.0000E+00  0.0000E+00  0.0000E+00  0.0000E+00
     -8.288  0.0000E+00  0.0000E+00  0.0000E+00  0.0000E+00  0.0000E+00  0.0000E+00  0.0000E+00  0.0000E+00  0.0000E+00  0.0000E+00  0.0000E+00  0.0000E+00  0.0000E+00  0.0000E+00  0.0000E+00  0.0000E+00  0.0000E+00  0.0000E+00
     -8.108  0.0000E+00  0.0000E+00  0.0000E+00  0.0000E+00  0.0000E+00  0.0000E+00  0.0000E+00  0.0000E+00  0.0000E+00  0.0000E+00  0.0000E+00  0.0000E+00  0.0000E+00  0.0000E+00  0.0000E+00  0.0000E+00  0.0000E+00  0.0000E+00
     -7.928  0.0000E+00  0.0000E+00  0.0000E+00  0.0000E+00  0.0000E+00  0.0000E+00  0.0000E+00  0.0000E+00  0.0000E+00  0.0000E+00  0.0000E+00  0.0000E+00  0.0000E+00  0.0000E+00  0.0000E+00  0.0000E+00  0.0000E+00  0.0000E+00
     -7.748  0.0000E+00  0.0000E+00  0.0000E+00  0.0000E+00  0.0000E+00  0.0000E+00  0.0000E+00  0.0000E+00  0.0000E+00  0.0000E+00  0.0000E+00  0.0000E+00  0.0000E+00  0.0000E+00  0.0000E+00  0.0000E+00  0.0000E+00  0.0000E+00
     -7.567  0.0000E+00  0.0000E+00  0.0000E+00  0.0000E+00  0.0000E+00  0.0000E+00  0.0000E+00  0.0000E+00  0.0000E+00  0.0000E+00  0.0000E+00  0.0000E+00  0.0000E+00  0.0000E+00  0.0000E+00  0.0000E+00  0.0000E+00  0.0000E+00
     -7.387  0.0000E+00  0.0000E+00  0.0000E+00  0.0000E+00  0.0000E+00  0.0000E+00  0.0000E+00  0.0000E+00  0.0000E+00  0.0000E+00  0.0000E+00  0.0000E+00  0.0000E+00  0.0000E+00  0.0000E+00  0.0000E+00  0.0000E+00  0.0000E+00
     -7.207  0.0000E+00  0.0000E+00  0.0000E+00  0.0000E+00  0.0000E+00  0.0000E+00  0.0000E+00  0.0000E+00  0.0000E+00  0.0000E+00  0.0000E+00  0.0000E+00  0.0000E+00  0.0000E+00  0.0000E+00  0.0000E+00  0.0000E+00  0.0000E+00