   3   3   0   0
  0.2434428E+02  0.4691853E-09  0.4691853E-09  0.4691853E-09  0.5000000E-15
  1.000000000000000E-004
  CAR
 unknown system
     13.00612575    -36.26897285  301     10.09126521      1.00000000
    -36.269  0.0000E+00  0.0000E+00
    -36.105  0.0000E+00  0.0000E+00
    -35.940  0.0000E+00  0.0000E+00
    -35.776  0.0000E+00  0.0000E+00
    -35.612  0.0000E+00  0.0000E+00
    -35.448  0.0000E+00  0.0000E+00
    -35.283  0.0000E+00  0.0000E+00
    -35.119  0.0000E+00  0.0000E+00
    -34.955  0.0000E+00  0.0000E+00
    -34.791  0.0000E+00  0.0000E+00
    -34.626  0.0000E+00  0.0000E+00
    -34.462  0.0000E+00  0.0000E+00
    -34.298  0.0000E+00  0.0000E+00
    -34.134  0.0000E+00  0.0000E+00
    -33.969  0.1218E+02  0.2000E+01
    -33.805  0.0000E+00  0.2000E+01
    -33.641  0.0000E+00  0.2000E+01
    -33.477  0.0000E+00  0.2000E+01
    -33.312  0.0000E+00  0.2000E+01
    -33.148  0.0000E+00  0.2000E+01
    -32.984  0.0000E+00  0.2000E+01
    -32.820  0.0000E+00  0.2000E+01
    -32.655  0.0000E+00  0.2000E+01
    -32.491  0.0000E+00  0.2000E+01
    -32.327  0.0000E+00  0.2000E+01
    -32.163  0.0000E+00  0.2000E+01
    -31.998  0.0000E+00  0.2000E+01
    -31.834  0.0000E+00  0.2000E+01
    -31.670  0.0000E+00  0.2000E+01
    -31.506  0.0000E+00  0.2000E+01
    -31.341  0.0000E+00  0.2000E+01
    -31.177  0.0000E+00  0.2000E+01
    -31.013  0.0000E+00  0.2000E+01
    -30.849  0.0000E+00  0.2000E+01
    -30.684  0.0000E+00  0.2000E+01
    -30.520  0.0000E+00  0.2000E+01
    -30.356  0.0000E+00  0.2000E+01
    -30.192  0.0000E+00  0.2000E+01
    -30.027  0.0000E+00  0.2000E+01
    -29.863  0.0000E+00  0.2000E+01
    -29.699  0.0000E+00  0.2000E+01
    -29.535  0.0000E+00  0.2000E+01
    -29.370  0.0000E+00  0.2000E+01
    -29.206  0.0000E+00  0.2000E+01
    -29.042  0.0000E+00  0.2000E+01
    -28.878  0.0000E+00  0.2000E+01
    -28.713  0.0000E+00  0.2000E+01
    -28.549  0.0000E+00  0.2000E+01
    -28.385  0.0000E+00  0.2000E+01
    -28.221  0.0000E+00  0.2000E+01
    -28.056  0.0000E+00  0.2000E+01
    -27.892  0.0000E+00  0.2000E+01
    -27.728  0.0000E+00  0.2000E+01
    -27.564  0.0000E+00  0.2000E+01
    -27.399  0.0000E+00  0.2000E+01
    -27.235  0.0000E+00  0.2000E+01
    -27.071  0.0000E+00  0.2000E+01
    -26.907  0.0000E+00  0.2000E+01
    -26.742  0.0000E+00  0.2000E+01
    -26.578  0.0000E+00  0.2000E+01
    -26.414  0.0000E+00  0.2000E+01
    -26.250  0.0000E+00  0.2000E+01
    -26.085  0.0000E+00  0.2000E+01
    -25.921  0.0000E+00  0.2000E+01
    -25.757  0.0000E+00  0.2000E+01
    -25.593  0.0000E+00  0.2000E+01
    -25.428  0.0000E+00  0.2000E+01
    -25.264  0.0000E+00  0.2000E+01
    -25.100  0.0000E+00  0.2000E+01
    -24.936  0.0000E+00  0.2000E+01
    -24.771  0.0000E+00  0.2000E+01
    -24.607  0.0000E+00  0.2000E+01
    -24.443  0.0000E+00  0.2000E+01
    -24.279  0.0000E+00  0.2000E+01
    -24.114  0.0000E+00  0.2000E+01
    -23.950  0.0000E+00  0.2000E+01
    -23.786  0.0000E+00  0.2000E+01
    -23.622  0.0000E+00  0.2000E+01
    -23.457  0.0000E+00  0.2000E+01
    -23.293  0.0000E+00  0.2000E+01
    -23.129  0.0000E+00  0.2000E+01
    -22.965  0.0000E+00  0.2000E+01
    -22.800  0.0000E+00  0.2000E+01
    -22.636  0.0000E+00  0.2000E+01
    -22.472  0.0000E+00  0.2000E+01
    -22.308  0.0000E+00  0.2000E+01
    -22.143  0.0000E+00  0.2000E+01
    -21.979  0.0000E+00  0.2000E+01
    -21.815  0.0000E+00  0.2000E+01
    -21.651  0.0000E+00  0.2000E+01
    -21.486  0.0000E+00  0.2000E+01
    -21.322  0.0000E+00  0.2000E+01
    -21.158  0.0000E+00  0.2000E+01
    -20.994  0.0000E+00  0.2000E+01
    -20.829  0.0000E+00  0.2000E+01
    -20.665  0.0000E+00  0.2000E+01
    -20.501  0.0000E+00  0.2000E+01
    -20.337  0.0000E+00  0.2000E+01
    -20.172  0.0000E+00  0.2000E+01
    -20.008  0.0000E+00  0.2000E+01
    -19.844  0.0000E+00  0.2000E+01
    -19.680  0.0000E+00  0.2000E+01
    -19.515  0.0000E+00  0.2000E+01
    -19.351  0.0000E+00  0.2000E+01
    -19.187  0.0000E+00  0.2000E+01
    -19.023  0.0000E+00  0.2000E+01
    -18.858  0.0000E+00  0.2000E+01
    -18.694  0.0000E+00  0.2000E+01
    -18.530  0.0000E+00  0.2000E+01
    -18.366  0.0000E+00  0.2000E+01
    -18.201  0.0000E+00  0.2000E+01
    -18.037  0.0000E+00  0.2000E+01
    -17.873  0.0000E+00  0.2000E+01
    -17.709  0.0000E+00  0.2000E+01
    -17.544  0.0000E+00  0.2000E+01
    -17.380  0.0000E+00  0.2000E+01
    -17.216  0.0000E+00  0.2000E+01
    -17.052  0.0000E+00  0.2000E+01
    -16.887  0.0000E+00  0.2000E+01
    -16.723  0.0000E+00  0.2000E+01
    -16.559  0.0000E+00  0.2000E+01
    -16.395  0.0000E+00  0.2000E+01
    -16.230  0.0000E+00  0.2000E+01
    -16.066  0.0000E+00  0.2000E+01
    -15.902  0.0000E+00  0.2000E+01
    -15.738  0.0000E+00  0.2000E+01
    -15.573  0.0000E+00  0.2000E+01
    -15.409  0.0000E+00  0.2000E+01
    -15.245  0.0000E+00  0.2000E+01
    -15.081  0.0000E+00  0.2000E+01
    -14.916  0.0000E+00  0.2000E+01
    -14.752  0.0000E+00  0.2000E+01
    -14.588  0.0000E+00  0.2000E+01
    -14.424  0.0000E+00  0.2000E+01
    -14.259  0.0000E+00  0.2000E+01
    -14.095  0.0000E+00  0.2000E+01
    -13.931  0.0000E+00  0.2000E+01
    -13.767  0.0000E+00  0.2000E+01
    -13.602  0.0000E+00  0.2000E+01
    -13.438  0.0000E+00  0.2000E+01
    -13.274  0.0000E+00  0.2000E+01
    -13.110  0.0000E+00  0.2000E+01
    -12.945  0.0000E+00  0.2000E+01
    -12.781  0.6052E+02  0.1194E+02
    -12.617  0.0000E+00  0.1200E+02
    -12.453  0.0000E+00  0.1200E+02
    -12.288  0.0000E+00  0.1200E+02
    -12.124  0.0000E+00  0.1200E+02
    -11.960  0.0000E+00  0.1200E+02
    -11.796  0.0000E+00  0.1200E+02
    -11.631  0.0000E+00  0.1200E+02
    -11.467  0.0000E+00  0.1200E+02
    -11.303  0.0000E+00  0.1200E+02
    -11.139  0.0000E+00  0.1200E+02
    -10.974  0.0000E+00  0.1200E+02
    -10.810  0.0000E+00  0.1200E+02
    -10.646  0.0000E+00  0.1200E+02
    -10.482  0.0000E+00  0.1200E+02
    -10.317  0.0000E+00  0.1200E+02
    -10.153  0.0000E+00  0.1200E+02
     -9.989  0.0000E+00  0.1200E+02
     -9.825  0.0000E+00  0.1200E+02
     -9.660  0.0000E+00  0.1200E+02
     -9.496  0.2016E+01  0.1233E+02
     -9.332  0.9870E+01  0.1545E+02
     -9.168  0.0000E+00  0.1800E+02
     -9.003  0.0000E+00  0.1800E+02
     -8.839  0.0000E+00  0.1800E+02
     -8.675  0.0000E+00  0.1800E+02
     -8.511  0.0000E+00  0.1800E+02
     -8.346  0.0000E+00  0.1800E+02
     -8.182  0.0000E+00  0.1800E+02
     -8.018  0.0000E+00  0.1800E+02
     -7.854  0.0000E+00  0.1800E+02
     -7.689  0.0000E+00  0.1800E+02
     -7.525  0.0000E+00  0.1800E+02
     -7.361  0.0000E+00  0.1800E+02
     -7.197  0.0000E+00  0.1800E+02
     -7.032  0.0000E+00  0.1800E+02
     -6.868  0.0000E+00  0.1800E+02
     -6.704  0.0000E+00  0.1800E+02
     -6.540  0.0000E+00  0.1800E+02
     -6.375  0.0000E+00  0.1800E+02
     -6.211  0.0000E+00  0.1800E+02
     -6.047  0.0000E+00  0.1800E+02
     -5.883  0.0000E+00  0.1800E+02
     -5.718  0.0000E+00  0.1800E+02
     -5.554  0.0000E+00  0.1800E+02
     -5.390  0.0000E+00  0.1800E+02
     -5.226  0.0000E+00  0.1800E+02
     -5.061  0.0000E+00  0.1800E+02
     -4.897  0.0000E+00  0.1800E+02
     -4.733  0.0000E+00  0.1800E+02
     -4.569  0.0000E+00  0.1800E+02
     -4.404  0.0000E+00  0.1800E+02
     -4.240  0.0000E+00  0.1800E+02
     -4.076  0.0000E+00  0.1800E+02
     -3.912  0.0000E+00  0.1800E+02
     -3.747  0.0000E+00  0.1800E+02
     -3.583  0.0000E+00  0.1800E+02
     -3.419  0.0000E+00  0.1800E+02
     -3.255  0.0000E+00  0.1800E+02
     -3.090  0.0000E+00  0.1800E+02
     -2.926  0.0000E+00  0.1800E+02
     -2.762  0.0000E+00  0.1800E+02
     -2.598  0.0000E+00  0.1800E+02
     -2.433  0.5310E-02  0.1800E+02
     -2.269  0.3285E-01  0.1802E+02
     -2.105  0.3313E-01  0.1806E+02
     -1.941  0.2529E+00  0.1814E+02
     -1.776  0.5755E+00  0.1825E+02
     -1.612  0.1219E+01  0.1852E+02
     -1.448  0.3145E+01  0.1931E+02
     -1.284  0.8839E+00  0.1992E+02
     -1.119  0.0000E+00  0.2000E+02
     -0.955  0.0000E+00  0.2000E+02
     -0.791  0.0000E+00  0.2000E+02
     -0.627  0.0000E+00  0.2000E+02
     -0.462  0.0000E+00  0.2000E+02
     -0.298  0.0000E+00  0.2000E+02
     -0.134  0.0000E+00  0.2000E+02
      0.030  0.0000E+00  0.2000E+02
      0.195  0.0000E+00  0.2000E+02
      0.359  0.0000E+00  0.2000E+02
      0.523  0.0000E+00  0.2000E+02
      0.687  0.0000E+00  0.2000E+02
      0.852  0.0000E+00  0.2000E+02
      1.016  0.0000E+00  0.2000E+02
      1.180  0.0000E+00  0.2000E+02
      1.344  0.0000E+00  0.2000E+02
      1.509  0.0000E+00  0.2000E+02
      1.673  0.0000E+00  0.2000E+02
      1.837  0.0000E+00  0.2000E+02
      2.001  0.0000E+00  0.2000E+02
      2.166  0.0000E+00  0.2000E+02
      2.330  0.0000E+00  0.2000E+02
      2.494  0.0000E+00  0.2000E+02
      2.658  0.0000E+00  0.2000E+02
      2.823  0.0000E+00  0.2000E+02
      2.987  0.0000E+00  0.2000E+02
      3.151  0.0000E+00  0.2000E+02
      3.315  0.0000E+00  0.2000E+02
      3.480  0.0000E+00  0.2000E+02
      3.644  0.0000E+00  0.2000E+02
      3.808  0.4136E-01  0.2001E+02
      3.972  0.3604E+00  0.2011E+02
      4.137  0.1617E+01  0.2068E+02
      4.301  0.9725E+00  0.2111E+02
      4.465  0.1299E+01  0.2138E+02
      4.629  0.3018E+00  0.2152E+02
      4.794  0.1909E+01  0.2197E+02
      4.958  0.2932E+01  0.2318E+02
      5.122  0.2083E+01  0.2412E+02
      5.286  0.3046E+01  0.2504E+02
      5.451  0.1773E+01  0.2586E+02
      5.615  0.1183E+00  0.2603E+02
      5.779  0.1291E+01  0.2628E+02
      5.943  0.4521E+01  0.2830E+02
      6.108  0.5239E+01  0.2974E+02
      6.272  0.5026E+00  0.3028E+02
      6.436  0.1482E+01  0.3079E+02
      6.600  0.1273E+01  0.3126E+02
      6.765  0.6651E+00  0.3153E+02
      6.929  0.6414E+00  0.3175E+02
      7.093  0.6228E+00  0.3196E+02
      7.257  0.3338E+00  0.3210E+02
      7.422  0.5461E+00  0.3243E+02
      7.586  0.6329E+00  0.3263E+02
      7.750  0.1134E+01  0.3300E+02
      7.914  0.5242E+00  0.3318E+02
      8.079  0.1672E+01  0.3351E+02
      8.243  0.2411E+00  0.3363E+02
      8.407  0.4843E+01  0.3463E+02
      8.571  0.2388E+01  0.3578E+02
      8.736  0.1862E+00  0.3596E+02
      8.900  0.1563E+00  0.3600E+02
      9.064  0.0000E+00  0.3600E+02
      9.228  0.4447E-01  0.3601E+02
      9.393  0.1967E+00  0.3606E+02
      9.557  0.1917E+01  0.3656E+02
      9.721  0.2289E+01  0.3719E+02
      9.885  0.2225E+01  0.3790E+02
     10.050  0.1216E+01  0.3819E+02
     10.214  0.5404E+01  0.4134E+02
     10.378  0.1003E+02  0.4383E+02
     10.542  0.8087E+01  0.4692E+02
     10.707  0.7962E+00  0.4799E+02
     10.871  0.0000E+00  0.4800E+02
     11.035  0.0000E+00  0.4800E+02
     11.199  0.0000E+00  0.4800E+02
     11.364  0.0000E+00  0.4800E+02
     11.528  0.0000E+00  0.4800E+02
     11.692  0.0000E+00  0.4800E+02
     11.856  0.0000E+00  0.4800E+02
     12.021  0.0000E+00  0.4800E+02
     12.185  0.0000E+00  0.4800E+02
     12.349  0.0000E+00  0.4800E+02
     12.513  0.0000E+00  0.4800E+02
     12.678  0.0000E+00  0.4800E+02
     12.842  0.0000E+00  0.4800E+02
     13.006  0.0000E+00  0.4800E+02
