    3    3    1    1
  0.2434428E+02  0.4691853E-09  0.4691853E-09  0.4691853E-09  0.5000000E-15
  1.000000000000000E-004
  CAR
 unknown system
     39     84     24

  0.0000000E+00  0.0000000E+00  0.0000000E+00  0.4551661E-03
    1      -34.029196   1.000000
    2      -12.829562   1.000000
    3      -12.829562   1.000000
    4      -12.800884   1.000000
    5      -12.800884   1.000000
    6      -12.800884   1.000000
    7       -9.320749   1.000000
    8       -9.320749   1.000000
    9       -9.320749   1.000000
   10       -2.445629   1.000000
   11        5.462438   1.000000
   12        5.462438   1.000000
   13        5.462438   1.000000
   14        5.712539   1.000000
   15        5.712539   1.000000
   16        8.486138   1.000000
   17        8.910355   1.000000
   18        8.910355   1.000000
   19        8.910355   1.000000
   20       10.046850   1.000000
   21       10.046850   1.000000
   22       10.046850   1.000000
   23       10.223553   0.000000
   24       10.333453   0.000000

  0.7692308E-01  0.6292127E-18 -0.1920603E-17  0.3641329E-02
    1      -34.028925   1.000000
    2      -12.831199   1.000000
    3      -12.831199   1.000000
    4      -12.801178   1.000000
    5      -12.800680   1.000000
    6      -12.800680   1.000000
    7       -9.335617   1.000000
    8       -9.317195   1.000000
    9       -9.317195   1.000000
   10       -2.377007   1.000000
   11        5.336403   1.000000
   12        5.340595   1.000000
   13        5.340595   1.000000
   14        5.826870   1.000000
   15        5.826870   1.000000
   16        8.064381   1.000000
   17        8.851006   1.000000
   18        8.851006   1.000000
   19        9.172927   1.000000
   20       10.025865   1.000000
   21       10.038684   1.000000
   22       10.038684   1.000000
   23       10.356162   0.000000
   24       10.405823   0.000000

  0.1538462E+00 -0.1424553E-16  0.1523664E-18  0.3641329E-02
    1      -34.028182   1.000000
    2      -12.835773   1.000000
    3      -12.835773   1.000000
    4      -12.802078   1.000000
    5      -12.800081   1.000000
    6      -12.800081   1.000000
    7       -9.375331   1.000000
    8       -9.307376   1.000000
    9       -9.307376   1.000000
   10       -2.185523   1.000000
   11        5.014805   1.000000
   12        5.171269   1.000000
   13        5.171269   1.000000
   14        5.963433   1.000000
   15        5.963433   1.000000
   16        7.467462   1.000000
   17        8.723185   1.000000
   18        8.723185   1.000000
   19        9.255054   1.000000
   20       10.036599   1.000000
   21       10.036599   1.000000
   22       10.242595   0.000000
   23       10.543147   0.000000
   24       10.543448   0.000000

  0.2307692E+00  0.1445178E-17 -0.5319349E-17  0.3641329E-02
    1      -34.027133   1.000000
    2      -12.842220   1.000000
    3      -12.842220   1.000000
    4      -12.803561   1.000000
    5      -12.799184   1.000000
    6      -12.799184   1.000000
    7       -9.427849   1.000000
    8       -9.293611   1.000000
    9       -9.293611   1.000000
   10       -1.911700   1.000000
   11        4.613056   1.000000
   12        5.043059   1.000000
   13        5.043059   1.000000
   14        6.014810   1.000000
   15        6.014810   1.000000
   16        6.917510   1.000000
   17        8.612663   1.000000
   18        8.612663   1.000000
   19        9.247923   1.000000
   20       10.052007   1.000000
   21       10.052007   1.000000
   22       10.342367   0.000000
   23       10.389648   0.000000
   24       10.620432   0.000000

  0.3076923E+00 -0.2849105E-16  0.3047328E-18  0.3641329E-02
    1      -34.026022   1.000000
    2      -12.849042   1.000000
    3      -12.849042   1.000000
    4      -12.805413   1.000000
    5      -12.798186   1.000000
    6      -12.798186   1.000000
    7       -9.479491   1.000000
    8       -9.279100   1.000000
    9       -9.279100   1.000000
   10       -1.615216   1.000000
   11        4.234141   1.000000
   12        4.972218   1.000000
   13        4.972218   1.000000
   14        5.966988   1.000000
   15        5.966988   1.000000
   16        6.481437   1.000000
   17        8.562497   1.000000
   18        8.562497   1.000000
   19        9.283948   1.000000
   20       10.083631   0.859864
   21       10.083631   0.859863
   22       10.347137   0.000000
   23       10.460685   0.000000
   24       10.591251   0.000000

  0.3846154E+00  0.7853002E-17 -0.1430995E-16  0.3641329E-02
    1      -34.025102   1.000000
    2      -12.854673   1.000000
    3      -12.854673   1.000000
    4      -12.807175   1.000000
    5      -12.797338   1.000000
    6      -12.797338   1.000000
    7       -9.519316   1.000000
    8       -9.267143   1.000000
    9       -9.267143   1.000000
   10       -1.364302   1.000000
   11        3.948737   1.000000
   12        4.953355   1.000000
   13        4.953355   1.000000
   14        5.863546   1.000000
   15        5.863546   1.000000
   16        6.186759   1.000000
   17        8.560039   1.000000
   18        8.560039   1.000000
   19        9.358146   1.000000
   20       10.127679   0.000000
   21       10.127679   0.000000
   22       10.351710   0.000000
   23       10.510878   0.000000
   24       10.513636   0.000000

  0.4615385E+00  0.9375291E-18 -0.8685872E-17  0.3641329E-02
    1      -34.024581   1.000000
    2      -12.857832   1.000000
    3      -12.857832   1.000000
    4      -12.808270   1.000000
    5      -12.796851   1.000000
    6      -12.796851   1.000000
    7       -9.540678   1.000000
    8       -9.260421   1.000000
    9       -9.260421   1.000000
   10       -1.220405   1.000000
   11        3.797519   1.000000
   12        4.960596   1.000000
   13        4.960596   1.000000
   14        5.779865   1.000000
   15        5.779865   1.000000
   16        6.039746   1.000000
   17        8.570478   1.000000
   18        8.570478   1.000000
   19        9.422605   1.000000
   20       10.168637   0.000000
   21       10.168637   0.000000
   22       10.442063   0.000000
   23       10.442813   0.000000
   24       10.549306   0.000000

  0.7692308E-01  0.7692308E-01 -0.3425646E-17  0.2730997E-02
    1      -34.028837   1.000000
    2      -12.834046   1.000000
    3      -12.829154   1.000000
    4      -12.801386   1.000000
    5      -12.800562   1.000000
    6      -12.800562   1.000000
    7       -9.328472   1.000000
    8       -9.322227   1.000000
    9       -9.322227   1.000000
   10       -2.355678   1.000000
   11        5.076275   1.000000
   12        5.476094   1.000000
   13        5.476094   1.000000
   14        5.726661   1.000000
   15        5.874338   1.000000
   16        8.044940   1.000000
   17        8.754890   1.000000
   18        8.754890   1.000000
   19        9.334654   1.000000
   20        9.942696   1.000000
   21       10.059878   0.999995
   22       10.059878   0.999995
   23       10.344447   0.000000
   24       10.385101   0.000000

  0.1538462E+00  0.7692308E-01 -0.5098113E-18  0.1092399E-01
    1      -34.028255   1.000000
    2      -12.839089   1.000000
    3      -12.830471   1.000000
    4      -12.802087   1.000000
    5      -12.800140   1.000000
    6      -12.800021   1.000000
    7       -9.358809   1.000000
    8       -9.320019   1.000000
    9       -9.310977   1.000000
   10       -2.209906   1.000000
   11        4.793621   1.000000
   12        5.360168   1.000000
   13        5.385020   1.000000
   14        5.825747   1.000000
   15        5.977172   1.000000
   16        7.643668   1.000000
   17        8.614328   1.000000
   18        8.616239   1.000000
   19        9.435803   1.000000
   20       10.000741   1.000000
   21       10.062036   0.999982
   22       10.160093   0.000000
   23       10.350315   0.000000
   24       10.511028   0.000000

  0.2307692E+00  0.7692308E-01 -0.6300619E-19  0.1092399E-01
    1      -34.027314   1.000000
    2      -12.845188   1.000000
    3      -12.834907   1.000000
    4      -12.803231   1.000000
    5      -12.799522   1.000000
    6      -12.799116   1.000000
    7       -9.407449   1.000000
    8       -9.311125   1.000000
    9       -9.295726   1.000000
   10       -1.971822   1.000000
   11        4.511208   1.000000
   12        5.135175   1.000000
   13        5.257986   1.000000
   14        5.904952   1.000000
   15        6.066903   1.000000
   16        7.134289   1.000000
   17        8.472293   1.000000
   18        8.514658   1.000000
   19        9.412492   1.000000
   20       10.033205   1.000000
   21       10.065891   0.999834
   22       10.344521   0.000000
   23       10.353285   0.000000
   24       10.589602   0.000000

  0.3076923E+00  0.7692308E-01 -0.1541149E-17  0.1092399E-01
    1      -34.026226   1.000000
    2      -12.850952   1.000000
    3      -12.841375   1.000000
    4      -12.804765   1.000000
    5      -12.798764   1.000000
    6      -12.798070   1.000000
    7       -9.459299   1.000000
    8       -9.297647   1.000000
    9       -9.281773   1.000000
   10       -1.694654   1.000000
   11        4.240344   1.000000
   12        4.960826   1.000000
   13        5.163451   1.000000
   14        5.888780   1.000000
   15        6.072470   1.000000
   16        6.667332   1.000000
   17        8.393175   1.000000
   18        8.483557   1.000000
   19        9.398855   1.000000
   20       10.074023   0.992624
   21       10.082905   0.881471
   22       10.355782   0.000000
   23       10.421873   0.000000
   24       10.584394   0.000000

  0.3846154E+00  0.7692308E-01 -0.2278048E-17  0.1092399E-01
    1      -34.025247   1.000000
    2      -12.855090   1.000000
    3      -12.848319   1.000000
    4      -12.806390   1.000000
    5      -12.797983   1.000000
    6      -12.797177   1.000000
    7       -9.502640   1.000000
    8       -9.282703   1.000000
    9       -9.272220   1.000000
   10       -1.441950   1.000000
   11        4.016633   1.000000
   12        4.887432   1.000000
   13        5.096603   1.000000
   14        5.818134   1.000000
   15        5.996681   1.000000
   16        6.312916   1.000000
   17        8.377198   1.000000
   18        8.500511   1.000000
   19        9.428165   1.000000
   20       10.116367   0.000193
   21       10.122721   0.000004
   22       10.356385   0.000000
   23       10.454593   0.000000
   24       10.541725   0.000000

  0.4615385E+00  0.7692308E-01 -0.6123599E-17  0.1092399E-01
    1      -34.024596   1.000000
    2      -12.856697   1.000000
    3      -12.854141   1.000000
    4      -12.807601   1.000000
    5      -12.797388   1.000000
    6      -12.796678   1.000000
    7       -9.529646   1.000000
    8       -9.269665   1.000000
    9       -9.269095   1.000000
   10       -1.272782   1.000000
   11        3.878193   1.000000
   12        4.903614   1.000000
   13        5.027884   1.000000
   14        5.777366   1.000000
   15        5.886512   1.000000
   16        6.101437   1.000000
   17        8.388495   1.000000
   18        8.524311   1.000000
   19        9.479219   1.000000
   20       10.161611   0.000000
   21       10.164735   0.000000
   22       10.351686   0.000000
   23       10.434001   0.000000
   24       10.509823   0.000000

 -0.4615385E+00  0.7692308E-01  0.2071778E-16  0.1092399E-01
    1      -34.024423   1.000000
    2      -12.857540   1.000000
    3      -12.855410   1.000000
    4      -12.807918   1.000000
    5      -12.797128   1.000000
    6      -12.796667   1.000000
    7       -9.536454   1.000000
    8       -9.272982   1.000000
    9       -9.261456   1.000000
   10       -1.226422   1.000000
   11        3.842226   1.000000
   12        4.940799   1.000000
   13        4.975395   1.000000
   14        5.798625   1.000000
   15        5.821708   1.000000
   16        6.049474   1.000000
   17        8.387343   1.000000
   18        8.533135   1.000000
   19        9.500732   1.000000
   20       10.168053   0.000000
   21       10.192445   0.000000
   22       10.342823   0.000000
   23       10.440011   0.000000
   24       10.461522   0.000000

 -0.3846154E+00  0.7692308E-01  0.8055918E-17  0.1092399E-01
    1      -34.024768   1.000000
    2      -12.857793   1.000000
    3      -12.851507   1.000000
    4      -12.807197   1.000000
    5      -12.797299   1.000000
    6      -12.797140   1.000000
    7       -9.522300   1.000000
    8       -9.282890   1.000000
    9       -9.259925   1.000000
   10       -1.313764   1.000000
   11        3.915051   1.000000
   12        4.862153   1.000000
   13        5.063904   1.000000
   14        5.779846   1.000000
   15        5.933164   1.000000
   16        6.157910   1.000000
   17        8.352058   1.000000
   18        8.533234   1.000000
   19        9.469307   1.000000
   20       10.132864   0.000000
   21       10.168336   0.000000
   22       10.348156   0.000000
   23       10.469633   0.000000
   24       10.485789   0.000000

 -0.3076923E+00  0.7692308E-01  0.1172717E-16  0.1092399E-01
    1      -34.025549   1.000000
    2      -12.854859   1.000000
    3      -12.845817   1.000000
    4      -12.805735   1.000000
    5      -12.797962   1.000000
    6      -12.797858   1.000000
    7       -9.489173   1.000000
    8       -9.296482   1.000000
    9       -9.265442   1.000000
   10       -1.515113   1.000000
   11        4.099598   1.000000
   12        4.829040   1.000000
   13        5.153728   1.000000
   14        5.828021   1.000000
   15        6.053351   1.000000
   16        6.417069   1.000000
   17        8.292227   1.000000
   18        8.551297   1.000000
   19        9.420967   1.000000
   20       10.094840   0.306562
   21       10.116518   0.000178
   22       10.352785   0.000000
   23       10.464884   0.000000
   24       10.532520   0.000000

 -0.2307692E+00  0.7692308E-01  0.1261644E-16  0.1092399E-01
    1      -34.026593   1.000000
    2      -12.849401   1.000000
    3      -12.839601   1.000000
    4      -12.804063   1.000000
    5      -12.798929   1.000000
    6      -12.798687   1.000000
    7       -9.442476   1.000000
    8       -9.310508   1.000000
    9       -9.276816   1.000000
   10       -1.783287   1.000000
   11        4.382574   1.000000
   12        4.863050   1.000000
   13        5.263006   1.000000
   14        5.875182   1.000000
   15        6.120276   1.000000
   16        6.810987   1.000000
   17        8.255501   1.000000
   18        8.617060   1.000000
   19        9.398799   1.000000
   20       10.067598   0.999592
   21       10.069116   0.999133
   22       10.351122   0.000000
   23       10.410543   0.000000
   24       10.594915   0.000000

 -0.1538462E+00  0.7692308E-01  0.2736568E-17  0.1092399E-01
    1      -34.027657   1.000000
    2      -12.842628   1.000000
    3      -12.834317   1.000000
    4      -12.802636   1.000000
    5      -12.799805   1.000000
    6      -12.799562   1.000000
    7       -9.391925   1.000000
    8       -9.321243   1.000000
    9       -9.291486   1.000000
   10       -2.055319   1.000000
   11        4.722366   1.000000
   12        4.969320   1.000000
   13        5.401392   1.000000
   14        5.850256   1.000000
   15        6.095673   1.000000
   16        7.293648   1.000000
   17        8.319301   1.000000
   18        8.730673   1.000000
   19        9.408374   1.000000
   20       10.031573   1.000000
   21       10.054716   1.000000
   22       10.315851   0.000000
   23       10.346851   0.000000
   24       10.584949   0.000000

 -0.7692308E-01  0.7692308E-01  0.1258425E-17  0.5461994E-02
    1      -34.028499   1.000000
    2      -12.836071   1.000000
    3      -12.831276   1.000000
    4      -12.801664   1.000000
    5      -12.800418   1.000000
    6      -12.800270   1.000000
    7       -9.352083   1.000000
    8       -9.324014   1.000000
    9       -9.306079   1.000000
   10       -2.269047   1.000000
   11        5.058750   1.000000
   12        5.138187   1.000000
   13        5.488068   1.000000
   14        5.786512   1.000000
   15        5.984328   1.000000
   16        7.753722   1.000000
   17        8.556107   1.000000
   18        8.836284   1.000000
   19        9.366781   1.000000
   20       10.019103   1.000000
   21       10.034022   1.000000
   22       10.136342   0.000000
   23       10.340910   0.000000
   24       10.471528   0.000000

  0.1538462E+00  0.1538462E+00 -0.6851291E-17  0.2730997E-02
    1      -34.027860   1.000000
    2      -12.843408   1.000000
    3      -12.828027   1.000000
    4      -12.802848   1.000000
    5      -12.799590   1.000000
    6      -12.799590   1.000000
    7       -9.351198   1.000000
    8       -9.326472   1.000000
    9       -9.326472   1.000000
   10       -2.123784   1.000000
   11        4.495375   1.000000
   12        5.502246   1.000000
   13        5.502246   1.000000
   14        5.766339   1.000000
   15        5.920332   1.000000
   16        7.609812   1.000000
   17        8.479671   1.000000
   18        8.479671   1.000000
   19        9.481286   1.000000
   20       10.077178   0.976830
   21       10.077178   0.976829
   22       10.099834   0.112795
   23       10.377480   0.000000
   24       10.569790   0.000000

  0.2307692E+00  0.1538462E+00 -0.4882088E-17  0.1092399E-01
    1      -34.027088   1.000000
    2      -12.847692   1.000000
    3      -12.829152   1.000000
    4      -12.803852   1.000000
    5      -12.798983   1.000000
    6      -12.798747   1.000000
    7       -9.387335   1.000000
    8       -9.325280   1.000000
    9       -9.315532   1.000000
   10       -1.949757   1.000000
   11        4.253974   1.000000
   12        5.375168   1.000000
   13        5.443881   1.000000
   14        5.825517   1.000000
   15        5.971549   1.000000
   16        7.332936   1.000000
   17        8.306051   1.000000
   18        8.387991   1.000000
   19        9.505383   1.000000
   20       10.046947   1.000000
   21       10.084035   0.846728
   22       10.272487   0.000000
   23       10.390528   0.000000
   24       10.608408   0.000000

  0.3076923E+00  0.1538462E+00 -0.5013195E-17  0.1092399E-01
    1      -34.026117   1.000000
    2      -12.850988   1.000000
    3      -12.833583   1.000000
    4      -12.804904   1.000000
    5      -12.798533   1.000000
    6      -12.797675   1.000000
    7       -9.435437   1.000000
    8       -9.316788   1.000000
    9       -9.302115   1.000000
   10       -1.731333   1.000000
   11        4.097125   1.000000
   12        5.147952   1.000000
   13        5.350791   1.000000
   14        5.841666   1.000000
   15        6.042645   1.000000
   16        6.944087   1.000000
   17        8.134331   1.000000
   18        8.371452   1.000000
   19        9.537579   1.000000
   20       10.065424   0.999871
   21       10.095966   0.253098
   22       10.356775   0.000000
   23       10.391804   0.000000
   24       10.605238   0.000000

  0.3846154E+00  0.1538462E+00 -0.5750095E-17  0.1092399E-01
    1      -34.025169   1.000000
    2      -12.852578   1.000000
    3      -12.840154   1.000000
    4      -12.805896   1.000000
    5      -12.798253   1.000000
    6      -12.796723   1.000000
    7       -9.478298   1.000000
    8       -9.302982   1.000000
    9       -9.294882   1.000000
   10       -1.520951   1.000000
   11        4.029677   1.000000
   12        4.972158   1.000000
   13        5.251063   1.000000
   14        5.813289   1.000000
   15        6.046497   1.000000
   16        6.559953   1.000000
   17        8.048426   1.000000
   18        8.402003   1.000000
   19        9.553450   1.000000
   20       10.112453   0.001366
   21       10.121734   0.000008
   22       10.386390   0.000000
   23       10.388479   0.000000
   24       10.574701   0.000000

  0.4615385E+00  0.1538462E+00 -0.9595646E-17  0.1092399E-01
    1      -34.024461   1.000000
    2      -12.852157   1.000000
    3      -12.847272   1.000000
    4      -12.806615   1.000000
    5      -12.798099   1.000000
    6      -12.796169   1.000000
    7       -9.507295   1.000000
    8       -9.295528   1.000000
    9       -9.287024   1.000000
   10       -1.364450   1.000000
   11        4.023854   1.000000
   12        4.899577   1.000000
   13        5.122672   1.000000
   14        5.816958   1.000000
   15        5.982730   1.000000
   16        6.276774   1.000000
   17        8.021331   1.000000
   18        8.431780   1.000000
   19        9.583107   1.000000
   20       10.152406   0.000000
   21       10.163974   0.000000
   22       10.371824   0.000000
   23       10.404628   0.000000
   24       10.551758   0.000000

 -0.4615385E+00  0.1538462E+00 -0.5775027E-17  0.1092399E-01
    1      -34.024154   1.000000
    2      -12.853341   1.000000
    3      -12.849893   1.000000
    4      -12.806762   1.000000
    5      -12.798052   1.000000
    6      -12.796138   1.000000
    7       -9.518147   1.000000
    8       -9.303457   1.000000
    9       -9.272509   1.000000
   10       -1.290676   1.000000
   11        4.027955   1.000000
   12        4.938049   1.000000
   13        4.972582   1.000000
   14        5.885875   1.000000
   15        5.889601   1.000000
   16        6.162119   1.000000
   17        8.000883   1.000000
   18        8.439188   1.000000
   19        9.613048   1.000000
   20       10.154848   0.000000
   21       10.214169   0.000000
   22       10.341613   0.000000
   23       10.433697   0.000000
   24       10.523804   0.000000

 -0.3846154E+00  0.1538462E+00  0.2760463E-16  0.1092399E-01
    1      -34.024321   1.000000
    2      -12.857029   1.000000
    3      -12.846274   1.000000
    4      -12.806205   1.000000
    5      -12.798134   1.000000
    6      -12.796601   1.000000
    7       -9.510126   1.000000
    8       -9.316174   1.000000
    9       -9.262707   1.000000
   10       -1.312489   1.000000
   11        4.022698   1.000000
   12        4.839620   1.000000
   13        5.059413   1.000000
   14        5.809560   1.000000
   15        6.008552   1.000000
   16        6.234752   1.000000
   17        7.944815   1.000000
   18        8.437222   1.000000
   19        9.612799   1.000000
   20       10.125265   0.000001
   21       10.228308   0.000000
   22       10.325781   0.000000
   23       10.466133   0.000000
   24       10.475400   0.000000

 -0.3076923E+00  0.1538462E+00  0.1298994E-16  0.1092399E-01
    1      -34.024919   1.000000
    2      -12.857574   1.000000
    3      -12.842013   1.000000
    4      -12.805188   1.000000
    5      -12.798345   1.000000
    6      -12.797407   1.000000
    7       -9.485524   1.000000
    8       -9.329672   1.000000
    9       -9.259852   1.000000
   10       -1.429847   1.000000
   11        4.053149   1.000000
   12        4.758709   1.000000
   13        5.220565   1.000000
   14        5.778449   1.000000
   15        6.126683   1.000000
   16        6.469441   1.000000
   17        7.848228   1.000000
   18        8.458212   1.000000
   19        9.585672   1.000000
   20       10.095430   0.277932
   21       10.177683   0.000000
   22       10.351122   0.000000
   23       10.455713   0.000000
   24       10.494022   0.000000

 -0.2307692E+00  0.1538462E+00  0.9144392E-17  0.1092399E-01
    1      -34.025815   1.000000
    2      -12.854866   1.000000
    3      -12.837981   1.000000
    4      -12.804147   1.000000
    5      -12.798653   1.000000
    6      -12.798347   1.000000
    7       -9.450310   1.000000
    8       -9.338710   1.000000
    9       -9.264641   1.000000
   10       -1.623638   1.000000
   11        4.177454   1.000000
   12        4.750485   1.000000
   13        5.385180   1.000000
   14        5.771404   1.000000
   15        6.194330   1.000000
   16        6.808732   1.000000
   17        7.772182   1.000000
   18        8.529648   1.000000
   19        9.554146   1.000000
   20       10.077739   0.972118
   21       10.117049   0.000133
   22       10.362096   0.000000
   23       10.423292   0.000000
   24       10.543911   0.000000

 -0.1538462E+00  0.1538462E+00 -0.5470295E-17  0.5461994E-02
    1      -34.026804   1.000000
    2      -12.849496   1.000000
    3      -12.835150   1.000000
    4      -12.803315   1.000000
    5      -12.799204   1.000000
    6      -12.799055   1.000000
    7       -9.415522   1.000000
    8       -9.336663   1.000000
    9       -9.276050   1.000000
   10       -1.850931   1.000000
   11        4.411798   1.000000
   12        4.822420   1.000000
   13        5.498571   1.000000
   14        5.763215   1.000000
   15        6.182234   1.000000
   16        7.119026   1.000000
   17        7.891257   1.000000
   18        8.641592   1.000000
   19        9.515072   1.000000
   20       10.063503   0.999957
   21       10.067357   0.999639
   22       10.358220   0.000000
   23       10.378623   0.000000
   24       10.596376   0.000000

  0.2307692E+00  0.2307692E+00 -0.1027694E-16  0.2730997E-02
    1      -34.026514   1.000000
    2      -12.849087   1.000000
    3      -12.826449   1.000000
    4      -12.805003   1.000000
    5      -12.798039   1.000000
    6      -12.798039   1.000000
    7       -9.386892   1.000000
    8       -9.332836   1.000000
    9       -9.332836   1.000000
   10       -1.856798   1.000000
   11        4.066647   1.000000
   12        5.506456   1.000000
   13        5.506456   1.000000
   14        5.818282   1.000000
   15        5.823684   1.000000
   16        7.299136   1.000000
   17        8.305418   1.000000
   18        8.305418   1.000000
   19        9.460033   1.000000
   20       10.096242   0.240752
   21       10.096242   0.240751
   22       10.234507   0.000000
   23       10.431962   0.000000
   24       10.679548   0.000000

  0.3076923E+00  0.2307692E+00 -0.5675373E-17  0.1092399E-01
    1      -34.025718   1.000000
    2      -12.849025   1.000000
    3      -12.827525   1.000000
    4      -12.806045   1.000000
    5      -12.797352   1.000000
    6      -12.797035   1.000000
    7       -9.420300   1.000000
    8       -9.332089   1.000000
    9       -9.328081   1.000000
   10       -1.723023   1.000000
   11        3.997422   1.000000
   12        5.347930   1.000000
   13        5.459399   1.000000
   14        5.849818   1.000000
   15        5.861250   1.000000
   16        7.093182   1.000000
   17        8.149204   1.000000
   18        8.298559   1.000000
   19        9.548260   1.000000
   20       10.082358   0.896109
   21       10.108842   0.006463
   22       10.282080   0.000000
   23       10.450831   0.000000
   24       10.665166   0.000000

  0.3846154E+00  0.2307692E+00 -0.7595976E-17  0.1092399E-01
    1      -34.024886   1.000000
    2      -12.847551   1.000000
    3      -12.832046   1.000000
    4      -12.806694   1.000000
    5      -12.797220   1.000000
    6      -12.796043   1.000000
    7       -9.457482   1.000000
    8       -9.324039   1.000000
    9       -9.323288   1.000000
   10       -1.584402   1.000000
   11        4.052839   1.000000
   12        5.125787   1.000000
   13        5.362613   1.000000
   14        5.854742   1.000000
   15        5.948520   1.000000
   16        6.803245   1.000000
   17        7.915413   1.000000
   18        8.336485   1.000000
   19        9.642555   1.000000
   20       10.095049   0.296289
   21       10.130467   0.000000
   22       10.320078   0.000000
   23       10.447355   0.000000
   24       10.620315   0.000000

  0.4615385E+00  0.2307692E+00 -0.1111487E-16  0.1092399E-01
    1      -34.024210   1.000000
    2      -12.845096   1.000000
    3      -12.838803   1.000000
    4      -12.806743   1.000000
    5      -12.797662   1.000000
    6      -12.795440   1.000000
    7       -9.483255   1.000000
    8       -9.328871   1.000000
    9       -9.308471   1.000000
   10       -1.469147   1.000000
   11        4.192867   1.000000
   12        4.973159   1.000000
   13        5.218441   1.000000
   14        5.883140   1.000000
   15        5.973872   1.000000
   16        6.514944   1.000000
   17        7.739856   1.000000
   18        8.363543   1.000000
   19        9.683082   1.000000
   20       10.127837   0.000000
   21       10.166234   0.000000
   22       10.359347   0.000000
   23       10.426355   0.000000
   24       10.574354   0.000000

 -0.4615385E+00  0.2307692E+00  0.6256878E-17  0.1092399E-01
    1      -34.023839   1.000000
    2      -12.846185   1.000000
    3      -12.842342   1.000000
    4      -12.806060   1.000000
    5      -12.798494   1.000000
    6      -12.795373   1.000000
    7       -9.492621   1.000000
    8       -9.341893   1.000000
    9       -9.290996   1.000000
   10       -1.392274   1.000000
   11        4.312388   1.000000
   12        4.920476   1.000000
   13        5.045970   1.000000
   14        5.917757   1.000000
   15        5.959929   1.000000
   16        6.359451   1.000000
   17        7.623234   1.000000
   18        8.357062   1.000000
   19        9.710858   1.000000
   20       10.130007   0.000000
   21       10.214374   0.000000
   22       10.384671   0.000000
   23       10.417690   0.000000
   24       10.540505   0.000000

 -0.3846154E+00  0.2307692E+00 -0.1587462E-16  0.1092399E-01
    1      -34.023862   1.000000
    2      -12.852591   1.000000
    3      -12.839968   1.000000
    4      -12.804811   1.000000
    5      -12.799389   1.000000
    6      -12.795813   1.000000
    7       -9.486154   1.000000
    8       -9.358423   1.000000
    9       -9.274807   1.000000
   10       -1.362237   1.000000
   11        4.290120   1.000000
   12        4.884182   1.000000
   13        4.982266   1.000000
   14        5.845276   1.000000
   15        6.066365   1.000000
   16        6.403303   1.000000
   17        7.525729   1.000000
   18        8.338626   1.000000
   19        9.724155   1.000000
   20       10.102091   0.062887
   21       10.264145   0.000000
   22       10.327745   0.000000