 vasp.6.0.8 29Jun18 (build Jun 13 2019 12:54:44) complex

 executed on      IFC18_CrayMPICH date 2021.12.05  14:21:50
 running   64 mpi-ranks, with    1 threads/rank
 distrk:  each k-point on   16 cores,    4 groups
 distr:  one band on NCORES_PER_BAND=   4 cores,    4 groups


--------------------------------------------------------------------------------------------------------


 INCAR:
 POTCAR:    PAW_PBE U 06Sep2000
 POTCAR:    PAW_PBE Bi_d 06Sep2000
 POTCAR:    PAW_PBE Pt 04Feb2005
 POTCAR:    PAW_PBE U 06Sep2000
   VRHFIN =U:  [Xe,5d,4f]
   LEXCH  = PE
   EATOM  =  1405.3058 eV,  103.2871 Ry

   TITEL  = PAW_PBE U 06Sep2000
   LULTRA =        F    use ultrasoft PP ?
   IUNSCR =        1    unscreen: 0-lin 1-nonlin 2-no
   RPACOR =    2.200    partial core radius
   POMASS =  238.029; ZVAL   =   14.000    mass and valenz
   RCORE  =    2.800    outmost cutoff radius
   RWIGS  =    3.000; RWIGS  =    1.588    wigner-seitz radius (au A)
   ENMAX  =  252.502; ENMIN  =  189.376 eV
   RCLOC  =    1.811    cutoff for local pot
   LCOR   =        T    correct aug charges
   LPAW   =        T    paw PP
   EAUG   =  526.410
   DEXC   =    0.000
   RMAX   =    2.863    core radius for proj-oper
   RAUG   =    1.300    factor for augmentation sphere
   RDEP   =    2.950    radius for radial grids
   RDEPT  =    2.270    core radius for aug-charge

   Atomic configuration
   18 entries
     n  l   j            E        occ.
     1  0  0.50   -116038.1941   2.0000
     2  0  0.50    -21694.8835   2.0000
     2  1  1.50    -18009.1553   6.0000
     3  0  0.50     -5481.2929   2.0000
     3  1  1.50     -4458.9283   6.0000
     3  2  2.50     -3575.9978  10.0000
     4  0  0.50     -1400.5351   2.0000
     4  1  1.50     -1066.7807   6.0000
     4  2  2.50      -732.1336  10.0000
     4  3  3.50      -377.4393  14.0000
     5  0  0.50      -314.7366   2.0000
     5  1  1.50      -211.6057   6.0000
     5  2  2.50      -103.2045  10.0000
     6  0  0.50       -50.6026   2.0000
     7  0  0.50        -4.5896   2.0000
     6  1  1.50       -25.2884   6.0000
     6  2  1.50        -3.1039   2.0000
     5  3  2.50        -6.3670   2.0000
   Description
     l       E           TYP  RCUT    TYP  RCUT
     0    -50.6026097     23  2.600
     0     -4.5896371     23  2.600
     1    -25.2883770     23  2.500
     1     27.2116520     23  2.500
     2     -3.1038686     23  2.500
     2      0.8290654     23  2.500
     3     -6.3670133     23  2.800
     3     -7.7275959     23  2.800
  local pseudopotential read in
  partial core-charges read in
  partial kinetic energy density read in
  atomic valenz-charges read in
  non local Contribution for L=           0  read in
    real space projection operators read in
  non local Contribution for L=           0  read in
    real space projection operators read in
  non local Contribution for L=           1  read in
    real space projection operators read in
  non local Contribution for L=           1  read in
    real space projection operators read in
  non local Contribution for L=           2  read in
    real space projection operators read in
  non local Contribution for L=           2  read in
    real space projection operators read in
  non local Contribution for L=           3  read in
    real space projection operators read in
  non local Contribution for L=           3  read in
    real space projection operators read in
    PAW grid and wavefunctions read in

   number of l-projection  operators is LMAX  =           8
   number of lm-projection operators is LMMAX =          32

 POTCAR:    PAW_PBE Bi_d 06Sep2000
   VRHFIN =Bi:
   LEXCH  = PE
   EATOM  =  1959.2045 eV,  143.9975 Ry

   TITEL  = PAW_PBE Bi_d 06Sep2000
   LULTRA =        F    use ultrasoft PP ?
   IUNSCR =        1    unscreen: 0-lin 1-nonlin 2-no
   RPACOR =    2.200    partial core radius
   POMASS =  208.980; ZVAL   =   15.000    mass and valenz
   RCORE  =    2.500    outmost cutoff radius
   RWIGS  =    3.090; RWIGS  =    1.635    wigner-seitz radius (au A)
   ENMAX  =  242.839; ENMIN  =  182.129 eV
   ICORE  =        3    local potential
   LCOR   =        T    correct aug charges
   LPAW   =        T    paw PP
   EAUG   =  442.899
   DEXC   =    0.000
   RMAX   =    2.551    core radius for proj-oper
   RAUG   =    1.300    factor for augmentation sphere
   RDEP   =    2.650    radius for radial grids
   RDEPT  =    2.039    core radius for aug-charge

   Atomic configuration
   16 entries
     n  l   j            E        occ.
     1  0  0.50    -90639.6581   2.0000
     2  0  0.50    -16282.4666   2.0000
     2  1  1.50    -13922.8286   6.0000
     3  0  0.50     -3930.4763   2.0000
     3  1  1.50     -3256.7013   6.0000
     3  2  2.50     -2581.6168  10.0000
     4  0  0.50      -902.2614   2.0000
     4  1  1.50      -681.5915   6.0000
     4  2  2.50      -429.8249  10.0000
     4  3  3.50      -152.6004  14.0000
     5  0  0.50      -157.7156   2.0000
     5  1  1.50       -95.8054   6.0000
     5  2  2.50       -27.0806  10.0000
     6  0  0.50       -14.4732   2.0000
     6  1  1.50        -4.5702   3.0000
     5  3  2.50        -2.7212   0.0000
   Description
     l       E           TYP  RCUT    TYP  RCUT
     2    -27.0805982     23  2.500
     2     -1.3605826     23  2.500
     0    -14.4732271     23  2.500
     0      6.8029130     23  2.500
     1     -4.5701651     23  2.500
     1     13.6058260     23  2.500
     3     -1.3605826      7  2.500
  local pseudopotential read in
  partial core-charges read in
  partial kinetic energy density read in
  atomic valenz-charges read in
  non local Contribution for L=           2  read in
    real space projection operators read in
  non local Contribution for L=           2  read in
    real space projection operators read in
  non local Contribution for L=           0  read in
    real space projection operators read in
  non local Contribution for L=           0  read in
    real space projection operators read in
  non local Contribution for L=           1  read in
    real space projection operators read in
  non local Contribution for L=           1  read in
    real space projection operators read in
    PAW grid and wavefunctions read in

   number of l-projection  operators is LMAX  =           6
   number of lm-projection operators is LMMAX =          18

 POTCAR:    PAW_PBE Pt 04Feb2005
   VRHFIN =Pt: s1d9
   LEXCH  = PE
   EATOM  =   729.1176 eV,   53.5886 Ry

   TITEL  = PAW_PBE Pt 04Feb2005
   LULTRA =        F    use ultrasoft PP ?
   IUNSCR =        1    unscreen: 0-lin 1-nonlin 2-no
   RPACOR =    2.330    partial core radius
   POMASS =  195.080; ZVAL   =   10.000    mass and valenz
   RCORE  =    2.600    outmost cutoff radius
   RWIGS  =    2.750; RWIGS  =    1.455    wigner-seitz radius (au A)
   ENMAX  =  230.283; ENMIN  =  172.712 eV
   ICORE  =        3    local potential
   LCOR   =        T    correct aug charges
   LPAW   =        T    paw PP
   EAUG   =  358.966
   DEXC   =    0.000
   RMAX   =    2.658    core radius for proj-oper
   RAUG   =    1.300    factor for augmentation sphere
   RDEP   =    2.761    radius for radial grids
   RDEPT  =    2.203    core radius for aug-charge

   Atomic configuration
   16 entries
     n  l   j            E        occ.
     1  0  0.50    -78401.1885   2.0000
     2  0  0.50    -13770.7750   2.0000
     2  1  1.50    -11931.0468   6.0000
     3  0  0.50     -3234.7234   2.0000
     3  1  1.50     -2699.2216   6.0000
     3  2  2.50     -2119.5714  10.0000
     4  0  0.50      -695.1528   2.0000
     4  1  1.50      -519.6034   6.0000
     4  2  2.50      -306.6786  10.0000
     4  3  3.50       -70.1041  14.0000
     5  0  0.50      -101.7747   2.0000
     5  1  1.50       -55.9873   6.0000
     5  2  2.50        -6.1423   9.0000
     6  0  0.50        -5.6573   1.0000
     6  1  1.50        -6.8029   0.0000
     5  3  2.50        -1.3606   0.0000
   Description
     l       E           TYP  RCUT    TYP  RCUT
     2     -6.1423404     23  2.500
     2     -7.5029230     23  2.500
     0     -5.6573207     23  2.500
     0      0.7416693     23  2.500
     1     -2.7211652     23  2.600
     1     20.4087390     23  2.600
     3     -1.3605826     23  2.500
  local pseudopotential read in
  partial core-charges read in
  partial kinetic energy density read in
  atomic valenz-charges read in
  non local Contribution for L=           2  read in
    real space projection operators read in
  non local Contribution for L=           2  read in
    real space projection operators read in
  non local Contribution for L=           0  read in
    real space projection operators read in
  non local Contribution for L=           0  read in
    real space projection operators read in
  non local Contribution for L=           1  read in
    real space projection operators read in
  non local Contribution for L=           1  read in
    real space projection operators read in
    PAW grid and wavefunctions read in

   number of l-projection  operators is LMAX  =           6
   number of lm-projection operators is LMMAX =          18

 WARNING: PSMAXN for non-local potential too small
          PSMAXN should be >   13.5545592237991       NTYP=           1

 -----------------------------------------------------------------------------
|                                                                             |
|  ADVICE TO THIS USER RUNNING 'VASP/VAMP'   (HEAR YOUR MASTER'S VOICE ...):  |
|                                                                             |
|      You enforced a specific xc-type in the INCAR file,                     |
|      a different type was found on the POTCAR file                          |
|          I HOPE YOU KNOW, WHAT YOU ARE  DOING                               |
|                                                                             |
 -----------------------------------------------------------------------------

  PAW_PBE U 06Sep2000                   :
 energy of atom  1       EATOM=-1405.3058
 kinetic energy error for atom=    0.0006 (will be added to EATOM!!)
  PAW_PBE Bi_d 06Sep2000                :
 energy of atom  2       EATOM=-1959.2045
 kinetic energy error for atom=    0.0012 (will be added to EATOM!!)
  PAW_PBE Pt 04Feb2005                  :
 energy of atom  3       EATOM= -729.1176
 kinetic energy error for atom=    0.0010 (will be added to EATOM!!)


 POSCAR: U1 Bi1 Pt1
  positions in direct lattice
  No initial velocities read in
 exchange correlation table for  LEXCH =       14
   RHO(1)=    0.500       N(1)  =     2000
   RHO(2)=  100.500       N(2)  =     4000



--------------------------------------------------------------------------------------------------------


 ion  position               nearest neighbor table
   1  0.250  0.250  0.250-   3 2.87   3 2.87   3 2.87   3 2.87   2 3.32   2 3.32   2 3.32   2 3.32
                             2 3.32   2 3.32
   2  0.750  0.750  0.750-   3 2.87   3 2.87   3 2.87   3 2.87   1 3.32   1 3.32   1 3.32   1 3.32
                             1 3.32   1 3.32
   3  0.000  0.000  0.000-   2 2.87   2 2.87   2 2.87   1 2.87   2 2.87   1 2.87   1 2.87   1 2.87


  LATTYP: Found a face centered cubic cell.
 ALAT       =     6.6352820000

  Lattice vectors:

 A1 = (   0.0000000000,   3.3176410000,   3.3176410000)
 A2 = (   3.3176410000,   0.0000000000,   3.3176410000)
 A3 = (   3.3176410000,   3.3176410000,   0.0000000000)


Analysis of symmetry for initial positions (statically):
=====================================================================
 Subroutine PRICEL returns:
 Original cell was already a primitive cell.


 Routine SETGRP: Setting up the symmetry group for a
 face centered cubic supercell.


 Subroutine GETGRP returns: Found 24 space group operations
 (whereof 24 operations were pure point group operations)
 out of a pool of 48 trial point group operations.


The static configuration has the point symmetry T_d .


Analysis of symmetry for dynamics (positions and initial velocities):
=====================================================================
 Subroutine PRICEL returns:
 Original cell was already a primitive cell.


 Routine SETGRP: Setting up the symmetry group for a
 face centered cubic supercell.


 Subroutine GETGRP returns: Found 24 space group operations
 (whereof 24 operations were pure point group operations)
 out of a pool of 48 trial point group operations.


The dynamic configuration has the point symmetry T_d .


 Subroutine INISYM returns: Found 24 space group operations
 (whereof 24 operations are pure point group operations),
 and found     1 'primitive' translations


----------------------------------------------------------------------------------------

                                     Primitive cell

  volume of cell :      73.0328

  direct lattice vectors                    reciprocal lattice vectors
     0.000000000  3.317641000  3.317641000    -0.150709495  0.150709495  0.150709495
     3.317641000  0.000000000  3.317641000     0.150709495 -0.150709495  0.150709495
     3.317641000  3.317641000  0.000000000     0.150709495  0.150709495 -0.150709495

  length of vectors
     4.691852897  4.691852897  4.691852897     0.261036503  0.261036503  0.261036503

  position of ions in fractional coordinates (direct lattice)
     0.250000000  0.250000000  0.250000000
     0.750000000  0.750000000  0.750000000
     0.000000000  0.000000000  0.000000000

  ion indices of the primitive-cell ions
   primitive index   ion index
                 1           1
                 2           2
                 3           3

----------------------------------------------------------------------------------------



 KPOINTS: KPOINTS

Automatic generation of k-mesh.
Space group operators:
 irot       det(A)        alpha          n_x          n_y          n_z        tau_x        tau_y        tau_z
    1     1.000000     0.000000     1.000000     0.000000     0.000000     0.000000     0.000000     0.000000
    2     1.000000   120.000000    -0.577350    -0.577350    -0.577350     0.000000     0.000000     0.000000
    3     1.000000   120.000000     0.577350     0.577350     0.577350     0.000000     0.000000     0.000000
    4    -1.000000    90.000000    -0.000000    -0.000000    -1.000000     0.000000     0.000000     0.000000
    5    -1.000000   180.000000     0.000000     0.707107     0.707107     0.000000     0.000000     0.000000
    6    -1.000000    90.000000    -0.000000     1.000000    -0.000000     0.000000     0.000000     0.000000
    7     1.000000   180.000000    -0.000000    -0.000000     1.000000     0.000000     0.000000     0.000000
    8     1.000000   120.000000    -0.577350     0.577350     0.577350     0.000000     0.000000     0.000000
    9     1.000000   120.000000    -0.577350     0.577350    -0.577350     0.000000     0.000000     0.000000
   10    -1.000000    90.000000     0.000000     0.000000     1.000000     0.000000     0.000000     0.000000
   11    -1.000000    90.000000    -1.000000     0.000000     0.000000     0.000000     0.000000     0.000000
   12    -1.000000   180.000000     0.707107     0.000000     0.707107     0.000000     0.000000     0.000000
   13     1.000000   120.000000     0.577350    -0.577350     0.577350     0.000000     0.000000     0.000000
   14     1.000000   120.000000    -0.577350    -0.577350     0.577350     0.000000     0.000000     0.000000
   15     1.000000   180.000000     1.000000     0.000000     0.000000     0.000000     0.000000     0.000000
   16    -1.000000    90.000000     0.000000    -1.000000     0.000000     0.000000     0.000000     0.000000
   17    -1.000000   180.000000     0.707107     0.707107    -0.000000     0.000000     0.000000     0.000000
   18    -1.000000    90.000000     1.000000     0.000000     0.000000     0.000000     0.000000     0.000000
   19     1.000000   120.000000     0.577350    -0.577350    -0.577350     0.000000     0.000000     0.000000
   20     1.000000   180.000000     0.000000     1.000000    -0.000000     0.000000     0.000000     0.000000
   21     1.000000   120.000000     0.577350     0.577350    -0.577350     0.000000     0.000000     0.000000
   22    -1.000000   180.000000    -0.000000    -0.707107     0.707107     0.000000     0.000000     0.000000
   23    -1.000000   180.000000     0.707107    -0.707107     0.000000     0.000000     0.000000     0.000000
   24    -1.000000   180.000000     0.707107     0.000000    -0.707107     0.000000     0.000000     0.000000

 Subroutine IBZKPT returns following result:
 ===========================================

 Found     84 irreducible k-points:

 Following reciprocal coordinates:
            Coordinates               Weight
  0.000000  0.000000  0.000000      1.000000
  0.076923  0.000000 -0.000000      8.000000
  0.153846 -0.000000  0.000000      8.000000
  0.230769  0.000000 -0.000000      8.000000
  0.307692 -0.000000  0.000000      8.000000
  0.384615  0.000000 -0.000000      8.000000
  0.461538  0.000000 -0.000000      8.000000
  0.076923  0.076923 -0.000000      6.000000
  0.153846  0.076923 -0.000000     24.000000
  0.230769  0.076923 -0.000000     24.000000
  0.307692  0.076923 -0.000000     24.000000
  0.384615  0.076923 -0.000000     24.000000
  0.461538  0.076923 -0.000000     24.000000
 -0.461538  0.076923  0.000000     24.000000
 -0.384615  0.076923  0.000000     24.000000
 -0.307692  0.076923  0.000000     24.000000
 -0.230769  0.076923  0.000000     24.000000
 -0.153846  0.076923  0.000000     24.000000
 -0.076923  0.076923  0.000000     12.000000
  0.153846  0.153846 -0.000000      6.000000
  0.230769  0.153846 -0.000000     24.000000
  0.307692  0.153846 -0.000000     24.000000
  0.384615  0.153846 -0.000000     24.000000
  0.461538  0.153846 -0.000000     24.000000
 -0.461538  0.153846 -0.000000     24.000000
 -0.384615  0.153846  0.000000     24.000000
 -0.307692  0.153846  0.000000     24.000000
 -0.230769  0.153846  0.000000     24.000000
 -0.153846  0.153846 -0.000000     12.000000
  0.230769  0.230769 -0.000000      6.000000
  0.307692  0.230769 -0.000000     24.000000
  0.384615  0.230769 -0.000000     24.000000
  0.461538  0.230769 -0.000000     24.000000
 -0.461538  0.230769  0.000000     24.000000
 -0.384615  0.230769 -0.000000     24.000000
 -0.307692  0.230769  0.000000     24.000000
 -0.230769  0.230769  0.000000     12.000000
  0.307692  0.307692 -0.000000      6.000000
  0.384615  0.307692 -0.000000     24.000000
  0.461538  0.307692 -0.000000     24.000000
 -0.461538  0.307692  0.000000     24.000000
 -0.384615  0.307692  0.000000     24.000000
 -0.307692  0.307692 -0.000000     12.000000
  0.384615  0.384615 -0.000000      6.000000
  0.461538  0.384615 -0.000000     24.000000
 -0.461538  0.384615 -0.000000     24.000000
 -0.384615  0.384615  0.000000     12.000000
  0.461538  0.461538 -0.000000      6.000000
 -0.461538  0.461538  0.000000     12.000000
  0.230769  0.153846  0.076923     24.000000
  0.307692  0.153846  0.076923     48.000000
  0.384615  0.153846  0.076923     48.000000
  0.461538  0.153846  0.076923     48.000000
 -0.461538  0.153846  0.076923     48.000000
  0.307692  0.230769  0.076923     24.000000
  0.384615  0.230769  0.076923     48.000000
  0.461538  0.230769  0.076923     48.000000
 -0.461538  0.230769  0.076923     48.000000
 -0.384615  0.230769  0.076923     48.000000
 -0.307692  0.230769  0.076923     48.000000
 -0.230769  0.230769  0.076923     48.000000
 -0.153846  0.230769  0.076923     24.000000
  0.384615  0.307692  0.076923     24.000000
  0.461538  0.307692  0.076923     48.000000
 -0.461538  0.307692  0.076923     48.000000
 -0.384615  0.307692  0.076923     48.000000
 -0.307692  0.307692  0.076923     48.000000
 -0.230769  0.307692  0.076923     24.000000
  0.461538  0.384615  0.076923     24.000000
 -0.461538  0.384615  0.076923     48.000000
 -0.384615  0.384615  0.076923     48.000000
 -0.307692  0.384615  0.076923     24.000000
 -0.461538  0.461538  0.076923     24.000000
 -0.384615  0.461538  0.076923     24.000000
  0.461538  0.307692  0.153846     24.000000
 -0.461538  0.307692  0.153846     48.000000
 -0.384615  0.307692  0.153846     48.000000
 -0.461538  0.384615  0.153846     24.000000
 -0.384615  0.384615  0.153846     48.000000
 -0.307692  0.384615  0.153846     48.000000
 -0.230769  0.384615  0.153846     24.000000
 -0.384615  0.461538  0.153846     24.000000
 -0.307692  0.461538  0.153846     24.000000
 -0.307692  0.461538  0.230769     24.000000

 Following cartesian coordinates:
            Coordinates               Weight
  0.000000  0.000000  0.000000      1.000000
 -0.011593  0.011593  0.011593      8.000000
 -0.023186  0.023186  0.023186      8.000000
 -0.034779  0.034779  0.034779      8.000000
 -0.046372  0.046372  0.046372      8.000000
 -0.057965  0.057965  0.057965      8.000000
 -0.069558  0.069558  0.069558      8.000000
 -0.000000  0.000000  0.023186      6.000000
 -0.011593  0.011593  0.034779     24.000000
 -0.023186  0.023186  0.046372     24.000000
 -0.034779  0.034779  0.057965     24.000000
 -0.046372  0.046372  0.069558     24.000000
 -0.057965  0.057965  0.081151     24.000000
  0.081151 -0.081151 -0.057965     24.000000
  0.069558 -0.069558 -0.046372     24.000000
  0.057965 -0.057965 -0.034779     24.000000
  0.046372 -0.046372 -0.023186     24.000000
  0.034779 -0.034779 -0.011593     24.000000
  0.023186 -0.023186 -0.000000     12.000000
  0.000000 -0.000000  0.046372      6.000000
 -0.011593  0.011593  0.057965     24.000000
 -0.023186  0.023186  0.069558     24.000000
 -0.034779  0.034779  0.081151     24.000000
 -0.046372  0.046372  0.092744     24.000000
  0.092744 -0.092744 -0.046372     24.000000
  0.081151 -0.081151 -0.034779     24.000000
  0.069558 -0.069558 -0.023186     24.000000
  0.057965 -0.057965 -0.011593     24.000000
  0.046372 -0.046372  0.000000     12.000000
 -0.000000  0.000000  0.069558      6.000000
 -0.011593  0.011593  0.081151     24.000000
 -0.023186  0.023186  0.092744     24.000000
 -0.034779  0.034779  0.104337     24.000000
  0.104337 -0.104337 -0.034779     24.000000
  0.092744 -0.092744 -0.023186     24.000000
  0.081151 -0.081151 -0.011593     24.000000
  0.069558 -0.069558 -0.000000     12.000000
  0.000000 -0.000000  0.092744      6.000000
 -0.011593  0.011593  0.104337     24.000000
 -0.023186  0.023186  0.115930     24.000000
  0.115930 -0.115930 -0.023186     24.000000
  0.104337 -0.104337 -0.011593     24.000000
  0.092744 -0.092744  0.000000     12.000000
 -0.000000 -0.000000  0.115930      6.000000
 -0.011593  0.011593  0.127523     24.000000
  0.127523 -0.127523 -0.011593     24.000000
  0.115930 -0.115930 -0.000000     12.000000
  0.000000 -0.000000  0.139116      6.000000
  0.139116 -0.139116 -0.000000     12.000000
  0.000000  0.023186  0.046372     24.000000
 -0.011593  0.034779  0.057965     48.000000
 -0.023186  0.046372  0.069558     48.000000
 -0.034779  0.057965  0.081151     48.000000
  0.104337 -0.081151 -0.057965     48.000000
  0.000000  0.023186  0.069558     24.000000
 -0.011593  0.034779  0.081151     48.000000
 -0.023186  0.046372  0.092744     48.000000
  0.115930 -0.092744 -0.046372     48.000000
  0.104337 -0.081151 -0.034779     48.000000
  0.092744 -0.069558 -0.023186     48.000000
  0.081151 -0.057965 -0.011593     48.000000
  0.069558 -0.046372 -0.000000     24.000000
 -0.000000  0.023186  0.092744     24.000000
 -0.011593  0.034779  0.104337     48.000000
  0.127523 -0.104337 -0.034779     48.000000
  0.115930 -0.092744 -0.023186     48.000000
  0.104337 -0.081151 -0.011593     48.000000
  0.092744 -0.069558 -0.000000     24.000000
  0.000000  0.023186  0.115930     24.000000
  0.139116 -0.115930 -0.023186     48.000000
  0.127523 -0.104337 -0.011593     48.000000
  0.115930 -0.092744 -0.000000     24.000000
  0.150709 -0.127523 -0.011593     24.000000
  0.139116 -0.115930 -0.000000     24.000000
 -0.000000  0.046372  0.092744     24.000000
  0.139116 -0.092744 -0.046372     48.000000
  0.127523 -0.081151 -0.034779     48.000000
  0.150709 -0.104337 -0.034779     24.000000
  0.139116 -0.092744 -0.023186     48.000000
  0.127523 -0.081151 -0.011593     48.000000
  0.115930 -0.069558 -0.000000     24.000000
  0.150709 -0.104337 -0.011593     24.000000
  0.139116 -0.092744 -0.000000     24.000000
  0.150709 -0.081151 -0.011593     24.000000



--------------------------------------------------------------------------------------------------------




 Dimension of arrays:
   k-points           NKPTS =     84   k-points in BZ     NKDIM =     84   number of bands    NBANDS=     24
   number of dos      NEDOS =    301   number of ions     NIONS =      3
   non local maximal  LDIM  =      8   non local SUM 2l+1 LMDIM =     32
   total plane-waves  NPLWV =  64000
   max r-space proj   IRMAX =      1   max aug-charges    IRDMAX= 427735
   dimension x,y,z NGX =    40 NGY =   40 NGZ =   40
   dimension x,y,z NGXF=    80 NGYF=   80 NGZF=   80
   support grid    NGXF=   160 NGYF=  160 NGZF=  160
   ions per type =               1   1   1
   NGX,Y,Z   is equivalent  to a cutoff of  14.17, 14.17, 14.17 a.u.
   NGXF,Y,Z  is equivalent  to a cutoff of  28.35, 28.35, 28.35 a.u.

 SYSTEM =  unknown system
 POSCAR =  U1 Bi1 Pt1

 Startparameter for this run:
   NWRITE =      2    write-flag & timer
   PREC   = acc       normal or accurate (medium, high low for compatibility)
   ISTART =      0    job   : 0-new  1-cont  2-samecut
   ICHARG =      2    charge: 1-file 2-atom 10-const
   ISPIN  =      1    spin polarized calculation?
   LNONCOLLINEAR =      F non collinear calculations
   LSORBIT =      F    spin-orbit coupling
   INIWAV =      1    electr: 0-lowe 1-rand  2-diag
   LASPH  =      F    aspherical Exc in radial PAW
   METAGGA=      F    non-selfconsistent MetaGGA calc.

 Electronic Relaxation 1
   ENCUT  =  700.0 eV  51.45 Ry    7.17 a.u.  10.12 10.12 10.12*2*pi/ulx,y,z
   ENINI  =  700.0     initial cutoff
   ENAUG  =  526.4 eV  augmentation charge cutoff
   NELM   =     60;   NELMIN=  5; NELMDL= -5     # of ELM steps
   EDIFF  = 0.1E-06   stopping-criterion for ELM
   LREAL  =      F    real-space projection
   NLSPLINE    = F    spline interpolate recip. space projectors
   LCOMPAT=      F    compatible to vasp.4.4
   GGA_COMPAT  = T    GGA compatible to vasp.4.4-vasp.4.6
   LMAXPAW     = -100 max onsite density
   LMAXMIX     =    2 max onsite mixed and CHGCAR
   VOSKOWN=      0    Vosko Wilk Nusair interpolation
   ROPT   =    0.00000   0.00000   0.00000
 Ionic relaxation
   EDIFFG = 0.1E-05   stopping-criterion for IOM
   NSW    =      0    number of steps for IOM
   NBLOCK =      1;   KBLOCK =      1    inner block; outer block
   IBRION =     -1    ionic relax: 0-MD 1-quasi-New 2-CG
   NFREE  =      0    steps in history (QN), initial steepest desc. (CG)
   ISIF   =      3    stress and relaxation
   IWAVPR =     10    prediction:  0-non 1-charg 2-wave 3-comb
   ISYM   =      2    0-nonsym 1-usesym 2-fastsym
   LCORR  =      T    Harris-Foulkes like correction to forces

   POTIM  = 0.5000    time-step for ionic-motion
   TEIN   =    0.0    initial temperature
   TEBEG  =    0.0;   TEEND  =   0.0 temperature during run
   SMASS  =  -3.00    Nose mass-parameter (am)
   estimated Nose-frequenzy (Omega)   =  0.10E-29 period in steps = 0.13E+47 mass=  -0.503E-27a.u.
   SCALEE = 1.0000    scale energy and forces
   NPACO  =    256;   APACO  = 16.0  distance and # of slots for P.C.
   PSTRESS=    0.0 pullay stress

  Mass of Ions in am
   POMASS = 238.03208.98195.08
  Ionic Valenz
   ZVAL   =  14.00 15.00 10.00
  Atomic Wigner-Seitz radii
   RWIGS  =  -1.00 -1.00 -1.00
  virtual crystal weights
   VCA    =   1.00  1.00  1.00
   NELECT =      39.0000    total number of electrons
   NUPDOWN=      -1.0000    fix difference up-down

 DOS related values:
   EMIN   =  10.00;   EMAX   =-10.00  energy-range for DOS
   EFERMI =   0.00
   ISMEAR =     0;   SIGMA  =   0.01  broadening in eV -4-tet -1-fermi 0-gaus

 Electronic relaxation 2 (details)
   IALGO  =     38    algorithm
   LDIAG  =      T    sub-space diagonalisation (order eigenvalues)
   LSUBROT=      F    optimize rotation matrix (better conditioning)
   TURBO    =      0    0=normal 1=particle mesh
   IRESTART =      0    0=no restart 2=restart with 2 vectors
   NREBOOT  =      0    no. of reboots
   NMIN     =      0    reboot dimension
   EREF     =   0.00    reference energy to select bands
   IMIX   =      4    mixing-type and parameters
     AMIX     =   0.40;   BMIX     =  1.00
     AMIX_MAG =   1.60;   BMIX_MAG =  1.00
     AMIN     =   0.10
     WC   =   100.;   INIMIX=   1;  MIXPRE=   1;  MAXMIX= -45

 Intra band minimization:
   WEIMIN = 0.0000     energy-eigenvalue tresh-hold
   EBREAK =  0.10E-08  absolut break condition
   DEPER  =   0.30     relativ break condition

   TIME   =   0.40     timestep for ELM

  volume/ion in A,a.u.               =      24.34       164.28
  Fermi-wavevector in a.u.,A,eV,Ry     =   1.328180  2.509897 24.001527  1.764062
  Thomas-Fermi vector in A             =   2.457437

 Write flags
   LWAVE        =      F    write WAVECAR
   LDOWNSAMPLE  =      F    k-point downsampling of WAVECAR
   LCHARG       =      F    write CHGCAR
   LVTOT        =      F    write LOCPOT, total local potential
   LVHAR        =      F    write LOCPOT, Hartree potential only
   LELF         =      F    write electronic localiz. function (ELF)
   LORBIT       =      0    0 simple, 1 ext, 2 COOP (PROOUT), +10 PAW based schemes


 Dipole corrections
   LMONO  =      F    monopole corrections only (constant potential shift)
   LDIPOL =      F    correct potential (dipole corrections)
   IDIPOL =      0    1-x, 2-y, 3-z, 4-all directions
   EPSILON=  1.0000000 bulk dielectric constant

 Exchange correlation treatment:
   GGA     =    PS    GGA type
   LEXCH   =    14    internal setting for exchange type
   VOSKOWN=      0    Vosko Wilk Nusair interpolation
   LHFCALC =     F    Hartree Fock is set to
   LHFONE  =     F    Hartree Fock one center treatment
   AEXX    =    0.0000 exact exchange contribution

 Linear response parameters
   LEPSILON=     F    determine dielectric tensor
   LRPA    =     F    only Hartree local field effects (RPA)
   LNABLA  =     F    use nabla operator in PAW spheres
   LVEL    =     F    velocity operator in full k-point grid
   LINTERFAST=   F  fast interpolation
   KINTER  =     0    interpolate to denser k-point grid
   CSHIFT  =0.1000    complex shift for real part using Kramers Kronig
   OMEGAMAX=  -1.0    maximum frequency
   DEG_THRESHOLD= 0.2000000E-02 threshold for treating states as degnerate
   RTIME   =   -0.100 relaxation time in fs
  (WPLASMAI=    0.000 imaginary part of plasma frequency in eV, 0.658/RTIME)
   DFIELD  = 0.0000000 0.0000000 0.0000000 field for delta impulse in time

 Orbital magnetization related:
   ORBITALMAG=     F  switch on orbital magnetization
   LCHIMAG   =     F  perturbation theory with respect to B field
   DQ        =  0.001000  dq finite difference perturbation B field
   LLRAUG    =     F  two centre corrections for induced B field



--------------------------------------------------------------------------------------------------------


 Static calculation
 charge density and potential will be updated during run
 non-spin polarized calculation
 Variant of blocked Davidson
 Davidson routine will perform the subspace rotation
 perform sub-space diagonalisation
    after iterative eigenvector-optimisation
 modified Broyden-mixing scheme, WC =      100.0
 initial mixing is a Kerker type mixing with AMIX =  0.4000 and BMIX =      1.0000
 Hartree-type preconditioning will be used
 using additional bands            4
 reciprocal scheme for non local part
 use partial core corrections
 calculate Harris-corrections to forces
   (improved forces if not selfconsistent)
 use gradient corrections
 use of overlap-Matrix (Vanderbilt PP)
 Gauss-broadening in eV      SIGMA  =   0.01


--------------------------------------------------------------------------------------------------------


  energy-cutoff  :      700.00
  volume of cell :       73.03
      direct lattice vectors                 reciprocal lattice vectors
     0.000000000  3.317641000  3.317641000    -0.150709495  0.150709495  0.150709495
     3.317641000  0.000000000  3.317641000     0.150709495 -0.150709495  0.150709495
     3.317641000  3.317641000  0.000000000     0.150709495  0.150709495 -0.150709495

  length of vectors
     4.691852897  4.691852897  4.691852897     0.261036503  0.261036503  0.261036503



 k-points in units of 2pi/SCALE and weight: KPOINTS
   0.00000000  0.00000000  0.00000000       0.000
  -0.01159304  0.01159304  0.01159304       0.004
  -0.02318608  0.02318608  0.02318608       0.004
  -0.03477911  0.03477911  0.03477911       0.004
  -0.04637215  0.04637215  0.04637215       0.004
  -0.05796519  0.05796519  0.05796519       0.004
  -0.06955823  0.06955823  0.06955823       0.004
  -0.00000000  0.00000000  0.02318608       0.003
  -0.01159304  0.01159304  0.03477911       0.011
  -0.02318608  0.02318608  0.04637215       0.011
  -0.03477911  0.03477911  0.05796519       0.011
  -0.04637215  0.04637215  0.06955823       0.011
  -0.05796519  0.05796519  0.08115127       0.011
   0.08115127 -0.08115127 -0.05796519       0.011
   0.06955823 -0.06955823 -0.04637215       0.011
   0.05796519 -0.05796519 -0.03477911       0.011
   0.04637215 -0.04637215 -0.02318608       0.011
   0.03477911 -0.03477911 -0.01159304       0.011
   0.02318608 -0.02318608 -0.00000000       0.005
   0.00000000 -0.00000000  0.04637215       0.003
  -0.01159304  0.01159304  0.05796519       0.011
  -0.02318608  0.02318608  0.06955823       0.011
  -0.03477911  0.03477911  0.08115127       0.011
  -0.04637215  0.04637215  0.09274430       0.011
   0.09274430 -0.09274430 -0.04637215       0.011
   0.08115127 -0.08115127 -0.03477911       0.011
   0.06955823 -0.06955823 -0.02318608       0.011
   0.05796519 -0.05796519 -0.01159304       0.011
   0.04637215 -0.04637215  0.00000000       0.005
  -0.00000000  0.00000000  0.06955823       0.003
  -0.01159304  0.01159304  0.08115127       0.011
  -0.02318608  0.02318608  0.09274430       0.011
  -0.03477911  0.03477911  0.10433734       0.011
   0.10433734 -0.10433734 -0.03477911       0.011
   0.09274430 -0.09274430 -0.02318608       0.011
   0.08115127 -0.08115127 -0.01159304       0.011
   0.06955823 -0.06955823 -0.00000000       0.005
   0.00000000 -0.00000000  0.09274430       0.003
  -0.01159304  0.01159304  0.10433734       0.011
  -0.02318608  0.02318608  0.11593038       0.011
   0.11593038 -0.11593038 -0.02318608       0.011
   0.10433734 -0.10433734 -0.01159304       0.011
   0.09274430 -0.09274430  0.00000000       0.005
  -0.00000000 -0.00000000  0.11593038       0.003
  -0.01159304  0.01159304  0.12752342       0.011
   0.12752342 -0.12752342 -0.01159304       0.011
   0.11593038 -0.11593038 -0.00000000       0.005
   0.00000000 -0.00000000  0.13911646       0.003
   0.13911646 -0.13911646 -0.00000000       0.005
   0.00000000  0.02318608  0.04637215       0.011
  -0.01159304  0.03477911  0.05796519       0.022
  -0.02318608  0.04637215  0.06955823       0.022
  -0.03477911  0.05796519  0.08115127       0.022
   0.10433734 -0.08115127 -0.05796519       0.022
   0.00000000  0.02318608  0.06955823       0.011
  -0.01159304  0.03477911  0.08115127       0.022
  -0.02318608  0.04637215  0.09274430       0.022
   0.11593038 -0.09274430 -0.04637215       0.022
   0.10433734 -0.08115127 -0.03477911       0.022
   0.09274430 -0.06955823 -0.02318608       0.022
   0.08115127 -0.05796519 -0.01159304       0.022
   0.06955823 -0.04637215 -0.00000000       0.011
  -0.00000000  0.02318608  0.09274430       0.011
  -0.01159304  0.03477911  0.10433734       0.022
   0.12752342 -0.10433734 -0.03477911       0.022
   0.11593038 -0.09274430 -0.02318608       0.022
   0.10433734 -0.08115127 -0.01159304       0.022
   0.09274430 -0.06955823 -0.00000000       0.011
   0.00000000  0.02318608  0.11593038       0.011
   0.13911646 -0.11593038 -0.02318608       0.022
   0.12752342 -0.10433734 -0.01159304       0.022
   0.11593038 -0.09274430 -0.00000000       0.011
   0.15070950 -0.12752342 -0.01159304       0.011
   0.13911646 -0.11593038 -0.00000000       0.011
  -0.00000000  0.04637215  0.09274430       0.011
   0.13911646 -0.09274430 -0.04637215       0.022
   0.12752342 -0.08115127 -0.03477911       0.022
   0.15070950 -0.10433734 -0.03477911       0.011
   0.13911646 -0.09274430 -0.02318608       0.022
   0.12752342 -0.08115127 -0.01159304       0.022
   0.11593038 -0.06955823 -0.00000000       0.011
   0.15070950 -0.10433734 -0.01159304       0.011
   0.13911646 -0.09274430 -0.00000000       0.011
   0.15070950 -0.08115127 -0.01159304       0.011

 k-points in reciprocal lattice and weights: KPOINTS
   0.00000000  0.00000000  0.00000000       0.000
   0.07692308  0.00000000 -0.00000000       0.004
   0.15384615 -0.00000000  0.00000000       0.004
   0.23076923  0.00000000 -0.00000000       0.004
   0.30769231 -0.00000000  0.00000000       0.004
   0.38461538  0.00000000 -0.00000000       0.004
   0.46153846  0.00000000 -0.00000000       0.004
   0.07692308  0.07692308 -0.00000000       0.003
   0.15384615  0.07692308 -0.00000000       0.011
   0.23076923  0.07692308 -0.00000000       0.011
   0.30769231  0.07692308 -0.00000000       0.011
   0.38461538  0.07692308 -0.00000000       0.011
   0.46153846  0.07692308 -0.00000000       0.011
  -0.46153846  0.07692308  0.00000000       0.011
  -0.38461538  0.07692308  0.00000000       0.011
  -0.30769231  0.07692308  0.00000000       0.011
  -0.23076923  0.07692308  0.00000000       0.011
  -0.15384615  0.07692308  0.00000000       0.011
  -0.07692308  0.07692308  0.00000000       0.005
   0.15384615  0.15384615 -0.00000000       0.003
   0.23076923  0.15384615 -0.00000000       0.011
   0.30769231  0.15384615 -0.00000000       0.011
   0.38461538  0.15384615 -0.00000000       0.011
   0.46153846  0.15384615 -0.00000000       0.011
  -0.46153846  0.15384615 -0.00000000       0.011
  -0.38461538  0.15384615  0.00000000       0.011
  -0.30769231  0.15384615  0.00000000       0.011
  -0.23076923  0.15384615  0.00000000       0.011
  -0.15384615  0.15384615 -0.00000000       0.005
   0.23076923  0.23076923 -0.00000000       0.003
   0.30769231  0.23076923 -0.00000000       0.011
   0.38461538  0.23076923 -0.00000000       0.011
   0.46153846  0.23076923 -0.00000000       0.011
  -0.46153846  0.23076923  0.00000000       0.011
  -0.38461538  0.23076923 -0.00000000       0.011
  -0.30769231  0.23076923  0.00000000       0.011
  -0.23076923  0.23076923  0.00000000       0.005
   0.30769231  0.30769231 -0.00000000       0.003
   0.38461538  0.30769231 -0.00000000       0.011
   0.46153846  0.30769231 -0.00000000       0.011
  -0.46153846  0.30769231  0.00000000       0.011
  -0.38461538  0.30769231  0.00000000       0.011
  -0.30769231  0.30769231 -0.00000000       0.005
   0.38461538  0.38461538 -0.00000000       0.003
   0.46153846  0.38461538 -0.00000000       0.011
  -0.46153846  0.38461538 -0.00000000       0.011
  -0.38461538  0.38461538  0.00000000       0.005
   0.46153846  0.46153846 -0.00000000       0.003
  -0.46153846  0.46153846  0.00000000       0.005
   0.23076923  0.15384615  0.07692308       0.011
   0.30769231  0.15384615  0.07692308       0.022
   0.38461538  0.15384615  0.07692308       0.022
   0.46153846  0.15384615  0.07692308       0.022
  -0.46153846  0.15384615  0.07692308       0.022
   0.30769231  0.23076923  0.07692308       0.011
   0.38461538  0.23076923  0.07692308       0.022
   0.46153846  0.23076923  0.07692308       0.022
  -0.46153846  0.23076923  0.07692308       0.022
  -0.38461538  0.23076923  0.07692308       0.022
  -0.30769231  0.23076923  0.07692308       0.022
  -0.23076923  0.23076923  0.07692308       0.022
  -0.15384615  0.23076923  0.07692308       0.011
   0.38461538  0.30769231  0.07692308       0.011
   0.46153846  0.30769231  0.07692308       0.022
  -0.46153846  0.30769231  0.07692308       0.022
  -0.38461538  0.30769231  0.07692308       0.022
  -0.30769231  0.30769231  0.07692308       0.022
  -0.23076923  0.30769231  0.07692308       0.011
   0.46153846  0.38461538  0.07692308       0.011
  -0.46153846  0.38461538  0.07692308       0.022
  -0.38461538  0.38461538  0.07692308       0.022
  -0.30769231  0.38461538  0.07692308       0.011
  -0.46153846  0.46153846  0.07692308       0.011
  -0.38461538  0.46153846  0.07692308       0.011
   0.46153846  0.30769231  0.15384615       0.011
  -0.46153846  0.30769231  0.15384615       0.022
  -0.38461538  0.30769231  0.15384615       0.022
  -0.46153846  0.38461538  0.15384615       0.011
  -0.38461538  0.38461538  0.15384615       0.022
  -0.30769231  0.38461538  0.15384615       0.022
  -0.23076923  0.38461538  0.15384615       0.011
  -0.38461538  0.46153846  0.15384615       0.011
  -0.30769231  0.46153846  0.15384615       0.011
  -0.30769231  0.46153846  0.23076923       0.011

 position of ions in fractional coordinates (direct lattice)
   0.25000000  0.25000000  0.25000000
   0.75000000  0.75000000  0.75000000
   0.00000000  0.00000000  0.00000000

 position of ions in cartesian coordinates  (Angst):
   1.65882050  1.65882050  1.65882050
   4.97646150  4.97646150  4.97646150
   0.00000000  0.00000000  0.00000000



--------------------------------------------------------------------------------------------------------


 k-point  1 :   0.0000 0.0000 0.0000  plane waves:    3119
 k-point  2 :   0.0769 0.0000-0.0000  plane waves:    3077
 k-point  3 :   0.1538-0.0000 0.0000  plane waves:    3071
 k-point  4 :   0.2308 0.0000-0.0000  plane waves:    3059
 k-point  5 :   0.3077-0.0000 0.0000  plane waves:    3043
 k-point  6 :   0.3846 0.0000-0.0000  plane waves:    3064
 k-point  7 :   0.4615 0.0000-0.0000  plane waves:    3070
 k-point  8 :   0.0769 0.0769-0.0000  plane waves:    3087
 k-point  9 :   0.1538 0.0769-0.0000  plane waves:    3057
 k-point 10 :   0.2308 0.0769-0.0000  plane waves:    3061
 k-point 11 :   0.3077 0.0769-0.0000  plane waves:    3061
 k-point 12 :   0.3846 0.0769-0.0000  plane waves:    3055
 k-point 13 :   0.4615 0.0769-0.0000  plane waves:    3065
 k-point 14 :  -0.4615 0.0769 0.0000  plane waves:    3077
 k-point 15 :  -0.3846 0.0769 0.0000  plane waves:    3072
 k-point 16 :  -0.3077 0.0769 0.0000  plane waves:    3061
 k-point 17 :  -0.2308 0.0769 0.0000  plane waves:    3061
 k-point 18 :  -0.1538 0.0769 0.0000  plane waves:    3061
 k-point 19 :  -0.0769 0.0769 0.0000  plane waves:    3058
 k-point 20 :   0.1538 0.1538-0.0000  plane waves:    3059
 k-point 21 :   0.2308 0.1538-0.0000  plane waves:    3065
 k-point 22 :   0.3077 0.1538-0.0000  plane waves:    3063
 k-point 23 :   0.3846 0.1538-0.0000  plane waves:    3061
 k-point 24 :   0.4615 0.1538-0.0000  plane waves:    3066
 k-point 25 :  -0.4615 0.1538-0.0000  plane waves:    3071
 k-point 26 :  -0.3846 0.1538 0.0000  plane waves:    3062
 k-point 27 :  -0.3077 0.1538 0.0000  plane waves:    3068
 k-point 28 :  -0.2308 0.1538 0.0000  plane waves:    3069
 k-point 29 :  -0.1538 0.1538-0.0000  plane waves:    3058
 k-point 30 :   0.2308 0.2308-0.0000  plane waves:    3062
 k-point 31 :   0.3077 0.2308-0.0000  plane waves:    3069
 k-point 32 :   0.3846 0.2308-0.0000  plane waves:    3057
 k-point 33 :   0.4615 0.2308-0.0000  plane waves:    3068
 k-point 34 :  -0.4615 0.2308 0.0000  plane waves:    3076
 k-point 35 :  -0.3846 0.2308-0.0000  plane waves:    3075
 k-point 36 :  -0.3077 0.2308 0.0000  plane waves:    3082
 k-point 37 :  -0.2308 0.2308 0.0000  plane waves:    3074
 k-point 38 :   0.3077 0.3077-0.0000  plane waves:    3086
 k-point 39 :   0.3846 0.3077-0.0000  plane waves:    3076
 k-point 40 :   0.4615 0.3077-0.0000  plane waves:    3075
 k-point 41 :  -0.4615 0.3077 0.0000  plane waves:    3079
 k-point 42 :  -0.3846 0.3077 0.0000  plane waves:    3077
 k-point 43 :  -0.3077 0.3077-0.0000  plane waves:    3080
 k-point 44 :   0.3846 0.3846-0.0000  plane waves:    3062
 k-point 45 :   0.4615 0.3846-0.0000  plane waves:    3062
 k-point 46 :  -0.4615 0.3846-0.0000  plane waves:    3072
 k-point 47 :  -0.3846 0.3846 0.0000  plane waves:    3084
 k-point 48 :   0.4615 0.4615-0.0000  plane waves:    3058
 k-point 49 :  -0.4615 0.4615 0.0000  plane waves:    3060
 k-point 50 :   0.2308 0.1538 0.0769  plane waves:    3064
 k-point 51 :   0.3077 0.1538 0.0769  plane waves:    3048
 k-point 52 :   0.3846 0.1538 0.0769  plane waves:    3061
 k-point 53 :   0.4615 0.1538 0.0769  plane waves:    3067
 k-point 54 :  -0.4615 0.1538 0.0769  plane waves:    3077
 k-point 55 :   0.3077 0.2308 0.0769  plane waves:    3060
 k-point 56 :   0.3846 0.2308 0.0769  plane waves:    3061
 k-point 57 :   0.4615 0.2308 0.0769  plane waves:    3064
 k-point 58 :  -0.4615 0.2308 0.0769  plane waves:    3074
 k-point 59 :  -0.3846 0.2308 0.0769  plane waves:    3073
 k-point 60 :  -0.3077 0.2308 0.0769  plane waves:    3077
 k-point 61 :  -0.2308 0.2308 0.0769  plane waves:    3073
 k-point 62 :  -0.1538 0.2308 0.0769  plane waves:    3072
 k-point 63 :   0.3846 0.3077 0.0769  plane waves:    3062
 k-point 64 :   0.4615 0.3077 0.0769  plane waves:    3077
 k-point 65 :  -0.4615 0.3077 0.0769  plane waves:    3073
 k-point 66 :  -0.3846 0.3077 0.0769  plane waves:    3090
 k-point 67 :  -0.3077 0.3077 0.0769  plane waves:    3076
 k-point 68 :  -0.2308 0.3077 0.0769  plane waves:    3073
 k-point 69 :   0.4615 0.3846 0.0769  plane waves:    3076
 k-point 70 :  -0.4615 0.3846 0.0769  plane waves:    3078
 k-point 71 :  -0.3846 0.3846 0.0769  plane waves:    3087
 k-point 72 :  -0.3077 0.3846 0.0769  plane waves:    3082
 k-point 73 :  -0.4615 0.4615 0.0769  plane waves:    3072
 k-point 74 :  -0.3846 0.4615 0.0769  plane waves:    3087
 k-point 75 :   0.4615 0.3077 0.1538  plane waves:    3065
 k-point 76 :  -0.4615 0.3077 0.1538  plane waves:    3065
 k-point 77 :  -0.3846 0.3077 0.1538  plane waves:    3080
 k-point 78 :  -0.4615 0.3846 0.1538  plane waves:    3082
 k-point 79 :  -0.3846 0.3846 0.1538  plane waves:    3084
 k-point 80 :  -0.3077 0.3846 0.1538  plane waves:    3079
 k-point 81 :  -0.2308 0.3846 0.1538  plane waves:    3079
 k-point 82 :  -0.3846 0.4615 0.1538  plane waves:    3084
 k-point 83 :  -0.3077 0.4615 0.1538  plane waves:    3089
 k-point 84 :  -0.3077 0.4615 0.2308  plane waves:    3071

 maximum and minimum number of plane-waves per node :       788      750

 maximum number of plane-waves:      3119
 maximum index in each direction:
   IXMAX=   10   IYMAX=   10   IZMAX=   10
   IXMIN=  -10   IYMIN=  -10   IZMIN=  -10


 parallel 3D FFT for wavefunctions:
    minimum data exchange during FFTs selected (reduces bandwidth)
 parallel 3D FFT for charge:
    minimum data exchange during FFTs selected (reduces bandwidth)


 total amount of memory used by VASP MPI-rank0    95182. kBytes
=======================================================================

   base      :      30000. kBytes
   nonl-proj :      50615. kBytes
   fftplans  :       5206. kBytes
   grid      :       2732. kBytes
   one-center:         49. kBytes
   wavefun   :       6580. kBytes

     INWAV:  cpu time    0.0003: real time    0.0009
 Broyden mixing: mesh for mixing (old mesh)
   NGX = 21   NGY = 21   NGZ = 21
  (NGX  = 80   NGY  = 80   NGZ  = 80)
  gives a total of   9261 points

 initial charge density was supplied:
 charge density of overlapping atoms calculated
 number of electron      39.0000000 magnetization
 keeping initial charge density in first step


--------------------------------------------------------------------------------------------------------


 Maximum index for augmentation-charges        26126 (set IRDMAX)


--------------------------------------------------------------------------------------------------------


 First call to EWALD:  gamma=   0.424
 Maximum number of real-space cells 3x 3x 3
 Maximum number of reciprocal cells 3x 3x 3

    FEWALD:  cpu time    0.0059: real time    0.0062


--------------------------------------- Iteration      1(   1)  ---------------------------------------


    POTLOK:  cpu time    0.0563: real time    0.1212
    SETDIJ:  cpu time    0.0852: real time    0.0855
     EDDAV:  cpu time    1.4388: real time    1.4652
       DOS:  cpu time    0.0040: real time    0.0051
    --------------------------------------------
      LOOP:  cpu time    1.5846: real time    1.6775

 eigenvalue-minimisations  :  4032
 total energy-change (2. order) : 0.4297768E+03  (-0.2243366E+04)
 number of electron      39.0000000 magnetization
 augmentation part       39.0000000 magnetization

 Free energy of the ion-electron system (eV)
  ---------------------------------------------------
  alpha Z        PSCENC =       215.31116115
  Ewald energy   TEWEN  =     -3593.30914339
  -Hartree energ DENC   =      -783.94252335
  -exchange      EXHF   =         0.00000000
  -V(xc)+E(xc)   XCENC  =        90.34504247
  PAW double counting   =      3513.29252893    -3436.88002192
  entropy T*S    EENTRO =        -0.00009116
  eigenvalues    EBANDS =       329.60779009
  atomic energy  EATOM  =      4095.35208632
  Solvation  Ediel_sol  =         0.00000000
  ---------------------------------------------------
  free energy    TOTEN  =       429.77682914 eV

  energy without entropy =      429.77692030  energy(sigma->0) =      429.77687472


--------------------------------------------------------------------------------------------------------




--------------------------------------- Iteration      1(   2)  ---------------------------------------


     EDDAV:  cpu time    1.5449: real time    1.5854
       DOS:  cpu time    0.0032: real time    0.0048
    --------------------------------------------
      LOOP:  cpu time    1.5481: real time    1.5912

 eigenvalue-minimisations  :  4440
 total energy-change (2. order) :-0.4004846E+03  (-0.3927655E+03)
 number of electron      39.0000000 magnetization
 augmentation part       39.0000000 magnetization

 Free energy of the ion-electron system (eV)
  ---------------------------------------------------
  alpha Z        PSCENC =       215.31116115
  Ewald energy   TEWEN  =     -3593.30914339
  -Hartree energ DENC   =      -783.94252335
  -exchange      EXHF   =         0.00000000
  -V(xc)+E(xc)   XCENC  =        90.34504247
  PAW double counting   =      3513.29252893    -3436.88002192
  entropy T*S    EENTRO =        -0.00057996
  eigenvalues    EBANDS =       -70.87636864
  atomic energy  EATOM  =      4095.35208632
  Solvation  Ediel_sol  =         0.00000000
  ---------------------------------------------------
  free energy    TOTEN  =        29.29218161 eV

  energy without entropy =       29.29276157  energy(sigma->0) =       29.29247159


--------------------------------------------------------------------------------------------------------




--------------------------------------- Iteration      1(   3)  ---------------------------------------


     EDDAV:  cpu time    1.6749: real time    1.7109
       DOS:  cpu time    0.0031: real time    0.0039
    --------------------------------------------
      LOOP:  cpu time    1.6782: real time    1.7149

 eigenvalue-minimisations  :  4976
 total energy-change (2. order) :-0.4992245E+02  (-0.4885407E+02)
 number of electron      39.0000000 magnetization
 augmentation part       39.0000000 magnetization

 Free energy of the ion-electron system (eV)
  ---------------------------------------------------
  alpha Z        PSCENC =       215.31116115
  Ewald energy   TEWEN  =     -3593.30914339
  -Hartree energ DENC   =      -783.94252335
  -exchange      EXHF   =         0.00000000
  -V(xc)+E(xc)   XCENC  =        90.34504247
  PAW double counting   =      3513.29252893    -3436.88002192
  entropy T*S    EENTRO =        -0.00057795
  eigenvalues    EBANDS =      -120.79882161
  atomic energy  EATOM  =      4095.35208632
  Solvation  Ediel_sol  =         0.00000000
  ---------------------------------------------------
  free energy    TOTEN  =       -20.63026935 eV

  energy without entropy =      -20.62969140  energy(sigma->0) =      -20.62998038


--------------------------------------------------------------------------------------------------------




--------------------------------------- Iteration      1(   4)  ---------------------------------------


     EDDAV:  cpu time    2.3355: real time    2.3606
       DOS:  cpu time    0.0032: real time    0.0035
    --------------------------------------------
      LOOP:  cpu time    2.3386: real time    2.3655

 eigenvalue-minimisations  :  7568
 total energy-change (2. order) :-0.5292556E+01  (-0.5268369E+01)
 number of electron      39.0000000 magnetization
 augmentation part       39.0000000 magnetization

 Free energy of the ion-electron system (eV)
  ---------------------------------------------------
  alpha Z        PSCENC =       215.31116115
  Ewald energy   TEWEN  =     -3593.30914339
  -Hartree energ DENC   =      -783.94252335
  -exchange      EXHF   =         0.00000000
  -V(xc)+E(xc)   XCENC  =        90.34504247
  PAW double counting   =      3513.29252893    -3436.88002192
  entropy T*S    EENTRO =        -0.00091064
  eigenvalues    EBANDS =      -126.09104479
  atomic energy  EATOM  =      4095.35208632
  Solvation  Ediel_sol  =         0.00000000
  ---------------------------------------------------
  free energy    TOTEN  =       -25.92282522 eV

  energy without entropy =      -25.92191458  energy(sigma->0) =      -25.92236990


--------------------------------------------------------------------------------------------------------




--------------------------------------- Iteration      1(   5)  ---------------------------------------


     EDDAV:  cpu time    1.8364: real time    1.8723
       DOS:  cpu time    0.0032: real time    0.0036
    CHARGE:  cpu time    0.3238: real time    0.3250
    MIXING:  cpu time    0.0085: real time    0.0090
    --------------------------------------------
      LOOP:  cpu time    2.1720: real time    2.2112

 eigenvalue-minimisations  :  5616
 total energy-change (2. order) :-0.1769029E+00  (-0.1763769E+00)
 number of electron      39.0000001 magnetization
 augmentation part        8.8286387 magnetization

 Broyden mixing:
  rms(total) = 0.14858E+01    rms(broyden)= 0.14857E+01
  rms(prec ) = 0.43857E+01
  weight for this iteration     100.00

 Free energy of the ion-electron system (eV)
  ---------------------------------------------------
  alpha Z        PSCENC =       215.31116115
  Ewald energy   TEWEN  =     -3593.30914339
  -Hartree energ DENC   =      -783.94252335
  -exchange      EXHF   =         0.00000000
  -V(xc)+E(xc)   XCENC  =        90.34504247
  PAW double counting   =      3513.29252893    -3436.88002192
  entropy T*S    EENTRO =        -0.00091477
  eigenvalues    EBANDS =      -126.26794354
  atomic energy  EATOM  =      4095.35208632
  Solvation  Ediel_sol  =         0.00000000
  ---------------------------------------------------
  free energy    TOTEN  =       -26.09972810 eV

  energy without entropy =      -26.09881333  energy(sigma->0) =      -26.09927072


--------------------------------------------------------------------------------------------------------




--------------------------------------- Iteration      1(   6)  ---------------------------------------


    POTLOK:  cpu time    0.0337: real time    0.0701
    SETDIJ:  cpu time    0.0825: real time    0.0826
     EDDAV:  cpu time    1.9203: real time    1.9205
       DOS:  cpu time    0.0031: real time    0.0033
    CHARGE:  cpu time    0.2822: real time    0.2823
    MIXING:  cpu time    0.0040: real time    0.0041
    --------------------------------------------
      LOOP:  cpu time    2.3257: real time    2.3605

 eigenvalue-minimisations  :  6072
 total energy-change (2. order) :-0.7261514E+01  (-0.1958314E+02)
 number of electron      39.0000001 magnetization
 augmentation part        7.0124873 magnetization

 Broyden mixing:
  rms(total) = 0.22016E+01    rms(broyden)= 0.22016E+01
  rms(prec ) = 0.59866E+01
  weight for this iteration     100.00

 eigenvalues of (default mixing * dielectric matrix)
  average eigenvalue GAMMA=   0.3516
  0.3516

 Free energy of the ion-electron system (eV)
  ---------------------------------------------------
  alpha Z        PSCENC =       215.31116115
  Ewald energy   TEWEN  =     -3593.30914339
  -Hartree energ DENC   =      -791.59615748
  -exchange      EXHF   =         0.00000000
  -V(xc)+E(xc)   XCENC  =        90.87510260
  PAW double counting   =      3823.16604137    -3747.05741674
  entropy T*S    EENTRO =        -0.00014058
  eigenvalues    EBANDS =      -126.10277521
  atomic energy  EATOM  =      4095.35208632
  Solvation  Ediel_sol  =         0.00000000
  ---------------------------------------------------
  free energy    TOTEN  =       -33.36124197 eV

  energy without entropy =      -33.36110139  energy(sigma->0) =      -33.36117168


--------------------------------------------------------------------------------------------------------




--------------------------------------- Iteration      1(   7)  ---------------------------------------


    POTLOK:  cpu time    0.0343: real time    0.0777
    SETDIJ:  cpu time    0.0834: real time    0.0834
     EDDAV:  cpu time    1.8954: real time    1.8956
       DOS:  cpu time    0.0032: real time    0.0043
    CHARGE:  cpu time    0.2659: real time    0.2661
    MIXING:  cpu time    0.0038: real time    0.0041
    --------------------------------------------
      LOOP:  cpu time    2.2859: real time    2.3312

 eigenvalue-minimisations  :  5872
 total energy-change (2. order) : 0.8722227E+01  (-0.2655255E+01)
 number of electron      39.0000001 magnetization
 augmentation part        7.5688365 magnetization

 Broyden mixing:
  rms(total) = 0.97507E+00    rms(broyden)= 0.97507E+00
  rms(prec ) = 0.28013E+01
  weight for this iteration     100.00

 eigenvalues of (default mixing * dielectric matrix)
  average eigenvalue GAMMA=   0.7642
  0.7642  0.7642

 Free energy of the ion-electron system (eV)
  ---------------------------------------------------
  alpha Z        PSCENC =       215.31116115
  Ewald energy   TEWEN  =     -3593.30914339
  -Hartree energ DENC   =      -778.60622845
  -exchange      EXHF   =         0.00000000
  -V(xc)+E(xc)   XCENC  =        90.25170888
  PAW double counting   =      3924.40536413    -3852.56533176
  entropy T*S    EENTRO =        -0.00081225
  eigenvalues    EBANDS =      -125.47781954
  atomic energy  EATOM  =      4095.35208632
  Solvation  Ediel_sol  =         0.00000000
  ---------------------------------------------------
  free energy    TOTEN  =       -24.63901492 eV

  energy without entropy =      -24.63820267  energy(sigma->0) =      -24.63860879


--------------------------------------------------------------------------------------------------------




--------------------------------------- Iteration      1(   8)  ---------------------------------------


    POTLOK:  cpu time    0.0424: real time    0.0718
    SETDIJ:  cpu time    0.0834: real time    0.0835
     EDDAV:  cpu time    1.8832: real time    1.8836
       DOS:  cpu time    0.0032: real time    0.0041
    CHARGE:  cpu time    0.2715: real time    0.2718
    MIXING:  cpu time    0.0037: real time    0.0044
    --------------------------------------------
      LOOP:  cpu time    2.2876: real time    2.3241

 eigenvalue-minimisations  :  5920
 total energy-change (2. order) : 0.9124767E-01  (-0.3020715E+01)
 number of electron      39.0000001 magnetization
 augmentation part        8.8267370 magnetization

 Broyden mixing:
  rms(total) = 0.79147E+00    rms(broyden)= 0.79147E+00
  rms(prec ) = 0.25803E+01
  weight for this iteration     100.00

 eigenvalues of (default mixing * dielectric matrix)
  average eigenvalue GAMMA=   0.9612
  1.7804  0.5516  0.5516

 Free energy of the ion-electron system (eV)
  ---------------------------------------------------
  alpha Z        PSCENC =       215.31116115
  Ewald energy   TEWEN  =     -3593.30914339
  -Hartree energ DENC   =      -768.44790648
  -exchange      EXHF   =         0.00000000
  -V(xc)+E(xc)   XCENC  =        89.81911763
  PAW double counting   =      4012.27336586    -3943.56085574
  entropy T*S    EENTRO =        -0.00126101
  eigenvalues    EBANDS =      -131.98433159
  atomic energy  EATOM  =      4095.35208632
  Solvation  Ediel_sol  =         0.00000000
  ---------------------------------------------------
  free energy    TOTEN  =       -24.54776725 eV

  energy without entropy =      -24.54650625  energy(sigma->0) =      -24.54713675


--------------------------------------------------------------------------------------------------------




--------------------------------------- Iteration      1(   9)  ---------------------------------------


    POTLOK:  cpu time    0.0323: real time    0.1024
    SETDIJ:  cpu time    0.0738: real time    0.0751
     EDDAV:  cpu time    1.9801: real time    1.9813
       DOS:  cpu time    0.0033: real time    0.0038
    CHARGE:  cpu time    0.2650: real time    0.2673
    MIXING:  cpu time    0.0039: real time    0.0045
    --------------------------------------------
      LOOP:  cpu time    2.3583: real time    2.4321

 eigenvalue-minimisations  :  6264
 total energy-change (2. order) : 0.7837116E+00  (-0.9009970E+00)
 number of electron      39.0000001 magnetization
 augmentation part        7.9921903 magnetization

 Broyden mixing:
  rms(total) = 0.14295E+00    rms(broyden)= 0.14295E+00
  rms(prec ) = 0.30357E+00
  weight for this iteration     100.00

 eigenvalues of (default mixing * dielectric matrix)
  average eigenvalue GAMMA=   0.9614
  2.1451  0.5848  0.5848  0.5308

 Free energy of the ion-electron system (eV)
  ---------------------------------------------------
  alpha Z        PSCENC =       215.31116115
  Ewald energy   TEWEN  =     -3593.30914339
  -Hartree energ DENC   =      -772.19331564
  -exchange      EXHF   =         0.00000000
  -V(xc)+E(xc)   XCENC  =        90.01984052
  PAW double counting   =      4147.75422939    -4080.02714266
  entropy T*S    EENTRO =        -0.00125501
  eigenvalues    EBANDS =      -126.67051632
  atomic energy  EATOM  =      4095.35208632
  Solvation  Ediel_sol  =         0.00000000
  ---------------------------------------------------
  free energy    TOTEN  =       -23.76405565 eV

  energy without entropy =      -23.76280064  energy(sigma->0) =      -23.76342815


--------------------------------------------------------------------------------------------------------




--------------------------------------- Iteration      1(  10)  ---------------------------------------


    POTLOK:  cpu time    0.0319: real time    0.0891
    SETDIJ:  cpu time    0.0785: real time    0.0798
     EDDAV:  cpu time    2.1519: real time    2.1533
       DOS:  cpu time    0.0034: real time    0.0044
    CHARGE:  cpu time    0.2678: real time    0.2681
    MIXING:  cpu time    0.0042: real time    0.0044
    --------------------------------------------
      LOOP:  cpu time    2.5375: real time    2.5964

 eigenvalue-minimisations  :  6792
 total energy-change (2. order) :-0.3870297E-01  (-0.4255215E-01)
 number of electron      39.0000001 magnetization
 augmentation part        7.9570237 magnetization

 Broyden mixing:
  rms(total) = 0.14243E+00    rms(broyden)= 0.14243E+00
  rms(prec ) = 0.46767E+00
  weight for this iteration     100.00

 eigenvalues of (default mixing * dielectric matrix)
  average eigenvalue GAMMA=   0.9550
  1.8965  0.5430  0.5430  1.0800  0.7125

 Free energy of the ion-electron system (eV)
  ---------------------------------------------------
  alpha Z        PSCENC =       215.31116115
  Ewald energy   TEWEN  =     -3593.30914339
  -Hartree energ DENC   =      -770.93326390
  -exchange      EXHF   =         0.00000000
  -V(xc)+E(xc)   XCENC  =        89.98330093
  PAW double counting   =      4210.37277147    -4143.42976700
  entropy T*S    EENTRO =        -0.00129570
  eigenvalues    EBANDS =      -127.14860850
  atomic energy  EATOM  =      4095.35208632
  Solvation  Ediel_sol  =         0.00000000
  ---------------------------------------------------
  free energy    TOTEN  =       -23.80275863 eV

  energy without entropy =      -23.80146292  energy(sigma->0) =      -23.80211077


--------------------------------------------------------------------------------------------------------




--------------------------------------- Iteration      1(  11)  ---------------------------------------


    POTLOK:  cpu time    0.0333: real time    0.0687
    SETDIJ:  cpu time    0.0813: real time    0.0816
     EDDAV:  cpu time    1.8859: real time    1.8863
       DOS:  cpu time    0.0033: real time    0.0037
    CHARGE:  cpu time    0.2658: real time    0.2673
    MIXING:  cpu time    0.0042: real time    0.0045
    --------------------------------------------
      LOOP:  cpu time    2.2737: real time    2.3125

 eigenvalue-minimisations  :  5984
 total energy-change (2. order) : 0.3460905E-01  (-0.2593278E-01)
 number of electron      39.0000001 magnetization
 augmentation part        8.0828810 magnetization

 Broyden mixing:
  rms(total) = 0.29527E-01    rms(broyden)= 0.29527E-01
  rms(prec ) = 0.41928E-01
  weight for this iteration     100.00

 eigenvalues of (default mixing * dielectric matrix)
  average eigenvalue GAMMA=   1.1969
  2.2871  2.2871  0.5462  0.5462  0.8771  0.6380

 Free energy of the ion-electron system (eV)
  ---------------------------------------------------
  alpha Z        PSCENC =       215.31116115
  Ewald energy   TEWEN  =     -3593.30914339
  -Hartree energ DENC   =      -770.21306916
  -exchange      EXHF   =         0.00000000
  -V(xc)+E(xc)   XCENC  =        89.94436758
  PAW double counting   =      4200.18268396    -4133.31870446
  entropy T*S    EENTRO =        -0.00162127
  eigenvalues    EBANDS =      -127.71591030
  atomic energy  EATOM  =      4095.35208632
  Solvation  Ediel_sol  =         0.00000000
  ---------------------------------------------------
  free energy    TOTEN  =       -23.76814958 eV

  energy without entropy =      -23.76652831  energy(sigma->0) =      -23.76733895


--------------------------------------------------------------------------------------------------------




--------------------------------------- Iteration      1(  12)  ---------------------------------------


    POTLOK:  cpu time    0.0423: real time    0.0671
    SETDIJ:  cpu time    0.0827: real time    0.0833
     EDDAV:  cpu time    2.0794: real time    2.0796
       DOS:  cpu time    0.0033: real time    0.0044
    CHARGE:  cpu time    0.2672: real time    0.2674
    MIXING:  cpu time    0.0043: real time    0.0045
    --------------------------------------------
      LOOP:  cpu time    2.4792: real time    2.5099

 eigenvalue-minimisations  :  6696
 total energy-change (2. order) :-0.6731784E-03  (-0.7860167E-03)
 number of electron      39.0000001 magnetization
 augmentation part        8.0859592 magnetization

 Broyden mixing:
  rms(total) = 0.12577E-01    rms(broyden)= 0.12577E-01
  rms(prec ) = 0.33066E-01
  weight for this iteration     100.00

 eigenvalues of (default mixing * dielectric matrix)
  average eigenvalue GAMMA=   1.2384
  2.5744  2.3585  1.0091  1.0091  0.5475  0.5475  0.6224

 Free energy of the ion-electron system (eV)
  ---------------------------------------------------
  alpha Z        PSCENC =       215.31116115
  Ewald energy   TEWEN  =     -3593.30914339
  -Hartree energ DENC   =      -770.16887926
  -exchange      EXHF   =         0.00000000
  -V(xc)+E(xc)   XCENC  =        89.93974892
  PAW double counting   =      4208.48622324    -4141.63815673
  entropy T*S    EENTRO =        -0.00166768
  eigenvalues    EBANDS =      -127.74019531
  atomic energy  EATOM  =      4095.35208632
  Solvation  Ediel_sol  =         0.00000000
  ---------------------------------------------------
  free energy    TOTEN  =       -23.76882276 eV

  energy without entropy =      -23.76715507  energy(sigma->0) =      -23.76798892


--------------------------------------------------------------------------------------------------------




--------------------------------------- Iteration      1(  13)  ---------------------------------------


    POTLOK:  cpu time    0.0322: real time    0.0843
    SETDIJ:  cpu time    0.0775: real time    0.0775
     EDDAV:  cpu time    1.9779: real time    1.9789
       DOS:  cpu time    0.0033: real time    0.0045
    CHARGE:  cpu time    0.2647: real time    0.2662
    MIXING:  cpu time    0.0049: real time    0.0051
    --------------------------------------------
      LOOP:  cpu time    2.3603: real time    2.4137

 eigenvalue-minimisations  :  6272
 total energy-change (2. order) : 0.1265459E-03  (-0.1142749E-03)
 number of electron      39.0000001 magnetization
 augmentation part        8.0785847 magnetization

 Broyden mixing:
  rms(total) = 0.36267E-02    rms(broyden)= 0.36266E-02
  rms(prec ) = 0.94505E-02
  weight for this iteration     100.00

 eigenvalues of (default mixing * dielectric matrix)
  average eigenvalue GAMMA=   1.2737
  2.5909  2.2443  1.7385  0.5475  0.5475  0.9483  0.9483  0.6243

 Free energy of the ion-electron system (eV)
  ---------------------------------------------------
  alpha Z        PSCENC =       215.31116115
  Ewald energy   TEWEN  =     -3593.30914339
  -Hartree energ DENC   =      -770.29952773
  -exchange      EXHF   =         0.00000000
  -V(xc)+E(xc)   XCENC  =        89.94333381
  PAW double counting   =      4208.57975823    -4141.62915577
  entropy T*S    EENTRO =        -0.00165387
  eigenvalues    EBANDS =      -127.71555494
  atomic energy  EATOM  =      4095.35208632
  Solvation  Ediel_sol  =         0.00000000
  ---------------------------------------------------
  free energy    TOTEN  =       -23.76869621 eV

  energy without entropy =      -23.76704234  energy(sigma->0) =      -23.76786928


--------------------------------------------------------------------------------------------------------




--------------------------------------- Iteration      1(  14)  ---------------------------------------


    POTLOK:  cpu time    0.0310: real time    0.0793
    SETDIJ:  cpu time    0.0825: real time    0.0828
     EDDAV:  cpu time    2.1062: real time    2.1067
       DOS:  cpu time    0.0033: real time    0.0041
    CHARGE:  cpu time    0.2653: real time    0.2655
    MIXING:  cpu time    0.0057: real time    0.0062
    --------------------------------------------
      LOOP:  cpu time    2.4941: real time    2.5433

 eigenvalue-minimisations  :  6600
 total energy-change (2. order) : 0.4441190E-06  (-0.9833448E-05)
 number of electron      39.0000001 magnetization
 augmentation part        8.0773880 magnetization

 Broyden mixing:
  rms(total) = 0.21087E-02    rms(broyden)= 0.21087E-02
  rms(prec ) = 0.66053E-02
  weight for this iteration     100.00

 eigenvalues of (default mixing * dielectric matrix)
  average eigenvalue GAMMA=   1.2637
  2.6170  1.9305  1.9305  0.5475  0.5475  0.6260  1.1061  1.1061  0.9624

 Free energy of the ion-electron system (eV)
  ---------------------------------------------------
  alpha Z        PSCENC =       215.31116115
  Ewald energy   TEWEN  =     -3593.30914339
  -Hartree energ DENC   =      -770.31022932
  -exchange      EXHF   =         0.00000000
  -V(xc)+E(xc)   XCENC  =        89.94335965
  PAW double counting   =      4210.10091369    -4143.12183584
  entropy T*S    EENTRO =        -0.00165661
  eigenvalues    EBANDS =      -127.73335140
  atomic energy  EATOM  =      4095.35208632
  Solvation  Ediel_sol  =         0.00000000
  ---------------------------------------------------
  free energy    TOTEN  =       -23.76869577 eV

  energy without entropy =      -23.76703916  energy(sigma->0) =      -23.76786746


--------------------------------------------------------------------------------------------------------




--------------------------------------- Iteration      1(  15)  ---------------------------------------


    POTLOK:  cpu time    0.0335: real time    0.0682
    SETDIJ:  cpu time    0.0821: real time    0.0823
     EDDAV:  cpu time    1.9055: real time    1.9059
       DOS:  cpu time    0.0032: real time    0.0039
    CHARGE:  cpu time    0.2677: real time    0.2683
    MIXING:  cpu time    0.0049: real time    0.0051
    --------------------------------------------
      LOOP:  cpu time    2.2969: real time    2.3361

 eigenvalue-minimisations  :  6056
 total energy-change (2. order) : 0.4755455E-05  (-0.3075069E-05)
 number of electron      39.0000001 magnetization
 augmentation part        8.0772326 magnetization

 Broyden mixing:
  rms(total) = 0.10457E-02    rms(broyden)= 0.10457E-02
  rms(prec ) = 0.32182E-02
  weight for this iteration     100.00

 eigenvalues of (default mixing * dielectric matrix)
  average eigenvalue GAMMA=   1.2902
  2.6377  2.1335  1.9260  0.5475  0.5475  1.4874  0.6267  1.0629  1.0629  0.8703

 Free energy of the ion-electron system (eV)
  ---------------------------------------------------
  alpha Z        PSCENC =       215.31116115
  Ewald energy   TEWEN  =     -3593.30914339
  -Hartree energ DENC   =      -770.30486368
  -exchange      EXHF   =         0.00000000
  -V(xc)+E(xc)   XCENC  =        89.94330213
  PAW double counting   =      4210.54950188    -4143.57749263
  entropy T*S    EENTRO =        -0.00165448
  eigenvalues    EBANDS =      -127.73158830
  atomic energy  EATOM  =      4095.35208632
  Solvation  Ediel_sol  =         0.00000000
  ---------------------------------------------------
  free energy    TOTEN  =       -23.76869101 eV

  energy without entropy =      -23.76703653  energy(sigma->0) =      -23.76786377


--------------------------------------------------------------------------------------------------------




--------------------------------------- Iteration      1(  16)  ---------------------------------------


    POTLOK:  cpu time    0.0337: real time    0.0754
    SETDIJ:  cpu time    0.0811: real time    0.0818
     EDDAV:  cpu time    2.2718: real time    2.2724
       DOS:  cpu time    0.0032: real time    0.0037
    CHARGE:  cpu time    0.2648: real time    0.2651
    MIXING:  cpu time    0.0053: real time    0.0055
    --------------------------------------------
      LOOP:  cpu time    2.6599: real time    2.7028

 eigenvalue-minimisations  :  7320
 total energy-change (2. order) : 0.8010347E-06  (-0.2150492E-05)
 number of electron      39.0000001 magnetization
 augmentation part        8.0762164 magnetization

 Broyden mixing:
  rms(total) = 0.47985E-03    rms(broyden)= 0.47977E-03
  rms(prec ) = 0.13696E-02
  weight for this iteration     100.00

 eigenvalues of (default mixing * dielectric matrix)
  average eigenvalue GAMMA=   1.3282
  2.7946  2.2607  2.2607  1.5545  0.5475  0.5475  1.1362  1.1362  0.6263  0.8732
  0.8732

 Free energy of the ion-electron system (eV)
  ---------------------------------------------------
  alpha Z        PSCENC =       215.31116115
  Ewald energy   TEWEN  =     -3593.30914339
  -Hartree energ DENC   =      -770.31580096
  -exchange      EXHF   =         0.00000000
  -V(xc)+E(xc)   XCENC  =        89.94372404
  PAW double counting   =      4210.76772891    -4143.79043520
  entropy T*S    EENTRO =        -0.00165324
  eigenvalues    EBANDS =      -127.72635783
  atomic energy  EATOM  =      4095.35208632
  Solvation  Ediel_sol  =         0.00000000
  ---------------------------------------------------
  free energy    TOTEN  =       -23.76869021 eV

  energy without entropy =      -23.76703697  energy(sigma->0) =      -23.76786359


--------------------------------------------------------------------------------------------------------




--------------------------------------- Iteration      1(  17)  ---------------------------------------


    POTLOK:  cpu time    0.0326: real time    0.0659
    SETDIJ:  cpu time    0.0836: real time    0.0837
     EDDAV:  cpu time    1.6440: real time    1.6443
       DOS:  cpu time    0.0032: real time    0.0046
    --------------------------------------------
      LOOP:  cpu time    1.7633: real time    1.7965

 eigenvalue-minimisations  :  4808
 total energy-change (2. order) : 0.9697123E-07  (-0.8085489E-07)
 number of electron      39.0000001 magnetization
 augmentation part        8.0762164 magnetization

 Free energy of the ion-electron system (eV)
  ---------------------------------------------------
  alpha Z        PSCENC =       215.31116115
  Ewald energy   TEWEN  =     -3593.30914339
  -Hartree energ DENC   =      -770.31438308
  -exchange      EXHF   =         0.00000000
  -V(xc)+E(xc)   XCENC  =        89.94369943
  PAW double counting   =      4210.86318522    -4143.88622131
  entropy T*S    EENTRO =        -0.00165346
  eigenvalues    EBANDS =      -127.72742098
  atomic energy  EATOM  =      4095.35208632
  Solvation  Ediel_sol  =         0.00000000
  ---------------------------------------------------
  free energy    TOTEN  =       -23.76869011 eV

  energy without entropy =      -23.76703665  energy(sigma->0) =      -23.76786338


--------------------------------------------------------------------------------------------------------




 average (electrostatic) potential at core
  the test charge radii are     1.2087  1.0856  1.2059
  (the norm of the test charge is              1.0000)
       1 -83.5398       2-100.6723       3 -64.5132



 E-fermi :  10.0913     XC(G=0): -11.5170     alpha+bet :-16.0434


 k-point     1 :       0.0000    0.0000    0.0000
  band No.  band energies     occupation
      1     -34.0292      2.00000
      2     -12.8296      2.00000
      3     -12.8296      2.00000
      4     -12.8009      2.00000
      5     -12.8009      2.00000
      6     -12.8009      2.00000
      7      -9.3207      2.00000
      8      -9.3207      2.00000
      9      -9.3207      2.00000
     10      -2.4456      2.00000
     11       5.4624      2.00000
     12       5.4624      2.00000
     13       5.4624      2.00000
     14       5.7125      2.00000
     15       5.7125      2.00000
     16       8.4861      2.00000
     17       8.9104      2.00000
     18       8.9104      2.00000
     19       8.9104      2.00000
     20      10.0468      2.00000
     21      10.0468      2.00000
     22      10.0469      2.00000
     23      10.2236      0.00000
     24      10.3335      0.00000

 k-point     2 :       0.0769    0.0000   -0.0000
  band No.  band energies     occupation
      1     -34.0289      2.00000
      2     -12.8312      2.00000
      3     -12.8312      2.00000
      4     -12.8012      2.00000
      5     -12.8007      2.00000
      6     -12.8007      2.00000
      7      -9.3356      2.00000
      8      -9.3172      2.00000
      9      -9.3172      2.00000
     10      -2.3770      2.00000
     11       5.3364      2.00000
     12       5.3406      2.00000
     13       5.3406      2.00000
     14       5.8269      2.00000
     15       5.8269      2.00000
     16       8.0644      2.00000
     17       8.8510      2.00000
     18       8.8510      2.00000
     19       9.1729      2.00000
     20      10.0259      2.00000
     21      10.0387      2.00000
     22      10.0387      2.00000
     23      10.3562      0.00000
     24      10.4058      0.00000

 k-point     3 :       0.1538   -0.0000    0.0000
  band No.  band energies     occupation
      1     -34.0282      2.00000
      2     -12.8358      2.00000
      3     -12.8358      2.00000
      4     -12.8021      2.00000
      5     -12.8001      2.00000
      6     -12.8001      2.00000
      7      -9.3753      2.00000
      8      -9.3074      2.00000
[...]
  212              fftbas_plan_mpi                       0.060776                     12   6
  213                dfftw_execute                         0.025743                   36   7
  214                map_backward                          0.004084                   12   7
  215                  map_gather                            0.000721                  6   8
  216                  m_alltoallv_z                         0.001795                  6   8
  217                  map_scatter                           0.001295                  6   8
  218                map_forward                           0.027948                   12   7
  219                  map_gather                            0.015682                  6   8
  220                  m_alltoallv_z                         0.005396                  6   8
  221                  map_scatter                           0.006558                  6   8
  222            M_sumb_d                              0.002593                        6   5
  223          M_sumb_d                              0.000027                          1   4
  224        setdij_                               1.338665                           20   3
  225          fft3d_mpi                             0.218390                         40   4
  226            fftbas_plan_mpi                       0.201064                       40   5
  227              dfftw_execute                         0.086532                    120   6
  228              map_backward                          0.012376                     40   6
  229                map_gather                            0.002696                   20   7
  230                m_alltoallv_z                         0.005025                   20   7
  231                map_scatter                           0.003737                   20   7
  232              map_forward                           0.091347                     40   6
  233                map_gather                            0.051480                   20   7
  234                m_alltoallv_z                         0.017492                   20   7
  235                map_scatter                           0.021361                   20   7
  236          M_sumb_d                              0.006087                         20   4
  237        set_dd_magatom                        0.000003                            1   3
  238        set_dd_paw                            0.017020                            1   3
  239          set_rsgf_all                          0.000003                          1   4
  240          M_sumb_d                              0.016869                          8   4
  241        strkin                                0.001250                            1   3
  242          M_sumb_d                              0.000635                          1   4
  243        strelo                                0.002693                            1   3
  244          M_sumb_d                              0.000635                          2   4
  245        strenl                                1.076561                            1   3
  246          spher                                 0.795802                         19   4
  247          phase                                 0.012757                        189   4
  248          proj1                                 0.242047                       1134   4
  249            crexp_mul_wave                        0.033235                     3402   5
  250            M_sumb_d                              0.071129                     1134   5
  251          M_sumb_d                              0.003048                          1   4
  252        M_sumb_d                              0.000370                            6   3
  253        fft3d_mpi                             0.015983                           11   3
  254          fftbas_plan_mpi                       0.014967                         11   4
  255            dfftw_execute                         0.005065                       33   5
  256            map_forward                           0.003304                       10   5
  257              map_gather                            0.000588                      5   6
  258              m_alltoallv_z                         0.001860                      5   6
  259              map_scatter                           0.000628                      5   6
  260            map_backward                          0.003951                       12   5
  261              map_gather                            0.000769                      6   6
  262              m_alltoallv_z                         0.001770                      6   6
  263              map_scatter                           0.001123                      6   6
  264        ggaall_grid                           0.001552                            1   3
  265        forhar                                0.006283                            2   3
  266          M_sumb_d                              0.000358                          2   4
  267        strehar                               0.002707                            1   3
  268          M_sumb_d                              0.000209                          1   4
  269        chggra                                0.006088                            1   3
  270          fft3d_mpi                             0.004087                          3   4
  271            fftbas_plan_mpi                       0.003813                        3   5
  272              dfftw_execute                         0.001332                      9   6
  273              map_backward                          0.000606                      2   6
  274                map_gather                            0.000116                    1   7
  275                m_alltoallv_z                         0.000254                    1   7
  276                map_scatter                           0.000188                    1   7
  277              map_forward                           0.001181                      4   6
  278                map_gather                            0.000335                    2   7
  279                m_alltoallv_z                         0.000503                    2   7
  280                map_scatter                           0.000249                    2   7
  281          M_sumb_d                              0.000131                          3   4
  282        brmix                                 0.007279                            1   3
  283          M_sumb_d                              0.000279                          6   4
  284          brpre                                 0.000052                          1   4
  285          setg0                                 0.001456                          1   4
  286          broyd                                 0.002697                          1   4
  287            M_sumb_d                              0.000788                       19   5
  288            brget                                 0.000449                       69   5
  289            brsav                                 0.000079                       17   5
  290          M_bcast_z                             0.001835                          1   4
  291          M_bcast_d                             0.000044                          1   4
  292        M_bcast_d                             0.000047                            2   3
  293      potlok                                0.026966                              1   2
  294        fft3d_mpi                             0.018541                           13   3
  295          fftbas_plan_mpi                       0.017365                         13   4
  296            dfftw_execute                         0.005845                       39   5
  297            map_forward                           0.004282                       14   5
  298              map_gather                            0.000857                      8   6
  299              m_alltoallv_z                         0.002084                      8   6
  300              map_scatter                           0.000971                      8   6
  301            map_backward                          0.004076                       12   5
  302              map_gather                            0.000859                      6   6
  303              m_alltoallv_z                         0.001711                      6   6
  304              map_scatter                           0.001198                      6   6
  305        ggaall_grid                           0.001588                            1   3
  306        M_sumb_d                              0.000259                            6   3
  307        M_bcast_d                             0.000119                            1   3
  308      potlok_metagga                        0.000004                              1   2
  309      set_dd_magatom                        0.000003                              1   2
  310      set_dd_paw                            0.000494                              1   2
  311        set_rsgf_all                          0.000004                            1   3
  312        M_sumb_d                              0.000311                            8   3
  313      densta                                0.002495                              1   2
  314        M_sumb_d                              0.000845                           44   3
  315      lprj_proall                           0.000007                              1   2

 Flat profile
 ============

             routine name                   CPU           calls
 ---------------------------------------------------------------
 total_time                             17.639662           1
 eddav                                   6.016806          17
 dfftw_execute                           5.476722       56226
 fftbas_plan_mpi                         3.796710       18744
 M_sumb_d                                3.001245       51746
 setdij_                                 2.378732          41
 set_charge                              2.097035          13
 m_alltoallv_z                           2.054136       18769
 pdssyex_zheevx                          1.583960         357
 elmin                                   1.550910           1
 M_alltoall_d                            1.323237       62230
 orth1                                   1.048816       12762
 proj1                                   1.047928        7612
 gemm                                    0.927496       25482
 spher                                   0.908006          20
 vhamil                                  0.858202        8494
 fftwav_mpi                              0.732058        9943
 map_forward                             0.724608       20180
 map_gather                              0.692442       18769
 map_scatter                             0.648024       18769
 vnlac0                                  0.575738        8494
 redis_pw                                0.527752       24096
 M_bcast_z                               0.498722        6800
 hamiltmu                                0.472140        4247
 redis_proj                              0.468962       30469
 w1_copy                                 0.371528       25482
 work_mul_crexp                          0.314199       25482
 map_backward                            0.302964       17304
 fft3d_mpi                               0.294727       18742
 crpa_reader                             0.290496           1
 fftext_mpi                              0.280931        8494
 crexp_mul_wave                          0.236466       22836
 eccp                                    0.193961        2142
 kinhamil                                0.173146        8494
 overl                                   0.169543       14867
 M_bcast_d                               0.138796        4281
 overl1                                  0.108054        8494
 potlok                                  0.090645          14
 apply_precond                           0.089737        6352
 pw_charge                               0.088052        1449
 setup_precond                           0.071980        2142
 w1_projall                              0.069656        3176
 lincom                                  0.060913         378
 force_and_stress                        0.055135           1
 fornl                                   0.047850           1
 phase                                   0.039860         589
 soft_charge                             0.036378          13
 truncate_high_frequency_w1              0.036201       10636
 densta                                  0.029369          18
 ggaall_grid                             0.023340          15
 strenl                                  0.022907           1
 brmix                                   0.016077          13
 setg0                                   0.015912          14
 broyd                                   0.009912          13
 forhar                                  0.005925           2
 depsum                                  0.005870          13
 set_dd_paw                              0.003037          15
 forloc                                  0.002913           1
 strehar                                 0.002498           1
 brget                                   0.002477         501
 orthch                                  0.002156           1
 strelo                                  0.002058           1
 chggra                                  0.001870           1
 choleski                                0.001802          21
 proj                                    0.001669          21
 brgrid                                  0.001373           1
 brsav                                   0.000954         145
 brpre                                   0.000947          13
 strkin                                  0.000615           1
 fordep                                  0.000119           1
 vectorpot                               0.000078          14
 set_rsgf_all                            0.000071          15
 potlok_metagga                          0.000057          14
 set_dd_magatom                          0.000055          15
 set_kineden                             0.000047          12
 rotate_active_occupied_orbital          0.000015           1
 lprj_proall                             0.000007           1
 redis_pw_over_bands                     0.000004           1
 ---------------------------------------------------------------
  summed up times    60.7653989791870

 Accumulative profile
 ====================

             routine name                   CPU           calls
 ---------------------------------------------------------------
 total_time                             60.765399           1
 elmin                                  38.831497           1
 eddav                                  32.514731          17
 fft3d_mpi                              13.957253       18742
 fftbas_plan_mpi                        13.695606       18744
 hamiltmu                               10.059504        4247
 fftwav_mpi                              7.986739        9943
 kinhamil                                6.265898        8494
 fftext_mpi                              6.092752        8494
 dfftw_execute                           5.476722       56226
 set_charge                              3.535765          13
 force_and_stress                        3.276777           1
 M_sumb_d                                3.001245       51746
 setdij_                                 2.872702          41
 map_forward                             2.605487       20180
 vnlac0                                  2.355210        8494
 m_alltoallv_z                           2.054136       18769
 map_backward                            1.816688       17304
 proj1                                   1.803971        7612
 w1_projall                              1.604921        3176
 pdssyex_zheevx                          1.583960         357
 M_alltoall_d                            1.323237       62230
 redis_pw                                1.282165       24096
 soft_charge                             1.270123          13
 strenl                                  1.076561           1
 orth1                                   1.048816       12762
 redis_proj                              1.037786       30469
 gemm                                    0.927496       25482
 spher                                   0.908006          20
 vhamil                                  0.858202        8494
 map_gather                              0.692442       18769
 map_scatter                             0.648024       18769
 M_bcast_z                               0.498722        6800
 fordep                                  0.410817           1
 w1_copy                                 0.371528       25482
 potlok                                  0.366596          14
 eccp                                    0.317345        2142
 work_mul_crexp                          0.314199       25482
 crpa_reader                             0.290496           1
 crexp_mul_wave                          0.236466       22836
 overl                                   0.169543       14867
 set_dd_paw                              0.162805          15
 M_bcast_d                               0.138796        4281
 setup_precond                           0.121011        2142
 overl1                                  0.108054        8494
 apply_precond                           0.089737        6352
 pw_charge                               0.088052        1449
 fornl                                   0.063503           1
 brmix                                   0.062682          13
 lincom                                  0.060913         378
 densta                                  0.044042          18
 phase                                   0.039860         589
 truncate_high_frequency_w1              0.036201       10636
 orthch                                  0.029207           1
 proj                                    0.028328          21
 ggaall_grid                             0.023340          15
 broyd                                   0.019573          13
 setg0                                   0.015912          14
 depsum                                  0.008894          13
 forhar                                  0.006283           2
 chggra                                  0.006088           1
 forloc                                  0.002983           1
 strehar                                 0.002707           1
 strelo                                  0.002693           1
 brget                                   0.002477         501
 choleski                                0.001802          21
 brgrid                                  0.001373           1
 strkin                                  0.001250           1
 brsav                                   0.000954         145
 brpre                                   0.000947          13
 vectorpot                               0.000078          14
 set_rsgf_all                            0.000071          15
 potlok_metagga                          0.000057          14
 set_dd_magatom                          0.000055          15
 set_kineden                             0.000047          12
 rotate_active_occupied_orbital          0.000015           1
 lprj_proall                             0.000007           1
 redis_pw_over_bands                     0.000004           1
 ---------------------------------------------------------------

Profiling took   1.489578  1.790927  0.006763  0.005347 seconds
Profiling took   1.455615 seconds
