 ----------------------------------------------------
    OOO  PPPP  EEEEE N   N M   M PPPP
   O   O P   P E     NN  N MM MM P   P
   O   O PPPP  EEEEE N N N M M M PPPP   -- VERSION
   O   O P     E     N  NN M   M P
    OOO  P     EEEEE N   N M   M P
 ----------------------------------------------------
 running   64 mpi-ranks, with    1 threads/rank
 distrk:  each k-point on   16 cores,    4 groups
 distr:  one band on    4 cores,    4 groups
 using from now: INCAR
 vasp.6.0.8 29Jun18 (build Jun 13 2019 12:54:44) complex

 POSCAR found type information on POSCAR  U  Bi Pt
 POSCAR found :  3 types and       3 ions
 scaLAPACK will be used
 WARNING: PSMAXN for non-local potential too small

 -----------------------------------------------------------------------------
|                                                                             |
|  ADVICE TO THIS USER RUNNING 'VASP/VAMP'   (HEAR YOUR MASTER'S VOICE ...):  |
|                                                                             |
|      You enforced a specific xc-type in the INCAR file,                     |
|      a different type was found on the POTCAR file                          |
|          I HOPE YOU KNOW, WHAT YOU ARE  DOING                               |
|                                                                             |
 -----------------------------------------------------------------------------

 LDA part: xc-table for Pade appr. of Perdew
 POSCAR, INCAR and KPOINTS ok, starting setup
 FFT: planning ...
 WAVECAR not read
 entering main loop
       N       E                     dE             d eps       ncg     rms          rms(c)
 ELPA: falling back to scaLAPACK
 ELPA: falling back to scaLAPACK
 ELPA: falling back to scaLAPACK
 ELPA: falling back to scaLAPACK
DAV:   1     0.429776829140E+03    0.42978E+03   -0.22434E+04  4032   0.232E+03
DAV:   2     0.292921816122E+02   -0.40048E+03   -0.39277E+03  4440   0.500E+02
DAV:   3    -0.206302693536E+02   -0.49922E+02   -0.48854E+02  4976   0.179E+02
DAV:   4    -0.259228252164E+02   -0.52926E+01   -0.52684E+01  7568   0.458E+01
DAV:   5    -0.260997280994E+02   -0.17690E+00   -0.17638E+00  5616   0.705E+00    0.149E+01
DAV:   6    -0.333612419662E+02   -0.72615E+01   -0.19583E+02  6072   0.896E+01    0.220E+01
DAV:   7    -0.246390149175E+02    0.87222E+01   -0.26553E+01  5872   0.282E+01    0.975E+00
DAV:   8    -0.245477672520E+02    0.91248E-01   -0.30207E+01  5920   0.231E+01    0.791E+00
DAV:   9    -0.237640556543E+02    0.78371E+00   -0.90100E+00  6264   0.177E+01    0.143E+00
DAV:  10    -0.238027586259E+02   -0.38703E-01   -0.42552E-01  6792   0.319E+00    0.142E+00
DAV:  11    -0.237681495794E+02    0.34609E-01   -0.25933E-01  5984   0.268E+00    0.295E-01
DAV:  12    -0.237688227578E+02   -0.67318E-03   -0.78602E-03  6696   0.503E-01    0.126E-01
DAV:  13    -0.237686962119E+02    0.12655E-03   -0.11427E-03  6272   0.226E-01    0.363E-02
DAV:  14    -0.237686957678E+02    0.44412E-06   -0.98334E-05  6600   0.662E-02    0.211E-02
DAV:  15    -0.237686910123E+02    0.47555E-05   -0.30751E-05  6056   0.363E-02    0.105E-02
DAV:  16    -0.237686902113E+02    0.80103E-06   -0.21505E-05  7320   0.206E-02    0.480E-03
DAV:  17    -0.237686901143E+02    0.96971E-07   -0.80855E-07  4808   0.507E-03
   1 F= -.23768690E+02 E0= -.23767863E+02  d E =-.165346E-02
