<?xml version="1.0" encoding="ISO-8859-1"?>
<modeling>
 <generator>
  <i name="program" type="string">vasp </i>
  <i name="version" type="string">6.0.8  </i>
  <i name="subversion" type="string">29Jun18 (build Jun 13 2019 12:54:44) complex                          parallel </i>
  <i name="platform" type="string">IFC18_CrayMPICH </i>
  <i name="date" type="string">2021 12 05 </i>
  <i name="time" type="string">14:21:50 </i>
 </generator>
 <incar>
  <i type="int" name="KPAR">     4</i>
  <i type="int" name="NPAR">     4</i>
  <i type="int" name="ISTART">     0</i>
  <i type="string" name="PREC"> ACC</i>
  <i type="string" name="ALGO"> Normal</i>
  <i type="logical" name="ADDGRID"> T  </i>
  <i type="int" name="ISPIN">     1</i>
  <i type="int" name="NELMIN">     5</i>
  <i type="int" name="IBRION">    -1</i>
  <i name="EDIFF">      0.00000010</i>
  <i type="int" name="NSW">     0</i>
  <i type="int" name="ISIF">     3</i>
  <i name="ENCUT">    700.00000000</i>
  <i type="logical" name="LREAL"> F  </i>
  <i type="int" name="ISMEAR">     0</i>
  <i name="SIGMA">      0.01000000</i>
  <i type="logical" name="LWAVE"> F  </i>
  <i type="logical" name="LCHARG"> F  </i>
  <i type="logical" name="LVTOT"> F  </i>
  <i type="string" name="ALGO"> Normal</i>
  <i type="string" name="GGA"> PS</i>
  <i name="EDIFF">      0.00000010</i>
  <i type="int" name="ISPIN">     1</i>
 </incar>
 <structure name="primitive_cell" >
  <crystal>
   <varray name="basis" >
    <v>       0.00000000       3.31764100       3.31764100 </v>
    <v>       3.31764100       0.00000000       3.31764100 </v>
    <v>       3.31764100       3.31764100       0.00000000 </v>
   </varray>
   <i name="volume">     73.03283578 </i>
   <varray name="rec_basis" >
    <v>      -0.15070950       0.15070950       0.15070950 </v>
    <v>       0.15070950      -0.15070950       0.15070950 </v>
    <v>       0.15070950       0.15070950      -0.15070950 </v>
   </varray>
  </crystal>
  <varray name="positions" >
   <v>       0.25000000       0.25000000       0.25000000 </v>
   <v>       0.75000000       0.75000000       0.75000000 </v>
   <v>       0.00000000       0.00000000       0.00000000 </v>
  </varray>
 </structure>
 <varray name="primitive_index" >
  <v type="int" >        1 </v>
  <v type="int" >        2 </v>
  <v type="int" >        3 </v>
 </varray>
 <kpoints>
  <generation param="Gamma">
   <v type="int" name="divisions">      13       13       13 </v>
   <v name="usershift">      0.00000000       0.00000000       0.00000000 </v>
   <v name="genvec1">      0.07692308      -0.00000000       0.00000000 </v>
   <v name="genvec2">     -0.00000000       0.07692308      -0.00000000 </v>
   <v name="genvec3">      0.00000000       0.00000000       0.07692308 </v>
   <v name="shift">      0.00000000       0.00000000       0.00000000 </v>
  </generation>
  <varray name="kpointlist" >
   <v>       0.00000000       0.00000000       0.00000000 </v>
   <v>       0.07692308       0.00000000      -0.00000000 </v>
   <v>       0.15384615      -0.00000000       0.00000000 </v>
   <v>       0.23076923       0.00000000      -0.00000000 </v>
   <v>       0.30769231      -0.00000000       0.00000000 </v>
   <v>       0.38461538       0.00000000      -0.00000000 </v>
   <v>       0.46153846       0.00000000      -0.00000000 </v>
   <v>       0.07692308       0.07692308      -0.00000000 </v>
   <v>       0.15384615       0.07692308      -0.00000000 </v>
   <v>       0.23076923       0.07692308      -0.00000000 </v>
   <v>       0.30769231       0.07692308      -0.00000000 </v>
   <v>       0.38461538       0.07692308      -0.00000000 </v>
   <v>       0.46153846       0.07692308      -0.00000000 </v>
   <v>      -0.46153846       0.07692308       0.00000000 </v>
   <v>      -0.38461538       0.07692308       0.00000000 </v>
   <v>      -0.30769231       0.07692308       0.00000000 </v>
   <v>      -0.23076923       0.07692308       0.00000000 </v>
   <v>      -0.15384615       0.07692308       0.00000000 </v>
   <v>      -0.07692308       0.07692308       0.00000000 </v>
   <v>       0.15384615       0.15384615      -0.00000000 </v>
   <v>       0.23076923       0.15384615      -0.00000000 </v>
   <v>       0.30769231       0.15384615      -0.00000000 </v>
   <v>       0.38461538       0.15384615      -0.00000000 </v>
   <v>       0.46153846       0.15384615      -0.00000000 </v>
   <v>      -0.46153846       0.15384615      -0.00000000 </v>
   <v>      -0.38461538       0.15384615       0.00000000 </v>
   <v>      -0.30769231       0.15384615       0.00000000 </v>
   <v>      -0.23076923       0.15384615       0.00000000 </v>
   <v>      -0.15384615       0.15384615      -0.00000000 </v>
   <v>       0.23076923       0.23076923      -0.00000000 </v>
   <v>       0.30769231       0.23076923      -0.00000000 </v>
   <v>       0.38461538       0.23076923      -0.00000000 </v>
   <v>       0.46153846       0.23076923      -0.00000000 </v>
   <v>      -0.46153846       0.23076923       0.00000000 </v>
   <v>      -0.38461538       0.23076923      -0.00000000 </v>
   <v>      -0.30769231       0.23076923       0.00000000 </v>
   <v>      -0.23076923       0.23076923       0.00000000 </v>
   <v>       0.30769231       0.30769231      -0.00000000 </v>
   <v>       0.38461538       0.30769231      -0.00000000 </v>
   <v>       0.46153846       0.30769231      -0.00000000 </v>
   <v>      -0.46153846       0.30769231       0.00000000 </v>
   <v>      -0.38461538       0.30769231       0.00000000 </v>
   <v>      -0.30769231       0.30769231      -0.00000000 </v>
   <v>       0.38461538       0.38461538      -0.00000000 </v>
   <v>       0.46153846       0.38461538      -0.00000000 </v>
   <v>      -0.46153846       0.38461538      -0.00000000 </v>
   <v>      -0.38461538       0.38461538       0.00000000 </v>
   <v>       0.46153846       0.46153846      -0.00000000 </v>
   <v>      -0.46153846       0.46153846       0.00000000 </v>
   <v>       0.23076923       0.15384615       0.07692308 </v>
   <v>       0.30769231       0.15384615       0.07692308 </v>
   <v>       0.38461538       0.15384615       0.07692308 </v>
   <v>       0.46153846       0.15384615       0.07692308 </v>
   <v>      -0.46153846       0.15384615       0.07692308 </v>
   <v>       0.30769231       0.23076923       0.07692308 </v>
   <v>       0.38461538       0.23076923       0.07692308 </v>
   <v>       0.46153846       0.23076923       0.07692308 </v>
   <v>      -0.46153846       0.23076923       0.07692308 </v>
   <v>      -0.38461538       0.23076923       0.07692308 </v>
   <v>      -0.30769231       0.23076923       0.07692308 </v>
   <v>      -0.23076923       0.23076923       0.07692308 </v>
   <v>      -0.15384615       0.23076923       0.07692308 </v>
   <v>       0.38461538       0.30769231       0.07692308 </v>
   <v>       0.46153846       0.30769231       0.07692308 </v>
   <v>      -0.46153846       0.30769231       0.07692308 </v>
   <v>      -0.38461538       0.30769231       0.07692308 </v>
   <v>      -0.30769231       0.30769231       0.07692308 </v>
   <v>      -0.23076923       0.30769231       0.07692308 </v>
   <v>       0.46153846       0.38461538       0.07692308 </v>
   <v>      -0.46153846       0.38461538       0.07692308 </v>
   <v>      -0.38461538       0.38461538       0.07692308 </v>
   <v>      -0.30769231       0.38461538       0.07692308 </v>
   <v>      -0.46153846       0.46153846       0.07692308 </v>
   <v>      -0.38461538       0.46153846       0.07692308 </v>
   <v>       0.46153846       0.30769231       0.15384615 </v>
   <v>      -0.46153846       0.30769231       0.15384615 </v>
   <v>      -0.38461538       0.30769231       0.15384615 </v>
   <v>      -0.46153846       0.38461538       0.15384615 </v>
   <v>      -0.38461538       0.38461538       0.15384615 </v>
   <v>      -0.30769231       0.38461538       0.15384615 </v>
   <v>      -0.23076923       0.38461538       0.15384615 </v>
   <v>      -0.38461538       0.46153846       0.15384615 </v>
   <v>      -0.30769231       0.46153846       0.15384615 </v>
   <v>      -0.30769231       0.46153846       0.23076923 </v>
  </varray>
  <varray name="weights" >
   <v>       0.00045517 </v>
   <v>       0.00364133 </v>
   <v>       0.00364133 </v>
   <v>       0.00364133 </v>
   <v>       0.00364133 </v>
   <v>       0.00364133 </v>
   <v>       0.00364133 </v>
   <v>       0.00273100 </v>
   <v>       0.01092399 </v>
   <v>       0.01092399 </v>
   <v>       0.01092399 </v>
   <v>       0.01092399 </v>
   <v>       0.01092399 </v>
   <v>       0.01092399 </v>
   <v>       0.01092399 </v>
   <v>       0.01092399 </v>
   <v>       0.01092399 </v>
   <v>       0.01092399 </v>
   <v>       0.00546199 </v>
   <v>       0.00273100 </v>
   <v>       0.01092399 </v>
   <v>       0.01092399 </v>
   <v>       0.01092399 </v>
   <v>       0.01092399 </v>
   <v>       0.01092399 </v>
   <v>       0.01092399 </v>
   <v>       0.01092399 </v>
   <v>       0.01092399 </v>
   <v>       0.00546199 </v>
   <v>       0.00273100 </v>
   <v>       0.01092399 </v>
   <v>       0.01092399 </v>
   <v>       0.01092399 </v>
   <v>       0.01092399 </v>
   <v>       0.01092399 </v>
   <v>       0.01092399 </v>
   <v>       0.00546199 </v>
   <v>       0.00273100 </v>
   <v>       0.01092399 </v>
   <v>       0.01092399 </v>
   <v>       0.01092399 </v>
   <v>       0.01092399 </v>
   <v>       0.00546199 </v>
   <v>       0.00273100 </v>
   <v>       0.01092399 </v>
   <v>       0.01092399 </v>
   <v>       0.00546199 </v>
   <v>       0.00273100 </v>
   <v>       0.00546199 </v>
   <v>       0.01092399 </v>
   <v>       0.02184797 </v>
   <v>       0.02184797 </v>
   <v>       0.02184797 </v>
   <v>       0.02184797 </v>
   <v>       0.01092399 </v>
   <v>       0.02184797 </v>
   <v>       0.02184797 </v>
   <v>       0.02184797 </v>
   <v>       0.02184797 </v>
   <v>       0.02184797 </v>
   <v>       0.02184797 </v>
   <v>       0.01092399 </v>
   <v>       0.01092399 </v>
   <v>       0.02184797 </v>
   <v>       0.02184797 </v>
   <v>       0.02184797 </v>
   <v>       0.02184797 </v>
   <v>       0.01092399 </v>
   <v>       0.01092399 </v>
   <v>       0.02184797 </v>
   <v>       0.02184797 </v>
   <v>       0.01092399 </v>
   <v>       0.01092399 </v>
   <v>       0.01092399 </v>
   <v>       0.01092399 </v>
   <v>       0.02184797 </v>
   <v>       0.02184797 </v>
   <v>       0.01092399 </v>
   <v>       0.02184797 </v>
   <v>       0.02184797 </v>
   <v>       0.01092399 </v>
   <v>       0.01092399 </v>
   <v>       0.01092399 </v>
   <v>       0.01092399 </v>
  </varray>
 </kpoints>
 <parameters>
  <separator name="general" >
   <i type="string" name="SYSTEM">unknown system</i>
   <i type="logical" name="LCOMPAT"> F  </i>
  </separator>
  <separator name="electronic" >
   <i type="string" name="PREC">acc</i>
   <i name="ENMAX">    700.00000000</i>
   <i name="ENAUG">    526.41000000</i>
   <i name="EDIFF">      0.00000010</i>
   <i type="int" name="IALGO">    38</i>
   <i type="int" name="IWAVPR">    10</i>
   <i type="int" name="NBANDS">    24</i>
   <i type="int" name="NBANDSLOW">    -1</i>
   <i type="int" name="NBANDSHIGH">    -1</i>
   <i name="NELECT">     39.00000000</i>
   <i type="int" name="TURBO">     0</i>
   <i type="int" name="IRESTART">     0</i>
   <i type="int" name="NREBOOT">     0</i>
   <i type="int" name="NMIN">     0</i>
   <i name="EREF">      0.00000000</i>
   <separator name="electronic smearing" >
    <i type="int" name="ISMEAR">     0</i>
    <i name="SIGMA">      0.01000000</i>
    <i name="KSPACING">      0.50000000</i>
    <i type="logical" name="KGAMMA"> T  </i>
    <i type="logical" name="KBLOWUP"> T  </i>
   </separator>
   <separator name="electronic projectors" >
    <i type="logical" name="LREAL"> F  </i>
    <v name="ROPT">      0.00000000      0.00000000      0.00000000</v>
    <i type="int" name="LMAXPAW">  -100</i>
    <i type="int" name="LMAXMIX">     2</i>
    <i type="logical" name="NLSPLINE"> F  </i>
   </separator>
   <separator name="electronic startup" >
    <i type="int" name="ISTART">     0</i>
    <i type="int" name="ICHARG">     2</i>
    <i type="int" name="INIWAV">     1</i>
   </separator>
   <separator name="electronic spin" >
    <i type="int" name="ISPIN">     1</i>
    <i type="logical" name="LNONCOLLINEAR"> F  </i>
    <v name="MAGMOM">      1.00000000      1.00000000      1.00000000</v>
    <i name="NUPDOWN">     -1.00000000</i>
    <i type="logical" name="LSORBIT"> F  </i>
    <v name="SAXIS">      0.00000000      0.00000000      1.00000000</v>
    <i type="logical" name="LSPIRAL"> F  </i>
    <v name="QSPIRAL">      0.00000000      0.00000000      0.00000000</v>
    <i type="logical" name="LZEROZ"> F  </i>
   </separator>
   <separator name="electronic exchange-correlation" >
    <i type="logical" name="LASPH"> F  </i>
    <i type="logical" name="LMETAGGA"> F  </i>
   </separator>
   <separator name="electronic convergence" >
    <i type="int" name="NELM">    60</i>
    <i type="int" name="NELMDL">    -5</i>
    <i type="int" name="NELMIN">     5</i>
    <i name="ENINI">    700.00000000</i>
    <separator name="electronic convergence detail" >
     <i type="logical" name="LDIAG"> T  </i>
     <i type="logical" name="LSUBROT"> F  </i>
     <i name="WEIMIN">      0.00000000</i>
     <i name="EBREAK">      0.00000000</i>
     <i name="DEPER">      0.30000000</i>
     <i type="int" name="NRMM">     4</i>
     <i name="TIME">      0.40000000</i>
    </separator>
   </separator>
   <separator name="electronic mixer" >
    <i name="AMIX">      0.40000000</i>
    <i name="BMIX">      1.00000000</i>
    <i name="AMIN">      0.10000000</i>
    <i name="AMIX_MAG">      1.60000000</i>
    <i name="BMIX_MAG">      1.00000000</i>
    <separator name="electronic mixer details" >
     <i type="int" name="IMIX">     4</i>
     <i type="logical" name="MIXFIRST"> F  </i>
     <i type="int" name="MAXMIX">   -45</i>
     <i name="WC">    100.00000000</i>
     <i type="int" name="INIMIX">     1</i>
     <i type="int" name="MIXPRE">     1</i>
     <i type="int" name="MREMOVE">     5</i>
    </separator>
   </separator>
   <separator name="electronic dipolcorrection" >
    <i type="logical" name="LDIPOL"> F  </i>
    <i type="logical" name="LMONO"> F  </i>
    <i type="int" name="IDIPOL">     0</i>
    <i name="EPSILON">      1.00000000</i>
    <v name="DIPOL">   -100.00000000   -100.00000000   -100.00000000</v>
    <i name="EFIELD">      0.00000000</i>
   </separator>
  </separator>
  <separator name="grids" >
   <i type="int" name="NGX">    40</i>
   <i type="int" name="NGY">    40</i>
   <i type="int" name="NGZ">    40</i>
   <i type="int" name="NGXF">    80</i>
   <i type="int" name="NGYF">    80</i>
   <i type="int" name="NGZF">    80</i>
   <i type="logical" name="ADDGRID"> T  </i>
  </separator>
  <separator name="ionic" >
   <i type="int" name="NSW">     0</i>
   <i type="int" name="IBRION">    -1</i>
   <i type="int" name="MDALGO">     0</i>
   <i type="int" name="ISIF">     3</i>
   <i name="PSTRESS">      0.00000000</i>
   <i name="EDIFFG">      0.00000100</i>
   <i type="int" name="NFREE">     0</i>
   <i name="POTIM">      0.50000000</i>
   <i name="SMASS">     -3.00000000</i>
   <i name="SCALEE">      1.00000000</i>
  </separator>
  <separator name="ionic md" >
   <i name="TEBEG">      0.00010000</i>
   <i name="TEEND">      0.00010000</i>
   <i type="int" name="NBLOCK">     1</i>
   <i type="int" name="KBLOCK">     1</i>
   <i type="int" name="NPACO">   256</i>
   <i name="APACO">     16.00000000</i>
  </separator>
  <separator name="symmetry" >
   <i type="int" name="ISYM">     2</i>
   <i name="SYMPREC">      0.00001000</i>
  </separator>
  <separator name="dos" >
   <i type="int" name="LORBIT">     0</i>
   <v name="RWIGS">     -1.00000000     -1.00000000     -1.00000000</v>
   <i type="int" name="NEDOS">   301</i>
   <i name="EMIN">     10.00000000</i>
   <i name="EMAX">    -10.00000000</i>
   <i name="EFERMI">      0.00000000</i>
  </separator>
  <separator name="writing" >
   <i type="int" name="NWRITE">     2</i>
   <i type="logical" name="LWAVE"> F  </i>
   <i type="logical" name="LDOWNSAMPLE"> F  </i>
   <i type="logical" name="LCHARG"> F  </i>
   <i type="logical" name="LPARD"> F  </i>
   <i type="logical" name="LVTOT"> F  </i>
   <i type="logical" name="LVHAR"> F  </i>
   <i type="logical" name="LELF"> F  </i>
   <i type="logical" name="LOPTICS"> F  </i>
   <v name="STM">      0.00000000      0.00000000      0.00000000      0.00000000      0.00000000      0.00000000      0.00000000</v>
  </separator>
  <separator name="performance" >
   <i type="int" name="NPAR">     4</i>
   <i type="int" name="NSIM">     4</i>
   <i type="int" name="NBLK">    -1</i>
   <i type="logical" name="LPLANE"> T  </i>
   <i type="logical" name="LSCALAPACK"> T  </i>
   <i type="logical" name="LSCAAWARE"> F  </i>
   <i type="logical" name="LSCALU"> F  </i>
   <i type="logical" name="LASYNC"> F  </i>
   <i type="logical" name="LORBITALREAL"> F  </i>
  </separator>
  <separator name="miscellaneous" >
   <i type="int" name="IDIOT">     3</i>
   <i type="int" name="PHON_NSTRUCT">    -1</i>
   <i type="logical" name="LMUSIC"> F  </i>
   <v name="POMASS">    238.02900000    208.98000000    195.08000000</v>
   <v name="DARWINR">      0.00000000      0.00000000      0.00000000</v>
   <v name="DARWINV">      1.00000000      1.00000000      1.00000000</v>
   <i type="logical" name="LCORR"> T  </i>
  </separator>
  <i type="logical" name="GGA_COMPAT"> T  </i>
  <i type="logical" name="LBERRY"> F  </i>
  <i type="int" name="ICORELEVEL">     0</i>
  <i type="logical" name="LDAU"> F  </i>
  <i type="int" name="I_CONSTRAINED_M">     0</i>
  <separator name="electronic exchange-correlation" >
   <i type="string" name="GGA">PS</i>
   <i type="int" name="VOSKOWN">     0</i>
   <i type="logical" name="LHFCALC"> F  </i>
   <i type="string" name="PRECFOCK"></i>
   <i type="logical" name="LSYMGRAD"> F  </i>
   <i type="logical" name="LHFONE"> F  </i>
   <i type="logical" name="LRHFCALC"> F  </i>
   <i type="logical" name="LTHOMAS"> F  </i>
   <i type="logical" name="LMODELHF"> F  </i>
   <i type="logical" name="LFOCKACE"> F  </i>
   <i name="ENCUT4O">     -1.00000000</i>
   <i type="int" name="EXXOEP">     0</i>
   <i type="int" name="FOURORBIT">     0</i>
   <i name="AEXX">      0.00000000</i>
   <i name="HFALPHA">      0.00000000</i>
   <i name="MCALPHA">      0.00000000</i>
   <i name="ALDAX">      1.00000000</i>
   <i name="AGGAX">      1.00000000</i>
   <i name="ALDAC">      1.00000000</i>
   <i name="AGGAC">      1.00000000</i>
   <i type="int" name="NKREDX">     1</i>
   <i type="int" name="NKREDY">     1</i>
   <i type="int" name="NKREDZ">     1</i>
   <i type="logical" name="SHIFTRED"> F  </i>
   <i type="logical" name="ODDONLY"> F  </i>
   <i type="logical" name="EVENONLY"> F  </i>
   <i type="int" name="LMAXFOCK">     0</i>
   <i type="int" name="NMAXFOCKAE">     0</i>
   <i type="logical" name="LFOCKAEDFT"> F  </i>
   <i name="HFSCREEN">      0.00000000</i>
   <i name="HFSCREENC">      0.00000000</i>
   <i type="int" name="NBANDSGWLOW">     0</i>
  </separator>
  <separator name="vdW DFT" >
   <i type="logical" name="LUSE_VDW"> F  </i>
   <i name="Zab_VDW">     -0.84910000</i>
   <i name="PARAM1">      0.12340000</i>
   <i name="PARAM2">      1.00000000</i>
   <i name="PARAM3">      0.00000000</i>
  </separator>
  <separator name="model GW" >
   <i type="int" name="MODEL_GW">     0</i>
   <i name="MODEL_EPS0">     14.60656716</i>
   <i name="MODEL_ALPHA">      1.00000000</i>
  </separator>
  <separator name="linear response parameters" >
   <i type="logical" name="LEPSILON"> F  </i>
   <i type="logical" name="LRPA"> F  </i>
   <i type="logical" name="LNABLA"> F  </i>
   <i type="logical" name="LVEL"> F  </i>
   <i type="int" name="KINTER">     0</i>
   <i name="CSHIFT">      0.10000000</i>
   <i name="OMEGAMAX">     -1.00000000</i>
   <i name="DEG_THRESHOLD">      0.00200000</i>
   <i name="RTIME">     -0.10000000</i>
   <i name="WPLASMAI">      0.00000000</i>
   <v name="DFIELD">      0.00000000      0.00000000      0.00000000</v>
   <v name="WPLASMA">      0.00000000      0.00000000      0.00000000      0.00000000      0.00000000      0.00000000      0.00000000      0.00000000      0.00000000</v>
  </separator>
  <separator name="orbital magnetization" >
   <i type="logical" name="NUCIND"> F  </i>
   <v name="MAGPOS">      0.00000000      0.00000000      0.00000000</v>
   <i type="logical" name="LNICSALL"> T  </i>
   <i type="logical" name="ORBITALMAG"> F  </i>
   <i type="logical" name="LMAGBLOCH"> F  </i>
   <i type="logical" name="LCHIMAG"> F  </i>
   <i type="logical" name="LGAUGE"> T  </i>
   <i type="int" name="MAGATOM">     0</i>
   <v name="MAGDIPOL">      0.00000000      0.00000000      0.00000000</v>
   <v name="AVECCONST">      0.00000000      0.00000000      0.00000000</v>
  </separator>
  <separator name="response functions" >
   <i type="logical" name="LFINITE_TEMPERATURE"> F  </i>
   <i type="logical" name="LADDER"> F  </i>
   <i type="logical" name="LRPAFORCE"> F  </i>
   <i type="logical" name="LFXC"> F  </i>
   <i type="logical" name="LHARTREE"> T  </i>
   <i type="int" name="IBSE">     0</i>
   <v type="int" name="KPOINT">    -1     0     0     0</v>
   <i type="logical" name="LTCTC"> F  </i>
   <i type="logical" name="LTCTE"> F  </i>
   <i type="logical" name="LTETE"> F  </i>
   <i type="logical" name="LTRIPLET"> F  </i>
   <i type="logical" name="LFXCEPS"> F  </i>
   <i type="logical" name="LFXHEG"> F  </i>
   <i type="int" name="NATURALO">     2</i>
   <i type="logical" name="L2ORDER"> F  </i>
   <i type="logical" name="LDMP1"> F  </i>
   <i type="logical" name="LMP2LT"> F  </i>
   <i type="logical" name="LSMP2LT"> F  </i>
   <i type="logical" name="LUSEW"> F  </i>
   <i name="ENCUTGW">     -2.00000000</i>
   <i name="ENCUTGWSOFT">     -2.00000000</i>
   <i name="ENCUTLF">     -1.00000000</i>
   <i type="int" name="LMAXMP2">    -1</i>
   <i name="SCISSOR">      0.00000000</i>
   <i type="int" name="NOMEGA">     0</i>
   <i type="int" name="NOMEGAR">     0</i>
   <i type="int" name="NBANDSGW">    -1</i>
   <i type="int" name="NBANDSO">    -1</i>
   <i type="int" name="NBANDSV">    -1</i>
   <i type="int" name="NELM">     1</i>
   <i type="int" name="NELMHF">     1</i>
   <i type="int" name="DIM">     3</i>
   <i type="int" name="IESPILON">     4</i>
   <i type="int" name="ANTIRES">     0</i>
   <i name="OMEGAMAX">    -30.00000000</i>
   <i name="OMEGAMIN">    -30.00000000</i>
   <i name="OMEGATL">   -200.00000000</i>
   <i type="int" name="OMEGAGRID">   145</i>
   <i name="CSHIFT">     -0.10000000</i>
   <i type="logical" name="LSELFENERGY"> F  </i>
   <i type="logical" name="LSPECTRAL"> F  </i>
   <i type="logical" name="LSPECTRALGW"> F  </i>
   <i type="logical" name="LSINGLES"> F  </i>
   <i type="logical" name="LFERMIGW"> F  </i>
   <i type="logical" name="ODDONLYGW"> F  </i>
   <i type="logical" name="EVENONLYGW"> F  </i>
   <i type="int" name="NKREDLFX">     1</i>
   <i type="int" name="NKREDLFY">     1</i>
   <i type="int" name="NKREDLFZ">     1</i>
   <i type="int" name="MAXMEM">  2800</i>
   <i type="int" name="TELESCOPE">     0</i>
   <i type="int" name="NTAUPAR">     1</i>
   <i type="int" name="NOMEGAPAR">    -1</i>
   <i name="LAMBDA">      1.00000000</i>
  </separator>
  <separator name="External order field" >
   <i name="OFIELD_KAPPA">      0.00000000</i>
   <v name="OFIELD_K">      0.00000000      0.00000000      0.00000000</v>
   <i name="OFIELD_Q6_NEAR">      0.00000000</i>
   <i name="OFIELD_Q6_FAR">      0.00000000</i>
   <i name="OFIELD_A">      0.00000000</i>
  </separator>
 </parameters>
 <atominfo>
  <atoms>       3 </atoms>
  <types>       3 </types>
  <array name="atoms" >
   <dimension dim="1">ion</dimension>
   <field type="string">element</field>
   <field type="int">atomtype</field>
   <set>
    <rc><c>U </c><c>   1</c></rc>
    <rc><c>Bi</c><c>   2</c></rc>
    <rc><c>Pt</c><c>   3</c></rc>
   </set>
  </array>
  <array name="atomtypes" >
   <dimension dim="1">type</dimension>
   <field type="int">atomspertype</field>
   <field type="string">element</field>
   <field>mass</field>
   <field>valence</field>
   <field type="string">pseudopotential</field>
   <set>
    <rc><c>   1</c><c>U </c><c>    238.02900000</c><c>     14.00000000</c><c>  PAW_PBE U 06Sep2000                   </c></rc>
    <rc><c>   1</c><c>Bi</c><c>    208.98000000</c><c>     15.00000000</c><c>  PAW_PBE Bi_d 06Sep2000                </c></rc>
    <rc><c>   1</c><c>Pt</c><c>    195.08000000</c><c>     10.00000000</c><c>  PAW_PBE Pt 04Feb2005                  </c></rc>
   </set>
  </array>
 </atominfo>
 <structure name="initialpos" >
  <crystal>
   <varray name="basis" >
    <v>       0.00000000       3.31764100       3.31764100 </v>
    <v>       3.31764100       0.00000000       3.31764100 </v>
    <v>       3.31764100       3.31764100       0.00000000 </v>
   </varray>
   <i name="volume">     73.03283578 </i>
   <varray name="rec_basis" >
    <v>      -0.15070950       0.15070950       0.15070950 </v>
    <v>       0.15070950      -0.15070950       0.15070950 </v>
    <v>       0.15070950       0.15070950      -0.15070950 </v>
   </varray>
  </crystal>
  <varray name="positions" >
   <v>       0.25000000       0.25000000       0.25000000 </v>
   <v>       0.75000000       0.75000000       0.75000000 </v>
   <v>       0.00000000       0.00000000       0.00000000 </v>
  </varray>
 </structure>
 <calculation>
  <scstep>
   <time name="dav">    1.44    1.47</time>
   <time name="total">    1.58    1.68</time>
   <energy>
    <i name="alphaZ">    215.31116115 </i>
    <i name="ewald">  -3593.30914339 </i>
    <i name="hartreedc">   -783.94252335 </i>
    <i name="XCdc">     90.34504247 </i>
    <i name="pawpsdc">   3513.29252893 </i>
    <i name="pawaedc">  -3436.88002192 </i>
    <i name="eentropy">     -0.00009116 </i>
    <i name="bandstr">    329.60779009 </i>
    <i name="atom">   4095.35208632 </i>
    <i name="e_fr_energy">    429.77682914 </i>
    <i name="e_wo_entrp">    429.77692030 </i>
    <i name="e_0_energy">    429.77687472 </i>
   </energy>
  </scstep>
  <scstep>
   <time name="dav">    1.54    1.59</time>
   <time name="total">    1.55    1.59</time>
   <energy>
    <i name="e_fr_energy">     29.29218161 </i>
    <i name="e_wo_entrp">     29.29276157 </i>
    <i name="e_0_energy">     29.29247159 </i>
   </energy>
  </scstep>
  <scstep>
   <time name="dav">    1.67    1.71</time>
   <time name="total">    1.68    1.71</time>
   <energy>
    <i name="e_fr_energy">    -20.63026935 </i>
    <i name="e_wo_entrp">    -20.62969140 </i>
    <i name="e_0_energy">    -20.62998038 </i>
   </energy>
  </scstep>
  <scstep>
   <time name="dav">    2.34    2.36</time>
   <time name="total">    2.34    2.37</time>
   <energy>
    <i name="e_fr_energy">    -25.92282522 </i>
    <i name="e_wo_entrp">    -25.92191458 </i>
    <i name="e_0_energy">    -25.92236990 </i>
   </energy>
  </scstep>
  <scstep>
   <time name="dav">    1.84    1.87</time>
   <time name="total">    2.17    2.21</time>
   <energy>
    <i name="e_fr_energy">    -26.09972810 </i>
    <i name="e_wo_entrp">    -26.09881333 </i>
    <i name="e_0_energy">    -26.09927072 </i>
   </energy>
  </scstep>
  <scstep>
   <time name="dav">    1.92    1.92</time>
   <time name="total">    2.33    2.36</time>
   <energy>
    <i name="e_fr_energy">    -33.36124197 </i>
    <i name="e_wo_entrp">    -33.36110139 </i>
    <i name="e_0_energy">    -33.36117168 </i>
   </energy>
  </scstep>
  <scstep>
   <time name="dav">    1.90    1.90</time>
   <time name="total">    2.29    2.33</time>
   <energy>
    <i name="e_fr_energy">    -24.63901492 </i>
    <i name="e_wo_entrp">    -24.63820267 </i>
    <i name="e_0_energy">    -24.63860879 </i>
   </energy>
  </scstep>
  <scstep>
   <time name="dav">    1.88    1.88</time>
   <time name="total">    2.29    2.32</time>
   <energy>
    <i name="e_fr_energy">    -24.54776725 </i>
    <i name="e_wo_entrp">    -24.54650625 </i>
    <i name="e_0_energy">    -24.54713675 </i>
   </energy>
  </scstep>
  <scstep>
   <time name="dav">    1.98    1.98</time>
   <time name="total">    2.36    2.43</time>
   <energy>
    <i name="e_fr_energy">    -23.76405565 </i>
    <i name="e_wo_entrp">    -23.76280064 </i>
    <i name="e_0_energy">    -23.76342815 </i>
   </energy>
  </scstep>
  <scstep>
   <time name="dav">    2.15    2.15</time>
   <time name="total">    2.54    2.60</time>
   <energy>
    <i name="e_fr_energy">    -23.80275863 </i>
    <i name="e_wo_entrp">    -23.80146292 </i>
    <i name="e_0_energy">    -23.80211077 </i>
   </energy>
  </scstep>
  <scstep>
   <time name="dav">    1.89    1.89</time>
   <time name="total">    2.27    2.31</time>
   <energy>
    <i name="e_fr_energy">    -23.76814958 </i>
    <i name="e_wo_entrp">    -23.76652831 </i>
    <i name="e_0_energy">    -23.76733895 </i>
   </energy>
  </scstep>
  <scstep>
   <time name="dav">    2.08    2.08</time>
   <time name="total">    2.48    2.51</time>
   <energy>
    <i name="e_fr_energy">    -23.76882276 </i>
    <i name="e_wo_entrp">    -23.76715507 </i>
    <i name="e_0_energy">    -23.76798892 </i>
   </energy>
  </scstep>
  <scstep>
   <time name="dav">    1.98    1.98</time>
   <time name="total">    2.36    2.41</time>
   <energy>
    <i name="e_fr_energy">    -23.76869621 </i>
    <i name="e_wo_entrp">    -23.76704234 </i>
    <i name="e_0_energy">    -23.76786928 </i>
   </energy>
  </scstep>
  <scstep>
   <time name="dav">    2.11    2.11</time>
   <time name="total">    2.49    2.54</time>
   <energy>
    <i name="e_fr_energy">    -23.76869577 </i>
    <i name="e_wo_entrp">    -23.76703916 </i>
    <i name="e_0_energy">    -23.76786746 </i>
   </energy>
  </scstep>
  <scstep>
   <time name="dav">    1.91    1.91</time>
   <time name="total">    2.30    2.34</time>
   <energy>
    <i name="e_fr_energy">    -23.76869101 </i>
    <i name="e_wo_entrp">    -23.76703653 </i>
    <i name="e_0_energy">    -23.76786377 </i>
   </energy>
  </scstep>
  <scstep>
   <time name="dav">    2.27    2.27</time>
   <time name="total">    2.66    2.70</time>
   <energy>
    <i name="e_fr_energy">    -23.76869021 </i>
    <i name="e_wo_entrp">    -23.76703697 </i>
    <i name="e_0_energy">    -23.76786359 </i>
   </energy>
  </scstep>
  <scstep>
   <time name="dav">    1.64    1.64</time>
   <time name="total">    1.76    1.80</time>
   <energy>
    <i name="alphaZ">    215.31116115 </i>
    <i name="ewald">  -3593.30914339 </i>
    <i name="hartreedc">   -770.31438308 </i>
    <i name="XCdc">     89.94369943 </i>
    <i name="pawpsdc">   4210.86318522 </i>
    <i name="pawaedc">  -4143.88622131 </i>
    <i name="eentropy">     -0.00165346 </i>
    <i name="bandstr">   -127.72742098 </i>
    <i name="atom">   4095.35208632 </i>
    <i name="e_fr_energy">    -23.76869011 </i>
    <i name="e_wo_entrp">    -23.76703665 </i>
    <i name="e_0_energy">    -23.76786338 </i>
   </energy>
  </scstep>
  <structure>
   <crystal>
    <varray name="basis" >
     <v>       0.00000000       3.31764100       3.31764100 </v>
     <v>       3.31764100       0.00000000       3.31764100 </v>
     <v>       3.31764100       3.31764100       0.00000000 </v>
    </varray>
    <i name="volume">     73.03283578 </i>
    <varray name="rec_basis" >
     <v>      -0.15070950       0.15070950       0.15070950 </v>
     <v>       0.15070950      -0.15070950       0.15070950 </v>
     <v>       0.15070950       0.15070950      -0.15070950 </v>
    </varray>
   </crystal>
   <varray name="positions" >
    <v>       0.25000000       0.25000000       0.25000000 </v>
    <v>       0.75000000       0.75000000       0.75000000 </v>
    <v>       0.00000000       0.00000000       0.00000000 </v>
   </varray>
  </structure>
  <varray name="forces" >
   <v>       0.00000000       0.00000000       0.00000000 </v>
   <v>       0.00000000       0.00000000       0.00000000 </v>
   <v>      -0.00000000      -0.00000000      -0.00000000 </v>
  </varray>
  <varray name="stress" >
   <v>      -0.24612016       0.00000000       0.00000000 </v>
   <v>       0.00000000      -0.24612016       0.00000000 </v>
   <v>       0.00000000       0.00000000      -0.24612016 </v>
  </varray>
  <energy>
   <i name="e_fr_energy">    -23.76869011 </i>
   <i name="e_wo_entrp">    -23.76786338 </i>
   <i name="e_0_energy">     -0.00165346 </i>
  </energy>
  <time name="totalsc">   40.96   42.29</time>
  <eigenvalues>
   <array>
    <dimension dim="1">band</dimension>
    <dimension dim="2">kpoint</dimension>
    <dimension dim="3">spin</dimension>
    <field>eigene</field>
    <field>occ</field>
    <set>
     <set comment="spin 1">
      <set comment="kpoint 1">
       <r>  -34.0292    1.0000 </r>
       <r>  -12.8296    1.0000 </r>
       <r>  -12.8296    1.0000 </r>
       <r>  -12.8009    1.0000 </r>
       <r>  -12.8009    1.0000 </r>
       <r>  -12.8009    1.0000 </r>
       <r>   -9.3207    1.0000 </r>
       <r>   -9.3207    1.0000 </r>
       <r>   -9.3207    1.0000 </r>
       <r>   -2.4456    1.0000 </r>
       <r>    5.4624    1.0000 </r>
       <r>    5.4624    1.0000 </r>
       <r>    5.4624    1.0000 </r>
       <r>    5.7125    1.0000 </r>
       <r>    5.7125    1.0000 </r>
       <r>    8.4861    1.0000 </r>
       <r>    8.9104    1.0000 </r>
       <r>    8.9104    1.0000 </r>
       <r>    8.9104    1.0000 </r>
       <r>   10.0468    1.0000 </r>
       <r>   10.0468    1.0000 </r>
       <r>   10.0469    1.0000 </r>
       <r>   10.2236    0.0000 </r>
       <r>   10.3335    0.0000 </r>
      </set>
      <set comment="kpoint 2">
       <r>  -34.0289    1.0000 </r>
       <r>  -12.8312    1.0000 </r>
       <r>  -12.8312    1.0000 </r>
       <r>  -12.8012    1.0000 </r>
       <r>  -12.8007    1.0000 </r>
       <r>  -12.8007    1.0000 </r>
       <r>   -9.3356    1.0000 </r>
       <r>   -9.3172    1.0000 </r>
       <r>   -9.3172    1.0000 </r>
       <r>   -2.3770    1.0000 </r>
       <r>    5.3364    1.0000 </r>
       <r>    5.3406    1.0000 </r>
       <r>    5.3406    1.0000 </r>
       <r>    5.8269    1.0000 </r>
       <r>    5.8269    1.0000 </r>
       <r>    8.0644    1.0000 </r>
       <r>    8.8510    1.0000 </r>
       <r>    8.8510    1.0000 </r>
       <r>    9.1729    1.0000 </r>
       <r>   10.0259    1.0000 </r>
       <r>   10.0387    1.0000 </r>
       <r>   10.0387    1.0000 </r>
       <r>   10.3562    0.0000 </r>
       <r>   10.4058    0.0000 </r>
      </set>
      <set comment="kpoint 3">
       <r>  -34.0282    1.0000 </r>
       <r>  -12.8358    1.0000 </r>
       <r>  -12.8358    1.0000 </r>
       <r>  -12.8021    1.0000 </r>
       <r>  -12.8001    1.0000 </r>
       <r>  -12.8001    1.0000 </r>
       <r>   -9.3753    1.0000 </r>
       <r>   -9.3074    1.0000 </r>
       <r>   -9.3074    1.0000 </r>
       <r>   -2.1855    1.0000 </r>
       <r>    5.0148    1.0000 </r>
       <r>    5.1713    1.0000 </r>
       <r>    5.1713    1.0000 </r>
       <r>    5.9634    1.0000 </r>
       <r>    5.9634    1.0000 </r>
       <r>    7.4675    1.0000 </r>
       <r>    8.7232    1.0000 </r>
       <r>    8.7232    1.0000 </r>
       <r>    9.2551    1.0000 </r>
       <r>   10.0366    1.0000 </r>
       <r>   10.0366    1.0000 </r>
       <r>   10.2426    0.0000 </r>
       <r>   10.5431    0.0000 </r>
       <r>   10.5434    0.0000 </r>
      </set>
      <set comment="kpoint 4">
       <r>  -34.0271    1.0000 </r>
       <r>  -12.8422    1.0000 </r>
       <r>  -12.8422    1.0000 </r>
       <r>  -12.8036    1.0000 </r>
       <r>  -12.7992    1.0000 </r>
       <r>  -12.7992    1.0000 </r>
       <r>   -9.4278    1.0000 </r>
       <r>   -9.2936    1.0000 </r>
       <r>   -9.2936    1.0000 </r>
       <r>   -1.9117    1.0000 </r>
       <r>    4.6131    1.0000 </r>
       <r>    5.0431    1.0000 </r>
       <r>    5.0431    1.0000 </r>
       <r>    6.0148    1.0000 </r>
       <r>    6.0148    1.0000 </r>
       <r>    6.9175    1.0000 </r>
       <r>    8.6127    1.0000 </r>
       <r>    8.6127    1.0000 </r>
       <r>    9.2479    1.0000 </r>
       <r>   10.0520    1.0000 </r>
       <r>   10.0520    1.0000 </r>
       <r>   10.3424    0.0000 </r>
       <r>   10.3896    0.0000 </r>
       <r>   10.6204    0.0000 </r>
      </set>
      <set comment="kpoint 5">
       <r>  -34.0260    1.0000 </r>
       <r>  -12.8490    1.0000 </r>
       <r>  -12.8490    1.0000 </r>
       <r>  -12.8054    1.0000 </r>
       <r>  -12.7982    1.0000 </r>
       <r>  -12.7982    1.0000 </r>
       <r>   -9.4795    1.0000 </r>
       <r>   -9.2791    1.0000 </r>
       <r>   -9.2791    1.0000 </r>
       <r>   -1.6152    1.0000 </r>
       <r>    4.2341    1.0000 </r>
       <r>    4.9722    1.0000 </r>
       <r>    4.9722    1.0000 </r>
       <r>    5.9670    1.0000 </r>
       <r>    5.9670    1.0000 </r>
       <r>    6.4814    1.0000 </r>
       <r>    8.5625    1.0000 </r>
       <r>    8.5625    1.0000 </r>
       <r>    9.2839    1.0000 </r>
       <r>   10.0836    0.8599 </r>
       <r>   10.0836    0.8599 </r>
       <r>   10.3471    0.0000 </r>
       <r>   10.4607    0.0000 </r>
       <r>   10.5913    0.0000 </r>
      </set>
      <set comment="kpoint 6">
       <r>  -34.0251    1.0000 </r>
       <r>  -12.8547    1.0000 </r>
       <r>  -12.8547    1.0000 </r>
       <r>  -12.8072    1.0000 </r>
       <r>  -12.7973    1.0000 </r>
       <r>  -12.7973    1.0000 </r>
       <r>   -9.5193    1.0000 </r>
       <r>   -9.2671    1.0000 </r>
       <r>   -9.2671    1.0000 </r>
       <r>   -1.3643    1.0000 </r>
       <r>    3.9487    1.0000 </r>
       <r>    4.9534    1.0000 </r>
       <r>    4.9534    1.0000 </r>
       <r>    5.8635    1.0000 </r>
       <r>    5.8635    1.0000 </r>
       <r>    6.1868    1.0000 </r>
       <r>    8.5600    1.0000 </r>
       <r>    8.5600    1.0000 </r>
       <r>    9.3581    1.0000 </r>
       <r>   10.1277    0.0000 </r>
       <r>   10.1277    0.0000 </r>
       <r>   10.3517    0.0000 </r>
       <r>   10.5109    0.0000 </r>
       <r>   10.5136    0.0000 </r>
      </set>
      <set comment="kpoint 7">
       <r>  -34.0246    1.0000 </r>
       <r>  -12.8578    1.0000 </r>
       <r>  -12.8578    1.0000 </r>
       <r>  -12.8083    1.0000 </r>
       <r>  -12.7969    1.0000 </r>
       <r>  -12.7969    1.0000 </r>
       <r>   -9.5407    1.0000 </r>
       <r>   -9.2604    1.0000 </r>
       <r>   -9.2604    1.0000 </r>
       <r>   -1.2204    1.0000 </r>
       <r>    3.7975    1.0000 </r>
       <r>    4.9606    1.0000 </r>
       <r>    4.9606    1.0000 </r>
       <r>    5.7799    1.0000 </r>
       <r>    5.7799    1.0000 </r>
       <r>    6.0397    1.0000 </r>
       <r>    8.5705    1.0000 </r>
       <r>    8.5705    1.0000 </r>
       <r>    9.4226    1.0000 </r>
       <r>   10.1686    0.0000 </r>
       <r>   10.1686    0.0000 </r>
       <r>   10.4421    0.0000 </r>
       <r>   10.4428    0.0000 </r>
       <r>   10.5493    0.0000 </r>
      </set>
      <set comment="kpoint 8">
       <r>  -34.0288    1.0000 </r>
       <r>  -12.8340    1.0000 </r>
       <r>  -12.8292    1.0000 </r>
       <r>  -12.8014    1.0000 </r>
       <r>  -12.8006    1.0000 </r>
       <r>  -12.8006    1.0000 </r>
       <r>   -9.3285    1.0000 </r>
       <r>   -9.3222    1.0000 </r>
       <r>   -9.3222    1.0000 </r>
       <r>   -2.3557    1.0000 </r>
       <r>    5.0763    1.0000 </r>
       <r>    5.4761    1.0000 </r>
       <r>    5.4761    1.0000 </r>
       <r>    5.7267    1.0000 </r>
       <r>    5.8743    1.0000 </r>
       <r>    8.0449    1.0000 </r>
       <r>    8.7549    1.0000 </r>
       <r>    8.7549    1.0000 </r>
       <r>    9.3347    1.0000 </r>
       <r>    9.9427    1.0000 </r>
       <r>   10.0599    1.0000 </r>
       <r>   10.0599    1.0000 </r>
       <r>   10.3444    0.0000 </r>
       <r>   10.3851    0.0000 </r>
      </set>
      <set comment="kpoint 9">
       <r>  -34.0283    1.0000 </r>
       <r>  -12.8391    1.0000 </r>
       <r>  -12.8305    1.0000 </r>
       <r>  -12.8021    1.0000 </r>
       <r>  -12.8001    1.0000 </r>
       <r>  -12.8000    1.0000 </r>
       <r>   -9.3588    1.0000 </r>
       <r>   -9.3200    1.0000 </r>
       <r>   -9.3110    1.0000 </r>
       <r>   -2.2099    1.0000 </r>
       <r>    4.7936    1.0000 </r>
       <r>    5.3602    1.0000 </r>
       <r>    5.3850    1.0000 </r>
       <r>    5.8257    1.0000 </r>
       <r>    5.9772    1.0000 </r>
       <r>    7.6437    1.0000 </r>
       <r>    8.6143    1.0000 </r>
       <r>    8.6162    1.0000 </r>
       <r>    9.4358    1.0000 </r>
       <r>   10.0007    1.0000 </r>
       <r>   10.0620    1.0000 </r>
       <r>   10.1601    0.0000 </r>
       <r>   10.3503    0.0000 </r>
       <r>   10.5110    0.0000 </r>
      </set>
      <set comment="kpoint 10">
       <r>  -34.0273    1.0000 </r>
       <r>  -12.8452    1.0000 </r>
       <r>  -12.8349    1.0000 </r>
       <r>  -12.8032    1.0000 </r>
       <r>  -12.7995    1.0000 </r>
       <r>  -12.7991    1.0000 </r>
       <r>   -9.4074    1.0000 </r>
       <r>   -9.3111    1.0000 </r>
       <r>   -9.2957    1.0000 </r>
       <r>   -1.9718    1.0000 </r>
       <r>    4.5112    1.0000 </r>
       <r>    5.1352    1.0000 </r>
       <r>    5.2580    1.0000 </r>
       <r>    5.9050    1.0000 </r>
       <r>    6.0669    1.0000 </r>
       <r>    7.1343    1.0000 </r>
       <r>    8.4723    1.0000 </r>
       <r>    8.5147    1.0000 </r>
       <r>    9.4125    1.0000 </r>
       <r>   10.0332    1.0000 </r>
       <r>   10.0659    0.9998 </r>
       <r>   10.3445    0.0000 </r>
       <r>   10.3533    0.0000 </r>
       <r>   10.5896    0.0000 </r>
      </set>
      <set comment="kpoint 11">
       <r>  -34.0262    1.0000 </r>
       <r>  -12.8510    1.0000 </r>
       <r>  -12.8414    1.0000 </r>
       <r>  -12.8048    1.0000 </r>
       <r>  -12.7988    1.0000 </r>
       <r>  -12.7981    1.0000 </r>
       <r>   -9.4593    1.0000 </r>
       <r>   -9.2976    1.0000 </r>
       <r>   -9.2818    1.0000 </r>
       <r>   -1.6947    1.0000 </r>
       <r>    4.2403    1.0000 </r>
       <r>    4.9608    1.0000 </r>
       <r>    5.1635    1.0000 </r>
       <r>    5.8888    1.0000 </r>
       <r>    6.0725    1.0000 </r>
       <r>    6.6673    1.0000 </r>
       <r>    8.3932    1.0000 </r>
       <r>    8.4836    1.0000 </r>
       <r>    9.3989    1.0000 </r>
       <r>   10.0740    0.9926 </r>
       <r>   10.0829    0.8815 </r>
       <r>   10.3558    0.0000 </r>
       <r>   10.4219    0.0000 </r>
       <r>   10.5844    0.0000 </r>
      </set>
      <set comment="kpoint 12">
       <r>  -34.0252    1.0000 </r>
       <r>  -12.8551    1.0000 </r>
       <r>  -12.8483    1.0000 </r>
       <r>  -12.8064    1.0000 </r>
       <r>  -12.7980    1.0000 </r>
       <r>  -12.7972    1.0000 </r>
       <r>   -9.5026    1.0000 </r>
       <r>   -9.2827    1.0000 </r>
       <r>   -9.2722    1.0000 </r>
       <r>   -1.4420    1.0000 </r>
       <r>    4.0166    1.0000 </r>
       <r>    4.8874    1.0000 </r>
       <r>    5.0966    1.0000 </r>
       <r>    5.8181    1.0000 </r>
       <r>    5.9967    1.0000 </r>
       <r>    6.3129    1.0000 </r>
       <r>    8.3772    1.0000 </r>
       <r>    8.5005    1.0000 </r>
       <r>    9.4282    1.0000 </r>
       <r>   10.1164    0.0002 </r>
       <r>   10.1227    0.0000 </r>
       <r>   10.3564    0.0000 </r>
       <r>   10.4546    0.0000 </r>
       <r>   10.5417    0.0000 </r>
      </set>
      <set comment="kpoint 13">
       <r>  -34.0246    1.0000 </r>
       <r>  -12.8567    1.0000 </r>
       <r>  -12.8541    1.0000 </r>
       <r>  -12.8076    1.0000 </r>
       <r>  -12.7974    1.0000 </r>
       <r>  -12.7967    1.0000 </r>
       <r>   -9.5296    1.0000 </r>
       <r>   -9.2697    1.0000 </r>
       <r>   -9.2691    1.0000 </r>
       <r>   -1.2728    1.0000 </r>
       <r>    3.8782    1.0000 </r>
       <r>    4.9036    1.0000 </r>
       <r>    5.0279    1.0000 </r>
       <r>    5.7774    1.0000 </r>
       <r>    5.8865    1.0000 </r>
       <r>    6.1014    1.0000 </r>
       <r>    8.3885    1.0000 </r>
       <r>    8.5243    1.0000 </r>
       <r>    9.4792    1.0000 </r>
       <r>   10.1616    0.0000 </r>
       <r>   10.1647    0.0000 </r>
       <r>   10.3517    0.0000 </r>
       <r>   10.4340    0.0000 </r>
       <r>   10.5098    0.0000 </r>
      </set>
      <set comment="kpoint 14">
       <r>  -34.0244    1.0000 </r>
       <r>  -12.8575    1.0000 </r>
       <r>  -12.8554    1.0000 </r>
       <r>  -12.8079    1.0000 </r>
       <r>  -12.7971    1.0000 </r>
       <r>  -12.7967    1.0000 </r>
       <r>   -9.5365    1.0000 </r>
       <r>   -9.2730    1.0000 </r>
       <r>   -9.2615    1.0000 </r>
       <r>   -1.2264    1.0000 </r>
       <r>    3.8422    1.0000 </r>
       <r>    4.9408    1.0000 </r>
       <r>    4.9754    1.0000 </r>
       <r>    5.7986    1.0000 </r>
       <r>    5.8217    1.0000 </r>
       <r>    6.0495    1.0000 </r>
       <r>    8.3873    1.0000 </r>
       <r>    8.5331    1.0000 </r>
       <r>    9.5007    1.0000 </r>
       <r>   10.1681    0.0000 </r>
       <r>   10.1924    0.0000 </r>
       <r>   10.3428    0.0000 </r>
       <r>   10.4400    0.0000 </r>
       <r>   10.4615    0.0000 </r>
      </set>
      <set comment="kpoint 15">
       <r>  -34.0248    1.0000 </r>
       <r>  -12.8578    1.0000 </r>
       <r>  -12.8515    1.0000 </r>
       <r>  -12.8072    1.0000 </r>
       <r>  -12.7973    1.0000 </r>
       <r>  -12.7971    1.0000 </r>
       <r>   -9.5223    1.0000 </r>
       <r>   -9.2829    1.0000 </r>
       <r>   -9.2599    1.0000 </r>
       <r>   -1.3138    1.0000 </r>
       <r>    3.9151    1.0000 </r>
       <r>    4.8622    1.0000 </r>
       <r>    5.0639    1.0000 </r>
       <r>    5.7798    1.0000 </r>
       <r>    5.9332    1.0000 </r>
       <r>    6.1579    1.0000 </r>
       <r>    8.3521    1.0000 </r>
       <r>    8.5332    1.0000 </r>
       <r>    9.4693    1.0000 </r>
       <r>   10.1329    0.0000 </r>
       <r>   10.1683    0.0000 </r>
       <r>   10.3482    0.0000 </r>
       <r>   10.4696    0.0000 </r>
       <r>   10.4858    0.0000 </r>
      </set>
      <set comment="kpoint 16">
       <r>  -34.0255    1.0000 </r>
       <r>  -12.8549    1.0000 </r>
       <r>  -12.8458    1.0000 </r>
       <r>  -12.8057    1.0000 </r>
       <r>  -12.7980    1.0000 </r>
       <r>  -12.7979    1.0000 </r>
       <r>   -9.4892    1.0000 </r>
       <r>   -9.2965    1.0000 </r>
       <r>   -9.2654    1.0000 </r>
       <r>   -1.5151    1.0000 </r>
       <r>    4.0996    1.0000 </r>
       <r>    4.8290    1.0000 </r>
       <r>    5.1537    1.0000 </r>
       <r>    5.8280    1.0000 </r>
       <r>    6.0534    1.0000 </r>
       <r>    6.4171    1.0000 </r>
       <r>    8.2922    1.0000 </r>
       <r>    8.5513    1.0000 </r>
       <r>    9.4210    1.0000 </r>
       <r>   10.0948    0.3066 </r>
       <r>   10.1165    0.0002 </r>
       <r>   10.3528    0.0000 </r>
       <r>   10.4649    0.0000 </r>
       <r>   10.5325    0.0000 </r>
      </set>
      <set comment="kpoint 17">
       <r>  -34.0266    1.0000 </r>
       <r>  -12.8494    1.0000 </r>
       <r>  -12.8396    1.0000 </r>
       <r>  -12.8041    1.0000 </r>
       <r>  -12.7989    1.0000 </r>
       <r>  -12.7987    1.0000 </r>
       <r>   -9.4425    1.0000 </r>
       <r>   -9.3105    1.0000 </r>
       <r>   -9.2768    1.0000 </r>
       <r>   -1.7833    1.0000 </r>
       <r>    4.3826    1.0000 </r>
       <r>    4.8631    1.0000 </r>
       <r>    5.2630    1.0000 </r>
       <r>    5.8752    1.0000 </r>
       <r>    6.1203    1.0000 </r>
       <r>    6.8110    1.0000 </r>
       <r>    8.2555    1.0000 </r>
       <r>    8.6171    1.0000 </r>
       <r>    9.3988    1.0000 </r>
       <r>   10.0676    0.9996 </r>
       <r>   10.0691    0.9991 </r>
       <r>   10.3511    0.0000 </r>
       <r>   10.4105    0.0000 </r>
       <r>   10.5949    0.0000 </r>
      </set>
      <set comment="kpoint 18">
       <r>  -34.0277    1.0000 </r>
       <r>  -12.8426    1.0000 </r>
       <r>  -12.8343    1.0000 </r>
       <r>  -12.8026    1.0000 </r>
       <r>  -12.7998    1.0000 </r>
       <r>  -12.7996    1.0000 </r>
       <r>   -9.3919    1.0000 </r>
       <r>   -9.3212    1.0000 </r>
       <r>   -9.2915    1.0000 </r>
       <r>   -2.0553    1.0000 </r>
       <r>    4.7224    1.0000 </r>
       <r>    4.9693    1.0000 </r>
       <r>    5.4014    1.0000 </r>
       <r>    5.8503    1.0000 </r>
       <r>    6.0957    1.0000 </r>
       <r>    7.2936    1.0000 </r>
       <r>    8.3193    1.0000 </r>
       <r>    8.7307    1.0000 </r>
       <r>    9.4084    1.0000 </r>
       <r>   10.0316    1.0000 </r>
       <r>   10.0547    1.0000 </r>
       <r>   10.3159    0.0000 </r>
       <r>   10.3469    0.0000 </r>
       <r>   10.5849    0.0000 </r>
      </set>
      <set comment="kpoint 19">
       <r>  -34.0285    1.0000 </r>
       <r>  -12.8361    1.0000 </r>
       <r>  -12.8313    1.0000 </r>
       <r>  -12.8017    1.0000 </r>
       <r>  -12.8004    1.0000 </r>
       <r>  -12.8003    1.0000 </r>
       <r>   -9.3521    1.0000 </r>
       <r>   -9.3240    1.0000 </r>
       <r>   -9.3061    1.0000 </r>
       <r>   -2.2690    1.0000 </r>
       <r>    5.0587    1.0000 </r>
       <r>    5.1382    1.0000 </r>
       <r>    5.4881    1.0000 </r>
       <r>    5.7865    1.0000 </r>
       <r>    5.9843    1.0000 </r>
       <r>    7.7537    1.0000 </r>
       <r>    8.5561    1.0000 </r>
       <r>    8.8363    1.0000 </r>
       <r>    9.3668    1.0000 </r>
       <r>   10.0191    1.0000 </r>
       <r>   10.0340    1.0000 </r>
       <r>   10.1363    0.0000 </r>
       <r>   10.3409    0.0000 </r>
       <r>   10.4715    0.0000 </r>
      </set>
      <set comment="kpoint 20">
       <r>  -34.0279    1.0000 </r>
       <r>  -12.8434    1.0000 </r>
       <r>  -12.8280    1.0000 </r>
       <r>  -12.8028    1.0000 </r>
       <r>  -12.7996    1.0000 </r>
       <r>  -12.7996    1.0000 </r>
       <r>   -9.3512    1.0000 </r>
       <r>   -9.3265    1.0000 </r>
       <r>   -9.3265    1.0000 </r>
       <r>   -2.1238    1.0000 </r>
       <r>    4.4954    1.0000 </r>
       <r>    5.5022    1.0000 </r>
       <r>    5.5022    1.0000 </r>
       <r>    5.7663    1.0000 </r>
       <r>    5.9203    1.0000 </r>
       <r>    7.6098    1.0000 </r>
       <r>    8.4797    1.0000 </r>
       <r>    8.4797    1.0000 </r>
       <r>    9.4813    1.0000 </r>
       <r>   10.0772    0.9768 </r>
       <r>   10.0772    0.9768 </r>
       <r>   10.0998    0.1128 </r>
       <r>   10.3775    0.0000 </r>
       <r>   10.5698    0.0000 </r>
      </set>
      <set comment="kpoint 21">
       <r>  -34.0271    1.0000 </r>
       <r>  -12.8477    1.0000 </r>
       <r>  -12.8292    1.0000 </r>
       <r>  -12.8039    1.0000 </r>
       <r>  -12.7990    1.0000 </r>
       <r>  -12.7987    1.0000 </r>
       <r>   -9.3873    1.0000 </r>
       <r>   -9.3253    1.0000 </r>
       <r>   -9.3155    1.0000 </r>
       <r>   -1.9498    1.0000 </r>
       <r>    4.2540    1.0000 </r>
       <r>    5.3752    1.0000 </r>
       <r>    5.4439    1.0000 </r>
       <r>    5.8255    1.0000 </r>
       <r>    5.9715    1.0000 </r>
       <r>    7.3329    1.0000 </r>
       <r>    8.3061    1.0000 </r>
       <r>    8.3880    1.0000 </r>
       <r>    9.5054    1.0000 </r>
       <r>   10.0469    1.0000 </r>
       <r>   10.0840    0.8467 </r>
       <r>   10.2725    0.0000 </r>
       <r>   10.3905    0.0000 </r>
       <r>   10.6084    0.0000 </r>
      </set>
      <set comment="kpoint 22">
       <r>  -34.0261    1.0000 </r>
       <r>  -12.8510    1.0000 </r>
       <r>  -12.8336    1.0000 </r>
       <r>  -12.8049    1.0000 </r>
       <r>  -12.7985    1.0000 </r>
       <r>  -12.7977    1.0000 </r>
       <r>   -9.4354    1.0000 </r>
       <r>   -9.3168    1.0000 </r>
       <r>   -9.3021    1.0000 </r>
       <r>   -1.7313    1.0000 </r>
       <r>    4.0971    1.0000 </r>
       <r>    5.1480    1.0000 </r>
       <r>    5.3508    1.0000 </r>
       <r>    5.8417    1.0000 </r>
       <r>    6.0426    1.0000 </r>
       <r>    6.9441    1.0000 </r>
       <r>    8.1343    1.0000 </r>
       <r>    8.3715    1.0000 </r>
       <r>    9.5376    1.0000 </r>
       <r>   10.0654    0.9999 </r>
       <r>   10.0960    0.2531 </r>
       <r>   10.3568    0.0000 </r>
       <r>   10.3918    0.0000 </r>
       <r>   10.6052    0.0000 </r>
      </set>
      <set comment="kpoint 23">
       <r>  -34.0252    1.0000 </r>
       <r>  -12.8526    1.0000 </r>
       <r>  -12.8402    1.0000 </r>
       <r>  -12.8059    1.0000 </r>
       <r>  -12.7983    1.0000 </r>
       <r>  -12.7967    1.0000 </r>
       <r>   -9.4783    1.0000 </r>
       <r>   -9.3030    1.0000 </r>
       <r>   -9.2949    1.0000 </r>
       <r>   -1.5210    1.0000 </r>
       <r>    4.0297    1.0000 </r>
       <r>    4.9722    1.0000 </r>
       <r>    5.2511    1.0000 </r>
       <r>    5.8133    1.0000 </r>
       <r>    6.0465    1.0000 </r>
       <r>    6.5600    1.0000 </r>
       <r>    8.0484    1.0000 </r>
       <r>    8.4020    1.0000 </r>
       <r>    9.5535    1.0000 </r>
       <r>   10.1125    0.0014 </r>
       <r>   10.1217    0.0000 </r>
       <r>   10.3864    0.0000 </r>
       <r>   10.3885    0.0000 </r>
       <r>   10.5747    0.0000 </r>
      </set>
      <set comment="kpoint 24">
       <r>  -34.0245    1.0000 </r>
       <r>  -12.8522    1.0000 </r>
       <r>  -12.8473    1.0000 </r>
       <r>  -12.8066    1.0000 </r>
       <r>  -12.7981    1.0000 </r>
       <r>  -12.7962    1.0000 </r>
       <r>   -9.5073    1.0000 </r>
       <r>   -9.2955    1.0000 </r>
       <r>   -9.2870    1.0000 </r>
       <r>   -1.3645    1.0000 </r>
       <r>    4.0239    1.0000 </r>
       <r>    4.8996    1.0000 </r>
       <r>    5.1227    1.0000 </r>
       <r>    5.8170    1.0000 </r>
       <r>    5.9827    1.0000 </r>
       <r>    6.2768    1.0000 </r>
       <r>    8.0213    1.0000 </r>
       <r>    8.4318    1.0000 </r>
       <r>    9.5831    1.0000 </r>
       <r>   10.1524    0.0000 </r>
       <r>   10.1640    0.0000 </r>
       <r>   10.3718    0.0000 </r>
       <r>   10.4046    0.0000 </r>
       <r>   10.5518    0.0000 </r>
      </set>
      <set comment="kpoint 25">
       <r>  -34.0242    1.0000 </r>
       <r>  -12.8533    1.0000 </r>
       <r>  -12.8499    1.0000 </r>
       <r>  -12.8068    1.0000 </r>
       <r>  -12.7981    1.0000 </r>
       <r>  -12.7961    1.0000 </r>
       <r>   -9.5181    1.0000 </r>
       <r>   -9.3035    1.0000 </r>
       <r>   -9.2725    1.0000 </r>
       <r>   -1.2907    1.0000 </r>
       <r>    4.0280    1.0000 </r>
       <r>    4.9380    1.0000 </r>
       <r>    4.9726    1.0000 </r>
       <r>    5.8859    1.0000 </r>
       <r>    5.8896    1.0000 </r>
       <r>    6.1621    1.0000 </r>
       <r>    8.0009    1.0000 </r>
       <r>    8.4392    1.0000 </r>
       <r>    9.6130    1.0000 </r>
       <r>   10.1548    0.0000 </r>
       <r>   10.2142    0.0000 </r>
       <r>   10.3416    0.0000 </r>
       <r>   10.4337    0.0000 </r>
       <r>   10.5238    0.0000 </r>
      </set>
      <set comment="kpoint 26">
       <r>  -34.0243    1.0000 </r>
       <r>  -12.8570    1.0000 </r>
       <r>  -12.8463    1.0000 </r>
       <r>  -12.8062    1.0000 </r>
       <r>  -12.7981    1.0000 </r>
       <r>  -12.7966    1.0000 </r>
       <r>   -9.5101    1.0000 </r>
       <r>   -9.3162    1.0000 </r>
       <r>   -9.2627    1.0000 </r>
       <r>   -1.3125    1.0000 </r>
       <r>    4.0227    1.0000 </r>
       <r>    4.8396    1.0000 </r>
       <r>    5.0594    1.0000 </r>
       <r>    5.8096    1.0000 </r>
       <r>    6.0086    1.0000 </r>
       <r>    6.2348    1.0000 </r>
       <r>    7.9448    1.0000 </r>
       <r>    8.4372    1.0000 </r>
       <r>    9.6128    1.0000 </r>
       <r>   10.1253    0.0000 </r>
       <r>   10.2283    0.0000 </r>
       <r>   10.3258    0.0000 </r>
       <r>   10.4661    0.0000 </r>
       <r>   10.4754    0.0000 </r>
      </set>
      <set comment="kpoint 27">
       <r>  -34.0249    1.0000 </r>
       <r>  -12.8576    1.0000 </r>
       <r>  -12.8420    1.0000 </r>
       <r>  -12.8052    1.0000 </r>
       <r>  -12.7983    1.0000 </r>
       <r>  -12.7974    1.0000 </r>
       <r>   -9.4855    1.0000 </r>
       <r>   -9.3297    1.0000 </r>
       <r>   -9.2599    1.0000 </r>
       <r>   -1.4298    1.0000 </r>
       <r>    4.0531    1.0000 </r>
       <r>    4.7587    1.0000 </r>
       <r>    5.2206    1.0000 </r>
       <r>    5.7784    1.0000 </r>
       <r>    6.1267    1.0000 </r>
       <r>    6.4694    1.0000 </r>
       <r>    7.8482    1.0000 </r>
       <r>    8.4582    1.0000 </r>
       <r>    9.5857    1.0000 </r>
       <r>   10.0954    0.2779 </r>
       <r>   10.1777    0.0000 </r>
       <r>   10.3511    0.0000 </r>
       <r>   10.4557    0.0000 </r>
       <r>   10.4940    0.0000 </r>
      </set>
      <set comment="kpoint 28">
       <r>  -34.0258    1.0000 </r>
       <r>  -12.8549    1.0000 </r>
       <r>  -12.8380    1.0000 </r>
       <r>  -12.8041    1.0000 </r>
       <r>  -12.7987    1.0000 </r>
       <r>  -12.7983    1.0000 </r>
       <r>   -9.4503    1.0000 </r>
       <r>   -9.3387    1.0000 </r>
       <r>   -9.2646    1.0000 </r>
       <r>   -1.6236    1.0000 </r>
       <r>    4.1775    1.0000 </r>
       <r>    4.7505    1.0000 </r>
       <r>    5.3852    1.0000 </r>
       <r>    5.7714    1.0000 </r>
       <r>    6.1943    1.0000 </r>
       <r>    6.8087    1.0000 </r>
       <r>    7.7722    1.0000 </r>
       <r>    8.5296    1.0000 </r>
       <r>    9.5541    1.0000 </r>
       <r>   10.0777    0.9721 </r>
       <r>   10.1170    0.0001 </r>
       <r>   10.3621    0.0000 </r>
       <r>   10.4233    0.0000 </r>
       <r>   10.5439    0.0000 </r>
      </set>
      <set comment="kpoint 29">
       <r>  -34.0268    1.0000 </r>
       <r>  -12.8495    1.0000 </r>
       <r>  -12.8351    1.0000 </r>
       <r>  -12.8033    1.0000 </r>
       <r>  -12.7992    1.0000 </r>
       <r>  -12.7991    1.0000 </r>
       <r>   -9.4155    1.0000 </r>
       <r>   -9.3367    1.0000 </r>
       <r>   -9.2760    1.0000 </r>
       <r>   -1.8509    1.0000 </r>
       <r>    4.4118    1.0000 </r>
       <r>    4.8224    1.0000 </r>
       <r>    5.4986    1.0000 </r>
       <r>    5.7632    1.0000 </r>
       <r>    6.1822    1.0000 </r>
       <r>    7.1190    1.0000 </r>
       <r>    7.8913    1.0000 </r>
       <r>    8.6416    1.0000 </r>
       <r>    9.5151    1.0000 </r>
       <r>   10.0635    1.0000 </r>
       <r>   10.0674    0.9996 </r>
       <r>   10.3582    0.0000 </r>
       <r>   10.3786    0.0000 </r>
       <r>   10.5964    0.0000 </r>
      </set>
      <set comment="kpoint 30">
       <r>  -34.0265    1.0000 </r>
       <r>  -12.8491    1.0000 </r>
       <r>  -12.8264    1.0000 </r>
       <r>  -12.8050    1.0000 </r>
       <r>  -12.7980    1.0000 </r>
       <r>  -12.7980    1.0000 </r>
       <r>   -9.3869    1.0000 </r>
       <r>   -9.3328    1.0000 </r>
       <r>   -9.3328    1.0000 </r>
       <r>   -1.8568    1.0000 </r>
       <r>    4.0666    1.0000 </r>
       <r>    5.5065    1.0000 </r>
       <r>    5.5065    1.0000 </r>
       <r>    5.8183    1.0000 </r>
       <r>    5.8237    1.0000 </r>
       <r>    7.2991    1.0000 </r>
       <r>    8.3054    1.0000 </r>
       <r>    8.3054    1.0000 </r>
       <r>    9.4600    1.0000 </r>
       <r>   10.0962    0.2408 </r>
       <r>   10.0962    0.2408 </r>
       <r>   10.2345    0.0000 </r>
       <r>   10.4320    0.0000 </r>
       <r>   10.6795    0.0000 </r>
      </set>
      <set comment="kpoint 31">
       <r>  -34.0257    1.0000 </r>
       <r>  -12.8490    1.0000 </r>
       <r>  -12.8275    1.0000 </r>
       <r>  -12.8060    1.0000 </r>
       <r>  -12.7974    1.0000 </r>
       <r>  -12.7970    1.0000 </r>
       <r>   -9.4203    1.0000 </r>
       <r>   -9.3321    1.0000 </r>
       <r>   -9.3281    1.0000 </r>
       <r>   -1.7230    1.0000 </r>
       <r>    3.9974    1.0000 </r>
       <r>    5.3479    1.0000 </r>
       <r>    5.4594    1.0000 </r>
       <r>    5.8498    1.0000 </r>
       <r>    5.8613    1.0000 </r>
       <r>    7.0932    1.0000 </r>
       <r>    8.1492    1.0000 </r>
       <r>    8.2986    1.0000 </r>
       <r>    9.5483    1.0000 </r>
       <r>   10.0824    0.8961 </r>
       <r>   10.1088    0.0065 </r>
       <r>   10.2821    0.0000 </r>
       <r>   10.4508    0.0000 </r>
       <r>   10.6652    0.0000 </r>
      </set>
      <set comment="kpoint 32">
       <r>  -34.0249    1.0000 </r>
       <r>  -12.8476    1.0000 </r>
       <r>  -12.8320    1.0000 </r>
       <r>  -12.8067    1.0000 </r>
       <r>  -12.7972    1.0000 </r>
       <r>  -12.7960    1.0000 </r>
       <r>   -9.4575    1.0000 </r>
       <r>   -9.3240    1.0000 </r>
       <r>   -9.3233    1.0000 </r>
       <r>   -1.5844    1.0000 </r>
       <r>    4.0528    1.0000 </r>
       <r>    5.1258    1.0000 </r>
       <r>    5.3626    1.0000 </r>
       <r>    5.8547    1.0000 </r>
       <r>    5.9485    1.0000 </r>
       <r>    6.8032    1.0000 </r>
       <r>    7.9154    1.0000 </r>
       <r>    8.3365    1.0000 </r>
       <r>    9.6426    1.0000 </r>
       <r>   10.0950    0.2963 </r>
       <r>   10.1305    0.0000 </r>
       <r>   10.3201    0.0000 </r>
       <r>   10.4474    0.0000 </r>
       <r>   10.6203    0.0000 </r>
      </set>
      <set comment="kpoint 33">
       <r>  -34.0242    1.0000 </r>
       <r>  -12.8451    1.0000 </r>
       <r>  -12.8388    1.0000 </r>
       <r>  -12.8067    1.0000 </r>
       <r>  -12.7977    1.0000 </r>
       <r>  -12.7954    1.0000 </r>
       <r>   -9.4833    1.0000 </r>
       <r>   -9.3289    1.0000 </r>
       <r>   -9.3085    1.0000 </r>
       <r>   -1.4691    1.0000 </r>
       <r>    4.1929    1.0000 </r>
       <r>    4.9732    1.0000 </r>
       <r>    5.2184    1.0000 </r>
       <r>    5.8831    1.0000 </r>
       <r>    5.9739    1.0000 </r>
       <r>    6.5149    1.0000 </r>
       <r>    7.7399    1.0000 </r>
       <r>    8.3635    1.0000 </r>
       <r>    9.6831    1.0000 </r>
       <r>   10.1278    0.0000 </r>
       <r>   10.1662    0.0000 </r>
       <r>   10.3593    0.0000 </r>
       <r>   10.4264    0.0000 </r>
       <r>   10.5744    0.0000 </r>
      </set>
      <set comment="kpoint 34">
       <r>  -34.0238    1.0000 </r>
       <r>  -12.8462    1.0000 </r>
       <r>  -12.8423    1.0000 </r>
       <r>  -12.8061    1.0000 </r>
       <r>  -12.7985    1.0000 </r>
       <r>  -12.7954    1.0000 </r>
       <r>   -9.4926    1.0000 </r>
       <r>   -9.3419    1.0000 </r>
       <r>   -9.2910    1.0000 </r>
       <r>   -1.3923    1.0000 </r>
       <r>    4.3124    1.0000 </r>
       <r>    4.9205    1.0000 </r>
       <r>    5.0460    1.0000 </r>
       <r>    5.9178    1.0000 </r>
       <r>    5.9599    1.0000 </r>
       <r>    6.3595    1.0000 </r>
       <r>    7.6232    1.0000 </r>
       <r>    8.3571    1.0000 </r>
       <r>    9.7109    1.0000 </r>
       <r>   10.1300    0.0000 </r>
       <r>   10.2144    0.0000 </r>
       <r>   10.3847    0.0000 </r>
       <r>   10.4177    0.0000 </r>
       <r>   10.5405    0.0000 </r>
      </set>
      <set comment="kpoint 35">
       <r>  -34.0239    1.0000 </r>
       <r>  -12.8526    1.0000 </r>
       <r>  -12.8400    1.0000 </r>
       <r>  -12.8048    1.0000 </r>
       <r>  -12.7994    1.0000 </r>
       <r>  -12.7958    1.0000 </r>
       <r>   -9.4862    1.0000 </r>
       <r>   -9.3584    1.0000 </r>
       <r>   -9.2748    1.0000 </r>
       <r>   -1.3622    1.0000 </r>
       <r>    4.2901    1.0000 </r>
       <r>    4.8842    1.0000 </r>
       <r>    4.9823    1.0000 </r>
       <r>    5.8453    1.0000 </r>
       <r>    6.0664    1.0000 </r>
       <r>    6.4033    1.0000 </r>
       <r>    7.5257    1.0000 </r>
       <r>    8.3386    1.0000 </r>
       <r>    9.7242    1.0000 </r>
       <r>   10.1021    0.0629 </r>
       <r>   10.2641    0.0000 </r>
       <r>   10.3277    0.0000 </r>
       <r>   10.4554    0.0000 </r>
       <r>   10.5262    0.0000 </r>
      </set>
      <set comment="kpoint 36">
       <r>  -34.0243    1.0000 </r>
       <r>  -12.8566    1.0000 </r>
       <r>  -12.8383    1.0000 </r>
       <r>  -12.8038    1.0000 </r>
       <r>  -12.7997    1.0000 </r>
       <r>  -12.7966    1.0000 </r>
       <r>   -9.4701    1.0000 </r>
       <r>   -9.3698    1.0000 </r>
       <r>   -9.2636    1.0000 </r>
       <r>   -1.3891    1.0000 </r>
       <r>    4.1718    1.0000 </r>
       <r>    4.7674    1.0000 </r>
       <r>    5.1240    1.0000 </r>
       <r>    5.8048    1.0000 </r>
       <r>    6.1636    1.0000 </r>
       <r>    6.6017    1.0000 </r>
       <r>    7.4303    1.0000 </r>
       <r>    8.3496    1.0000 </r>
       <r>    9.7038    1.0000 </r>
       <r>   10.0788    0.9609 </r>
       <r>   10.2467    0.0000 </r>
       <r>   10.3276    0.0000 </r>
       <r>   10.4501    0.0000 </r>
       <r>   10.4933    0.0000 </r>
      </set>
      <set comment="kpoint 37">
       <r>  -34.0250    1.0000 </r>
       <r>  -12.8575    1.0000 </r>
       <r>  -12.8376    1.0000 </r>
       <r>  -12.8038    1.0000 </r>
       <r>  -12.7992    1.0000 </r>
       <r>  -12.7975    1.0000 </r>
       <r>   -9.4566    1.0000 </r>
       <r>   -9.3637    1.0000 </r>
       <r>   -9.2599    1.0000 </r>
       <r>   -1.4800    1.0000 </r>
       <r>    4.1060    1.0000 </r>
       <r>    4.7188    1.0000 </r>
       <r>    5.2893    1.0000 </r>
       <r>    5.7768    1.0000 </r>
       <r>    6.2123    1.0000 </r>
       <r>    6.7953    1.0000 </r>
       <r>    7.4484    1.0000 </r>
       <r>    8.4186    1.0000 </r>
       <r>    9.6468    1.0000 </r>
       <r>   10.0759    0.9849 </r>
       <r>   10.1816    0.0000 </r>
       <r>   10.3574    0.0000 </r>
       <r>   10.4363    0.0000 </r>
       <r>   10.5035    0.0000 </r>
      </set>
      <set comment="kpoint 38">
       <r>  -34.0251    1.0000 </r>
       <r>  -12.8455    1.0000 </r>
       <r>  -12.8248    1.0000 </r>
       <r>  -12.8073    1.0000 </r>
       <r>  -12.7962    1.0000 </r>
       <r>  -12.7962    1.0000 </r>
       <r>   -9.4302    1.0000 </r>
       <r>   -9.3401    1.0000 </r>
       <r>   -9.3401    1.0000 </r>
       <r>   -1.6822    1.0000 </r>
       <r>    4.0170    1.0000 </r>
       <r>    5.4678    1.0000 </r>
       <r>    5.4678    1.0000 </r>
       <r>    5.6468    1.0000 </r>
       <r>    5.8865    1.0000 </r>
       <r>    6.9969    1.0000 </r>
       <r>    8.3013    1.0000 </r>
       <r>    8.3013    1.0000 </r>
       <r>    9.5370    1.0000 </r>
       <r>   10.1218    0.0000 </r>
       <r>   10.1218    0.0000 </r>
       <r>   10.2269    0.0000 </r>
       <r>   10.5042    0.0000 </r>
       <r>   10.7566    0.0000 </r>
      </set>
      <set comment="kpoint 39">
       <r>  -34.0245    1.0000 </r>
       <r>  -12.8411    1.0000 </r>
       <r>  -12.8260    1.0000 </r>
       <r>  -12.8081    1.0000 </r>
       <r>  -12.7956    1.0000 </r>
       <r>  -12.7952    1.0000 </r>
       <r>   -9.4553    1.0000 </r>
       <r>   -9.3423    1.0000 </r>
       <r>   -9.3390    1.0000 </r>
       <r>   -1.6253    1.0000 </r>
       <r>    4.1645    1.0000 </r>
       <r>    5.2810    1.0000 </r>
       <r>    5.4106    1.0000 </r>
       <r>    5.7234    1.0000 </r>
       <r>    5.9089    1.0000 </r>
       <r>    6.7886    1.0000 </r>
       <r>    8.1672    1.0000 </r>
       <r>    8.3485    1.0000 </r>
       <r>    9.6733    1.0000 </r>
       <r>   10.1060    0.0187 </r>
       <r>   10.1403    0.0000 </r>
       <r>   10.2489    0.0000 </r>
       <r>   10.5252    0.0000 </r>
       <r>   10.6911    0.0000 </r>
      </set>
      <set comment="kpoint 40">
       <r>  -34.0239    1.0000 </r>
       <r>  -12.8370    1.0000 </r>
       <r>  -12.8307    1.0000 </r>
       <r>  -12.8082    1.0000 </r>
       <r>  -12.7960    1.0000 </r>
       <r>  -12.7946    1.0000 </r>
       <r>   -9.4734    1.0000 </r>
       <r>   -9.3509    1.0000 </r>
       <r>   -9.3291    1.0000 </r>
       <r>   -1.5635    1.0000 </r>
       <r>    4.3991    1.0000 </r>
       <r>    5.0868    1.0000 </r>
       <r>    5.2973    1.0000 </r>
       <r>    5.8407    1.0000 </r>
       <r>    5.9405    1.0000 </r>
       <r>    6.5515    1.0000 </r>
       <r>    7.8495    1.0000 </r>
       <r>    8.3734    1.0000 </r>
       <r>    9.7795    1.0000 </r>
       <r>   10.1040    0.0360 </r>
       <r>   10.1688    0.0000 </r>
       <r>   10.3054    0.0000 </r>
       <r>   10.5125    0.0000 </r>
       <r>   10.6057    0.0000 </r>
      </set>
      <set comment="kpoint 41">
       <r>  -34.0235    1.0000 </r>
       <r>  -12.8377    1.0000 </r>
       <r>  -12.8344    1.0000 </r>
       <r>  -12.8071    1.0000 </r>
       <r>  -12.7972    1.0000 </r>
       <r>  -12.7945    1.0000 </r>
       <r>   -9.4754    1.0000 </r>
       <r>   -9.3697    1.0000 </r>
       <r>   -9.3126    1.0000 </r>
       <r>   -1.5013    1.0000 </r>
       <r>    4.6185    1.0000 </r>
       <r>    4.9664    1.0000 </r>
       <r>    5.1431    1.0000 </r>
       <r>    5.8780    1.0000 </r>
       <r>    6.0037    1.0000 </r>
       <r>    6.4094    1.0000 </r>
       <r>    7.5290    1.0000 </r>
       <r>    8.3473    1.0000 </r>
       <r>    9.8063    1.0000 </r>
       <r>   10.1067    0.0148 </r>
       <r>   10.2063    0.0000 </r>
       <r>   10.3887    0.0000 </r>
       <r>   10.4641    0.0000 </r>
       <r>   10.5373    0.0000 </r>
      </set>
      <set comment="kpoint 42">
       <r>  -34.0235    1.0000 </r>
       <r>  -12.8455    1.0000 </r>
       <r>  -12.8339    1.0000 </r>
       <r>  -12.8051    1.0000 </r>
       <r>  -12.7991    1.0000 </r>
       <r>  -12.7949    1.0000 </r>
       <r>   -9.4622    1.0000 </r>
       <r>   -9.3937    1.0000 </r>
       <r>   -9.2934    1.0000 </r>
       <r>   -1.4425    1.0000 </r>
       <r>    4.6501    1.0000 </r>
       <r>    4.9211    1.0000 </r>
       <r>    4.9819    1.0000 </r>
       <r>    5.8392    1.0000 </r>
       <r>    6.0839    1.0000 </r>
       <r>    6.4834    1.0000 </r>
       <r>    7.2894    1.0000 </r>
       <r>    8.3014    1.0000 </r>
       <r>    9.8082    1.0000 </r>
       <r>   10.0843    0.8361 </r>
       <r>   10.2473    0.0000 </r>
       <r>   10.3913    0.0000 </r>
       <r>   10.4482    0.0000 </r>
       <r>   10.5424    0.0000 </r>
      </set>
      <set comment="kpoint 43">
       <r>  -34.0238    1.0000 </r>
       <r>  -12.8523    1.0000 </r>
       <r>  -12.8354    1.0000 </r>
       <r>  -12.8029    1.0000 </r>
       <r>  -12.8009    1.0000 </r>
       <r>  -12.7957    1.0000 </r>
       <r>   -9.4534    1.0000 </r>
       <r>   -9.4008    1.0000 </r>
       <r>   -9.2757    1.0000 </r>
       <r>   -1.3986    1.0000 </r>
       <r>    4.4211    1.0000 </r>
       <r>    4.8477    1.0000 </r>
       <r>    4.9985    1.0000 </r>
       <r>    5.8228    1.0000 </r>
       <r>    6.1473    1.0000 </r>
       <r>    6.6388    1.0000 </r>
       <r>    7.2030    1.0000 </r>
       <r>    8.2911    1.0000 </r>
       <r>    9.7799    1.0000 </r>
       <r>   10.0668    0.9997 </r>
       <r>   10.2842    0.0000 </r>
       <r>   10.3228    0.0000 </r>
       <r>   10.4511    0.0000 </r>
       <r>   10.5222    0.0000 </r>
      </set>
      <set comment="kpoint 44">
       <r>  -34.0240    1.0000 </r>
       <r>  -12.8347    1.0000 </r>
       <r>  -12.8234    1.0000 </r>
       <r>  -12.8093    1.0000 </r>
       <r>  -12.7944    1.0000 </r>
       <r>  -12.7944    1.0000 </r>
       <r>   -9.4709    1.0000 </r>
       <r>   -9.3464    1.0000 </r>
       <r>   -9.3464    1.0000 </r>
       <r>   -1.6412    1.0000 </r>
       <r>    4.3803    1.0000 </r>
       <r>    5.4061    1.0000 </r>
       <r>    5.4061    1.0000 </r>
       <r>    5.4894    1.0000 </r>
       <r>    5.9402    1.0000 </r>
       <r>    6.5925    1.0000 </r>
       <r>    8.4131    1.0000 </r>
       <r>    8.4131    1.0000 </r>
       <r>    9.7239    1.0000 </r>
       <r>   10.1541    0.0000 </r>
       <r>   10.1541    0.0000 </r>
       <r>   10.1856    0.0000 </r>
       <r>   10.5821    0.0000 </r>
       <r>   10.7663    0.0000 </r>
      </set>
      <set comment="kpoint 45">
       <r>  -34.0236    1.0000 </r>
       <r>  -12.8299    1.0000 </r>
       <r>  -12.8248    1.0000 </r>
       <r>  -12.8096    1.0000 </r>
       <r>  -12.7942    1.0000 </r>
       <r>  -12.7939    1.0000 </r>
       <r>   -9.4840    1.0000 </r>
       <r>   -9.3526    1.0000 </r>
       <r>   -9.3441    1.0000 </r>
       <r>   -1.6306    1.0000 </r>
       <r>    4.6578    1.0000 </r>
       <r>    5.2215    1.0000 </r>
       <r>    5.3494    1.0000 </r>
       <r>    5.6169    1.0000 </r>
       <r>    5.9648    1.0000 </r>
       <r>    6.3471    1.0000 </r>
       <r>    8.2689    1.0000 </r>
       <r>    8.4518    1.0000 </r>
       <r>    9.8633    1.0000 </r>
       <r>   10.1126    0.0013 </r>
       <r>   10.1738    0.0000 </r>
       <r>   10.2457    0.0000 </r>
       <r>   10.5997    0.0000 </r>
       <r>   10.6139    0.0000 </r>
      </set>
      <set comment="kpoint 46">
       <r>  -34.0233    1.0000 </r>
       <r>  -12.8299    1.0000 </r>
       <r>  -12.8279    1.0000 </r>
       <r>  -12.8089    1.0000 </r>
       <r>  -12.7952    1.0000 </r>
       <r>  -12.7938    1.0000 </r>
       <r>   -9.4823    1.0000 </r>
       <r>   -9.3689    1.0000 </r>
       <r>   -9.3325    1.0000 </r>
       <r>   -1.5917    1.0000 </r>
       <r>    4.8648    1.0000 </r>
       <r>    5.0975    1.0000 </r>
       <r>    5.2434    1.0000 </r>
       <r>    5.7579    1.0000 </r>
       <r>    6.0069    1.0000 </r>
       <r>    6.1823    1.0000 </r>
       <r>    7.8712    1.0000 </r>
       <r>    8.4170    1.0000 </r>
       <r>    9.9049    1.0000 </r>
       <r>   10.0953    0.2818 </r>
       <r>   10.1981    0.0000 </r>
       <r>   10.3572    0.0000 </r>
       <r>   10.5099    0.0000 </r>
       <r>   10.5790    0.0000 </r>
      </set>
      <set comment="kpoint 47">
       <r>  -34.0233    1.0000 </r>
       <r>  -12.8373    1.0000 </r>
       <r>  -12.8294    1.0000 </r>
       <r>  -12.8071    1.0000 </r>
       <r>  -12.7971    1.0000 </r>
       <r>  -12.7942    1.0000 </r>
       <r>   -9.4666    1.0000 </r>
       <r>   -9.3915    1.0000 </r>
       <r>   -9.3142    1.0000 </r>
       <r>   -1.5259    1.0000 </r>
       <r>    4.8879    1.0000 </r>
       <r>    4.9791    1.0000 </r>
       <r>    5.1108    1.0000 </r>
       <r>    5.8039    1.0000 </r>
       <r>    6.0568    1.0000 </r>
       <r>    6.3022    1.0000 </r>
       <r>    7.4658    1.0000 </r>
       <r>    8.3424    1.0000 </r>
       <r>    9.8683    1.0000 </r>
       <r>   10.0868    0.7340 </r>
       <r>   10.2234    0.0000 </r>
       <r>   10.4408    0.0000 </r>
       <r>   10.4805    0.0000 </r>
       <r>   10.4815    0.0000 </r>
      </set>
      <set comment="kpoint 48">
       <r>  -34.0234    1.0000 </r>
       <r>  -12.8255    1.0000 </r>
       <r>  -12.8226    1.0000 </r>
       <r>  -12.8104    1.0000 </r>
       <r>  -12.7934    1.0000 </r>
       <r>  -12.7934    1.0000 </r>
       <r>   -9.4961    1.0000 </r>
       <r>   -9.3502    1.0000 </r>
       <r>   -9.3502    1.0000 </r>
       <r>   -1.6601    1.0000 </r>
       <r>    4.9268    1.0000 </r>
       <r>    5.3619    1.0000 </r>
       <r>    5.3619    1.0000 </r>
       <r>    5.4057    1.0000 </r>
       <r>    5.9712    1.0000 </r>
       <r>    6.1016    1.0000 </r>
       <r>    8.5192    1.0000 </r>
       <r>    8.5192    1.0000 </r>
       <r>    9.9547    1.0000 </r>
       <r>   10.1696    0.0000 </r>
       <r>   10.1812    0.0000 </r>
       <r>   10.1812    0.0000 </r>
       <r>   10.5249    0.0000 </r>
       <r>   10.6376    0.0000 </r>
      </set>
      <set comment="kpoint 49">
       <r>  -34.0233    1.0000 </r>
       <r>  -12.8247    1.0000 </r>
       <r>  -12.8244    1.0000 </r>
       <r>  -12.8101    1.0000 </r>
       <r>  -12.7937    1.0000 </r>
       <r>  -12.7933    1.0000 </r>
       <r>   -9.4953    1.0000 </r>
       <r>   -9.3562    1.0000 </r>
       <r>   -9.3460    1.0000 </r>
       <r>   -1.6471    1.0000 </r>
       <r>    5.0137    1.0000 </r>
       <r>    5.2387    1.0000 </r>
       <r>    5.3238    1.0000 </r>
       <r>    5.5757    1.0000 </r>
       <r>    5.9865    1.0000 </r>
       <r>    5.9977    1.0000 </r>
       <r>    8.3234    1.0000 </r>
       <r>    8.5023    1.0000 </r>
       <r>    9.9861    1.0000 </r>
       <r>   10.1087    0.0068 </r>
       <r>   10.1897    0.0000 </r>
       <r>   10.2921    0.0000 </r>
       <r>   10.4631    0.0000 </r>
       <r>   10.6383    0.0000 </r>
      </set>
      <set comment="kpoint 50">
       <r>  -34.0276    1.0000 </r>
       <r>  -12.8446    1.0000 </r>
       <r>  -12.8312    1.0000 </r>
       <r>  -12.8029    1.0000 </r>
       <r>  -12.7996    1.0000 </r>
       <r>  -12.7994    1.0000 </r>
       <r>   -9.3814    1.0000 </r>
       <r>   -9.3291    1.0000 </r>
       <r>   -9.2993    1.0000 </r>
       <r>   -2.0466    1.0000 </r>
       <r>    4.5091    1.0000 </r>
       <r>    5.1714    1.0000 </r>
       <r>    5.5076    1.0000 </r>
       <r>    5.7879    1.0000 </r>
       <r>    6.0607    1.0000 </r>
       <r>    7.4032    1.0000 </r>
       <r>    8.2375    1.0000 </r>
       <r>    8.6196    1.0000 </r>
       <r>    9.5013    1.0000 </r>
       <r>   10.0213    1.0000 </r>
       <r>   10.0707    0.9982 </r>
       <r>   10.2787    0.0000 </r>
       <r>   10.3628    0.0000 </r>
       <r>   10.5834    0.0000 </r>
      </set>
      <set comment="kpoint 51">
       <r>  -34.0266    1.0000 </r>
       <r>  -12.8500    1.0000 </r>
       <r>  -12.8346    1.0000 </r>
       <r>  -12.8039    1.0000 </r>
       <r>  -12.7990    1.0000 </r>
       <r>  -12.7986    1.0000 </r>
       <r>   -9.4225    1.0000 </r>
       <r>   -9.3283    1.0000 </r>
       <r>   -9.2844    1.0000 </r>
       <r>   -1.8182    1.0000 </r>
       <r>    4.2692    1.0000 </r>
       <r>    4.9877    1.0000 </r>
       <r>    5.4262    1.0000 </r>
       <r>    5.8103    1.0000 </r>
       <r>    6.1247    1.0000 </r>
       <r>    7.0409    1.0000 </r>
       <r>    8.0308    1.0000 </r>
       <r>    8.5443    1.0000 </r>
       <r>    9.5170    1.0000 </r>
       <r>   10.0535    1.0000 </r>
       <r>   10.0823    0.8968 </r>
       <r>   10.3680    0.0000 </r>
       <r>   10.3716    0.0000 </r>
       <r>   10.5957    0.0000 </r>
      </set>
      <set comment="kpoint 52">
       <r>  -34.0256    1.0000 </r>
       <r>  -12.8541    1.0000 </r>
       <r>  -12.8398    1.0000 </r>
       <r>  -12.8051    1.0000 </r>
       <r>  -12.7985    1.0000 </r>
       <r>  -12.7976    1.0000 </r>
       <r>   -9.4671    1.0000 </r>
       <r>   -9.3187    1.0000 </r>
       <r>   -9.2734    1.0000 </r>
       <r>   -1.5797    1.0000 </r>
       <r>    4.0970    1.0000 </r>
       <r>    4.8693    1.0000 </r>
       <r>    5.2953    1.0000 </r>
       <r>    5.8030    1.0000 </r>
       <r>    6.1134    1.0000 </r>
       <r>    6.6387    1.0000 </r>
       <r>    8.0122    1.0000 </r>
       <r>    8.4847    1.0000 </r>
       <r>    9.5247    1.0000 </r>
       <r>   10.0882    0.6675 </r>
[...]
       <r>    9.8327    1.0000 </r>
       <r>   10.1138    0.0007 </r>
       <r>   10.3019    0.0000 </r>
       <r>   10.3577    0.0000 </r>
       <r>   10.4493    0.0000 </r>
       <r>   10.5323    0.0000 </r>
      </set>
      <set comment="kpoint 81">
       <r>  -34.0236    1.0000 </r>
       <r>  -12.8483    1.0000 </r>
       <r>  -12.8313    1.0000 </r>
       <r>  -12.8042    1.0000 </r>
       <r>  -12.8007    1.0000 </r>
       <r>  -12.7944    1.0000 </r>
       <r>   -9.4538    1.0000 </r>
       <r>   -9.3940    1.0000 </r>
       <r>   -9.2982    1.0000 </r>
       <r>   -1.4482    1.0000 </r>
       <r>    4.5603    1.0000 </r>
       <r>    4.7942    1.0000 </r>
       <r>    5.2262    1.0000 </r>
       <r>    5.8626    1.0000 </r>
       <r>    6.0901    1.0000 </r>
       <r>    6.5983    1.0000 </r>
       <r>    6.9959    1.0000 </r>
       <r>    8.4472    1.0000 </r>
       <r>    9.8104    1.0000 </r>
       <r>   10.0975    0.1897 </r>
       <r>   10.2911    0.0000 </r>
       <r>   10.3472    0.0000 </r>
       <r>   10.4252    0.0000 </r>
       <r>   10.5396    0.0000 </r>
      </set>
      <set comment="kpoint 82">
       <r>  -34.0233    1.0000 </r>
       <r>  -12.8381    1.0000 </r>
       <r>  -12.8248    1.0000 </r>
       <r>  -12.8077    1.0000 </r>
       <r>  -12.7977    1.0000 </r>
       <r>  -12.7933    1.0000 </r>
       <r>   -9.4688    1.0000 </r>
       <r>   -9.3764    1.0000 </r>
       <r>   -9.3323    1.0000 </r>
       <r>   -1.5512    1.0000 </r>
       <r>    4.7840    1.0000 </r>
       <r>    5.0269    1.0000 </r>
       <r>    5.3513    1.0000 </r>
       <r>    5.8090    1.0000 </r>
       <r>    6.0676    1.0000 </r>
       <r>    6.2231    1.0000 </r>
       <r>    7.2747    1.0000 </r>
       <r>    8.5676    1.0000 </r>
       <r>    9.8900    1.0000 </r>
       <r>   10.1131    0.0010 </r>
       <r>   10.2403    0.0000 </r>
       <r>   10.4067    0.0000 </r>
       <r>   10.4823    0.0000 </r>
       <r>   10.5188    0.0000 </r>
      </set>
      <set comment="kpoint 83">
       <r>  -34.0232    1.0000 </r>
       <r>  -12.8423    1.0000 </r>
       <r>  -12.8249    1.0000 </r>
       <r>  -12.8060    1.0000 </r>
       <r>  -12.7997    1.0000 </r>
       <r>  -12.7932    1.0000 </r>
       <r>   -9.4551    1.0000 </r>
       <r>   -9.3928    1.0000 </r>
       <r>   -9.3253    1.0000 </r>
       <r>   -1.5165    1.0000 </r>
       <r>    4.7501    1.0000 </r>
       <r>    5.0411    1.0000 </r>
       <r>    5.3170    1.0000 </r>
       <r>    5.8318    1.0000 </r>
       <r>    6.1051    1.0000 </r>
       <r>    6.3110    1.0000 </r>
       <r>    6.9387    1.0000 </r>
       <r>    8.5590    1.0000 </r>
       <r>    9.8719    1.0000 </r>
       <r>   10.1242    0.0000 </r>
       <r>   10.2748    0.0000 </r>
       <r>   10.4199    0.0000 </r>
       <r>   10.4659    0.0000 </r>
       <r>   10.4878    0.0000 </r>
      </set>
      <set comment="kpoint 84">
       <r>  -34.0233    1.0000 </r>
       <r>  -12.8447    1.0000 </r>
       <r>  -12.8250    1.0000 </r>
       <r>  -12.8047    1.0000 </r>
       <r>  -12.8014    1.0000 </r>
       <r>  -12.7932    1.0000 </r>
       <r>   -9.4470    1.0000 </r>
       <r>   -9.3986    1.0000 </r>
       <r>   -9.3237    1.0000 </r>
       <r>   -1.4988    1.0000 </r>
       <r>    4.7144    1.0000 </r>
       <r>    5.0038    1.0000 </r>
       <r>    5.3352    1.0000 </r>
       <r>    5.8520    1.0000 </r>
       <r>    6.1387    1.0000 </r>
       <r>    6.4461    1.0000 </r>
       <r>    6.6810    1.0000 </r>
       <r>    8.5772    1.0000 </r>
       <r>    9.8603    1.0000 </r>
       <r>   10.1338    0.0000 </r>
       <r>   10.3114    0.0000 </r>
       <r>   10.3732    0.0000 </r>
       <r>   10.4535    0.0000 </r>
       <r>   10.5140    0.0000 </r>
      </set>
     </set>
    </set>
   </array>
  </eigenvalues>
  <separator name="orbital magnetization" >
   <v name="MAGDIPOLOUT">      0.00000000      0.00000000      0.00000000</v>
  </separator>
  <dos>
   <i name="efermi">     10.09126521 </i>
   <total>
    <array>
     <dimension dim="1">gridpoints</dimension>
     <dimension dim="2">spin</dimension>
     <field>energy</field>
     <field>total</field>
     <field>integrated</field>
     <set>
      <set comment="spin 1">
       <r>   -36.2690     0.0000     0.0000 </r>
       <r>   -36.1047     0.0000     0.0000 </r>
       <r>   -35.9405     0.0000     0.0000 </r>
       <r>   -35.7762     0.0000     0.0000 </r>
       <r>   -35.6120     0.0000     0.0000 </r>
       <r>   -35.4477     0.0000     0.0000 </r>
       <r>   -35.2835     0.0000     0.0000 </r>
       <r>   -35.1192     0.0000     0.0000 </r>
       <r>   -34.9550     0.0000     0.0000 </r>
       <r>   -34.7907     0.0000     0.0000 </r>
       <r>   -34.6265     0.0000     0.0000 </r>
       <r>   -34.4622     0.0000     0.0000 </r>
       <r>   -34.2980     0.0000     0.0000 </r>
       <r>   -34.1337     0.0000     0.0000 </r>
       <r>   -33.9695    12.1765     2.0000 </r>
       <r>   -33.8052     0.0000     2.0000 </r>
       <r>   -33.6410     0.0000     2.0000 </r>
       <r>   -33.4767     0.0000     2.0000 </r>
       <r>   -33.3125     0.0000     2.0000 </r>
       <r>   -33.1482     0.0000     2.0000 </r>
       <r>   -32.9840     0.0000     2.0000 </r>
       <r>   -32.8197     0.0000     2.0000 </r>
       <r>   -32.6555     0.0000     2.0000 </r>
       <r>   -32.4912     0.0000     2.0000 </r>
       <r>   -32.3270     0.0000     2.0000 </r>
       <r>   -32.1627     0.0000     2.0000 </r>
       <r>   -31.9985     0.0000     2.0000 </r>
       <r>   -31.8342     0.0000     2.0000 </r>
       <r>   -31.6700     0.0000     2.0000 </r>
       <r>   -31.5057     0.0000     2.0000 </r>
       <r>   -31.3415     0.0000     2.0000 </r>
       <r>   -31.1772     0.0000     2.0000 </r>
       <r>   -31.0130     0.0000     2.0000 </r>
       <r>   -30.8487     0.0000     2.0000 </r>
       <r>   -30.6845     0.0000     2.0000 </r>
       <r>   -30.5202     0.0000     2.0000 </r>
       <r>   -30.3560     0.0000     2.0000 </r>
       <r>   -30.1917     0.0000     2.0000 </r>
       <r>   -30.0275     0.0000     2.0000 </r>
       <r>   -29.8632     0.0000     2.0000 </r>
       <r>   -29.6990     0.0000     2.0000 </r>
       <r>   -29.5347     0.0000     2.0000 </r>
       <r>   -29.3705     0.0000     2.0000 </r>
       <r>   -29.2062     0.0000     2.0000 </r>
       <r>   -29.0420     0.0000     2.0000 </r>
       <r>   -28.8777     0.0000     2.0000 </r>
       <r>   -28.7135     0.0000     2.0000 </r>
       <r>   -28.5492     0.0000     2.0000 </r>
       <r>   -28.3850     0.0000     2.0000 </r>
       <r>   -28.2207     0.0000     2.0000 </r>
       <r>   -28.0565     0.0000     2.0000 </r>
       <r>   -27.8922     0.0000     2.0000 </r>
       <r>   -27.7280     0.0000     2.0000 </r>
       <r>   -27.5637     0.0000     2.0000 </r>
       <r>   -27.3995     0.0000     2.0000 </r>
       <r>   -27.2352     0.0000     2.0000 </r>
       <r>   -27.0710     0.0000     2.0000 </r>
       <r>   -26.9067     0.0000     2.0000 </r>
       <r>   -26.7425     0.0000     2.0000 </r>
       <r>   -26.5782     0.0000     2.0000 </r>
       <r>   -26.4140     0.0000     2.0000 </r>
       <r>   -26.2497     0.0000     2.0000 </r>
       <r>   -26.0855     0.0000     2.0000 </r>
       <r>   -25.9212     0.0000     2.0000 </r>
       <r>   -25.7570     0.0000     2.0000 </r>
       <r>   -25.5927     0.0000     2.0000 </r>
       <r>   -25.4285     0.0000     2.0000 </r>
       <r>   -25.2642     0.0000     2.0000 </r>
       <r>   -25.1000     0.0000     2.0000 </r>
       <r>   -24.9357     0.0000     2.0000 </r>
       <r>   -24.7714     0.0000     2.0000 </r>
       <r>   -24.6072     0.0000     2.0000 </r>
       <r>   -24.4429     0.0000     2.0000 </r>
       <r>   -24.2787     0.0000     2.0000 </r>
       <r>   -24.1144     0.0000     2.0000 </r>
       <r>   -23.9502     0.0000     2.0000 </r>
       <r>   -23.7859     0.0000     2.0000 </r>
       <r>   -23.6217     0.0000     2.0000 </r>
       <r>   -23.4574     0.0000     2.0000 </r>
       <r>   -23.2932     0.0000     2.0000 </r>
       <r>   -23.1289     0.0000     2.0000 </r>
       <r>   -22.9647     0.0000     2.0000 </r>
       <r>   -22.8004     0.0000     2.0000 </r>
       <r>   -22.6362     0.0000     2.0000 </r>
       <r>   -22.4719     0.0000     2.0000 </r>
       <r>   -22.3077     0.0000     2.0000 </r>
       <r>   -22.1434     0.0000     2.0000 </r>
       <r>   -21.9792     0.0000     2.0000 </r>
       <r>   -21.8149     0.0000     2.0000 </r>
       <r>   -21.6507     0.0000     2.0000 </r>
       <r>   -21.4864     0.0000     2.0000 </r>
       <r>   -21.3222     0.0000     2.0000 </r>
       <r>   -21.1579     0.0000     2.0000 </r>
       <r>   -20.9937     0.0000     2.0000 </r>
       <r>   -20.8294     0.0000     2.0000 </r>
       <r>   -20.6652     0.0000     2.0000 </r>
       <r>   -20.5009     0.0000     2.0000 </r>
       <r>   -20.3367     0.0000     2.0000 </r>
       <r>   -20.1724     0.0000     2.0000 </r>
       <r>   -20.0082     0.0000     2.0000 </r>
       <r>   -19.8439     0.0000     2.0000 </r>
       <r>   -19.6797     0.0000     2.0000 </r>
       <r>   -19.5154     0.0000     2.0000 </r>
       <r>   -19.3512     0.0000     2.0000 </r>
       <r>   -19.1869     0.0000     2.0000 </r>
       <r>   -19.0227     0.0000     2.0000 </r>
       <r>   -18.8584     0.0000     2.0000 </r>
       <r>   -18.6942     0.0000     2.0000 </r>
       <r>   -18.5299     0.0000     2.0000 </r>
       <r>   -18.3657     0.0000     2.0000 </r>
       <r>   -18.2014     0.0000     2.0000 </r>
       <r>   -18.0372     0.0000     2.0000 </r>
       <r>   -17.8729     0.0000     2.0000 </r>
       <r>   -17.7087     0.0000     2.0000 </r>
       <r>   -17.5444     0.0000     2.0000 </r>
       <r>   -17.3802     0.0000     2.0000 </r>
       <r>   -17.2159     0.0000     2.0000 </r>
       <r>   -17.0517     0.0000     2.0000 </r>
       <r>   -16.8874     0.0000     2.0000 </r>
       <r>   -16.7232     0.0000     2.0000 </r>
       <r>   -16.5589     0.0000     2.0000 </r>
       <r>   -16.3947     0.0000     2.0000 </r>
       <r>   -16.2304     0.0000     2.0000 </r>
       <r>   -16.0662     0.0000     2.0000 </r>
       <r>   -15.9019     0.0000     2.0000 </r>
       <r>   -15.7377     0.0000     2.0000 </r>
       <r>   -15.5734     0.0000     2.0000 </r>
       <r>   -15.4092     0.0000     2.0000 </r>
       <r>   -15.2449     0.0000     2.0000 </r>
       <r>   -15.0807     0.0000     2.0000 </r>
       <r>   -14.9164     0.0000     2.0000 </r>
       <r>   -14.7522     0.0000     2.0000 </r>
       <r>   -14.5879     0.0000     2.0000 </r>
       <r>   -14.4237     0.0000     2.0000 </r>
       <r>   -14.2594     0.0000     2.0000 </r>
       <r>   -14.0952     0.0000     2.0000 </r>
       <r>   -13.9309     0.0000     2.0000 </r>
       <r>   -13.7667     0.0000     2.0000 </r>
       <r>   -13.6024     0.0000     2.0000 </r>
       <r>   -13.4382     0.0000     2.0000 </r>
       <r>   -13.2739     0.0000     2.0000 </r>
       <r>   -13.1097     0.0000     2.0000 </r>
       <r>   -12.9454     0.0000     2.0000 </r>
       <r>   -12.7812    60.5211    11.9406 </r>
       <r>   -12.6169     0.0000    12.0000 </r>
       <r>   -12.4527     0.0000    12.0000 </r>
       <r>   -12.2884     0.0000    12.0000 </r>
       <r>   -12.1242     0.0000    12.0000 </r>
       <r>   -11.9599     0.0000    12.0000 </r>
       <r>   -11.7957     0.0000    12.0000 </r>
       <r>   -11.6314     0.0000    12.0000 </r>
       <r>   -11.4672     0.0000    12.0000 </r>
       <r>   -11.3029     0.0000    12.0000 </r>
       <r>   -11.1387     0.0000    12.0000 </r>
       <r>   -10.9744     0.0000    12.0000 </r>
       <r>   -10.8102     0.0000    12.0000 </r>
       <r>   -10.6459     0.0000    12.0000 </r>
       <r>   -10.4817     0.0000    12.0000 </r>
       <r>   -10.3174     0.0000    12.0000 </r>
       <r>   -10.1532     0.0000    12.0000 </r>
       <r>    -9.9889     0.0000    12.0000 </r>
       <r>    -9.8247     0.0000    12.0000 </r>
       <r>    -9.6604     0.0000    12.0000 </r>
       <r>    -9.4962     2.0158    12.3311 </r>
       <r>    -9.3319     9.8703    15.4473 </r>
       <r>    -9.1677     0.0000    18.0000 </r>
       <r>    -9.0034     0.0000    18.0000 </r>
       <r>    -8.8392     0.0000    18.0000 </r>
       <r>    -8.6749     0.0000    18.0000 </r>
       <r>    -8.5107     0.0000    18.0000 </r>
       <r>    -8.3464     0.0000    18.0000 </r>
       <r>    -8.1822     0.0000    18.0000 </r>
       <r>    -8.0179     0.0000    18.0000 </r>
       <r>    -7.8537     0.0000    18.0000 </r>
       <r>    -7.6894     0.0000    18.0000 </r>
       <r>    -7.5252     0.0000    18.0000 </r>
       <r>    -7.3609     0.0000    18.0000 </r>
       <r>    -7.1967     0.0000    18.0000 </r>
       <r>    -7.0324     0.0000    18.0000 </r>
       <r>    -6.8682     0.0000    18.0000 </r>
       <r>    -6.7039     0.0000    18.0000 </r>
       <r>    -6.5397     0.0000    18.0000 </r>
       <r>    -6.3754     0.0000    18.0000 </r>
       <r>    -6.2112     0.0000    18.0000 </r>
       <r>    -6.0469     0.0000    18.0000 </r>
       <r>    -5.8827     0.0000    18.0000 </r>
       <r>    -5.7184     0.0000    18.0000 </r>
       <r>    -5.5542     0.0000    18.0000 </r>
       <r>    -5.3899     0.0000    18.0000 </r>
       <r>    -5.2257     0.0000    18.0000 </r>
       <r>    -5.0614     0.0000    18.0000 </r>
       <r>    -4.8972     0.0000    18.0000 </r>
       <r>    -4.7329     0.0000    18.0000 </r>
       <r>    -4.5687     0.0000    18.0000 </r>
       <r>    -4.4044     0.0000    18.0000 </r>
       <r>    -4.2402     0.0000    18.0000 </r>
       <r>    -4.0759     0.0000    18.0000 </r>
       <r>    -3.9117     0.0000    18.0000 </r>
       <r>    -3.7474     0.0000    18.0000 </r>
       <r>    -3.5832     0.0000    18.0000 </r>
       <r>    -3.4189     0.0000    18.0000 </r>
       <r>    -3.2547     0.0000    18.0000 </r>
       <r>    -3.0904     0.0000    18.0000 </r>
       <r>    -2.9262     0.0000    18.0000 </r>
       <r>    -2.7619     0.0000    18.0000 </r>
       <r>    -2.5977     0.0000    18.0000 </r>
       <r>    -2.4334     0.0053    18.0009 </r>
       <r>    -2.2692     0.0328    18.0191 </r>
       <r>    -2.1049     0.0331    18.0592 </r>
       <r>    -1.9407     0.2529    18.1444 </r>
       <r>    -1.7764     0.5755    18.2538 </r>
       <r>    -1.6122     1.2188    18.5234 </r>
       <r>    -1.4479     3.1448    19.3113 </r>
       <r>    -1.2837     0.8839    19.9194 </r>
       <r>    -1.1194     0.0000    20.0000 </r>
       <r>    -0.9552     0.0000    20.0000 </r>
       <r>    -0.7909     0.0000    20.0000 </r>
       <r>    -0.6267     0.0000    20.0000 </r>
       <r>    -0.4624     0.0000    20.0000 </r>
       <r>    -0.2982     0.0000    20.0000 </r>
       <r>    -0.1339     0.0000    20.0000 </r>
       <r>     0.0303     0.0000    20.0000 </r>
       <r>     0.1946     0.0000    20.0000 </r>
       <r>     0.3589     0.0000    20.0000 </r>
       <r>     0.5231     0.0000    20.0000 </r>
       <r>     0.6874     0.0000    20.0000 </r>
       <r>     0.8516     0.0000    20.0000 </r>
       <r>     1.0159     0.0000    20.0000 </r>
       <r>     1.1801     0.0000    20.0000 </r>
       <r>     1.3444     0.0000    20.0000 </r>
       <r>     1.5086     0.0000    20.0000 </r>
       <r>     1.6729     0.0000    20.0000 </r>
       <r>     1.8371     0.0000    20.0000 </r>
       <r>     2.0014     0.0000    20.0000 </r>
       <r>     2.1656     0.0000    20.0000 </r>
       <r>     2.3299     0.0000    20.0000 </r>
       <r>     2.4941     0.0000    20.0000 </r>
       <r>     2.6584     0.0000    20.0000 </r>
       <r>     2.8226     0.0000    20.0000 </r>
       <r>     2.9869     0.0000    20.0000 </r>
       <r>     3.1511     0.0000    20.0000 </r>
       <r>     3.3154     0.0000    20.0000 </r>
       <r>     3.4796     0.0000    20.0000 </r>
       <r>     3.6439     0.0000    20.0000 </r>
       <r>     3.8081     0.0414    20.0068 </r>
       <r>     3.9724     0.3604    20.1102 </r>
       <r>     4.1366     1.6171    20.6789 </r>
       <r>     4.3009     0.9725    21.1138 </r>
       <r>     4.4651     1.2994    21.3768 </r>
       <r>     4.6294     0.3018    21.5243 </r>
       <r>     4.7936     1.9092    21.9704 </r>
       <r>     4.9579     2.9321    23.1762 </r>
       <r>     5.1221     2.0827    24.1200 </r>
       <r>     5.2864     3.0457    25.0446 </r>
       <r>     5.4506     1.7733    25.8625 </r>
       <r>     5.6149     0.1183    26.0303 </r>
       <r>     5.7791     1.2912    26.2831 </r>
       <r>     5.9434     4.5212    28.2975 </r>
       <r>     6.1076     5.2385    29.7353 </r>
       <r>     6.2719     0.5026    30.2774 </r>
       <r>     6.4361     1.4823    30.7878 </r>
       <r>     6.6004     1.2727    31.2632 </r>
       <r>     6.7646     0.6651    31.5294 </r>
       <r>     6.9289     0.6414    31.7549 </r>
       <r>     7.0931     0.6228    31.9612 </r>
       <r>     7.2574     0.3338    32.0994 </r>
       <r>     7.4216     0.5461    32.4347 </r>
       <r>     7.5859     0.6329    32.6310 </r>
       <r>     7.7501     1.1342    33.0029 </r>
       <r>     7.9144     0.5242    33.1758 </r>
       <r>     8.0786     1.6718    33.5063 </r>
       <r>     8.2429     0.2411    33.6336 </r>
       <r>     8.4071     4.8430    34.6298 </r>
       <r>     8.5714     2.3877    35.7786 </r>
       <r>     8.7356     0.1862    35.9559 </r>
       <r>     8.8999     0.1563    35.9984 </r>
       <r>     9.0641     0.0000    36.0009 </r>
       <r>     9.2284     0.0445    36.0082 </r>
       <r>     9.3926     0.1967    36.0623 </r>
       <r>     9.5569     1.9168    36.5561 </r>
       <r>     9.7211     2.2894    37.1853 </r>
       <r>     9.8854     2.2250    37.9012 </r>
       <r>    10.0496     1.2159    38.1943 </r>
       <r>    10.2139     5.4037    41.3409 </r>
       <r>    10.3781    10.0314    43.8279 </r>
       <r>    10.5424     8.0868    46.9177 </r>
       <r>    10.7066     0.7962    47.9888 </r>
       <r>    10.8709     0.0000    48.0000 </r>
       <r>    11.0351     0.0000    48.0000 </r>
       <r>    11.1994     0.0000    48.0000 </r>
       <r>    11.3636     0.0000    48.0000 </r>
       <r>    11.5279     0.0000    48.0000 </r>
       <r>    11.6921     0.0000    48.0000 </r>
       <r>    11.8564     0.0000    48.0000 </r>
       <r>    12.0206     0.0000    48.0000 </r>
       <r>    12.1849     0.0000    48.0000 </r>
       <r>    12.3491     0.0000    48.0000 </r>
       <r>    12.5134     0.0000    48.0000 </r>
       <r>    12.6776     0.0000    48.0000 </r>
       <r>    12.8419     0.0000    48.0000 </r>
       <r>    13.0061     0.0000    48.0000 </r>
      </set>
     </set>
    </array>
   </total>
  </dos>
 </calculation>
 <structure name="finalpos" >
  <crystal>
   <varray name="basis" >
    <v>       0.00000000       3.31764100       3.31764100 </v>
    <v>       3.31764100       0.00000000       3.31764100 </v>
    <v>       3.31764100       3.31764100       0.00000000 </v>
   </varray>
   <i name="volume">     73.03283578 </i>
   <varray name="rec_basis" >
    <v>      -0.15070950       0.15070950       0.15070950 </v>
    <v>       0.15070950      -0.15070950       0.15070950 </v>
    <v>       0.15070950       0.15070950      -0.15070950 </v>
   </varray>
  </crystal>
  <varray name="positions" >
   <v>       0.25000000       0.25000000       0.25000000 </v>
   <v>       0.75000000       0.75000000       0.75000000 </v>
   <v>       0.00000000       0.00000000       0.00000000 </v>
  </varray>
 </structure>
</modeling>
