   2   2   0   0
  0.3388447E+02  0.4576308E-09  0.4576308E-09  0.4576308E-09  0.0000000E+00
  1.000000000000000E-004
  CAR 
 unknown system                          
     11.95461524     -7.35947326  301      3.46044007      1.00000000
     -7.359  0.0000E+00  0.0000E+00
     -7.295  0.0000E+00  0.0000E+00
     -7.231  0.0000E+00  0.0000E+00
     -7.166  0.0000E+00  0.0000E+00
     -7.102  0.0000E+00  0.0000E+00
     -7.038  0.0000E+00  0.0000E+00
     -6.973  0.0000E+00  0.0000E+00
     -6.909  0.0000E+00  0.0000E+00
     -6.844  0.0000E+00  0.0000E+00
     -6.780  0.0000E+00  0.0000E+00
     -6.716  0.0000E+00  0.0000E+00
     -6.651  0.0000E+00  0.0000E+00
     -6.587  0.0000E+00  0.0000E+00
     -6.523  0.0000E+00  0.0000E+00
     -6.458  0.1112E+00  0.8676E-03
     -6.394  0.2310E+00  0.1181E-01
     -6.329  0.3129E+00  0.2899E-01
     -6.265  0.3778E+00  0.5132E-01
     -6.201  0.4514E+00  0.7799E-01
     -6.136  0.5091E+00  0.1088E+00
     -6.072  0.5759E+00  0.1437E+00
     -6.007  0.6384E+00  0.1828E+00
     -5.943  0.7066E+00  0.2261E+00
     -5.879  0.7799E+00  0.2739E+00
     -5.814  0.8596E+00  0.3267E+00
     -5.750  0.9477E+00  0.3848E+00
     -5.686  0.1052E+01  0.4490E+00
     -5.621  0.1178E+01  0.5207E+00
     -5.557  0.1327E+01  0.6012E+00
     -5.492  0.1550E+01  0.6931E+00
     -5.428  0.1944E+01  0.8040E+00
     -5.364  0.2345E+01  0.9473E+00
     -5.299  0.2310E+01  0.1097E+01
     -5.235  0.2321E+01  0.1245E+01
     -5.171  0.2361E+01  0.1396E+01
     -5.106  0.2440E+01  0.1550E+01
     -5.042  0.2621E+01  0.1712E+01
     -4.977  0.3265E+01  0.1894E+01
     -4.913  0.0000E+00  0.2000E+01
     -4.849  0.0000E+00  0.2000E+01
     -4.784  0.0000E+00  0.2000E+01
     -4.720  0.0000E+00  0.2000E+01
     -4.656  0.0000E+00  0.2000E+01
     -4.591  0.0000E+00  0.2000E+01
     -4.527  0.0000E+00  0.2000E+01
     -4.462  0.0000E+00  0.2000E+01
     -4.398  0.0000E+00  0.2000E+01
     -4.334  0.0000E+00  0.2000E+01
     -4.269  0.0000E+00  0.2000E+01
     -4.205  0.0000E+00  0.2000E+01
     -4.140  0.0000E+00  0.2000E+01
     -4.076  0.0000E+00  0.2000E+01
     -4.012  0.0000E+00  0.2000E+01
     -3.947  0.0000E+00  0.2000E+01
     -3.883  0.0000E+00  0.2000E+01
     -3.819  0.0000E+00  0.2000E+01
     -3.754  0.0000E+00  0.2000E+01
     -3.690  0.0000E+00  0.2000E+01
     -3.625  0.0000E+00  0.2000E+01
     -3.561  0.0000E+00  0.2000E+01
     -3.497  0.0000E+00  0.2000E+01
     -3.432  0.0000E+00  0.2000E+01
     -3.368  0.0000E+00  0.2000E+01
     -3.304  0.0000E+00  0.2000E+01
     -3.239  0.0000E+00  0.2000E+01
     -3.175  0.0000E+00  0.2000E+01
     -3.110  0.0000E+00  0.2000E+01
     -3.046  0.0000E+00  0.2000E+01
     -2.982  0.0000E+00  0.2000E+01
     -2.917  0.0000E+00  0.2000E+01
     -2.853  0.0000E+00  0.2000E+01
     -2.788  0.0000E+00  0.2000E+01
     -2.724  0.0000E+00  0.2000E+01
     -2.660  0.0000E+00  0.2000E+01
     -2.595  0.0000E+00  0.2000E+01
     -2.531  0.0000E+00  0.2000E+01
     -2.467  0.0000E+00  0.2000E+01
     -2.402  0.0000E+00  0.2000E+01
     -2.338  0.0000E+00  0.2000E+01
     -2.273  0.0000E+00  0.2000E+01
     -2.209  0.0000E+00  0.2000E+01
     -2.145  0.0000E+00  0.2000E+01
     -2.080  0.0000E+00  0.2000E+01
     -2.016  0.0000E+00  0.2000E+01
     -1.952  0.0000E+00  0.2000E+01
     -1.887  0.0000E+00  0.2000E+01
     -1.823  0.0000E+00  0.2000E+01
     -1.758  0.0000E+00  0.2000E+01
     -1.694  0.0000E+00  0.2000E+01
     -1.630  0.0000E+00  0.2000E+01
     -1.565  0.2730E+00  0.2003E+01
     -1.501  0.1068E+01  0.2042E+01
     -1.436  0.2208E+01  0.2132E+01
     -1.372  0.2982E+01  0.2295E+01
     -1.308  0.4210E+01  0.2582E+01
     -1.243  0.2378E+01  0.2776E+01
     -1.179  0.1766E+01  0.2907E+01
     -1.115  0.1416E+01  0.3007E+01
     -1.050  0.1218E+01  0.3092E+01
     -0.986  0.1044E+01  0.3165E+01
     -0.921  0.9114E+00  0.3227E+01
     -0.857  0.8296E+00  0.3283E+01
     -0.793  0.7529E+00  0.3334E+01
     -0.728  0.6826E+00  0.3380E+01
     -0.664  0.6124E+00  0.3422E+01
     -0.600  0.5707E+00  0.3460E+01
     -0.535  0.5331E+00  0.3495E+01
     -0.471  0.4970E+00  0.3529E+01
     -0.406  0.4601E+00  0.3559E+01
     -0.342  0.4230E+00  0.3588E+01
     -0.278  0.3926E+00  0.3614E+01
     -0.213  0.3725E+00  0.3639E+01
     -0.149  0.3526E+00  0.3662E+01
     -0.084  0.3315E+00  0.3684E+01
     -0.020  0.3104E+00  0.3705E+01
      0.044  0.2899E+00  0.3724E+01
      0.109  0.2669E+00  0.3742E+01
      0.173  0.2540E+00  0.3759E+01
      0.237  0.2418E+00  0.3774E+01
      0.302  0.2297E+00  0.3790E+01
      0.366  0.2176E+00  0.3804E+01
      0.431  0.2048E+00  0.3818E+01
      0.495  0.1902E+00  0.3830E+01
      0.559  0.1773E+00  0.3842E+01
      0.624  0.1656E+00  0.3853E+01
      0.688  0.5701E+00  0.3868E+01
      0.752  0.1125E+01  0.3921E+01
      0.817  0.2055E+01  0.4017E+01
      0.881  0.1957E+01  0.4149E+01
      0.946  0.1719E+01  0.4267E+01
      1.010  0.1576E+01  0.4372E+01
      1.074  0.1505E+01  0.4472E+01
      1.139  0.1445E+01  0.4567E+01
      1.203  0.1375E+01  0.4658E+01
      1.267  0.1525E+01  0.4750E+01
      1.332  0.1549E+01  0.4850E+01
      1.396  0.1711E+01  0.4953E+01
      1.461  0.1727E+01  0.5063E+01
      1.525  0.1968E+01  0.5183E+01
      1.589  0.2465E+01  0.5321E+01
      1.654  0.2263E+01  0.5471E+01
      1.718  0.2244E+01  0.5616E+01
      1.783  0.2222E+01  0.5759E+01
      1.847  0.2168E+01  0.5901E+01
      1.911  0.2131E+01  0.6039E+01
      1.976  0.2133E+01  0.6177E+01
      2.040  0.2084E+01  0.6312E+01
      2.104  0.2046E+01  0.6445E+01
      2.169  0.2025E+01  0.6576E+01
      2.233  0.1981E+01  0.6705E+01
      2.298  0.1963E+01  0.6832E+01
      2.362  0.1947E+01  0.6958E+01
      2.426  0.1936E+01  0.7083E+01
      2.491  0.1908E+01  0.7206E+01
      2.555  0.1881E+01  0.7329E+01
      2.619  0.1819E+01  0.7450E+01
      2.684  0.1386E+01  0.7551E+01
      2.748  0.1146E+01  0.7633E+01
      2.813  0.9886E+00  0.7701E+01
      2.877  0.8531E+00  0.7760E+01
      2.941  0.7476E+00  0.7812E+01
      3.006  0.6539E+00  0.7857E+01
      3.070  0.5550E+00  0.7896E+01
      3.135  0.4734E+00  0.7929E+01
      3.199  0.3964E+00  0.7957E+01
      3.263  0.2948E+00  0.7979E+01
      3.328  0.1638E+00  0.7994E+01
      3.392  0.4331E-02  0.8000E+01
      3.456  0.0000E+00  0.8000E+01
      3.521  0.0000E+00  0.8000E+01
      3.585  0.0000E+00  0.8000E+01
      3.650  0.0000E+00  0.8000E+01
      3.714  0.0000E+00  0.8000E+01
      3.778  0.0000E+00  0.8000E+01
      3.843  0.0000E+00  0.8000E+01
      3.907  0.6356E-04  0.8000E+01
      3.971  0.3958E-03  0.8000E+01
      4.036  0.1012E-02  0.8000E+01
      4.100  0.1913E-02  0.8000E+01
      4.165  0.3098E-02  0.8000E+01
      4.229  0.4568E-02  0.8001E+01
      4.293  0.6321E-02  0.8001E+01
      4.358  0.1263E-01  0.8001E+01
      4.422  0.4591E-01  0.8003E+01
      4.487  0.9406E-01  0.8008E+01
      4.551  0.1532E+00  0.8016E+01
      4.615  0.2029E+00  0.8027E+01
      4.680  0.2416E+00  0.8042E+01
      4.744  0.2939E+00  0.8059E+01
      4.808  0.3900E+00  0.8080E+01
      4.873  0.6399E+00  0.8113E+01
      4.937  0.8321E+00  0.8161E+01
      5.002  0.9902E+00  0.8220E+01
      5.066  0.1160E+01  0.8289E+01
      5.130  0.1316E+01  0.8368E+01
      5.195  0.1465E+01  0.8458E+01
      5.259  0.1649E+01  0.8558E+01
      5.323  0.1884E+01  0.8671E+01
      5.388  0.2262E+01  0.8802E+01
      5.452  0.2927E+01  0.8970E+01
      5.517  0.2751E+01  0.9156E+01
      5.581  0.2204E+01  0.9315E+01
      5.645  0.1960E+01  0.9449E+01
      5.710  0.1688E+01  0.9567E+01
      5.774  0.1444E+01  0.9667E+01
      5.838  0.1261E+01  0.9753E+01
      5.903  0.1161E+01  0.9831E+01
      5.967  0.1063E+01  0.9903E+01
      6.032  0.9177E+00  0.9966E+01
      6.096  0.1050E+01  0.1003E+02
      6.160  0.1296E+01  0.1011E+02
      6.225  0.1351E+01  0.1019E+02
      6.289  0.1204E+01  0.1028E+02
      6.354  0.1137E+01  0.1035E+02
      6.418  0.1157E+01  0.1042E+02
      6.482  0.1259E+01  0.1050E+02
      6.547  0.1181E+01  0.1058E+02
      6.611  0.1207E+01  0.1066E+02
      6.675  0.1206E+01  0.1074E+02
      6.740  0.1233E+01  0.1081E+02
      6.804  0.1461E+01  0.1090E+02
      6.869  0.2216E+01  0.1101E+02
      6.933  0.3187E+01  0.1119E+02
      6.997  0.2792E+01  0.1138E+02
      7.062  0.2646E+01  0.1156E+02
      7.126  0.1877E+01  0.1169E+02
      7.190  0.1840E+01  0.1182E+02
      7.255  0.1694E+01  0.1193E+02
      7.319  0.1584E+01  0.1204E+02
      7.384  0.1476E+01  0.1213E+02
      7.448  0.1334E+01  0.1222E+02
      7.512  0.1274E+01  0.1231E+02
      7.577  0.1321E+01  0.1239E+02
      7.641  0.1607E+01  0.1248E+02
      7.706  0.2040E+01  0.1260E+02
      7.770  0.2252E+01  0.1274E+02
      7.834  0.2247E+01  0.1289E+02
      7.899  0.2198E+01  0.1304E+02
      7.963  0.2093E+01  0.1317E+02
      8.027  0.1865E+01  0.1330E+02
      8.092  0.1836E+01  0.1342E+02
      8.156  0.1762E+01  0.1354E+02
      8.221  0.1881E+01  0.1365E+02
      8.285  0.1671E+01  0.1377E+02
      8.349  0.1594E+01  0.1387E+02
      8.414  0.1430E+01  0.1397E+02
      8.478  0.1338E+01  0.1406E+02
      8.542  0.1287E+01  0.1414E+02
      8.607  0.1360E+01  0.1423E+02
      8.671  0.1256E+01  0.1431E+02
      8.736  0.1126E+01  0.1439E+02
      8.800  0.1122E+01  0.1446E+02
      8.864  0.1138E+01  0.1453E+02
      8.929  0.1183E+01  0.1461E+02
      8.993  0.1347E+01  0.1469E+02
      9.058  0.1655E+01  0.1479E+02
      9.122  0.1991E+01  0.1491E+02
      9.186  0.1578E+01  0.1502E+02
      9.251  0.1298E+01  0.1512E+02
      9.315  0.1123E+01  0.1519E+02
      9.379  0.1039E+01  0.1526E+02
      9.444  0.9837E+00  0.1533E+02
      9.508  0.9302E+00  0.1539E+02
      9.573  0.8816E+00  0.1545E+02
      9.637  0.8411E+00  0.1550E+02
      9.701  0.7725E+00  0.1555E+02
      9.766  0.7329E+00  0.1560E+02
      9.830  0.7012E+00  0.1565E+02
      9.894  0.7789E+00  0.1569E+02
      9.959  0.1123E+01  0.1575E+02
     10.023  0.3800E+00  0.1580E+02
     10.088  0.3464E+00  0.1582E+02
     10.152  0.3162E+00  0.1584E+02
     10.216  0.2979E+00  0.1586E+02
     10.281  0.2775E+00  0.1588E+02
     10.345  0.2594E+00  0.1590E+02
     10.409  0.2394E+00  0.1591E+02
     10.474  0.2214E+00  0.1593E+02
     10.538  0.2020E+00  0.1594E+02
     10.603  0.1832E+00  0.1595E+02
     10.667  0.1626E+00  0.1596E+02
     10.731  0.1323E+00  0.1597E+02
     10.796  0.1052E+00  0.1598E+02
     10.860  0.8292E-01  0.1599E+02
     10.925  0.6544E-01  0.1599E+02
     10.989  0.6095E-01  0.1600E+02
     11.053  0.5050E-01  0.1600E+02
     11.118  0.0000E+00  0.1600E+02
     11.182  0.0000E+00  0.1600E+02
     11.246  0.0000E+00  0.1600E+02
     11.311  0.0000E+00  0.1600E+02
     11.375  0.0000E+00  0.1600E+02
     11.440  0.0000E+00  0.1600E+02
     11.504  0.0000E+00  0.1600E+02
     11.568  0.0000E+00  0.1600E+02
     11.633  0.0000E+00  0.1600E+02
     11.697  0.0000E+00  0.1600E+02
     11.761  0.0000E+00  0.1600E+02
     11.826  0.0000E+00  0.1600E+02
     11.890  0.0000E+00  0.1600E+02
     11.955  0.0000E+00  0.1600E+02
