    2    2    1    1
  0.3388447E+02  0.4576308E-09  0.4576308E-09  0.4576308E-09  0.0000000E+00
  1.000000000000000E-004
  CAR 
 unknown system                          
      8    165      8
 
  0.0000000E+00  0.0000000E+00  0.0000000E+00  0.2035416E-03
    1       -6.481560   1.000000
    2        3.400585   1.000000
    3        3.400585   1.000000
    4        3.400585   1.000000
    5        3.864028   0.000000
    6        6.395733   0.000000
    7        6.395733   0.000000
    8        6.395733   0.000000
 
  0.5882353E-01  0.0000000E+00  0.0000000E+00  0.1628333E-02
    1       -6.455331   1.000000
    2        2.811442   1.000000
    3        3.362769   1.000000
    4        3.362769   1.000000
    5        4.337871   0.000000
    6        6.453797   0.000000
    7        6.455994   0.000000
    8        6.455995   0.000000
 
  0.1176471E+00  0.0000000E+00  0.0000000E+00  0.1628333E-02
    1       -6.377754   1.000000
    2        2.016434   1.000000
    3        3.262191   1.000000
    4        3.262191   1.000000
    5        4.722914   0.000000
    6        6.614425   0.000000
    7        6.614425   0.000000
    8        6.728691   0.000000
 
  0.1764706E+00  0.0000000E+00  0.0000000E+00  0.1628333E-02
    1       -6.252631   1.000000
    2        1.229226   1.000000
    3        3.127035   1.000000
    4        3.127035   1.000000
    5        4.801497   0.000000
    6        6.814031   0.000000
    7        6.814031   0.000000
    8        7.297071   0.000000
 
  0.2352941E+00  0.0000000E+00  0.0000000E+00  0.1628333E-02
    1       -6.087310   1.000000
    2        0.488299   1.000000
    3        2.984589   1.000000
    4        2.984589   1.000000
    5        4.715817   0.000000
    6        6.985749   0.000000
    7        6.985749   0.000000
    8        8.040341   0.000000
 
  0.2941176E+00  0.0000000E+00  0.0000000E+00  0.1628333E-02
    1       -5.894568   1.000000
    2       -0.177887   1.000000
    3        2.854489   1.000000
    4        2.854489   1.000000
    5        4.588001   0.000000
    6        7.082108   0.000000
    7        7.082109   0.000000
    8        8.842966   0.000000
 
  0.3529412E+00  0.0000000E+00  0.0000000E+00  0.1628333E-02
    1       -5.695709   1.000000
    2       -0.738503   1.000000
    3        2.749067   1.000000
    4        2.749067   1.000000
    5        4.470786   0.000000
    6        7.105458   0.000000
    7        7.105458   0.000000
    8        9.571959   0.000000
 
  0.4117647E+00  0.0000000E+00  0.0000000E+00  0.1628333E-02
    1       -5.523603   1.000000
    2       -1.154675   1.000000
    3        2.675571   1.000000
    4        2.675572   1.000000
    5        4.385559   0.000000
    6        7.091948   0.000000
    7        7.091948   0.000000
    8        9.877798   0.000000
 
  0.4705882E+00  0.0000000E+00  0.0000000E+00  0.1628333E-02
    1       -5.420545   1.000000
    2       -1.380600   1.000000
    3        2.637960   1.000000
    4        2.637960   1.000000
    5        4.341276   0.000000
    6        7.076221   0.000000
    7        7.076221   0.000000
    8        9.893632   0.000000
 
  0.5882353E-01  0.5882353E-01  0.0000000E+00  0.1221250E-02
    1       -6.446554   1.000000
    2        2.760488   1.000000
    3        3.285248   1.000000
    4        3.285248   1.000000
    5        4.498428   0.000000
    6        6.281576   0.000000
    7        6.564620   0.000000
    8        6.564620   0.000000
 
  0.1176471E+00  0.5882353E-01  0.0000000E+00  0.4884999E-02
    1       -6.386006   1.000000
    2        2.160914   1.000000
    3        3.155822   1.000000
    4        3.206053   1.000000
    5        4.878491   0.000000
    6        6.256984   0.000000
    7        6.764159   0.000000
    8        6.808003   0.000000
 
  0.1764706E+00  0.5882353E-01  0.0000000E+00  0.4884999E-02
    1       -6.276539   1.000000
    2        1.426726   1.000000
    3        3.005453   1.000000
    4        3.094812   1.000000
    5        5.042171   0.000000
    6        6.404545   0.000000
    7        6.996815   0.000000
    8        7.243853   0.000000
 
  0.2352941E+00  0.5882353E-01  0.0000000E+00  0.4884999E-02
    1       -6.124146   1.000000
    2        0.697236   1.000000
    3        2.859710   1.000000
    4        2.944417   1.000000
    5        5.001032   0.000000
    6        6.638000   0.000000
    7        7.194042   0.000000
    8        7.820795   0.000000
 
  0.2941176E+00  0.5882353E-01  0.0000000E+00  0.4884999E-02
    1       -5.939546   1.000000
    2        0.020625   1.000000
    3        2.735657   1.000000
    4        2.783744   1.000000
    5        4.886184   0.000000
    6        6.829214   0.000000
    7        7.302424   0.000000
    8        8.446750   0.000000
 
  0.3529412E+00  0.5882353E-01  0.0000000E+00  0.4884999E-02
    1       -5.740783   1.000000
    2       -0.567803   1.000000
    3        2.635088   1.000000
    4        2.643551   1.000000
    5        4.767221   0.000000
    6        6.930122   0.000000
    7        7.316599   0.000000
    8        9.075333   0.000000
 
  0.4117647E+00  0.5882353E-01  0.0000000E+00  0.4884999E-02
    1       -5.556541   1.000000
    2       -1.029782   1.000000
    3        2.512425   1.000000
    4        2.588938   1.000000
    5        4.672421   0.000000
    6        6.969108   0.000000
    7        7.273323   0.000000
    8        9.635468   0.000000
 
  0.4705882E+00  0.5882353E-01  0.0000000E+00  0.4884999E-02
    1       -5.426726   1.000000
    2       -1.319914   1.000000
    3        2.424158   1.000000
    4        2.574203   1.000000
    5        4.613801   0.000000
    6        6.992332   0.000000
    7        7.213957   0.000000
    8        9.920944   0.000000
 
 -0.4705882E+00  0.5882353E-01  0.0000000E+00  0.4884999E-02
    1       -5.390685   1.000000
    2       -1.396059   1.000000
    3        2.375338   1.000000
    4        2.599391   1.000000
    5        4.596411   0.000000
    6        7.028160   0.000000
    7        7.163758   0.000000
    8        9.977860   0.000000
 
 -0.4117647E+00  0.5882353E-01  0.0000000E+00  0.4884999E-02
    1       -5.461487   1.000000
    2       -1.244539   1.000000
    3        2.368877   1.000000
    4        2.662640   1.000000
    5        4.621482   0.000000
    6        7.083389   0.000000
    7        7.129423   0.000000
    8        9.926169   0.000000
 
 -0.3529412E+00  0.5882353E-01  0.0000000E+00  0.4884999E-02
    1       -5.614401   1.000000
    2       -0.891516   1.000000
    3        2.406040   1.000000
    4        2.760057   1.000000
    5        4.686941   0.000000
    6        7.099748   0.000000
    7        7.144225   0.000000
    8        9.590422   0.000000
 
 -0.2941176E+00  0.5882353E-01  0.0000000E+00  0.4884999E-02
    1       -5.807469   1.000000
    2       -0.382791   1.000000
    3        2.486499   1.000000
    4        2.885161   1.000000
    5        4.785911   0.000000
    6        7.046732   0.000000
    7        7.172465   0.000000
    8        8.949847   0.000000
 
 -0.2352941E+00  0.5882353E-01  0.0000000E+00  0.4884999E-02
    1       -6.004079   1.000000
    2        0.237816   1.000000
    3        2.608015   1.000000
    4        3.027729   1.000000
    5        4.901507   0.000000
    6        6.938104   0.000000
    7        7.104084   0.000000
    8        8.267677   0.000000
 
 -0.1764706E+00  0.5882353E-01  0.0000000E+00  0.4884999E-02
    1       -6.179446   1.000000
    2        0.932484   1.000000
    3        2.765935   1.000000
    4        3.171826   1.000000
    5        4.992047   0.000000
    6        6.770797   0.000000
    7        6.887278   0.000000
    8        7.658743   0.000000
 
 -0.1176471E+00  0.5882353E-01  0.0000000E+00  0.4884999E-02
    1       -6.318378   1.000000
    2        1.660087   1.000000
    3        2.953385   1.000000
    4        3.294047   1.000000
    5        4.959550   0.000000
    6        6.591270   0.000000
    7        6.598221   0.000000
    8        7.158145   0.000000
 
 -0.5882353E-01  0.5882353E-01  0.0000000E+00  0.2442499E-02
    1       -6.411933   1.000000
    2        2.347445   1.000000
    3        3.165626   1.000000
    4        3.365409   1.000000
    5        4.685828   0.000000
    6        6.441345   0.000000
    7        6.468810   0.000000
    8        6.754808   0.000000
 
  0.1176471E+00  0.1176471E+00  0.0000000E+00  0.1221250E-02
    1       -6.342754   1.000000
    2        1.957199   1.000000
    3        3.004340   1.000000
    4        3.004340   1.000000
    5        5.224168   0.000000
    6        6.046457   0.000000
    7        7.004750   0.000000
    8        7.004750   0.000000
 
  0.1764706E+00  0.1176471E+00  0.0000000E+00  0.4884999E-02
    1       -6.249973   1.000000
    2        1.436952   1.000000
    3        2.839962   1.000000
    4        2.858971   1.000000
    5        5.430008   0.000000
    6        6.044608   0.000000
    7        7.279536   0.000000
    8        7.348651   0.000000
 
  0.2352941E+00  0.1176471E+00  0.0000000E+00  0.4884999E-02
    1       -6.112583   1.000000
    2        0.804059   1.000000
    3        2.687373   1.000000
    4        2.691198   1.000000
    5        5.459070   0.000000
    6        6.216507   0.000000
    7        7.520697   0.000000
    8        7.729563   0.000000
 
  0.2941176E+00  0.1176471E+00  0.0000000E+00  0.4884999E-02
    1       -5.939529   1.000000
    2        0.169115   1.000000
    3        2.495092   1.000000
    4        2.562581   1.000000
    5        5.381697   0.000000
    6        6.487018   0.000000
    7        7.666267   0.000000
    8        8.011016   0.000000
 
  0.3529412E+00  0.1176471E+00  0.0000000E+00  0.4884999E-02
    1       -5.746078   1.000000
    2       -0.411302   1.000000
    3        2.298971   1.000000
    4        2.475086   1.000000
    5        5.273987   0.000000
    6        6.717540   0.000000
    7        7.696407   0.000000
    8        8.325733   0.000000
 
  0.4117647E+00  0.1176471E+00  0.0000000E+00  0.4884999E-02
    1       -5.556834   1.000000
    2       -0.892337   1.000000
    3        2.125218   1.000000
    4        2.429903   1.000000
    5        5.176709   0.000000
    6        6.839162   0.000000
    7        7.643406   0.000000
    8        8.810529   0.000000
 
  0.4705882E+00  0.1176471E+00  0.0000000E+00  0.4884999E-02
    1       -5.407792   1.000000
    2       -1.227100   1.000000
    3        1.987511   1.000000
    4        2.428902   1.000000
    5        5.108462   0.000000
    6        6.898506   0.000000
    7        7.554634   0.000000
    8        9.412095   0.000000
 
 -0.4705882E+00  0.1176471E+00  0.0000000E+00  0.4884999E-02
    1       -5.339614   1.000000
    2       -1.369348   1.000000
    3        1.894214   1.000000
    4        2.471464   1.000000
    5        5.077383   0.000000
    6        6.953235   0.000000
    7        7.462970   0.000000
    8        9.932232   0.000000
 
 -0.4117647E+00  0.1176471E+00  0.0000000E+00  0.4884999E-02
    1       -5.375754   1.000000
    2       -1.293800   1.000000
    3        1.850972   1.000000
    4        2.554680   1.000000
    5        5.085844   0.000000
    6        7.028004   0.000000
    7        7.381238   0.000000
    8        9.989388   0.000000
 
 -0.3529412E+00  0.1176471E+00  0.0000000E+00  0.4884999E-02
    1       -5.503308   1.000000
    2       -1.015140   1.000000
    3        1.862239   1.000000
    4        2.673106   1.000000
    5        5.131704   0.000000
    6        7.119354   0.000000
    7        7.303308   0.000000
    8        9.496640   0.000000
 
 -0.2941176E+00  0.1176471E+00  0.0000000E+00  0.4884999E-02
    1       -5.684096   1.000000
    2       -0.577578   1.000000
    3        1.932397   1.000000
    4        2.817981   1.000000
    5        5.207003   0.000000
    6        7.190936   0.000000
    7        7.205889   0.000000
    8        8.846348   0.000000
 
 -0.2352941E+00  0.1176471E+00  0.0000000E+00  0.4884999E-02
    1       -5.879315   1.000000
    2       -0.032755   1.000000
    3        2.067276   1.000000
    4        2.975868   1.000000
    5        5.291903   0.000000
    6        7.061504   0.000000
    7        7.149004   0.000000
    8        8.295257   0.000000
 
 -0.1764706E+00  0.1176471E+00  0.0000000E+00  0.4884999E-02
    1       -6.060809   1.000000
    2        0.566296   1.000000
    3        2.276545   1.000000
    4        3.126687   1.000000
    5        5.337030   0.000000
    6        6.873028   0.000000
    7        6.910600   0.000000
    8        7.936913   0.000000
 
 -0.1176471E+00  0.1176471E+00  0.0000000E+00  0.2442499E-02
    1       -6.210709   1.000000
    2        1.156051   1.000000
    3        2.574441   1.000000
    4        3.242852   1.000000
    5        5.240847   0.000000
    6        6.660189   0.000000
    7        6.692836   0.000000
    8        7.602721   0.000000
 
  0.1764706E+00  0.1764706E+00  0.0000000E+00  0.1221250E-02
    1       -6.174184   1.000000
    2        1.178666   1.000000
    3        2.664105   1.000000
    4        2.664105   1.000000
    5        5.457702   0.000000
    6        6.083316   0.000000
    7        7.606207   0.000000
    8        7.606207   0.000000
 
  0.2352941E+00  0.1764706E+00  0.0000000E+00  0.4884999E-02
    1       -6.053100   1.000000
    2        0.723385   1.000000
    3        2.481979   1.000000
    4        2.502856   1.000000
    5        5.438772   0.000000
    6        6.172262   0.000000
    7        7.888200   0.000000
    8        7.909866   0.000000
 
  0.2941176E+00  0.1764706E+00  0.0000000E+00  0.4884999E-02
    1       -5.894251   1.000000
    2        0.194782   1.000000
    3        2.256533   1.000000
    4        2.372348   1.000000
    5        5.492444   0.000000
    6        6.291624   0.000000
    7        7.936995   0.000000
    8        8.119603   0.000000
 
  0.3529412E+00  0.1764706E+00  0.0000000E+00  0.4884999E-02
    1       -5.710659   1.000000
    2       -0.327246   1.000000
    3        2.009022   1.000000
    4        2.282211   1.000000
    5        5.490798   0.000000
    6        6.571045   0.000000
    7        7.917747   0.000000
    8        8.194909   0.000000
 
  0.4117647E+00  0.1764706E+00  0.0000000E+00  0.4884999E-02
    1       -5.523328   1.000000
    2       -0.787289   1.000000
    3        1.775455   1.000000
    4        2.237625   1.000000
    5        5.441824   0.000000
    6        6.885681   0.000000
    7        8.063802   0.000000
    8        8.156169   0.000000
 
  0.4705882E+00  0.1764706E+00  0.0000000E+00  0.4884999E-02
    1       -5.363839   1.000000
    2       -1.134845   1.000000
    3        1.579612   1.000000
    4        2.240573   1.000000
    5        5.398895   0.000000
    6        7.053755   0.000000
    7        8.055447   0.000000
    8        8.519330   0.000000
 
 -0.4705882E+00  0.1764706E+00  0.0000000E+00  0.4884999E-02
    1       -5.270933   1.000000
    2       -1.320938   1.000000
    3        1.435409   1.000000
    4        2.290445   1.000000
    5        5.386216   0.000000
    6        7.121541   0.000000
    7        7.934378   0.000000
    8        9.187502   0.000000
 
 -0.4117647E+00  0.1764706E+00  0.0000000E+00  0.4884999E-02
    1       -5.274159   1.000000
    2       -1.312309   1.000000
    3        1.352329   1.000000
    4        2.384140   1.000000
    5        5.409806   0.000000
    6        7.181183   0.000000
    7        7.811641   0.000000
    8        9.787308   0.000000
 
 -0.3529412E+00  0.1764706E+00  0.0000000E+00  0.4884999E-02
    1       -5.372238   1.000000
    2       -1.112764   1.000000
    3        1.339172   1.000000
    4        2.515619   1.000000
    5        5.465374   0.000000
    6        7.262633   0.000000
    7        7.683684   0.000000
    8        9.400342   0.000000
 
 -0.2941176E+00  0.1764706E+00  0.0000000E+00  0.4884999E-02
    1       -5.534239   1.000000
    2       -0.763575   1.000000
    3        1.407269   1.000000
    4        2.674950   1.000000
    5        5.538401   0.000000
    6        7.350063   0.000000
    7        7.527951   0.000000
    8        8.701888   0.000000
 
 -0.2352941E+00  0.1764706E+00  0.0000000E+00  0.4884999E-02
    1       -5.721739   1.000000
    2       -0.324876   1.000000
    3        1.573625   1.000000
    4        2.846646   1.000000
    5        5.595137   0.000000
    6        7.321307   0.000000
    7        7.339509   0.000000
    8        8.176351   0.000000
 
 -0.1764706E+00  0.1764706E+00  0.0000000E+00  0.2442499E-02
    1       -5.904037   1.000000
    2        0.137687   1.000000
    3        1.860509   1.000000
    4        3.007582   1.000000
    5        5.560000   0.000000
    6        7.080809   0.000000
    7        7.099847   0.000000
    8        8.015736   0.000000
 
  0.2352941E+00  0.2352941E+00  0.0000000E+00  0.1221250E-02
    1       -5.948792   1.000000
    2        0.442584   1.000000
    3        2.332496   1.000000
    4        2.332496   1.000000
    5        5.226922   0.000000
    6        6.192468   0.000000
    7        8.295980   0.000000
    8        8.295981   0.000000
 
  0.2941176E+00  0.2352941E+00  0.0000000E+00  0.4884999E-02
    1       -5.806136   1.000000
    2        0.046704   1.000000
    3        2.138065   1.000000
    4        2.193384   1.000000
    5        5.206439   0.000000
    6        6.142928   0.000000
    7        8.424900   0.000000
    8        8.601155   0.000000
 
  0.3529412E+00  0.2352941E+00  0.0000000E+00  0.4884999E-02
    1       -5.636327   1.000000
    2       -0.379338   1.000000
    3        1.871047   1.000000
    4        2.095855   1.000000
    5        5.303970   0.000000
    6        6.224730   0.000000
    7        8.311359   0.000000
    8        8.758747   0.000000
 
  0.4117647E+00  0.2352941E+00  0.0000000E+00  0.4884999E-02
    1       -5.457544   1.000000
    2       -0.776666   1.000000
    3        1.580545   1.000000
    4        2.045618   1.000000
    5        5.352135   0.000000
    6        6.577301   0.000000
    7        8.188546   0.000000
    8        8.764692   0.000000
 
  0.4705882E+00  0.2352941E+00  0.0000000E+00  0.4884999E-02
    1       -5.297122   1.000000
    2       -1.096095   1.000000
    3        1.315910   1.000000
    4        2.045101   1.000000
    5        5.356934   0.000000
    6        7.109374   0.000000
    7        8.147384   0.000000
    8        8.671889   0.000000
 
 -0.4705882E+00  0.2352941E+00  0.0000000E+00  0.4884999E-02
    1       -5.189977   1.000000
    2       -1.290911   1.000000
    3        1.107418   1.000000
    4        2.094061   1.000000
    5        5.376646   0.000000
    6        7.542257   0.000000
    7        8.384119   0.000000
    8        8.533054   0.000000
 
 -0.4117647E+00  0.2352941E+00  0.0000000E+00  0.4884999E-02
    1       -5.166947   1.000000
    2       -1.326409   1.000000
    3        0.974082   1.000000
    4        2.189661   1.000000
    5        5.431855   0.000000
    6        7.681277   0.000000
    7        8.373203   0.000000
    8        9.023266   0.000000
 
 -0.3529412E+00  0.2352941E+00  0.0000000E+00  0.4884999E-02
    1       -5.235251   1.000000
    2       -1.200303   1.000000
    3        0.932572   1.000000
    4        2.325986   1.000000
    5        5.519875   0.000000
    6        7.743237   0.000000
    7        8.187739   0.000000
    8        9.285006   0.000000
 
 -0.2941176E+00  0.2352941E+00  0.0000000E+00  0.4884999E-02
    1       -5.373078   1.000000
    2       -0.950695   1.000000
    3        1.003400   1.000000
    4        2.492996   1.000000
    5        5.619529   0.000000
    6        7.814886   0.000000
    7        7.949724   0.000000
    8        8.583804   0.000000
 
 -0.2352941E+00  0.2352941E+00  0.0000000E+00  0.2442499E-02
    1       -5.545602   1.000000
    2       -0.639741   1.000000
    3        1.211775   1.000000
    4        2.674659   1.000000
    5        5.679047   0.000000
    6        7.645482   0.000000
    7        7.743206   0.000000
    8        8.097279   0.000000
 
  0.2941176E+00  0.2941176E+00  0.0000000E+00  0.1221250E-02
    1       -5.680771   1.000000
    2       -0.235276   1.000000
    3        2.044376   1.000000
    4        2.044376   1.000000
    5        4.997899   0.000000
    6        5.946054   0.000000
    7        9.032941   0.000000
    8        9.032949   0.000000
 
  0.3529412E+00  0.2941176E+00  0.0000000E+00  0.4884999E-02
    1       -5.528127   1.000000
    2       -0.569215   1.000000
    3        1.854709   1.000000
    4        1.936775   1.000000
    5        5.011678   0.000000
    6        5.834036   0.000000
    7        9.104617   0.000000
    8        9.322236   0.000000
 
  0.4117647E+00  0.2941176E+00  0.0000000E+00  0.4884999E-02
    1       -5.364322   1.000000
    2       -0.891349   1.000000
    3        1.566818   1.000000
    4        1.877061   1.000000
    5        5.128828   0.000000
    6        5.957985   0.000000
    7        8.971078   0.000000
    8        9.418715   0.000000
 
  0.4705882E+00  0.2941176E+00  0.0000000E+00  0.4884999E-02
    1       -5.213100   1.000000
    2       -1.155512   1.000000
    3        1.252830   1.000000
    4        1.868269   1.000000
    5        5.186593   0.000000
    6        6.411022   0.000000
    7        8.832130   0.000000
    8        9.361204   0.000000
 
 -0.4705882E+00  0.2941176E+00  0.0000000E+00  0.4884999E-02
    1       -5.104764   1.000000
    2       -1.323573   1.000000
    3        0.976789   1.000000
    4        1.910687   1.000000
    5        5.227481   0.000000
    6        7.077982   0.000000
    7        8.728635   0.000000
    8        9.215851   0.000000
 
 -0.4117647E+00  0.2941176E+00  0.0000000E+00  0.4884999E-02
    1       -5.067288   1.000000
    2       -1.369581   1.000000
    3        0.781525   1.000000
    4        2.001990   1.000000
    5        5.299668   0.000000
    6        7.825911   0.000000
    7        8.703470   0.000000
    8        9.015191   0.000000
 
 -0.3529412E+00  0.2941176E+00  0.0000000E+00  0.4884999E-02
    1       -5.111228   1.000000
    2       -1.295513   1.000000
    3        0.700477   1.000000
    4        2.136806   1.000000
    5        5.408916   0.000000
    6        8.350181   0.000000
    7        8.747976   0.000000
    8        8.919956   0.000000
 
 -0.2941176E+00  0.2941176E+00  0.0000000E+00  0.2442499E-02
    1       -5.222575   1.000000
    2       -1.138513   1.000000
    3        0.766181   1.000000
    4        2.305629   1.000000
    5        5.534999   0.000000
    6        8.384997   0.000000
    7        8.430952   0.000000
    8        8.565543   0.000000
 
  0.3529412E+00  0.3529412E+00  0.0000000E+00  0.1221250E-02
    1       -5.395353   1.000000
    2       -0.829205   1.000000
    3        1.817830   1.000000
    4        1.817830   1.000000
    5        4.842531   0.000000
    6        5.571049   0.000000
    7        9.788052   0.000000
    8        9.788076   0.000000
 
  0.4117647E+00  0.3529412E+00  0.0000000E+00  0.4884999E-02
    1       -5.252748   1.000000
    2       -1.088211   1.000000
    3        1.645529   1.000000
    4        1.746502   1.000000
    5        4.896168   0.000000
    6        5.481903   0.000000
    7        9.861945   0.000000
    8       10.044944   0.000000
 
  0.4705882E+00  0.3529412E+00  0.0000000E+00  0.4884999E-02
    1       -5.121416   1.000000
    2       -1.296390   1.000000
    3        1.358607   1.000000
    4        1.726551   1.000000
    5        5.011347   0.000000
    6        5.705911   0.000000
    7        9.733276   0.000000
    8       10.069968   0.000000
 
 -0.4705882E+00  0.3529412E+00  0.0000000E+00  0.4884999E-02
    1       -5.026851   1.000000
    2       -1.420857   1.000000
    3        1.048989   1.000000
    4        1.758890   1.000000
    5        5.070923   0.000000
    6        6.267837   0.000000
    7        9.590596   0.000000
    8        9.931542   0.000000
 
 -0.4117647E+00  0.3529412E+00  0.0000000E+00  0.4884999E-02
    1       -4.991286   1.000000
    2       -1.447635   1.000000
    3        0.796811   1.000000
    4        1.841807   1.000000
    5        5.148514   0.000000
    6        7.014563   0.000000
    7        9.455988   0.000000
    8        9.670884   0.000000
 
 -0.3529412E+00  0.3529412E+00  0.0000000E+00  0.2442499E-02
    1       -5.022802   1.000000
    2       -1.391609   1.000000
    3        0.663703   1.000000
    4        1.970646   1.000000
    5        5.266405   0.000000
    6        7.848371   0.000000
    7        9.233044   0.000000
    8        9.272447   0.000000
 
  0.4117647E+00  0.4117647E+00  0.0000000E+00  0.1221250E-02
    1       -5.137034   1.000000
    2       -1.294030   1.000000
    3        1.662586   1.000000
    4        1.662586   1.000000
    5        4.780518   0.000000
    6        5.227512   0.000000
    7       10.517413   0.000000
    8       10.517438   0.000000
 
  0.4705882E+00  0.4117647E+00  0.0000000E+00  0.4884999E-02
    1       -5.036281   1.000000
    2       -1.451907   1.000000
    3        1.517675   1.000000
    4        1.629896   1.000000
    5        4.870296   0.000000
    6        5.199688   0.000000
    7       10.591412   0.000000
    8       10.701558   0.000000
 
 -0.4705882E+00  0.4117647E+00  0.0000000E+00  0.4884999E-02
    1       -4.970970   1.000000
    2       -1.528798   1.000000
    3        1.253202   1.000000
    4        1.650038   1.000000
    5        4.955789   0.000000
    6        5.562191   0.000000
    7       10.438337   0.000000
    8       10.591414   0.000000
 
 -0.4117647E+00  0.4117647E+00  0.0000000E+00  0.2442499E-02
    1       -4.955489   1.000000
    2       -1.518452   1.000000
    3        0.980011   1.000000
    4        1.721966   1.000000
    5        5.030148   0.000000
    6        6.215859   0.000000
    7       10.128636   0.000000
    8       10.233692   0.000000
 
  0.4705882E+00  0.4705882E+00  0.0000000E+00  0.1221250E-02
    1       -4.974721   1.000000
    2       -1.559964   1.000000
    3        1.583819   1.000000
    4        1.583819   1.000000
    5        4.821312   0.000000
    6        4.972933   0.000000
    7       11.076702   0.000000
    8       11.076702   0.000000
 
 -0.4705882E+00  0.4705882E+00  0.0000000E+00  0.2442499E-02
    1       -4.951250   1.000000
    2       -1.586190   1.000000
    3        1.474697   1.000000
    4        1.590650   1.000000
    5        4.898547   0.000000
    6        5.065272   0.000000
    7       10.992063   0.000000
    8       11.031277   0.000000
 
  0.1764706E+00  0.1176471E+00  0.5882353E-01  0.4884999E-02
    1       -6.309388   1.000000
    2        1.681524   1.000000
    3        2.876927   1.000000
    4        3.163170   1.000000
    5        5.181787   0.000000
    6        6.208401   0.000000
    7        6.909691   0.000000
    8        7.203836   0.000000
 
  0.2352941E+00  0.1176471E+00  0.5882353E-01  0.9769998E-02
    1       -6.185870   1.000000
    2        1.057881   1.000000
    3        2.618520   1.000000
    4        3.074952   1.000000
    5        5.320146   0.000000
    6        6.338970   0.000000
    7        7.137381   0.000000
    8        7.619682   0.000000
 
  0.2941176E+00  0.1176471E+00  0.5882353E-01  0.9769998E-02
    1       -6.022861   1.000000
    2        0.404798   1.000000
    3        2.412563   1.000000
    4        2.941175   1.000000
    5        5.283372   0.000000
    6        6.587975   0.000000
    7        7.358356   0.000000
    8        7.996842   0.000000
 
  0.3529412E+00  0.1176471E+00  0.5882353E-01  0.9769998E-02
    1       -5.833130   1.000000
    2       -0.210118   1.000000
    3        2.254223   1.000000
    4        2.795433   1.000000
    5        5.182939   0.000000
    6        6.800504   0.000000
    7        7.458615   0.000000
    8        8.420328   0.000000
 
  0.4117647E+00  0.1176471E+00  0.5882353E-01  0.9769998E-02
    1       -5.637783   1.000000
    2       -0.739050   1.000000
    3        2.140343   1.000000
    4        2.664487   1.000000
    5        5.082086   0.000000
    6        6.905421   0.000000
    7        7.454636   0.000000
    8        8.957073   0.000000
 
  0.4705882E+00  0.1176471E+00  0.5882353E-01  0.9769998E-02
    1       -5.469178   1.000000
    2       -1.135878   1.000000
    3        2.067747   1.000000
    4        2.566815   1.000000
    5        5.006339   0.000000
    6        6.934136   0.000000
    7        7.415546   0.000000
    8        9.547037   0.000000
 
 -0.4705882E+00  0.1176471E+00  0.5882353E-01  0.9769998E-02
    1       -5.368450   1.000000
    2       -1.352274   1.000000
    3        2.032795   1.000000
    4        2.514703   1.000000
    5        4.966416   0.000000
    6        6.936114   0.000000
    7        7.385931   0.000000
    8        9.972579   0.000000
 
  0.2352941E+00  0.1764706E+00  0.5882353E-01  0.4884999E-02
    1       -6.143054   1.000000
    2        0.992840   1.000000
    3        2.531026   1.000000
    4        2.800126   1.000000
    5        5.562060   0.000000
    6        6.073587   0.000000
    7        7.530959   0.000000
    8        7.675613   0.000000
 
  0.2941176E+00  0.1764706E+00  0.5882353E-01  0.9769998E-02
    1       -5.994743   1.000000
    2        0.452396   1.000000
    3        2.259601   1.000000
    4        2.693637   1.000000
    5        5.625729   0.000000
    6        6.219782   0.000000
    7        7.783859   0.000000
    8        7.840139   0.000000
 
  0.3529412E+00  0.1764706E+00  0.5882353E-01  0.9769998E-02
    1       -5.815825   1.000000
    2       -0.102898   1.000000
    3        2.038412   1.000000
    4        2.559672   1.000000
    5        5.589013   0.000000
    6        6.496657   0.000000
    7        7.846943   0.000000
    8        8.011982   0.000000
 