 running on   48 total cores
 distrk:  each k-point on   12 cores,    4 groups
 distr:  one band on   12 cores,    1 groups
 using from now: INCAR     
 vasp.5.4.4.18Apr17-6-g9f103f2a35 (build Nov 04 2020 14:40:39) complex          
  
 POSCAR found type information on POSCAR  Al Sb
 POSCAR found :  2 types and       2 ions
 scaLAPACK will be used

 ----------------------------------------------------------------------------- 
|                                                                             |
|           W    W    AA    RRRRR   N    N  II  N    N   GGGG   !!!           |
|           W    W   A  A   R    R  NN   N  II  NN   N  G    G  !!!           |
|           W    W  A    A  R    R  N N  N  II  N N  N  G       !!!           |
|           W WW W  AAAAAA  RRRRR   N  N N  II  N  N N  G  GGG   !            |
|           WW  WW  A    A  R   R   N   NN  II  N   NN  G    G                |
|           W    W  A    A  R    R  N    N  II  N    N   GGGG   !!!           |
|                                                                             |
|      You have enabled k-point parallelism (KPAR>1).                         |
|      This developmental code was originally  written by Paul Kent at ORNL,  |
|      and carefully double checked in Vienna.                                |
|      GW as well as linear response parallelism added by Martijn Marsman     |
|      and Georg Kresse.                                                      |
|      Carefully verify results versus KPAR=1.                                |
|      Report problems to Paul Kent and Vienna.                               |
|                                                                             |
 ----------------------------------------------------------------------------- 

 LDA part: xc-table for Pade appr. of Perdew
 POSCAR found type information on POSCAR  Al Sb
 POSCAR found :  2 types and       2 ions
 generate k-points for:   17   17   17
 POSCAR, INCAR and KPOINTS ok, starting setup
 FFT: planning ...
 WAVECAR not read
 entering main loop
       N       E                     dE             d eps       ncg     rms          rms(c)
DAV:   1     0.130905399038E+02    0.13091E+02   -0.27424E+03  2640   0.724E+02
DAV:   2    -0.759752050933E+01   -0.20688E+02   -0.20376E+02  3616   0.808E+01
DAV:   3    -0.815045429017E+01   -0.55293E+00   -0.55220E+00  3632   0.144E+01
DAV:   4    -0.815424588715E+01   -0.37916E-02   -0.37916E-02  3760   0.135E+00
DAV:   5    -0.815426971623E+01   -0.23829E-04   -0.23829E-04  3728   0.920E-02    0.193E+00
RMM:   6    -0.810276314220E+01    0.51507E-01   -0.54039E-02  2641   0.126E+00    0.116E+00
RMM:   7    -0.809079902682E+01    0.11964E-01   -0.48499E-02  2699   0.133E+00    0.264E-01
RMM:   8    -0.809140825679E+01   -0.60923E-03   -0.41924E-03  2703   0.462E-01    0.458E-02
RMM:   9    -0.809185583596E+01   -0.44758E-03   -0.66549E-04  2774   0.179E-01    0.133E-02
RMM:  10    -0.809187659468E+01   -0.20759E-04   -0.58845E-05  3021   0.576E-02    0.378E-03
RMM:  11    -0.809188031317E+01   -0.37185E-05   -0.86528E-06  2984   0.237E-02    0.133E-03
RMM:  12    -0.809188077304E+01   -0.45987E-06   -0.56180E-07  2275   0.715E-03
   1 F= -.80918808E+01 E0= -.80918808E+01  d E =0.000000E+00
