   3   3   0   0
  0.2580494E+02  0.4783873E-09  0.4783873E-09  0.4783873E-09  0.5000000E-15
  1.000000000000000E-004
  CAR
 unknown system
     12.18428027    -37.10324901  301      9.30688671      1.00000000
    -37.103  0.0000E+00  0.0000E+00
    -36.939  0.0000E+00  0.0000E+00
    -36.775  0.0000E+00  0.0000E+00
    -36.610  0.0000E+00  0.0000E+00
    -36.446  0.0000E+00  0.0000E+00
    -36.282  0.0000E+00  0.0000E+00
    -36.117  0.0000E+00  0.0000E+00
    -35.953  0.0000E+00  0.0000E+00
    -35.789  0.0000E+00  0.0000E+00
    -35.625  0.0000E+00  0.0000E+00
    -35.460  0.0000E+00  0.0000E+00
    -35.296  0.0000E+00  0.0000E+00
    -35.132  0.0000E+00  0.0000E+00
    -34.967  0.0000E+00  0.0000E+00
    -34.803  0.1217E+02  0.2000E+01
    -34.639  0.0000E+00  0.2000E+01
    -34.475  0.0000E+00  0.2000E+01
    -34.310  0.0000E+00  0.2000E+01
    -34.146  0.0000E+00  0.2000E+01
    -33.982  0.0000E+00  0.2000E+01
    -33.817  0.0000E+00  0.2000E+01
    -33.653  0.0000E+00  0.2000E+01
    -33.489  0.0000E+00  0.2000E+01
    -33.325  0.0000E+00  0.2000E+01
    -33.160  0.0000E+00  0.2000E+01
    -32.996  0.0000E+00  0.2000E+01
    -32.832  0.0000E+00  0.2000E+01
    -32.667  0.0000E+00  0.2000E+01
    -32.503  0.0000E+00  0.2000E+01
    -32.339  0.0000E+00  0.2000E+01
    -32.174  0.0000E+00  0.2000E+01
    -32.010  0.0000E+00  0.2000E+01
    -31.846  0.0000E+00  0.2000E+01
    -31.682  0.0000E+00  0.2000E+01
    -31.517  0.0000E+00  0.2000E+01
    -31.353  0.0000E+00  0.2000E+01
    -31.189  0.0000E+00  0.2000E+01
    -31.024  0.0000E+00  0.2000E+01
    -30.860  0.0000E+00  0.2000E+01
    -30.696  0.0000E+00  0.2000E+01
    -30.532  0.0000E+00  0.2000E+01
    -30.367  0.0000E+00  0.2000E+01
    -30.203  0.0000E+00  0.2000E+01
    -30.039  0.0000E+00  0.2000E+01
    -29.874  0.0000E+00  0.2000E+01
    -29.710  0.0000E+00  0.2000E+01
    -29.546  0.0000E+00  0.2000E+01
    -29.382  0.0000E+00  0.2000E+01
    -29.217  0.0000E+00  0.2000E+01
    -29.053  0.0000E+00  0.2000E+01
    -28.889  0.0000E+00  0.2000E+01
    -28.724  0.0000E+00  0.2000E+01
    -28.560  0.0000E+00  0.2000E+01
    -28.396  0.0000E+00  0.2000E+01
    -28.231  0.0000E+00  0.2000E+01
    -28.067  0.0000E+00  0.2000E+01
    -27.903  0.0000E+00  0.2000E+01
    -27.739  0.0000E+00  0.2000E+01
    -27.574  0.0000E+00  0.2000E+01
    -27.410  0.0000E+00  0.2000E+01
    -27.246  0.0000E+00  0.2000E+01
    -27.081  0.0000E+00  0.2000E+01
    -26.917  0.0000E+00  0.2000E+01
    -26.753  0.0000E+00  0.2000E+01
    -26.589  0.0000E+00  0.2000E+01
    -26.424  0.0000E+00  0.2000E+01
    -26.260  0.0000E+00  0.2000E+01
    -26.096  0.0000E+00  0.2000E+01
    -25.931  0.0000E+00  0.2000E+01
    -25.767  0.0000E+00  0.2000E+01
    -25.603  0.0000E+00  0.2000E+01
    -25.439  0.0000E+00  0.2000E+01
    -25.274  0.0000E+00  0.2000E+01
    -25.110  0.0000E+00  0.2000E+01
    -24.946  0.0000E+00  0.2000E+01
    -24.781  0.0000E+00  0.2000E+01
    -24.617  0.0000E+00  0.2000E+01
    -24.453  0.0000E+00  0.2000E+01
    -24.288  0.0000E+00  0.2000E+01
    -24.124  0.0000E+00  0.2000E+01
    -23.960  0.0000E+00  0.2000E+01
    -23.796  0.0000E+00  0.2000E+01
    -23.631  0.0000E+00  0.2000E+01
    -23.467  0.0000E+00  0.2000E+01
    -23.303  0.0000E+00  0.2000E+01
    -23.138  0.0000E+00  0.2000E+01
    -22.974  0.0000E+00  0.2000E+01
    -22.810  0.0000E+00  0.2000E+01
    -22.646  0.0000E+00  0.2000E+01
    -22.481  0.0000E+00  0.2000E+01
    -22.317  0.0000E+00  0.2000E+01
    -22.153  0.0000E+00  0.2000E+01
    -21.988  0.0000E+00  0.2000E+01
    -21.824  0.0000E+00  0.2000E+01
    -21.660  0.0000E+00  0.2000E+01
    -21.496  0.0000E+00  0.2000E+01
    -21.331  0.0000E+00  0.2000E+01
    -21.167  0.0000E+00  0.2000E+01
    -21.003  0.0000E+00  0.2000E+01
    -20.838  0.0000E+00  0.2000E+01
    -20.674  0.0000E+00  0.2000E+01
    -20.510  0.0000E+00  0.2000E+01
    -20.345  0.0000E+00  0.2000E+01
    -20.181  0.0000E+00  0.2000E+01
    -20.017  0.0000E+00  0.2000E+01
    -19.853  0.0000E+00  0.2000E+01
    -19.688  0.0000E+00  0.2000E+01
    -19.524  0.0000E+00  0.2000E+01
    -19.360  0.0000E+00  0.2000E+01
    -19.195  0.0000E+00  0.2000E+01
    -19.031  0.0000E+00  0.2000E+01
    -18.867  0.0000E+00  0.2000E+01
    -18.703  0.0000E+00  0.2000E+01
    -18.538  0.0000E+00  0.2000E+01
    -18.374  0.0000E+00  0.2000E+01
    -18.210  0.0000E+00  0.2000E+01
    -18.045  0.0000E+00  0.2000E+01
    -17.881  0.0000E+00  0.2000E+01
    -17.717  0.0000E+00  0.2000E+01
    -17.553  0.0000E+00  0.2000E+01
    -17.388  0.0000E+00  0.2000E+01
    -17.224  0.0000E+00  0.2000E+01
    -17.060  0.0000E+00  0.2000E+01
    -16.895  0.0000E+00  0.2000E+01
    -16.731  0.0000E+00  0.2000E+01
    -16.567  0.0000E+00  0.2000E+01
    -16.402  0.0000E+00  0.2000E+01
    -16.238  0.0000E+00  0.2000E+01
    -16.074  0.0000E+00  0.2000E+01
    -15.910  0.0000E+00  0.2000E+01
    -15.745  0.0000E+00  0.2000E+01
    -15.581  0.0000E+00  0.2000E+01
    -15.417  0.0000E+00  0.2000E+01
    -15.252  0.0000E+00  0.2000E+01
    -15.088  0.0000E+00  0.2000E+01
    -14.924  0.0000E+00  0.2000E+01
    -14.760  0.0000E+00  0.2000E+01
    -14.595  0.0000E+00  0.2000E+01
    -14.431  0.0000E+00  0.2000E+01
    -14.267  0.0000E+00  0.2000E+01
    -14.102  0.0000E+00  0.2000E+01
    -13.938  0.0000E+00  0.2000E+01
    -13.774  0.0000E+00  0.2000E+01
    -13.610  0.0000E+00  0.2000E+01
    -13.445  0.4838E+02  0.1200E+02
    -13.281  0.0000E+00  0.1200E+02
    -13.117  0.0000E+00  0.1200E+02
    -12.952  0.0000E+00  0.1200E+02
    -12.788  0.0000E+00  0.1200E+02
    -12.624  0.0000E+00  0.1200E+02
    -12.459  0.0000E+00  0.1200E+02
    -12.295  0.0000E+00  0.1200E+02
    -12.131  0.0000E+00  0.1200E+02
    -11.967  0.0000E+00  0.1200E+02
    -11.802  0.0000E+00  0.1200E+02
    -11.638  0.0000E+00  0.1200E+02
    -11.474  0.0000E+00  0.1200E+02
    -11.309  0.0000E+00  0.1200E+02
    -11.145  0.0000E+00  0.1200E+02
    -10.981  0.0000E+00  0.1200E+02
    -10.817  0.0000E+00  0.1200E+02
    -10.652  0.0000E+00  0.1200E+02
    -10.488  0.0000E+00  0.1200E+02
    -10.324  0.1768E-12  0.1200E+02
    -10.159  0.1060E+02  0.1410E+02
     -9.995  0.3834E+01  0.1800E+02
     -9.831  0.0000E+00  0.1800E+02
     -9.667  0.0000E+00  0.1800E+02
     -9.502  0.0000E+00  0.1800E+02
     -9.338  0.0000E+00  0.1800E+02
     -9.174  0.0000E+00  0.1800E+02
     -9.009  0.0000E+00  0.1800E+02
     -8.845  0.0000E+00  0.1800E+02
     -8.681  0.0000E+00  0.1800E+02
     -8.516  0.0000E+00  0.1800E+02
     -8.352  0.0000E+00  0.1800E+02
     -8.188  0.0000E+00  0.1800E+02
     -8.024  0.0000E+00  0.1800E+02
     -7.859  0.0000E+00  0.1800E+02
     -7.695  0.0000E+00  0.1800E+02
     -7.531  0.0000E+00  0.1800E+02
     -7.366  0.0000E+00  0.1800E+02
     -7.202  0.0000E+00  0.1800E+02
     -7.038  0.0000E+00  0.1800E+02
     -6.874  0.0000E+00  0.1800E+02
     -6.709  0.0000E+00  0.1800E+02
     -6.545  0.0000E+00  0.1800E+02
     -6.381  0.0000E+00  0.1800E+02
     -6.216  0.0000E+00  0.1800E+02
     -6.052  0.0000E+00  0.1800E+02
     -5.888  0.0000E+00  0.1800E+02
     -5.724  0.0000E+00  0.1800E+02
     -5.559  0.0000E+00  0.1800E+02
     -5.395  0.0000E+00  0.1800E+02
     -5.231  0.0000E+00  0.1800E+02
     -5.066  0.0000E+00  0.1800E+02
     -4.902  0.0000E+00  0.1800E+02
     -4.738  0.0000E+00  0.1800E+02
     -4.573  0.0000E+00  0.1800E+02
     -4.409  0.0000E+00  0.1800E+02
     -4.245  0.0000E+00  0.1800E+02
     -4.081  0.0000E+00  0.1800E+02
     -3.916  0.0000E+00  0.1800E+02
     -3.752  0.0000E+00  0.1800E+02
     -3.588  0.0000E+00  0.1800E+02
     -3.423  0.0000E+00  0.1800E+02
     -3.259  0.0000E+00  0.1800E+02
     -3.095  0.0000E+00  0.1800E+02
     -2.931  0.1137E-07  0.1800E+02
     -2.766  0.7783E-01  0.1801E+02
     -2.602  0.7753E-01  0.1806E+02
     -2.438  0.2968E+00  0.1815E+02
     -2.273  0.4382E+00  0.1829E+02
     -2.109  0.1954E+01  0.1869E+02
     -1.945  0.3347E+01  0.1978E+02
     -1.781  0.1773E+00  0.2000E+02
     -1.616  0.0000E+00  0.2000E+02
     -1.452  0.0000E+00  0.2000E+02
     -1.288  0.0000E+00  0.2000E+02
     -1.123  0.0000E+00  0.2000E+02
     -0.959  0.0000E+00  0.2000E+02
     -0.795  0.0000E+00  0.2000E+02
     -0.630  0.0000E+00  0.2000E+02
     -0.466  0.0000E+00  0.2000E+02
     -0.302  0.0000E+00  0.2000E+02
     -0.138  0.0000E+00  0.2000E+02
      0.027  0.0000E+00  0.2000E+02
      0.191  0.0000E+00  0.2000E+02
      0.355  0.0000E+00  0.2000E+02
      0.520  0.0000E+00  0.2000E+02
      0.684  0.0000E+00  0.2000E+02
      0.848  0.0000E+00  0.2000E+02
      1.012  0.0000E+00  0.2000E+02
      1.177  0.0000E+00  0.2000E+02
      1.341  0.0000E+00  0.2000E+02
      1.505  0.0000E+00  0.2000E+02
      1.670  0.0000E+00  0.2000E+02
      1.834  0.0000E+00  0.2000E+02
      1.998  0.0000E+00  0.2000E+02
      2.162  0.0000E+00  0.2000E+02
      2.327  0.0000E+00  0.2000E+02
      2.491  0.0000E+00  0.2000E+02
      2.655  0.0000E+00  0.2000E+02
      2.820  0.0000E+00  0.2000E+02
      2.984  0.0000E+00  0.2000E+02
      3.148  0.0000E+00  0.2000E+02
      3.313  0.3559E-01  0.2001E+02
      3.477  0.4322E+00  0.2012E+02
      3.641  0.2161E+01  0.2068E+02
      3.805  0.1013E+01  0.2112E+02
      3.970  0.5212E+00  0.2139E+02
      4.134  0.8328E+00  0.2163E+02
      4.298  0.6552E+00  0.2185E+02
      4.463  0.4336E+01  0.2301E+02
      4.627  0.2624E+01  0.2395E+02
      4.791  0.2406E+01  0.2494E+02
      4.955  0.2601E+01  0.2588E+02
      5.120  0.8090E-01  0.2602E+02
      5.284  0.1061E+01  0.2625E+02
      5.448  0.4568E+01  0.2841E+02
      5.613  0.4499E+01  0.3009E+02
      5.777  0.1664E+01  0.3061E+02
      5.941  0.1903E+01  0.3121E+02
      6.105  0.9317E+00  0.3153E+02
      6.270  0.6317E+00  0.3175E+02
      6.434  0.8819E+00  0.3198E+02
      6.598  0.4817E+00  0.3212E+02
      6.763  0.6544E+00  0.3245E+02
      6.927  0.5517E+00  0.3266E+02
      7.091  0.1063E+01  0.3302E+02
      7.256  0.3520E+00  0.3321E+02
      7.420  0.1063E+01  0.3355E+02
      7.584  0.3160E+00  0.3367E+02
      7.748  0.5858E+01  0.3511E+02
      7.913  0.1130E+01  0.3581E+02
      8.077  0.2337E+00  0.3596E+02
      8.241  0.1049E+00  0.3600E+02
      8.406  0.3028E-01  0.3601E+02
      8.570  0.1601E+00  0.3603E+02
      8.734  0.1206E+01  0.3625E+02
      8.898  0.1836E+01  0.3685E+02
      9.063  0.2339E+01  0.3764E+02
      9.227  0.3634E+00  0.3800E+02
      9.391  0.1186E+02  0.4112E+02
      9.556  0.1060E+02  0.4385E+02
      9.720  0.8747E+01  0.4730E+02
      9.884  0.3010E+00  0.4799E+02
     10.048  0.0000E+00  0.4800E+02
     10.213  0.0000E+00  0.4800E+02
     10.377  0.0000E+00  0.4800E+02
     10.541  0.0000E+00  0.4800E+02
     10.706  0.0000E+00  0.4800E+02
     10.870  0.0000E+00  0.4800E+02
     11.034  0.0000E+00  0.4800E+02
     11.199  0.0000E+00  0.4800E+02
     11.363  0.0000E+00  0.4800E+02
     11.527  0.0000E+00  0.4800E+02
     11.691  0.0000E+00  0.4800E+02
     11.856  0.0000E+00  0.4800E+02
     12.020  0.0000E+00  0.4800E+02
     12.184  0.0000E+00  0.4800E+02
