    3    3    1    1
  0.2580494E+02  0.4783873E-09  0.4783873E-09  0.4783873E-09  0.5000000E-15
  1.000000000000000E-004
  CAR
 unknown system
     39     84     24

  0.0000000E+00  0.0000000E+00  0.0000000E+00  0.4551661E-03
    1      -34.862907   1.000000
    2      -13.516333   1.000000
    3      -13.516333   1.000000
    4      -13.490981   1.000000
    5      -13.490981   1.000000
    6      -13.490981   1.000000
    7      -10.104773   1.000000
    8      -10.104773   1.000000
    9      -10.104773   1.000000
   10       -2.897992   1.000000
   11        4.935198   1.000000
   12        4.935198   1.000000
   13        4.935198   1.000000
   14        5.231813   1.000000
   15        5.231813   1.000000
   16        7.526384   1.000000
   17        8.226993   1.000000
   18        8.226993   1.000000
   19        8.226993   1.000000
   20        9.318983   0.043576
   21        9.318983   0.043572
   22        9.318983   0.043568
   23        9.357161   0.000000
   24        9.515173   0.000000

  0.7692308E-01 -0.1127600E-17  0.1549031E-17  0.3641329E-02
    1      -34.862724   1.000000
    2      -13.517540   1.000000
    3      -13.517540   1.000000
    4      -13.491191   1.000000
    5      -13.490826   1.000000
    6      -13.490826   1.000000
    7      -10.115941   1.000000
    8      -10.102292   1.000000
    9      -10.102292   1.000000
   10       -2.839534   1.000000
   11        4.807705   1.000000
   12        4.841459   1.000000
   13        4.841459   1.000000
   14        5.319771   1.000000
   15        5.319771   1.000000
   16        7.245312   1.000000
   17        8.171829   1.000000
   18        8.171829   1.000000
   19        8.402203   1.000000
   20        9.239952   1.000000
   21        9.293765   0.968251
   22        9.293765   0.968250
   23        9.499174   0.000000
   24        9.591912   0.000000

  0.1538462E+00  0.8288729E-17  0.4290262E-17  0.3641329E-02
    1      -34.862212   1.000000
    2      -13.520869   1.000000
    3      -13.520869   1.000000
    4      -13.491813   1.000000
    5      -13.490354   1.000000
    6      -13.490354   1.000000
    7      -10.145994   1.000000
    8      -10.095415   1.000000
    9      -10.095415   1.000000
   10       -2.676031   1.000000
   11        4.487807   1.000000
   12        4.697586   1.000000
   13        4.697586   1.000000
   14        5.437667   1.000000
   15        5.437667   1.000000
   16        6.754772   1.000000
   17        8.049595   1.000000
   18        8.049595   1.000000
   19        8.495672   1.000000
   20        9.273559   0.999999
   21        9.273559   0.999999
   22        9.425074   0.000000
   23        9.519325   0.000000
   24        9.657021   0.000000

  0.2307692E+00 -0.4575002E-17  0.5839292E-17  0.3641329E-02
    1      -34.861491   1.000000
    2      -13.525586   1.000000
    3      -13.525586   1.000000
    4      -13.492817   1.000000
    5      -13.489645   1.000000
    6      -13.489645   1.000000
    7      -10.186297   1.000000
    8      -10.085771   1.000000
    9      -10.085771   1.000000
   10       -2.441312   1.000000
   11        4.095508   1.000000
   12        4.585628   1.000000
   13        4.585628   1.000000
   14        5.487120   1.000000
   15        5.487120   1.000000
   16        6.271210   1.000000
   17        7.936864   1.000000
   18        7.936864   1.000000
   19        8.501306   1.000000
   20        9.276885   0.999989
   21        9.276885   0.999989
   22        9.522605   0.000000
   23        9.564197   0.000000
   24        9.781952   0.000000

  0.3076923E+00  0.1657746E-16  0.8580523E-17  0.3641329E-02
    1      -34.860723   1.000000
    2      -13.530594   1.000000
    3      -13.530594   1.000000
    4      -13.494062   1.000000
    5      -13.488856   1.000000
    6      -13.488856   1.000000
    7      -10.226568   1.000000
    8      -10.075586   1.000000
    9      -10.075586   1.000000
   10       -2.186006   1.000000
   11        3.729195   1.000000
   12        4.523063   1.000000
   13        4.523063   1.000000
   14        5.451203   1.000000
   15        5.451203   1.000000
   16        5.876739   1.000000
   17        7.876107   1.000000
   18        7.876107   1.000000
   19        8.539716   1.000000
   20        9.298713   0.876150
   21        9.298713   0.876149
   22        9.529652   0.000000
   23        9.623709   0.000000
   24        9.745784   0.000000

  0.3846154E+00  0.1013870E-16 -0.8031548E-17  0.3641329E-02
    1      -34.860088   1.000000
    2      -13.534735   1.000000
    3      -13.534735   1.000000
    4      -13.495228   1.000000
    5      -13.488181   1.000000
    6      -13.488181   1.000000
    7      -10.258105   1.000000
    8      -10.067192   1.000000
    9      -10.067192   1.000000
   10       -1.968909   1.000000
   11        3.453370   1.000000
   12        4.505614   1.000000
   13        4.505614   1.000000
   14        5.365422   1.000000
   15        5.365422   1.000000
   16        5.607361   1.000000
   17        7.861204   1.000000
   18        7.861204   1.000000
   19        8.609218   1.000000
   20        9.333584   0.000080
   21        9.333584   0.000080
   22        9.530105   0.000000
   23        9.669989   0.000000
   24        9.670087   0.000000

  0.4615385E+00 -0.5031045E-17  0.7559627E-17  0.3641329E-02
    1      -34.859732   1.000000
    2      -13.537069   1.000000
    3      -13.537069   1.000000
    4      -13.495940   1.000000
    5      -13.487796   1.000000
    6      -13.487796   1.000000
    7      -10.275207   1.000000
    8      -10.062475   1.000000
    9      -10.062475   1.000000
   10       -1.843916   1.000000
   11        3.306503   1.000000
   12        4.510854   1.000000
   13        4.510854   1.000000
   14        5.294938   1.000000
   15        5.294938   1.000000
   16        5.472711   1.000000
   17        7.863863   1.000000
   18        7.863863   1.000000
   19        8.667250   1.000000
   20        9.367210   0.000000
   21        9.367210   0.000000
   22        9.599833   0.000000
   23        9.608712   0.000000
   24        9.636803   0.000000

  0.7692308E-01  0.7692308E-01 -0.1746020E-17  0.2730997E-02
    1      -34.862663   1.000000
    2      -13.519609   1.000000
    3      -13.516038   1.000000
    4      -13.491355   1.000000
    5      -13.490720   1.000000
    6      -13.490720   1.000000
    7      -10.110633   1.000000
    8      -10.106100   1.000000
    9      -10.106100   1.000000
   10       -2.821362   1.000000
   11        4.587823   1.000000
   12        4.949326   1.000000
   13        4.949326   1.000000
   14        5.245615   1.000000
   15        5.357456   1.000000
   16        7.226620   1.000000
   17        8.083387   1.000000
   18        8.083387   1.000000
   19        8.563475   1.000000
   20        9.169445   1.000000
   21        9.303437   0.687170
   22        9.303437   0.687170
   23        9.522425   0.000000
   24        9.525044   0.000000

  0.1538462E+00  0.7692308E-01  0.3584091E-17  0.1092399E-01
    1      -34.862261   1.000000
    2      -13.523304   1.000000
    3      -13.516993   1.000000
    4      -13.491854   1.000000
    5      -13.490383   1.000000
    6      -13.490294   1.000000
    7      -10.133584   1.000000
    8      -10.104807   1.000000
    9      -10.098048   1.000000
   10       -2.696900   1.000000
   11        4.315376   1.000000
   12        4.847269   1.000000
   13        4.882347   1.000000
   14        5.324057   1.000000
   15        5.444890   1.000000
   16        6.903376   1.000000
   17        7.943545   1.000000
   18        7.950653   1.000000
   19        8.684491   1.000000
   20        9.234581   1.000000
   21        9.291723   0.984001
   22        9.351074   0.000000
   23        9.530265   0.000000
   24        9.625672   0.000000

  0.2307692E+00  0.7692308E-01 -0.4461351E-17  0.1092399E-01
    1      -34.861612   1.000000
    2      -13.527766   1.000000
    3      -13.520222   1.000000
    4      -13.492628   1.000000
    5      -13.489895   1.000000
    6      -13.489585   1.000000
    7      -10.170744   1.000000
    8      -10.098739   1.000000
    9      -10.087260   1.000000
   10       -2.492764   1.000000
   11        4.030781   1.000000
   12        4.651653   1.000000
   13        4.775948   1.000000
   14        5.394394   1.000000
   15        5.526646   1.000000
   16        6.462881   1.000000
   17        7.798898   1.000000
   18        7.845640   1.000000
   19        8.670941   1.000000
   20        9.264220   1.000000
   21        9.286963   0.997581
   22        9.526760   0.000000
   23        9.532733   0.000000
   24        9.741399   0.000000

  0.3076923E+00  0.7692308E-01  0.7874353E-17  0.1092399E-01
    1      -34.860864   1.000000
    2      -13.532004   1.000000
    3      -13.524960   1.000000
    4      -13.493644   1.000000
    5      -13.489288   1.000000
    6      -13.488768   1.000000
    7      -10.210972   1.000000
    8      -10.089333   1.000000
    9      -10.077530   1.000000
   10       -2.253709   1.000000
   11        3.753708   1.000000
   12        4.504957   1.000000
   13        4.693329   1.000000
   14        5.385672   1.000000
   15        5.536754   1.000000
   16        6.043166   1.000000
   17        7.713071   1.000000
   18        7.802044   1.000000
   19        8.659239   1.000000
   20        9.293281   0.972827
   21        9.297115   0.916511
   22        9.534732   0.000000
   23        9.591701   0.000000
   24        9.737136   0.000000

  0.3846154E+00  0.7692308E-01  0.8567545E-18  0.1092399E-01
    1      -34.860188   1.000000
    2      -13.535060   1.000000
    3      -13.530062   1.000000
    4      -13.494706   1.000000
    5      -13.488678   1.000000
    6      -13.488065   1.000000
    7      -10.245117   1.000000
    8      -10.078746   1.000000
    9      -10.070997   1.000000
   10       -2.034219   1.000000
   11        3.525629   1.000000
   12        4.444922   1.000000
   13        4.633327   1.000000
   14        5.328415   1.000000
   15        5.474857   1.000000
   16        5.720637   1.000000
   17        7.685938   1.000000
   18        7.804931   1.000000
   19        8.685276   1.000000
   20        9.323313   0.010088
   21        9.331477   0.000253
   22        9.535101   0.000000
   23        9.619699   0.000000
   24        9.697854   0.000000

  0.4615385E+00  0.7692308E-01  0.1216461E-16  0.1092399E-01
    1      -34.859738   1.000000
    2      -13.536244   1.000000
    3      -13.534345   1.000000
    4      -13.495483   1.000000
    5      -13.488200   1.000000
    6      -13.487653   1.000000
    7      -10.266661   1.000000
    8      -10.069384   1.000000
    9      -10.069063   1.000000
   10       -1.886242   1.000000
   11        3.383849   1.000000
   12        4.460753   1.000000
   13        4.571943   1.000000
   14        5.294175   1.000000
   15        5.382293   1.000000
   16        5.527393   1.000000
   17        7.686615   1.000000
   18        7.820387   1.000000
   19        8.729857   1.000000
   20        9.360975   0.000000
   21        9.365494   0.000000
   22        9.530972   0.000000
   23        9.600620   0.000000
   24        9.674821   0.000000

 -0.4615385E+00  0.7692308E-01  0.1846193E-16  0.1092399E-01
    1      -34.859619   1.000000
    2      -13.536852   1.000000
    3      -13.535297   1.000000
    4      -13.495682   1.000000
    5      -13.487999   1.000000
    6      -13.487646   1.000000
    7      -10.272139   1.000000
    8      -10.072076   1.000000
    9      -10.063353   1.000000
   10       -1.845631   1.000000
   11        3.346799   1.000000
   12        4.495515   1.000000
   13        4.524049   1.000000
   14        5.308194   1.000000
   15        5.331364   1.000000
   16        5.479566   1.000000
   17        7.680831   1.000000
   18        7.829282   1.000000
   19        8.748379   1.000000
   20        9.367056   0.000000
   21        9.387859   0.000000
   22        9.522462   0.000000
   23        9.605897   0.000000
   24        9.613531   0.000000

 -0.3846154E+00  0.7692308E-01 -0.2269095E-17  0.1092399E-01
    1      -34.859857   1.000000
    2      -13.537039   1.000000
    3      -13.532413   1.000000
    4      -13.495215   1.000000
    5      -13.488130   1.000000
    6      -13.488017   1.000000
    7      -10.260795   1.000000
    8      -10.079274   1.000000
    9      -10.062009   1.000000
   10       -1.922470   1.000000
   11        3.420930   1.000000
   12        4.426204   1.000000
   13        4.602369   1.000000
   14        5.292245   1.000000
   15        5.425911   1.000000
   16        5.578457   1.000000
   17        7.649893   1.000000
   18        7.836740   1.000000
   19        8.721091   1.000000
   20        9.336816   0.000012
   21        9.369079   0.000000
   22        9.527725   0.000000
   23        9.630331   0.000000
   24        9.646715   0.000000

 -0.3076923E+00  0.7692308E-01  0.4591094E-17  0.1092399E-01
    1      -34.860396   1.000000
    2      -13.534875   1.000000
    3      -13.528216   1.000000
    4      -13.494262   1.000000
    5      -13.488675   1.000000
    6      -13.488586   1.000000
    7      -10.234461   1.000000
    8      -10.088950   1.000000
    9      -10.065679   1.000000
   10       -2.098261   1.000000
   11        3.605079   1.000000
   12        4.396413   1.000000
   13        4.682639   1.000000
   14        5.332471   1.000000
   15        5.526722   1.000000
   16        5.814894   1.000000
   17        7.602849   1.000000
   18        7.865667   1.000000
   19        8.678275   1.000000
   20        9.305484   0.578620
   21        9.327267   0.001975
   22        9.532119   0.000000
   23        9.627999   0.000000
   24        9.692006   0.000000

 -0.2307692E+00  0.7692308E-01  0.7332325E-17  0.1092399E-01
    1      -34.861115   1.000000
    2      -13.530856   1.000000
    3      -13.523650   1.000000
    4      -13.493159   1.000000
    5      -13.489442   1.000000
    6      -13.489243   1.000000
    7      -10.197824   1.000000
    8      -10.098776   1.000000
    9      -10.073557   1.000000
   10       -2.330526   1.000000
   11        3.883405   1.000000
   12        4.425834   1.000000
   13        4.778396   1.000000
   14        5.369665   1.000000
   15        5.579610   1.000000
   16        6.172684   1.000000
   17        7.583054   1.000000
   18        7.939827   1.000000
   19        8.657548   1.000000
   20        9.286232   0.998256
   21        9.289941   0.991724
   22        9.530727   0.000000
   23        9.582102   0.000000
   24        9.758533   0.000000

 -0.1538462E+00  0.7692308E-01 -0.4996432E-17  0.1092399E-01
    1      -34.861851   1.000000
    2      -13.525893   1.000000
    3      -13.519798   1.000000
    4      -13.492205   1.000000
    5      -13.490139   1.000000
    6      -13.489929   1.000000
    7      -10.158776   1.000000
    8      -10.106126   1.000000
    9      -10.083876   1.000000
   10       -2.564527   1.000000
   11        4.217157   1.000000
   12        4.519325   1.000000
   13        4.895057   1.000000
   14        5.344876   1.000000
   15        5.553029   1.000000
   16        6.601312   1.000000
   17        7.661231   1.000000
   18        8.054501   1.000000
   19        8.661771   1.000000
   20        9.267082   1.000000
   21        9.278881   0.999963
   22        9.500134   0.000000
   23        9.527022   0.000000
   24        9.720078   0.000000

 -0.7692308E-01  0.7692308E-01 -0.1135437E-18  0.5461994E-02
    1      -34.862429   1.000000
    2      -13.521092   1.000000
    3      -13.517585   1.000000
    4      -13.491542   1.000000
    5      -13.490622   1.000000
    6      -13.490488   1.000000
    7      -10.128402   1.000000
    8      -10.107650   1.000000
    9      -10.094255   1.000000
   10       -2.747440   1.000000
   11        4.548043   1.000000
   12        4.667605   1.000000
   13        4.961572   1.000000
   14        5.291336   1.000000
   15        5.453384   1.000000
   16        6.993016   1.000000
   17        7.896751   1.000000
   18        8.156369   1.000000
   19        8.601686   1.000000
   20        9.259126   1.000000
   21        9.268130   1.000000
   22        9.333896   0.000067
   23        9.521772   0.000000
   24        9.585384   0.000000

  0.1538462E+00  0.1538462E+00 -0.3492039E-17  0.2730997E-02
    1      -34.861987   1.000000
    2      -13.526470   1.000000
    3      -13.515209   1.000000
    4      -13.492434   1.000000
    5      -13.489937   1.000000
    6      -13.489937   1.000000
    7      -10.128107   1.000000
    8      -10.109874   1.000000
    9      -10.109874   1.000000
   10       -2.623115   1.000000
   11        4.036680   1.000000
   12        4.979187   1.000000
   13        4.979187   1.000000
   14        5.284382   1.000000
   15        5.391393   1.000000
   16        6.875216   1.000000
   17        7.819440   1.000000
   18        7.819440   1.000000
   19        8.757899   1.000000
   20        9.283203   0.999595
   21        9.298609   0.879122
   22        9.298609   0.879122
   23        9.554487   0.000000
   24        9.676536   0.000000

  0.2307692E+00  0.1538462E+00 -0.1064304E-16  0.1092399E-01
    1      -34.861456   1.000000
    2      -13.529625   1.000000
    3      -13.516020   1.000000
    4      -13.493146   1.000000
    5      -13.489442   1.000000
    6      -13.489274   1.000000
    7      -10.155802   1.000000
    8      -10.109475   1.000000
    9      -10.102210   1.000000
   10       -2.473068   1.000000
   11        3.802189   1.000000
   12        4.870227   1.000000
   13        4.937813   1.000000
   14        5.334188   1.000000
   15        5.436482   1.000000
   16        6.634998   1.000000
   17        7.644497   1.000000
   18        7.723608   1.000000
   19        8.778548   1.000000
   20        9.269636   1.000000
   21        9.299951   0.836658
   22        9.462204   0.000000
   23        9.566156   0.000000
   24        9.749065   0.000000

  0.3076923E+00  0.1538462E+00 -0.1963794E-16  0.1092399E-01
    1      -34.860785   1.000000
    2      -13.532062   1.000000
    3      -13.519242   1.000000
    4      -13.493840   1.000000
    5      -13.489073   1.000000
    6      -13.488444   1.000000
    7      -10.192960   1.000000
    8      -10.103730   1.000000
    9      -10.092891   1.000000
   10       -2.282938   1.000000
   11        3.639417   1.000000
   12        4.670339   1.000000
   13        4.860343   1.000000
   14        5.351022   1.000000
   15        5.503375   1.000000
   16        6.285909   1.000000
   17        7.465955   1.000000
   18        7.693631   1.000000
   19        8.801324   1.000000
   20        9.285780   0.998582
   21        9.307396   0.471282
   22        9.536002   0.000000
   23        9.567338   0.000000
   24        9.750650   0.000000

  0.3846154E+00  0.1538462E+00  0.3241698E-17  0.1092399E-01
    1      -34.860130   1.000000
    2      -13.533248   1.000000
    3      -13.524053   1.000000
    4      -13.494442   1.000000
    5      -13.488836   1.000000
    6      -13.487694   1.000000
    7      -10.226545   1.000000
    8      -10.093991   1.000000
    9      -10.088188   1.000000
   10       -2.097447   1.000000
   11        3.553779   1.000000
   12        4.516870   1.000000
   13        4.773558   1.000000
   14        5.328872   1.000000
   15        5.510484   1.000000
   16        5.937257   1.000000
   17        7.369363   1.000000
   18        7.709471   1.000000
   19        8.813299   1.000000
   20        9.324166   0.007268
   21        9.327838   0.001523
   22        9.561136   0.000000
   23        9.562566   0.000000
   24        9.723306   0.000000

  0.4615385E+00  0.1538462E+00  0.1026624E-16  0.1092399E-01
    1      -34.859643   1.000000
    2      -13.532960   1.000000
    3      -13.529292   1.000000
    4      -13.494843   1.000000
    5      -13.488704   1.000000
    6      -13.487255   1.000000
    7      -10.249585   1.000000
    8      -10.089198   1.000000
    9      -10.082488   1.000000
   10       -1.957743   1.000000
   11        3.524892   1.000000
   12        4.455368   1.000000
   13        4.661275   1.000000
   14        5.331214   1.000000
   15        5.454904   1.000000
   16        5.682865   1.000000
   17        7.331412   1.000000
   18        7.731368   1.000000
   19        8.838383   1.000000
   20        9.357082   0.000000
   21        9.363327   0.000000
   22        9.549763   0.000000
   23        9.574298   0.000000
   24        9.705978   0.000000

 -0.4615385E+00  0.1538462E+00 -0.2404196E-16  0.1092399E-01
    1      -34.859430   1.000000
    2      -13.533751   1.000000
    3      -13.531278   1.000000
    4      -13.494874   1.000000
    5      -13.488672   1.000000
    6      -13.487226   1.000000
    7      -10.258335   1.000000
    8      -10.095368   1.000000
    9      -10.071819   1.000000
   10       -1.891950   1.000000
   11        3.516502   1.000000
   12        4.491259   1.000000
   13        4.528834   1.000000
   14        5.370464   1.000000
   15        5.392327   1.000000
   16        5.580921   1.000000
   17        7.304717   1.000000
   18        7.740181   1.000000
   19        8.863402   1.000000
   20        9.358337   0.000000
   21        9.406921   0.000000
   22        9.522908   0.000000
   23        9.599371   0.000000
   24        9.668772   0.000000

 -0.3846154E+00  0.1538462E+00  0.1930480E-16  0.1092399E-01
    1      -34.859545   1.000000
    2      -13.536477   1.000000
    3      -13.528580   1.000000
    4      -13.494493   1.000000
    5      -13.488748   1.000000
    6      -13.487583   1.000000
    7      -10.251960   1.000000
    8      -10.104787   1.000000
    9      -10.064390   1.000000
   10       -1.913129   1.000000
   11        3.516848   1.000000
   12        4.409750   1.000000
   13        4.600440   1.000000
   14        5.308177   1.000000
   15        5.493637   1.000000
   16        5.643179   1.000000
   17        7.251481   1.000000
   18        7.746562   1.000000
   19        8.862644   1.000000
   20        9.332177   0.000174
   21        9.421293   0.000000
   22        9.508595   0.000000
   23        9.628465   0.000000
   24        9.636477   0.000000

 -0.3076923E+00  0.1538462E+00  0.2692723E-17  0.1092399E-01
    1      -34.859960   1.000000
    2      -13.536873   1.000000
    3      -13.525413   1.000000
    4      -13.493842   1.000000
    5      -13.488923   1.000000
    6      -13.488224   1.000000
    7      -10.232352   1.000000
    8      -10.114486   1.000000
    9      -10.061898   1.000000
   10       -2.019442   1.000000
   11        3.560058   1.000000
   12        4.335968   1.000000
   13        4.745277   1.000000
   14        5.284690   1.000000
   15        5.592963   1.000000
   16        5.853802   1.000000
   17        7.168525   1.000000
   18        7.778026   1.000000
   19        8.838750   1.000000
   20        9.306044   0.547460
   21        9.379519   0.000000
   22        9.532037   0.000000
   23        9.619707   0.000000
   24        9.653130   0.000000

 -0.2307692E+00  0.1538462E+00  0.1150640E-17  0.1092399E-01
    1      -34.860578   1.000000
    2      -13.534877   1.000000
    3      -13.522441   1.000000
    4      -13.493188   1.000000
    5      -13.489178   1.000000
    6      -13.488973   1.000000
    7      -10.204470   1.000000
    8      -10.120614   1.000000
    9      -10.064946   1.000000
   10       -2.190871   1.000000
   11        3.690163   1.000000
   12        4.326824   1.000000
   13        4.889785   1.000000
   14        5.281151   1.000000
   15        5.646895   1.000000
   16        6.160775   1.000000
   17        7.115290   1.000000
   18        7.856262   1.000000
   19        8.810438   1.000000
   20        9.291213   0.986674
   21        9.330198   0.000489
   22        9.541665   0.000000
   23        9.592255   0.000000
   24        9.704469   0.000000

 -0.1538462E+00  0.1538462E+00 -0.6894803E-17  0.5461994E-02
    1      -34.861261   1.000000
    2      -13.530927   1.000000
    3      -13.520374   1.000000
    4      -13.492661   1.000000
    5      -13.489656   1.000000
    6      -13.489509   1.000000
    7      -10.177167   1.000000
    8      -10.118332   1.000000
    9      -10.072871   1.000000
   10       -2.388572   1.000000
   11        3.919336   1.000000
   12        4.389499   1.000000
   13        4.981047   1.000000
   14        5.277532   1.000000
   15        5.631543   1.000000
   16        6.439335   1.000000
   17        7.250761   1.000000
   18        7.968164   1.000000
   19        8.772593   1.000000
   20        9.284318   0.999293
   21        9.289022   0.994239
   22        9.537573   0.000000
   23        9.555857   0.000000
   24        9.757143   0.000000

  0.2307692E+00  0.2307692E+00 -0.5238059E-17  0.2730997E-02
    1      -34.861055   1.000000
    2      -13.530686   1.000000
    3      -13.514031   1.000000
    4      -13.493998   1.000000
    5      -13.488695   1.000000
    6      -13.488695   1.000000
    7      -10.156044   1.000000
    8      -10.115494   1.000000
    9      -10.115494   1.000000
   10       -2.390996   1.000000
   11        3.623621   1.000000
   12        4.994758   1.000000
   13        4.994758   1.000000
   14        5.299753   1.000000
   15        5.340407   1.000000
   16        6.602578   1.000000
   17        7.636484   1.000000
   18        7.636484   1.000000
   19        8.744616   1.000000
   20        9.308359   0.417531
   21        9.308359   0.417530
   22        9.426760   0.000000
   23        9.602533   0.000000
   24        9.833093   0.000000

  0.3076923E+00  0.2307692E+00 -0.5395490E-17  0.1092399E-01
    1      -34.860505   1.000000
    2      -13.530685   1.000000
    3      -13.514816   1.000000
    4      -13.494743   1.000000
    5      -13.488141   1.000000
    6      -13.487903   1.000000
    7      -10.182010   1.000000
    8      -10.115454   1.000000
    9      -10.112560   1.000000
   10       -2.271248   1.000000
   11        3.546445   1.000000
   12        4.859038   1.000000
   13        4.960162   1.000000
   14        5.339039   1.000000
   15        5.365437   1.000000
   16        6.412152   1.000000
   17        7.474195   1.000000
   18        7.615687   1.000000
   19        8.821763   1.000000
   20        9.296416   0.930675
   21        9.317879   0.060034
   22        9.469142   0.000000
   23        9.619277   0.000000
   24        9.803573   0.000000

  0.3846154E+00  0.2307692E+00  0.2535528E-17  0.1092399E-01
    1      -34.859930   1.000000
    2      -13.529649   1.000000
    3      -13.518111   1.000000
    4      -13.495143   1.000000
    5      -13.487992   1.000000
    6      -13.487143   1.000000
    7      -10.211031   1.000000
    8      -10.110291   1.000000
    9      -10.109402   1.000000
   10       -2.144767   1.000000
   11        3.578342   1.000000
   12        4.660055   1.000000
   13        4.879148   1.000000
   14        5.370310   1.000000
   15        5.420981   1.000000
   16        6.145621   1.000000
   17        7.235991   1.000000
   18        7.638724   1.000000
   19        8.902477   1.000000
   20        9.309064   0.379061
   21        9.335691   0.000023
   22        9.500175   0.000000
   23        9.616808   0.000000
   24        9.763106   0.000000

  0.4615385E+00  0.2307692E+00 -0.3439929E-19  0.1092399E-01
    1      -34.859462   1.000000
    2      -13.527863   1.000000
    3      -13.523053   1.000000
    4      -13.495075   1.000000
    5      -13.488294   1.000000
    6      -13.486665   1.000000
    7      -10.231436   1.000000
    8      -10.114566   1.000000
    9      -10.098739   1.000000
   10       -2.038095   1.000000
   11        3.684885   1.000000
   12        4.521437   1.000000
   13        4.754129   1.000000
   14        5.393039   1.000000
   15        5.443659   1.000000
   16        5.886904   1.000000
   17        7.055671   1.000000
   18        7.659245   1.000000
   19        8.937212   1.000000
   20        9.337626   0.000007
   21        9.366099   0.000000
   22        9.533975   0.000000
   23        9.598997   0.000000
   24        9.723346   0.000000

 -0.4615385E+00  0.2307692E+00 -0.2577597E-16  0.1092399E-01
    1      -34.859207   1.000000
    2      -13.528493   1.000000
    3      -13.525821   1.000000
    4      -13.494484   1.000000
    5      -13.488920   1.000000
    6      -13.486608   1.000000
    7      -10.239069   1.000000
    8      -10.124739   1.000000
    9      -10.085890   1.000000
   10       -1.967926   1.000000
   11        3.776195   1.000000
   12        4.474272   1.000000
   13        4.600881   1.000000
   14        5.388023   1.000000
   15        5.457662   1.000000
   16        5.755465   1.000000
   17        6.938074   1.000000
   18        7.656981   1.000000
   19        8.960015   1.000000
   20        9.340273   0.000001
   21        9.408025   0.000000
   22        9.562106   0.000000
   23        9.584732   0.000000
   24        9.694425   0.000000

 -0.3846154E+00  0.2307692E+00  0.9004152E-17  0.1092399E-01
    1      -34.859224   1.000000
    2      -13.533204   1.000000
    3      -13.523996   1.000000
    4      -13.493542   1.000000
    5      -13.489623   1.000000
    6      -13.486953   1.000000
    7      -10.234101   1.000000
    8      -10.137212   1.000000
    9      -10.073758   1.000000
   10       -1.944218   1.000000
   11        3.755086   1.000000
   12        4.454542   1.000000
   13        4.531279   1.000000
   14        5.326548   1.000000
   15        5.548042   1.000000
   16        5.793431   1.000000
   17        6.846759   1.000000
   18        7.649595   1.000000
   19        8.968845   1.000000
   20        9.317085   0.074624
   21        9.453159   0.000000
   22        9.510199   0.000000