       N       E                     dE             d eps       ncg     rms          rms(c)
DAV:   1     0.429302692237E+03    0.42930E+03   -0.22335E+04  4032   0.229E+03
DAV:   2     0.279611019080E+02   -0.40134E+03   -0.39391E+03  4600   0.494E+02
DAV:   3    -0.204822666681E+02   -0.48443E+02   -0.47387E+02  4984   0.175E+02
DAV:   4    -0.257668544081E+02   -0.52846E+01   -0.52570E+01  7640   0.449E+01
DAV:   5    -0.259489868598E+02   -0.18213E+00   -0.18181E+00  5528   0.720E+00    0.147E+01
DAV:   6    -0.345525998724E+02   -0.86036E+01   -0.21784E+02  6048   0.920E+01    0.220E+01
DAV:   7    -0.248236046711E+02    0.97290E+01   -0.26966E+01  5784   0.281E+01    0.107E+01
DAV:   8    -0.246084037374E+02    0.21520E+00   -0.37509E+01  5896   0.239E+01    0.901E+00
DAV:   9    -0.236641093130E+02    0.94429E+00   -0.10062E+01  6264   0.183E+01    0.153E+00
DAV:  10    -0.237476417440E+02   -0.83532E-01   -0.96872E-01  6656   0.419E+00    0.214E+00
DAV:  11    -0.236807938014E+02    0.66848E-01   -0.53184E-01  6000   0.343E+00    0.339E-01
DAV:  12    -0.236829712207E+02   -0.21774E-02   -0.26359E-02  6984   0.737E-01    0.363E-01
DAV:  13    -0.236827921084E+02    0.17911E-03   -0.20762E-03  6984   0.231E-01    0.247E-01
DAV:  14    -0.236821116722E+02    0.68044E-03   -0.94535E-03  6192   0.436E-01    0.688E-02
DAV:  15    -0.236820720044E+02    0.39668E-04   -0.66572E-04  6936   0.134E-01    0.107E-02
DAV:  16    -0.236820751780E+02   -0.31736E-05   -0.26813E-05  5920   0.196E-02    0.767E-03
DAV:  17    -0.236820744912E+02    0.68674E-06   -0.54234E-06  6112   0.105E-02    0.247E-03
DAV:  18    -0.236820744149E+02    0.76328E-07   -0.64847E-07  4104   0.402E-03
   1 F= -.23682074E+02 E0= -.23681160E+02  d E =-.182798E-02
