 vasp.6.0.8 29Jun18 (build Jun 13 2019 12:54:44) complex

 executed on      IFC18_CrayMPICH date 2021.12.05  14:21:49
 running   64 mpi-ranks, with    1 threads/rank
 distrk:  each k-point on   16 cores,    4 groups
 distr:  one band on NCORES_PER_BAND=   4 cores,    4 groups


--------------------------------------------------------------------------------------------------------


 INCAR:
 POTCAR:    PAW_PBE U 06Sep2000
 POTCAR:    PAW_PBE Bi_d 06Sep2000
 POTCAR:    PAW_PBE Pt 04Feb2005
 POTCAR:    PAW_PBE U 06Sep2000
   VRHFIN =U:  [Xe,5d,4f]
   LEXCH  = PE
   EATOM  =  1405.3058 eV,  103.2871 Ry

   TITEL  = PAW_PBE U 06Sep2000
   LULTRA =        F    use ultrasoft PP ?
   IUNSCR =        1    unscreen: 0-lin 1-nonlin 2-no
   RPACOR =    2.200    partial core radius
   POMASS =  238.029; ZVAL   =   14.000    mass and valenz
   RCORE  =    2.800    outmost cutoff radius
   RWIGS  =    3.000; RWIGS  =    1.588    wigner-seitz radius (au A)
   ENMAX  =  252.502; ENMIN  =  189.376 eV
   RCLOC  =    1.811    cutoff for local pot
   LCOR   =        T    correct aug charges
   LPAW   =        T    paw PP
   EAUG   =  526.410
   DEXC   =    0.000
   RMAX   =    2.863    core radius for proj-oper
   RAUG   =    1.300    factor for augmentation sphere
   RDEP   =    2.950    radius for radial grids
   RDEPT  =    2.270    core radius for aug-charge

   Atomic configuration
   18 entries
     n  l   j            E        occ.
     1  0  0.50   -116038.1941   2.0000
     2  0  0.50    -21694.8835   2.0000
     2  1  1.50    -18009.1553   6.0000
     3  0  0.50     -5481.2929   2.0000
     3  1  1.50     -4458.9283   6.0000
     3  2  2.50     -3575.9978  10.0000
     4  0  0.50     -1400.5351   2.0000
     4  1  1.50     -1066.7807   6.0000
     4  2  2.50      -732.1336  10.0000
     4  3  3.50      -377.4393  14.0000
     5  0  0.50      -314.7366   2.0000
     5  1  1.50      -211.6057   6.0000
     5  2  2.50      -103.2045  10.0000
     6  0  0.50       -50.6026   2.0000
     7  0  0.50        -4.5896   2.0000
     6  1  1.50       -25.2884   6.0000
     6  2  1.50        -3.1039   2.0000
     5  3  2.50        -6.3670   2.0000
   Description
     l       E           TYP  RCUT    TYP  RCUT
     0    -50.6026097     23  2.600
     0     -4.5896371     23  2.600
     1    -25.2883770     23  2.500
     1     27.2116520     23  2.500
     2     -3.1038686     23  2.500
     2      0.8290654     23  2.500
     3     -6.3670133     23  2.800
     3     -7.7275959     23  2.800
  local pseudopotential read in
  partial core-charges read in
  partial kinetic energy density read in
  atomic valenz-charges read in
  non local Contribution for L=           0  read in
    real space projection operators read in
  non local Contribution for L=           0  read in
    real space projection operators read in
  non local Contribution for L=           1  read in
    real space projection operators read in
  non local Contribution for L=           1  read in
    real space projection operators read in
  non local Contribution for L=           2  read in
    real space projection operators read in
  non local Contribution for L=           2  read in
    real space projection operators read in
  non local Contribution for L=           3  read in
    real space projection operators read in
  non local Contribution for L=           3  read in
    real space projection operators read in
    PAW grid and wavefunctions read in

   number of l-projection  operators is LMAX  =           8
   number of lm-projection operators is LMMAX =          32

 POTCAR:    PAW_PBE Bi_d 06Sep2000
   VRHFIN =Bi:
   LEXCH  = PE
   EATOM  =  1959.2045 eV,  143.9975 Ry

   TITEL  = PAW_PBE Bi_d 06Sep2000
   LULTRA =        F    use ultrasoft PP ?
   IUNSCR =        1    unscreen: 0-lin 1-nonlin 2-no
   RPACOR =    2.200    partial core radius
   POMASS =  208.980; ZVAL   =   15.000    mass and valenz
   RCORE  =    2.500    outmost cutoff radius
   RWIGS  =    3.090; RWIGS  =    1.635    wigner-seitz radius (au A)
   ENMAX  =  242.839; ENMIN  =  182.129 eV
   ICORE  =        3    local potential
   LCOR   =        T    correct aug charges
   LPAW   =        T    paw PP
   EAUG   =  442.899
   DEXC   =    0.000
   RMAX   =    2.551    core radius for proj-oper
   RAUG   =    1.300    factor for augmentation sphere
   RDEP   =    2.650    radius for radial grids
   RDEPT  =    2.039    core radius for aug-charge

   Atomic configuration
   16 entries
     n  l   j            E        occ.
     1  0  0.50    -90639.6581   2.0000
     2  0  0.50    -16282.4666   2.0000
     2  1  1.50    -13922.8286   6.0000
     3  0  0.50     -3930.4763   2.0000
     3  1  1.50     -3256.7013   6.0000
     3  2  2.50     -2581.6168  10.0000
     4  0  0.50      -902.2614   2.0000
     4  1  1.50      -681.5915   6.0000
     4  2  2.50      -429.8249  10.0000
     4  3  3.50      -152.6004  14.0000
     5  0  0.50      -157.7156   2.0000
     5  1  1.50       -95.8054   6.0000
     5  2  2.50       -27.0806  10.0000
     6  0  0.50       -14.4732   2.0000
     6  1  1.50        -4.5702   3.0000
     5  3  2.50        -2.7212   0.0000
   Description
     l       E           TYP  RCUT    TYP  RCUT
     2    -27.0805982     23  2.500
     2     -1.3605826     23  2.500
     0    -14.4732271     23  2.500
     0      6.8029130     23  2.500
     1     -4.5701651     23  2.500
     1     13.6058260     23  2.500
     3     -1.3605826      7  2.500
  local pseudopotential read in
  partial core-charges read in
  partial kinetic energy density read in
  atomic valenz-charges read in
  non local Contribution for L=           2  read in
    real space projection operators read in
  non local Contribution for L=           2  read in
    real space projection operators read in
  non local Contribution for L=           0  read in
    real space projection operators read in
  non local Contribution for L=           0  read in
    real space projection operators read in
  non local Contribution for L=           1  read in
    real space projection operators read in
  non local Contribution for L=           1  read in
    real space projection operators read in
    PAW grid and wavefunctions read in

   number of l-projection  operators is LMAX  =           6
   number of lm-projection operators is LMMAX =          18

 POTCAR:    PAW_PBE Pt 04Feb2005
   VRHFIN =Pt: s1d9
   LEXCH  = PE
   EATOM  =   729.1176 eV,   53.5886 Ry

   TITEL  = PAW_PBE Pt 04Feb2005
   LULTRA =        F    use ultrasoft PP ?
   IUNSCR =        1    unscreen: 0-lin 1-nonlin 2-no
   RPACOR =    2.330    partial core radius
   POMASS =  195.080; ZVAL   =   10.000    mass and valenz
   RCORE  =    2.600    outmost cutoff radius
   RWIGS  =    2.750; RWIGS  =    1.455    wigner-seitz radius (au A)
   ENMAX  =  230.283; ENMIN  =  172.712 eV
   ICORE  =        3    local potential
   LCOR   =        T    correct aug charges
   LPAW   =        T    paw PP
   EAUG   =  358.966
   DEXC   =    0.000
   RMAX   =    2.658    core radius for proj-oper
   RAUG   =    1.300    factor for augmentation sphere
   RDEP   =    2.761    radius for radial grids
   RDEPT  =    2.203    core radius for aug-charge

   Atomic configuration
   16 entries
     n  l   j            E        occ.
     1  0  0.50    -78401.1885   2.0000
     2  0  0.50    -13770.7750   2.0000
     2  1  1.50    -11931.0468   6.0000
     3  0  0.50     -3234.7234   2.0000
     3  1  1.50     -2699.2216   6.0000
     3  2  2.50     -2119.5714  10.0000
     4  0  0.50      -695.1528   2.0000
     4  1  1.50      -519.6034   6.0000
     4  2  2.50      -306.6786  10.0000
     4  3  3.50       -70.1041  14.0000
     5  0  0.50      -101.7747   2.0000
     5  1  1.50       -55.9873   6.0000
     5  2  2.50        -6.1423   9.0000
     6  0  0.50        -5.6573   1.0000
     6  1  1.50        -6.8029   0.0000
     5  3  2.50        -1.3606   0.0000
   Description
     l       E           TYP  RCUT    TYP  RCUT
     2     -6.1423404     23  2.500
     2     -7.5029230     23  2.500
     0     -5.6573207     23  2.500
     0      0.7416693     23  2.500
     1     -2.7211652     23  2.600
     1     20.4087390     23  2.600
     3     -1.3605826     23  2.500
  local pseudopotential read in
  partial core-charges read in
  partial kinetic energy density read in
  atomic valenz-charges read in
  non local Contribution for L=           2  read in
    real space projection operators read in
  non local Contribution for L=           2  read in
    real space projection operators read in
  non local Contribution for L=           0  read in
    real space projection operators read in
  non local Contribution for L=           0  read in
    real space projection operators read in
  non local Contribution for L=           1  read in
    real space projection operators read in
  non local Contribution for L=           1  read in
    real space projection operators read in
    PAW grid and wavefunctions read in

   number of l-projection  operators is LMAX  =           6
   number of lm-projection operators is LMMAX =          18

 WARNING: PSMAXN for non-local potential too small
          PSMAXN should be >   13.5545592237991       NTYP=           1

 -----------------------------------------------------------------------------
|                                                                             |
|  ADVICE TO THIS USER RUNNING 'VASP/VAMP'   (HEAR YOUR MASTER'S VOICE ...):  |
|                                                                             |
|      You enforced a specific xc-type in the INCAR file,                     |
|      a different type was found on the POTCAR file                          |
|          I HOPE YOU KNOW, WHAT YOU ARE  DOING                               |
|                                                                             |
 -----------------------------------------------------------------------------

  PAW_PBE U 06Sep2000                   :
 energy of atom  1       EATOM=-1405.3058
 kinetic energy error for atom=    0.0006 (will be added to EATOM!!)
  PAW_PBE Bi_d 06Sep2000                :
 energy of atom  2       EATOM=-1959.2045
 kinetic energy error for atom=    0.0012 (will be added to EATOM!!)
  PAW_PBE Pt 04Feb2005                  :
 energy of atom  3       EATOM= -729.1176
 kinetic energy error for atom=    0.0010 (will be added to EATOM!!)


 POSCAR: U1 Bi1 Pt1
  positions in direct lattice
  No initial velocities read in
 exchange correlation table for  LEXCH =       14
   RHO(1)=    0.500       N(1)  =     2000
   RHO(2)=  100.500       N(2)  =     4000



--------------------------------------------------------------------------------------------------------


 ion  position               nearest neighbor table
   1  0.250  0.250  0.250-   3 2.93   3 2.93   3 2.93   3 2.93   2 3.38   2 3.38   2 3.38   2 3.38
                             2 3.38   2 3.38
   2  0.750  0.750  0.750-   3 2.93   3 2.93   3 2.93   3 2.93   1 3.38   1 3.38   1 3.38   1 3.38
                             1 3.38   1 3.38
   3  0.000  0.000  0.000-   2 2.93   2 2.93   2 2.93   1 2.93   2 2.93   1 2.93   1 2.93   1 2.93


  LATTYP: Found a face centered cubic cell.
 ALAT       =     6.7654186076

  Lattice vectors:

 A1 = (   0.0000000000,   3.3827093038,   3.3827093038)
 A2 = (   3.3827093038,   0.0000000000,   3.3827093038)
 A3 = (   3.3827093038,   3.3827093038,   0.0000000000)


Analysis of symmetry for initial positions (statically):
=====================================================================
 Subroutine PRICEL returns:
 Original cell was already a primitive cell.


 Routine SETGRP: Setting up the symmetry group for a
 face centered cubic supercell.


 Subroutine GETGRP returns: Found 24 space group operations
 (whereof 24 operations were pure point group operations)
 out of a pool of 48 trial point group operations.


The static configuration has the point symmetry T_d .


Analysis of symmetry for dynamics (positions and initial velocities):
=====================================================================
 Subroutine PRICEL returns:
 Original cell was already a primitive cell.


 Routine SETGRP: Setting up the symmetry group for a
 face centered cubic supercell.


 Subroutine GETGRP returns: Found 24 space group operations
 (whereof 24 operations were pure point group operations)
 out of a pool of 48 trial point group operations.


The dynamic configuration has the point symmetry T_d .


 Subroutine INISYM returns: Found 24 space group operations
 (whereof 24 operations are pure point group operations),
 and found     1 'primitive' translations


----------------------------------------------------------------------------------------

                                     Primitive cell

  volume of cell :      77.4148

  direct lattice vectors                    reciprocal lattice vectors
     0.000000000  3.382709304  3.382709304    -0.147810514  0.147810514  0.147810514
     3.382709304  0.000000000  3.382709304     0.147810514 -0.147810514  0.147810514
     3.382709304  3.382709304  0.000000000     0.147810514  0.147810514 -0.147810514

  length of vectors
     4.783873375  4.783873375  4.783873375     0.256015320  0.256015320  0.256015320

  position of ions in fractional coordinates (direct lattice)
     0.250000000  0.250000000  0.250000000
     0.750000000  0.750000000  0.750000000
     0.000000000  0.000000000  0.000000000

  ion indices of the primitive-cell ions
   primitive index   ion index
                 1           1
                 2           2
                 3           3

----------------------------------------------------------------------------------------



 KPOINTS: KPOINTS

Automatic generation of k-mesh.
Space group operators:
 irot       det(A)        alpha          n_x          n_y          n_z        tau_x        tau_y        tau_z
    1     1.000000     0.000000     1.000000     0.000000     0.000000     0.000000     0.000000     0.000000
    2     1.000000   120.000000    -0.577350    -0.577350    -0.577350     0.000000     0.000000     0.000000
    3     1.000000   120.000000     0.577350     0.577350     0.577350     0.000000     0.000000     0.000000
    4    -1.000000    90.000000    -0.000000    -0.000000    -1.000000     0.000000     0.000000     0.000000
    5    -1.000000   180.000000     0.000000     0.707107     0.707107     0.000000     0.000000     0.000000
    6    -1.000000    90.000000    -0.000000     1.000000    -0.000000     0.000000     0.000000     0.000000
    7     1.000000   180.000000    -0.000000     0.000000     1.000000     0.000000     0.000000     0.000000
    8     1.000000   120.000000    -0.577350     0.577350     0.577350     0.000000     0.000000     0.000000
    9     1.000000   120.000000    -0.577350     0.577350    -0.577350     0.000000     0.000000     0.000000
   10    -1.000000    90.000000     0.000000     0.000000     1.000000     0.000000     0.000000     0.000000
   11    -1.000000    90.000000    -1.000000     0.000000    -0.000000     0.000000     0.000000     0.000000
   12    -1.000000   180.000000     0.707107     0.000000     0.707107     0.000000     0.000000     0.000000
   13     1.000000   120.000000     0.577350    -0.577350     0.577350     0.000000     0.000000     0.000000
   14     1.000000   120.000000    -0.577350    -0.577350     0.577350     0.000000     0.000000     0.000000
   15     1.000000   180.000000     1.000000     0.000000     0.000000     0.000000     0.000000     0.000000
   16    -1.000000    90.000000     0.000000    -1.000000     0.000000     0.000000     0.000000     0.000000
   17    -1.000000   180.000000     0.707107     0.707107    -0.000000     0.000000     0.000000     0.000000
   18    -1.000000    90.000000     1.000000     0.000000     0.000000     0.000000     0.000000     0.000000
   19     1.000000   120.000000     0.577350    -0.577350    -0.577350     0.000000     0.000000     0.000000
   20     1.000000   179.999999     0.000000    -1.000000    -0.000000     0.000000     0.000000     0.000000
   21     1.000000   120.000000     0.577350     0.577350    -0.577350     0.000000     0.000000     0.000000
   22    -1.000000   180.000000    -0.000000    -0.707107     0.707107     0.000000     0.000000     0.000000
   23    -1.000000   180.000000     0.707107    -0.707107    -0.000000     0.000000     0.000000     0.000000
   24    -1.000000   180.000000    -0.707107     0.000000     0.707107     0.000000     0.000000     0.000000

 Subroutine IBZKPT returns following result:
 ===========================================

 Found     84 irreducible k-points:

 Following reciprocal coordinates:
            Coordinates               Weight
  0.000000  0.000000  0.000000      1.000000
  0.076923 -0.000000  0.000000      8.000000
  0.153846  0.000000  0.000000      8.000000
  0.230769 -0.000000  0.000000      8.000000
  0.307692  0.000000  0.000000      8.000000
  0.384615  0.000000 -0.000000      8.000000
  0.461538 -0.000000  0.000000      8.000000
  0.076923  0.076923 -0.000000      6.000000
  0.153846  0.076923  0.000000     24.000000
  0.230769  0.076923 -0.000000     24.000000
  0.307692  0.076923  0.000000     24.000000
  0.384615  0.076923  0.000000     24.000000
  0.461538  0.076923  0.000000     24.000000
 -0.461538  0.076923  0.000000     24.000000
 -0.384615  0.076923 -0.000000     24.000000
 -0.307692  0.076923  0.000000     24.000000
 -0.230769  0.076923  0.000000     24.000000
 -0.153846  0.076923 -0.000000     24.000000
 -0.076923  0.076923 -0.000000     12.000000
  0.153846  0.153846 -0.000000      6.000000
  0.230769  0.153846 -0.000000     24.000000
  0.307692  0.153846 -0.000000     24.000000
  0.384615  0.153846  0.000000     24.000000
  0.461538  0.153846  0.000000     24.000000
 -0.461538  0.153846 -0.000000     24.000000
 -0.384615  0.153846  0.000000     24.000000
 -0.307692  0.153846  0.000000     24.000000
 -0.230769  0.153846  0.000000     24.000000
 -0.153846  0.153846 -0.000000     12.000000
  0.230769  0.230769 -0.000000      6.000000
  0.307692  0.230769 -0.000000     24.000000
  0.384615  0.230769  0.000000     24.000000
  0.461538  0.230769 -0.000000     24.000000
 -0.461538  0.230769 -0.000000     24.000000
 -0.384615  0.230769  0.000000     24.000000
 -0.307692  0.230769  0.000000     24.000000
 -0.230769  0.230769 -0.000000     12.000000
  0.307692  0.307692 -0.000000      6.000000
  0.384615  0.307692 -0.000000     24.000000
  0.461538  0.307692 -0.000000     24.000000
 -0.461538  0.307692 -0.000000     24.000000
 -0.384615  0.307692 -0.000000     24.000000
 -0.307692  0.307692 -0.000000     12.000000
  0.384615  0.384615 -0.000000      6.000000
  0.461538  0.384615 -0.000000     24.000000
 -0.461538  0.384615 -0.000000     24.000000
 -0.384615  0.384615  0.000000     12.000000
  0.461538  0.461538 -0.000000      6.000000
 -0.461538  0.461538  0.000000     12.000000
  0.230769  0.153846  0.076923     24.000000
  0.307692  0.153846  0.076923     48.000000
  0.384615  0.153846  0.076923     48.000000
  0.461538  0.153846  0.076923     48.000000
 -0.461538  0.153846  0.076923     48.000000
  0.307692  0.230769  0.076923     24.000000
  0.384615  0.230769  0.076923     48.000000
  0.461538  0.230769  0.076923     48.000000
 -0.461538  0.230769  0.076923     48.000000
 -0.384615  0.230769  0.076923     48.000000
 -0.307692  0.230769  0.076923     48.000000
 -0.230769  0.230769  0.076923     48.000000
 -0.153846  0.230769  0.076923     24.000000
  0.384615  0.307692  0.076923     24.000000
  0.461538  0.307692  0.076923     48.000000
 -0.461538  0.307692  0.076923     48.000000
 -0.384615  0.307692  0.076923     48.000000
 -0.307692  0.307692  0.076923     48.000000
 -0.230769  0.307692  0.076923     24.000000
  0.461538  0.384615  0.076923     24.000000
 -0.461538  0.384615  0.076923     48.000000
 -0.384615  0.384615  0.076923     48.000000
 -0.307692  0.384615  0.076923     24.000000
 -0.461538  0.461538  0.076923     24.000000
 -0.384615  0.461538  0.076923     24.000000
  0.461538  0.307692  0.153846     24.000000
 -0.461538  0.307692  0.153846     48.000000
 -0.384615  0.307692  0.153846     48.000000
 -0.461538  0.384615  0.153846     24.000000
 -0.384615  0.384615  0.153846     48.000000
 -0.307692  0.384615  0.153846     48.000000
 -0.230769  0.384615  0.153846     24.000000
 -0.384615  0.461538  0.153846     24.000000
 -0.307692  0.461538  0.153846     24.000000
 -0.307692  0.461538  0.230769     24.000000

 Following cartesian coordinates:
            Coordinates               Weight
  0.000000  0.000000  0.000000      1.000000
 -0.011593  0.011593  0.011593      8.000000
 -0.023186  0.023186  0.023186      8.000000
 -0.034779  0.034779  0.034779      8.000000
 -0.046372  0.046372  0.046372      8.000000
 -0.057965  0.057965  0.057965      8.000000
 -0.069558  0.069558  0.069558      8.000000
 -0.000000  0.000000  0.023186      6.000000
 -0.011593  0.011593  0.034779     24.000000
 -0.023186  0.023186  0.046372     24.000000
 -0.034779  0.034779  0.057965     24.000000
 -0.046372  0.046372  0.069558     24.000000
 -0.057965  0.057965  0.081151     24.000000
  0.081151 -0.081151 -0.057965     24.000000
  0.069558 -0.069558 -0.046372     24.000000
  0.057965 -0.057965 -0.034779     24.000000
  0.046372 -0.046372 -0.023186     24.000000
  0.034779 -0.034779 -0.011593     24.000000
  0.023186 -0.023186 -0.000000     12.000000
 -0.000000 -0.000000  0.046372      6.000000
 -0.011593  0.011593  0.057965     24.000000
 -0.023186  0.023186  0.069558     24.000000
 -0.034779  0.034779  0.081151     24.000000
 -0.046372  0.046372  0.092744     24.000000
  0.092744 -0.092744 -0.046372     24.000000
  0.081151 -0.081151 -0.034779     24.000000
  0.069558 -0.069558 -0.023186     24.000000
  0.057965 -0.057965 -0.011593     24.000000
  0.046372 -0.046372  0.000000     12.000000
 -0.000000  0.000000  0.069558      6.000000
 -0.011593  0.011593  0.081151     24.000000
 -0.023186  0.023186  0.092744     24.000000
 -0.034779  0.034779  0.104337     24.000000
  0.104337 -0.104337 -0.034779     24.000000
  0.092744 -0.092744 -0.023186     24.000000
  0.081151 -0.081151 -0.011593     24.000000
  0.069558 -0.069558  0.000000     12.000000
 -0.000000 -0.000000  0.092744      6.000000
 -0.011593  0.011593  0.104337     24.000000
 -0.023186  0.023186  0.115930     24.000000
  0.115930 -0.115930 -0.023186     24.000000
  0.104337 -0.104337 -0.011593     24.000000
  0.092744 -0.092744  0.000000     12.000000
 -0.000000  0.000000  0.115930      6.000000
 -0.011593  0.011593  0.127523     24.000000
  0.127523 -0.127523 -0.011593     24.000000
  0.115930 -0.115930 -0.000000     12.000000
 -0.000000  0.000000  0.139116      6.000000
  0.139116 -0.139116 -0.000000     12.000000
  0.000000  0.023186  0.046372     24.000000
 -0.011593  0.034779  0.057965     48.000000
 -0.023186  0.046372  0.069558     48.000000
 -0.034779  0.057965  0.081151     48.000000
  0.104337 -0.081151 -0.057965     48.000000
  0.000000  0.023186  0.069558     24.000000
 -0.011593  0.034779  0.081151     48.000000
 -0.023186  0.046372  0.092744     48.000000
  0.115930 -0.092744 -0.046372     48.000000
  0.104337 -0.081151 -0.034779     48.000000
  0.092744 -0.069558 -0.023186     48.000000
  0.081151 -0.057965 -0.011593     48.000000
  0.069558 -0.046372  0.000000     24.000000
  0.000000  0.023186  0.092744     24.000000
 -0.011593  0.034779  0.104337     48.000000
  0.127523 -0.104337 -0.034779     48.000000
  0.115930 -0.092744 -0.023186     48.000000
  0.104337 -0.081151 -0.011593     48.000000
  0.092744 -0.069558 -0.000000     24.000000
  0.000000  0.023186  0.115930     24.000000
  0.139116 -0.115930 -0.023186     48.000000
  0.127523 -0.104337 -0.011593     48.000000
  0.115930 -0.092744 -0.000000     24.000000
  0.150709 -0.127523 -0.011593     24.000000
  0.139116 -0.115930 -0.000000     24.000000
 -0.000000  0.046372  0.092744     24.000000
  0.139116 -0.092744 -0.046372     48.000000
  0.127523 -0.081151 -0.034779     48.000000
  0.150709 -0.104337 -0.034779     24.000000
  0.139116 -0.092744 -0.023186     48.000000
  0.127523 -0.081151 -0.011593     48.000000
  0.115930 -0.069558  0.000000     24.000000
  0.150709 -0.104337 -0.011593     24.000000
  0.139116 -0.092744 -0.000000     24.000000
  0.150709 -0.081151 -0.011593     24.000000



--------------------------------------------------------------------------------------------------------




 Dimension of arrays:
   k-points           NKPTS =     84   k-points in BZ     NKDIM =     84   number of bands    NBANDS=     24
   number of dos      NEDOS =    301   number of ions     NIONS =      3
   non local maximal  LDIM  =      8   non local SUM 2l+1 LMDIM =     32
   total plane-waves  NPLWV =  74088
   max r-space proj   IRMAX =      1   max aug-charges    IRDMAX= 467111
   dimension x,y,z NGX =    42 NGY =   42 NGZ =   42
   dimension x,y,z NGXF=    84 NGYF=   84 NGZF=   84
   support grid    NGXF=   168 NGYF=  168 NGZF=  168
   ions per type =               1   1   1
   NGX,Y,Z   is equivalent  to a cutoff of  14.60, 14.60, 14.60 a.u.
   NGXF,Y,Z  is equivalent  to a cutoff of  29.19, 29.19, 29.19 a.u.

 SYSTEM =  unknown system
 POSCAR =  U1 Bi1 Pt1

 Startparameter for this run:
   NWRITE =      2    write-flag & timer
   PREC   = acc       normal or accurate (medium, high low for compatibility)
   ISTART =      0    job   : 0-new  1-cont  2-samecut
   ICHARG =      2    charge: 1-file 2-atom 10-const
   ISPIN  =      1    spin polarized calculation?
   LNONCOLLINEAR =      F non collinear calculations
   LSORBIT =      F    spin-orbit coupling
   INIWAV =      1    electr: 0-lowe 1-rand  2-diag
   LASPH  =      F    aspherical Exc in radial PAW
   METAGGA=      F    non-selfconsistent MetaGGA calc.

 Electronic Relaxation 1
   ENCUT  =  700.0 eV  51.45 Ry    7.17 a.u.  10.32 10.32 10.32*2*pi/ulx,y,z
   ENINI  =  700.0     initial cutoff
   ENAUG  =  526.4 eV  augmentation charge cutoff
   NELM   =     60;   NELMIN=  5; NELMDL= -5     # of ELM steps
   EDIFF  = 0.1E-06   stopping-criterion for ELM
   LREAL  =      F    real-space projection
   NLSPLINE    = F    spline interpolate recip. space projectors
   LCOMPAT=      F    compatible to vasp.4.4
   GGA_COMPAT  = T    GGA compatible to vasp.4.4-vasp.4.6
   LMAXPAW     = -100 max onsite density
   LMAXMIX     =    2 max onsite mixed and CHGCAR
   VOSKOWN=      0    Vosko Wilk Nusair interpolation
   ROPT   =    0.00000   0.00000   0.00000
 Ionic relaxation
   EDIFFG = 0.1E-05   stopping-criterion for IOM
   NSW    =      0    number of steps for IOM
   NBLOCK =      1;   KBLOCK =      1    inner block; outer block
   IBRION =     -1    ionic relax: 0-MD 1-quasi-New 2-CG
   NFREE  =      0    steps in history (QN), initial steepest desc. (CG)
   ISIF   =      3    stress and relaxation
   IWAVPR =     10    prediction:  0-non 1-charg 2-wave 3-comb
   ISYM   =      2    0-nonsym 1-usesym 2-fastsym
   LCORR  =      T    Harris-Foulkes like correction to forces

   POTIM  = 0.5000    time-step for ionic-motion
   TEIN   =    0.0    initial temperature
   TEBEG  =    0.0;   TEEND  =   0.0 temperature during run
   SMASS  =  -3.00    Nose mass-parameter (am)
   estimated Nose-frequenzy (Omega)   =  0.10E-29 period in steps = 0.13E+47 mass=  -0.523E-27a.u.
   SCALEE = 1.0000    scale energy and forces
   NPACO  =    256;   APACO  = 16.0  distance and # of slots for P.C.
   PSTRESS=    0.0 pullay stress

  Mass of Ions in am
   POMASS = 238.03208.98195.08
  Ionic Valenz
   ZVAL   =  14.00 15.00 10.00
  Atomic Wigner-Seitz radii
   RWIGS  =  -1.00 -1.00 -1.00
  virtual crystal weights
   VCA    =   1.00  1.00  1.00
   NELECT =      39.0000    total number of electrons
   NUPDOWN=      -1.0000    fix difference up-down

 DOS related values:
   EMIN   =  10.00;   EMAX   =-10.00  energy-range for DOS
   EFERMI =   0.00
   ISMEAR =     0;   SIGMA  =   0.01  broadening in eV -4-tet -1-fermi 0-gaus

 Electronic relaxation 2 (details)
   IALGO  =     38    algorithm
   LDIAG  =      T    sub-space diagonalisation (order eigenvalues)
   LSUBROT=      F    optimize rotation matrix (better conditioning)
   TURBO    =      0    0=normal 1=particle mesh
   IRESTART =      0    0=no restart 2=restart with 2 vectors
   NREBOOT  =      0    no. of reboots
   NMIN     =      0    reboot dimension
   EREF     =   0.00    reference energy to select bands
   IMIX   =      4    mixing-type and parameters
     AMIX     =   0.40;   BMIX     =  1.00
     AMIX_MAG =   1.60;   BMIX_MAG =  1.00
     AMIN     =   0.10
     WC   =   100.;   INIMIX=   1;  MIXPRE=   1;  MAXMIX= -45

 Intra band minimization:
   WEIMIN = 0.0000     energy-eigenvalue tresh-hold
   EBREAK =  0.10E-08  absolut break condition
   DEPER  =   0.30     relativ break condition

   TIME   =   0.40     timestep for ELM

  volume/ion in A,a.u.               =      25.80       174.14
  Fermi-wavevector in a.u.,A,eV,Ry     =   1.302632  2.461617 23.087042  1.696850
  Thomas-Fermi vector in A             =   2.433687

 Write flags
   LWAVE        =      F    write WAVECAR
   LDOWNSAMPLE  =      F    k-point downsampling of WAVECAR
   LCHARG       =      F    write CHGCAR
   LVTOT        =      F    write LOCPOT, total local potential
   LVHAR        =      F    write LOCPOT, Hartree potential only
   LELF         =      F    write electronic localiz. function (ELF)
   LORBIT       =      0    0 simple, 1 ext, 2 COOP (PROOUT), +10 PAW based schemes


 Dipole corrections
   LMONO  =      F    monopole corrections only (constant potential shift)
   LDIPOL =      F    correct potential (dipole corrections)
   IDIPOL =      0    1-x, 2-y, 3-z, 4-all directions
   EPSILON=  1.0000000 bulk dielectric constant

 Exchange correlation treatment:
   GGA     =    PS    GGA type
   LEXCH   =    14    internal setting for exchange type
   VOSKOWN=      0    Vosko Wilk Nusair interpolation
   LHFCALC =     F    Hartree Fock is set to
   LHFONE  =     F    Hartree Fock one center treatment
   AEXX    =    0.0000 exact exchange contribution

 Linear response parameters
   LEPSILON=     F    determine dielectric tensor
   LRPA    =     F    only Hartree local field effects (RPA)
   LNABLA  =     F    use nabla operator in PAW spheres
   LVEL    =     F    velocity operator in full k-point grid
   LINTERFAST=   F  fast interpolation
   KINTER  =     0    interpolate to denser k-point grid
   CSHIFT  =0.1000    complex shift for real part using Kramers Kronig
   OMEGAMAX=  -1.0    maximum frequency
   DEG_THRESHOLD= 0.2000000E-02 threshold for treating states as degnerate
   RTIME   =   -0.100 relaxation time in fs
  (WPLASMAI=    0.000 imaginary part of plasma frequency in eV, 0.658/RTIME)
   DFIELD  = 0.0000000 0.0000000 0.0000000 field for delta impulse in time

 Orbital magnetization related:
   ORBITALMAG=     F  switch on orbital magnetization
   LCHIMAG   =     F  perturbation theory with respect to B field
   DQ        =  0.001000  dq finite difference perturbation B field
   LLRAUG    =     F  two centre corrections for induced B field



--------------------------------------------------------------------------------------------------------


 Static calculation
 charge density and potential will be updated during run
 non-spin polarized calculation
 Variant of blocked Davidson
 Davidson routine will perform the subspace rotation
 perform sub-space diagonalisation
    after iterative eigenvector-optimisation
 modified Broyden-mixing scheme, WC =      100.0
 initial mixing is a Kerker type mixing with AMIX =  0.4000 and BMIX =      1.0000
 Hartree-type preconditioning will be used
 using additional bands            4
 reciprocal scheme for non local part
 use partial core corrections
 calculate Harris-corrections to forces
   (improved forces if not selfconsistent)
 use gradient corrections
 use of overlap-Matrix (Vanderbilt PP)
 Gauss-broadening in eV      SIGMA  =   0.01


--------------------------------------------------------------------------------------------------------


  energy-cutoff  :      700.00
  volume of cell :       77.41
      direct lattice vectors                 reciprocal lattice vectors
     0.000000000  3.382709304  3.382709304    -0.147810514  0.147810514  0.147810514
     3.382709304  0.000000000  3.382709304     0.147810514 -0.147810514  0.147810514
     3.382709304  3.382709304  0.000000000     0.147810514  0.147810514 -0.147810514

  length of vectors
     4.783873375  4.783873375  4.783873375     0.256015320  0.256015320  0.256015320



 k-points in units of 2pi/SCALE and weight: KPOINTS
   0.00000000  0.00000000  0.00000000       0.000
  -0.01159304  0.01159304  0.01159304       0.004
  -0.02318608  0.02318608  0.02318608       0.004
  -0.03477911  0.03477911  0.03477911       0.004
  -0.04637215  0.04637215  0.04637215       0.004
  -0.05796519  0.05796519  0.05796519       0.004
  -0.06955823  0.06955823  0.06955823       0.004
  -0.00000000  0.00000000  0.02318608       0.003
  -0.01159304  0.01159304  0.03477911       0.011
  -0.02318608  0.02318608  0.04637215       0.011
  -0.03477911  0.03477911  0.05796519       0.011
  -0.04637215  0.04637215  0.06955823       0.011
  -0.05796519  0.05796519  0.08115127       0.011
   0.08115127 -0.08115127 -0.05796519       0.011
   0.06955823 -0.06955823 -0.04637215       0.011
   0.05796519 -0.05796519 -0.03477911       0.011
   0.04637215 -0.04637215 -0.02318608       0.011
   0.03477911 -0.03477911 -0.01159304       0.011
   0.02318608 -0.02318608 -0.00000000       0.005
  -0.00000000 -0.00000000  0.04637215       0.003
  -0.01159304  0.01159304  0.05796519       0.011
  -0.02318608  0.02318608  0.06955823       0.011
  -0.03477911  0.03477911  0.08115127       0.011
  -0.04637215  0.04637215  0.09274430       0.011
   0.09274430 -0.09274430 -0.04637215       0.011
   0.08115127 -0.08115127 -0.03477911       0.011
   0.06955823 -0.06955823 -0.02318608       0.011
   0.05796519 -0.05796519 -0.01159304       0.011
   0.04637215 -0.04637215  0.00000000       0.005
  -0.00000000  0.00000000  0.06955823       0.003
  -0.01159304  0.01159304  0.08115127       0.011
  -0.02318608  0.02318608  0.09274430       0.011
  -0.03477911  0.03477911  0.10433734       0.011
   0.10433734 -0.10433734 -0.03477911       0.011
   0.09274430 -0.09274430 -0.02318608       0.011
   0.08115127 -0.08115127 -0.01159304       0.011
   0.06955823 -0.06955823  0.00000000       0.005
  -0.00000000 -0.00000000  0.09274430       0.003
  -0.01159304  0.01159304  0.10433734       0.011
  -0.02318608  0.02318608  0.11593038       0.011
   0.11593038 -0.11593038 -0.02318608       0.011
   0.10433734 -0.10433734 -0.01159304       0.011
   0.09274430 -0.09274430  0.00000000       0.005
  -0.00000000  0.00000000  0.11593038       0.003
  -0.01159304  0.01159304  0.12752342       0.011
   0.12752342 -0.12752342 -0.01159304       0.011
   0.11593038 -0.11593038 -0.00000000       0.005
  -0.00000000  0.00000000  0.13911646       0.003
   0.13911646 -0.13911646 -0.00000000       0.005
   0.00000000  0.02318608  0.04637215       0.011
  -0.01159304  0.03477911  0.05796519       0.022
  -0.02318608  0.04637215  0.06955823       0.022
  -0.03477911  0.05796519  0.08115127       0.022
   0.10433734 -0.08115127 -0.05796519       0.022
   0.00000000  0.02318608  0.06955823       0.011
  -0.01159304  0.03477911  0.08115127       0.022
  -0.02318608  0.04637215  0.09274430       0.022
   0.11593038 -0.09274430 -0.04637215       0.022
   0.10433734 -0.08115127 -0.03477911       0.022
   0.09274430 -0.06955823 -0.02318608       0.022
   0.08115127 -0.05796519 -0.01159304       0.022
   0.06955823 -0.04637215  0.00000000       0.011
   0.00000000  0.02318608  0.09274430       0.011
  -0.01159304  0.03477911  0.10433734       0.022
   0.12752342 -0.10433734 -0.03477911       0.022
   0.11593038 -0.09274430 -0.02318608       0.022
   0.10433734 -0.08115127 -0.01159304       0.022
   0.09274430 -0.06955823 -0.00000000       0.011
   0.00000000  0.02318608  0.11593038       0.011
   0.13911646 -0.11593038 -0.02318608       0.022
   0.12752342 -0.10433734 -0.01159304       0.022
   0.11593038 -0.09274430 -0.00000000       0.011
   0.15070950 -0.12752342 -0.01159304       0.011
   0.13911646 -0.11593038 -0.00000000       0.011
  -0.00000000  0.04637215  0.09274430       0.011
   0.13911646 -0.09274430 -0.04637215       0.022
   0.12752342 -0.08115127 -0.03477911       0.022
   0.15070950 -0.10433734 -0.03477911       0.011
   0.13911646 -0.09274430 -0.02318608       0.022
   0.12752342 -0.08115127 -0.01159304       0.022
   0.11593038 -0.06955823  0.00000000       0.011
   0.15070950 -0.10433734 -0.01159304       0.011
   0.13911646 -0.09274430 -0.00000000       0.011
   0.15070950 -0.08115127 -0.01159304       0.011

 k-points in reciprocal lattice and weights: KPOINTS
   0.00000000  0.00000000  0.00000000       0.000
   0.07692308 -0.00000000  0.00000000       0.004
   0.15384615  0.00000000  0.00000000       0.004
   0.23076923 -0.00000000  0.00000000       0.004
   0.30769231  0.00000000  0.00000000       0.004
   0.38461538  0.00000000 -0.00000000       0.004
   0.46153846 -0.00000000  0.00000000       0.004
   0.07692308  0.07692308 -0.00000000       0.003
   0.15384615  0.07692308  0.00000000       0.011
   0.23076923  0.07692308 -0.00000000       0.011
   0.30769231  0.07692308  0.00000000       0.011
   0.38461538  0.07692308  0.00000000       0.011
   0.46153846  0.07692308  0.00000000       0.011
  -0.46153846  0.07692308  0.00000000       0.011
  -0.38461538  0.07692308 -0.00000000       0.011
  -0.30769231  0.07692308  0.00000000       0.011
  -0.23076923  0.07692308  0.00000000       0.011
  -0.15384615  0.07692308 -0.00000000       0.011
  -0.07692308  0.07692308 -0.00000000       0.005
   0.15384615  0.15384615 -0.00000000       0.003
   0.23076923  0.15384615 -0.00000000       0.011
   0.30769231  0.15384615 -0.00000000       0.011
   0.38461538  0.15384615  0.00000000       0.011
   0.46153846  0.15384615  0.00000000       0.011
  -0.46153846  0.15384615 -0.00000000       0.011
  -0.38461538  0.15384615  0.00000000       0.011
  -0.30769231  0.15384615  0.00000000       0.011
  -0.23076923  0.15384615  0.00000000       0.011
  -0.15384615  0.15384615 -0.00000000       0.005
   0.23076923  0.23076923 -0.00000000       0.003
   0.30769231  0.23076923 -0.00000000       0.011
   0.38461538  0.23076923  0.00000000       0.011
   0.46153846  0.23076923 -0.00000000       0.011
  -0.46153846  0.23076923 -0.00000000       0.011
  -0.38461538  0.23076923  0.00000000       0.011
  -0.30769231  0.23076923  0.00000000       0.011
  -0.23076923  0.23076923 -0.00000000       0.005
   0.30769231  0.30769231 -0.00000000       0.003
   0.38461538  0.30769231 -0.00000000       0.011
   0.46153846  0.30769231 -0.00000000       0.011
  -0.46153846  0.30769231 -0.00000000       0.011
  -0.38461538  0.30769231 -0.00000000       0.011
  -0.30769231  0.30769231 -0.00000000       0.005
   0.38461538  0.38461538 -0.00000000       0.003
   0.46153846  0.38461538 -0.00000000       0.011
  -0.46153846  0.38461538 -0.00000000       0.011
  -0.38461538  0.38461538  0.00000000       0.005
   0.46153846  0.46153846 -0.00000000       0.003
  -0.46153846  0.46153846  0.00000000       0.005
   0.23076923  0.15384615  0.07692308       0.011
   0.30769231  0.15384615  0.07692308       0.022
   0.38461538  0.15384615  0.07692308       0.022
   0.46153846  0.15384615  0.07692308       0.022
  -0.46153846  0.15384615  0.07692308       0.022
   0.30769231  0.23076923  0.07692308       0.011
   0.38461538  0.23076923  0.07692308       0.022
   0.46153846  0.23076923  0.07692308       0.022
  -0.46153846  0.23076923  0.07692308       0.022
  -0.38461538  0.23076923  0.07692308       0.022
  -0.30769231  0.23076923  0.07692308       0.022
  -0.23076923  0.23076923  0.07692308       0.022
  -0.15384615  0.23076923  0.07692308       0.011
   0.38461538  0.30769231  0.07692308       0.011
   0.46153846  0.30769231  0.07692308       0.022
  -0.46153846  0.30769231  0.07692308       0.022
  -0.38461538  0.30769231  0.07692308       0.022
  -0.30769231  0.30769231  0.07692308       0.022
  -0.23076923  0.30769231  0.07692308       0.011
   0.46153846  0.38461538  0.07692308       0.011
  -0.46153846  0.38461538  0.07692308       0.022
  -0.38461538  0.38461538  0.07692308       0.022
  -0.30769231  0.38461538  0.07692308       0.011
  -0.46153846  0.46153846  0.07692308       0.011
  -0.38461538  0.46153846  0.07692308       0.011
   0.46153846  0.30769231  0.15384615       0.011
  -0.46153846  0.30769231  0.15384615       0.022
  -0.38461538  0.30769231  0.15384615       0.022
  -0.46153846  0.38461538  0.15384615       0.011
  -0.38461538  0.38461538  0.15384615       0.022
  -0.30769231  0.38461538  0.15384615       0.022
  -0.23076923  0.38461538  0.15384615       0.011
  -0.38461538  0.46153846  0.15384615       0.011
  -0.30769231  0.46153846  0.15384615       0.011
  -0.30769231  0.46153846  0.23076923       0.011

 position of ions in fractional coordinates (direct lattice)
   0.25000000  0.25000000  0.25000000
   0.75000000  0.75000000  0.75000000
   0.00000000  0.00000000  0.00000000

 position of ions in cartesian coordinates  (Angst):
   1.69135465  1.69135465  1.69135465
   5.07406396  5.07406396  5.07406396
   0.00000000  0.00000000  0.00000000



--------------------------------------------------------------------------------------------------------


 k-point  1 :   0.0000 0.0000 0.0000  plane waves:    3287
 k-point  2 :   0.0769-0.0000 0.0000  plane waves:    3260
 k-point  3 :   0.1538 0.0000 0.0000  plane waves:    3272
 k-point  4 :   0.2308-0.0000 0.0000  plane waves:    3269
 k-point  5 :   0.3077 0.0000 0.0000  plane waves:    3266
 k-point  6 :   0.3846 0.0000-0.0000  plane waves:    3254
 k-point  7 :   0.4615-0.0000 0.0000  plane waves:    3250
 k-point  8 :   0.0769 0.0769-0.0000  plane waves:    3255
 k-point  9 :   0.1538 0.0769 0.0000  plane waves:    3259
 k-point 10 :   0.2308 0.0769-0.0000  plane waves:    3269
 k-point 11 :   0.3077 0.0769 0.0000  plane waves:    3262
 k-point 12 :   0.3846 0.0769 0.0000  plane waves:    3268
 k-point 13 :   0.4615 0.0769 0.0000  plane waves:    3253
 k-point 14 :  -0.4615 0.0769 0.0000  plane waves:    3246
 k-point 15 :  -0.3846 0.0769-0.0000  plane waves:    3249
 k-point 16 :  -0.3077 0.0769 0.0000  plane waves:    3256
 k-point 17 :  -0.2308 0.0769 0.0000  plane waves:    3261
 k-point 18 :  -0.1538 0.0769-0.0000  plane waves:    3271
 k-point 19 :  -0.0769 0.0769-0.0000  plane waves:    3259
 k-point 20 :   0.1538 0.1538-0.0000  plane waves:    3263
 k-point 21 :   0.2308 0.1538-0.0000  plane waves:    3254
 k-point 22 :   0.3077 0.1538-0.0000  plane waves:    3266
 k-point 23 :   0.3846 0.1538 0.0000  plane waves:    3262
 k-point 24 :   0.4615 0.1538 0.0000  plane waves:    3267
 k-point 25 :  -0.4615 0.1538-0.0000  plane waves:    3247
 k-point 26 :  -0.3846 0.1538 0.0000  plane waves:    3249
 k-point 27 :  -0.3077 0.1538 0.0000  plane waves:    3256
 k-point 28 :  -0.2308 0.1538 0.0000  plane waves:    3261
 k-point 29 :  -0.1538 0.1538-0.0000  plane waves:    3263
 k-point 30 :   0.2308 0.2308-0.0000  plane waves:    3251
 k-point 31 :   0.3077 0.2308-0.0000  plane waves:    3255
 k-point 32 :   0.3846 0.2308 0.0000  plane waves:    3250
 k-point 33 :   0.4615 0.2308-0.0000  plane waves:    3255
 k-point 34 :  -0.4615 0.2308-0.0000  plane waves:    3246
 k-point 35 :  -0.3846 0.2308 0.0000  plane waves:    3241
 k-point 36 :  -0.3077 0.2308 0.0000  plane waves:    3254
 k-point 37 :  -0.2308 0.2308-0.0000  plane waves:    3262
 k-point 38 :   0.3077 0.3077-0.0000  plane waves:    3266
 k-point 39 :   0.3846 0.3077-0.0000  plane waves:    3268
 k-point 40 :   0.4615 0.3077-0.0000  plane waves:    3253
 k-point 41 :  -0.4615 0.3077-0.0000  plane waves:    3252
 k-point 42 :  -0.3846 0.3077-0.0000  plane waves:    3235
 k-point 43 :  -0.3077 0.3077-0.0000  plane waves:    3238
 k-point 44 :   0.3846 0.3846-0.0000  plane waves:    3274
 k-point 45 :   0.4615 0.3846-0.0000  plane waves:    3264
 k-point 46 :  -0.4615 0.3846-0.0000  plane waves:    3262
 k-point 47 :  -0.3846 0.3846 0.0000  plane waves:    3258
 k-point 48 :   0.4615 0.4615-0.0000  plane waves:    3270
 k-point 49 :  -0.4615 0.4615 0.0000  plane waves:    3274
 k-point 50 :   0.2308 0.1538 0.0769  plane waves:    3258
 k-point 51 :   0.3077 0.1538 0.0769  plane waves:    3266
 k-point 52 :   0.3846 0.1538 0.0769  plane waves:    3267
 k-point 53 :   0.4615 0.1538 0.0769  plane waves:    3266
 k-point 54 :  -0.4615 0.1538 0.0769  plane waves:    3250
 k-point 55 :   0.3077 0.2308 0.0769  plane waves:    3252
 k-point 56 :   0.3846 0.2308 0.0769  plane waves:    3255
 k-point 57 :   0.4615 0.2308 0.0769  plane waves:    3255
 k-point 58 :  -0.4615 0.2308 0.0769  plane waves:    3250
 k-point 59 :  -0.3846 0.2308 0.0769  plane waves:    3250
 k-point 60 :  -0.3077 0.2308 0.0769  plane waves:    3246
 k-point 61 :  -0.2308 0.2308 0.0769  plane waves:    3255
 k-point 62 :  -0.1538 0.2308 0.0769  plane waves:    3258
 k-point 63 :   0.3846 0.3077 0.0769  plane waves:    3265
 k-point 64 :   0.4615 0.3077 0.0769  plane waves:    3252
 k-point 65 :  -0.4615 0.3077 0.0769  plane waves:    3253
 k-point 66 :  -0.3846 0.3077 0.0769  plane waves:    3243
 k-point 67 :  -0.3077 0.3077 0.0769  plane waves:    3242
 k-point 68 :  -0.2308 0.3077 0.0769  plane waves:    3251
 k-point 69 :   0.4615 0.3846 0.0769  plane waves:    3259
 k-point 70 :  -0.4615 0.3846 0.0769  plane waves:    3250
 k-point 71 :  -0.3846 0.3846 0.0769  plane waves:    3249
 k-point 72 :  -0.3077 0.3846 0.0769  plane waves:    3251
 k-point 73 :  -0.4615 0.4615 0.0769  plane waves:    3270
 k-point 74 :  -0.3846 0.4615 0.0769  plane waves:    3260
 k-point 75 :   0.4615 0.3077 0.1538  plane waves:    3253
 k-point 76 :  -0.4615 0.3077 0.1538  plane waves:    3255
 k-point 77 :  -0.3846 0.3077 0.1538  plane waves:    3253
 k-point 78 :  -0.4615 0.3846 0.1538  plane waves:    3250
 k-point 79 :  -0.3846 0.3846 0.1538  plane waves:    3255
 k-point 80 :  -0.3077 0.3846 0.1538  plane waves:    3250
 k-point 81 :  -0.2308 0.3846 0.1538  plane waves:    3251
 k-point 82 :  -0.3846 0.4615 0.1538  plane waves:    3253
 k-point 83 :  -0.3077 0.4615 0.1538  plane waves:    3245
 k-point 84 :  -0.3077 0.4615 0.2308  plane waves:    3250

 maximum and minimum number of plane-waves per node :       828      802

 maximum number of plane-waves:      3287
 maximum index in each direction:
   IXMAX=   10   IYMAX=   10   IZMAX=   10
   IXMIN=  -10   IYMIN=  -10   IZMIN=  -10


 parallel 3D FFT for wavefunctions:
    minimum data exchange during FFTs selected (reduces bandwidth)
 parallel 3D FFT for charge:
    minimum data exchange during FFTs selected (reduces bandwidth)


 total amount of memory used by VASP MPI-rank0   100262. kBytes
=======================================================================

   base      :      30000. kBytes
   nonl-proj :      53455. kBytes
   fftplans  :       6282. kBytes
   grid      :       3541. kBytes
   one-center:         49. kBytes
   wavefun   :       6935. kBytes

     INWAV:  cpu time    0.0003: real time    0.0965
 Broyden mixing: mesh for mixing (old mesh)
   NGX = 21   NGY = 21   NGZ = 21
  (NGX  = 84   NGY  = 84   NGZ  = 84)
  gives a total of   9261 points

 initial charge density was supplied:
 charge density of overlapping atoms calculated
 number of electron      39.0000000 magnetization
 keeping initial charge density in first step


--------------------------------------------------------------------------------------------------------


 Maximum index for augmentation-charges        31470 (set IRDMAX)


--------------------------------------------------------------------------------------------------------


 First call to EWALD:  gamma=   0.416
 Maximum number of real-space cells 3x 3x 3
 Maximum number of reciprocal cells 3x 3x 3

    FEWALD:  cpu time    0.0054: real time    0.0058


--------------------------------------- Iteration      1(   1)  ---------------------------------------


    POTLOK:  cpu time    0.0568: real time    0.1251
    SETDIJ:  cpu time    0.1083: real time    0.1089
     EDDAV:  cpu time    1.5179: real time    1.5803
       DOS:  cpu time    0.0039: real time    0.0044
    --------------------------------------------
      LOOP:  cpu time    1.6871: real time    1.8191

 eigenvalue-minimisations  :  4032
 total energy-change (2. order) : 0.4293027E+03  (-0.2233476E+04)
 number of electron      39.0000000 magnetization
 augmentation part       39.0000000 magnetization

 Free energy of the ion-electron system (eV)
  ---------------------------------------------------
  alpha Z        PSCENC =       203.12373693
  Ewald energy   TEWEN  =     -3524.18983400
  -Hartree energ DENC   =      -813.69275869
  -exchange      EXHF   =         0.00000000
  -V(xc)+E(xc)   XCENC  =        89.66055527
  PAW double counting   =      3513.29252893    -3436.88002192
  entropy T*S    EENTRO =        -0.00017811
  eigenvalues    EBANDS =       302.63657751
  atomic energy  EATOM  =      4095.35208632
  Solvation  Ediel_sol  =         0.00000000
  ---------------------------------------------------
  free energy    TOTEN  =       429.30269224 eV

  energy without entropy =      429.30287035  energy(sigma->0) =      429.30278129


--------------------------------------------------------------------------------------------------------




--------------------------------------- Iteration      1(   2)  ---------------------------------------


     EDDAV:  cpu time    1.7256: real time    1.7935
       DOS:  cpu time    0.0031: real time    0.0033
    --------------------------------------------
      LOOP:  cpu time    1.7287: real time    1.8001

 eigenvalue-minimisations  :  4600
 total energy-change (2. order) :-0.4013416E+03  (-0.3939079E+03)
 number of electron      39.0000000 magnetization
 augmentation part       39.0000000 magnetization

 Free energy of the ion-electron system (eV)
  ---------------------------------------------------
  alpha Z        PSCENC =       203.12373693
  Ewald energy   TEWEN  =     -3524.18983400
  -Hartree energ DENC   =      -813.69275869
  -exchange      EXHF   =         0.00000000
  -V(xc)+E(xc)   XCENC  =        89.66055527
  PAW double counting   =      3513.29252893    -3436.88002192
  entropy T*S    EENTRO =        -0.00040885
  eigenvalues    EBANDS =       -98.70478208
  atomic energy  EATOM  =      4095.35208632
  Solvation  Ediel_sol  =         0.00000000
  ---------------------------------------------------
  free energy    TOTEN  =        27.96110191 eV

  energy without entropy =       27.96151076  energy(sigma->0) =       27.96130633


--------------------------------------------------------------------------------------------------------




--------------------------------------- Iteration      1(   3)  ---------------------------------------


     EDDAV:  cpu time    1.8281: real time    1.8781
       DOS:  cpu time    0.0033: real time    0.0035
    --------------------------------------------
      LOOP:  cpu time    1.8313: real time    1.8820

 eigenvalue-minimisations  :  4984
 total energy-change (2. order) :-0.4844337E+02  (-0.4738713E+02)
 number of electron      39.0000000 magnetization
 augmentation part       39.0000000 magnetization

 Free energy of the ion-electron system (eV)
  ---------------------------------------------------
  alpha Z        PSCENC =       203.12373693
  Ewald energy   TEWEN  =     -3524.18983400
  -Hartree energ DENC   =      -813.69275869
  -exchange      EXHF   =         0.00000000
  -V(xc)+E(xc)   XCENC  =        89.66055527
  PAW double counting   =      3513.29252893    -3436.88002192
  entropy T*S    EENTRO =        -0.00116145
  eigenvalues    EBANDS =      -147.14739806
  atomic energy  EATOM  =      4095.35208632
  Solvation  Ediel_sol  =         0.00000000
  ---------------------------------------------------
  free energy    TOTEN  =       -20.48226667 eV

  energy without entropy =      -20.48110522  energy(sigma->0) =      -20.48168594


--------------------------------------------------------------------------------------------------------




--------------------------------------- Iteration      1(   4)  ---------------------------------------


     EDDAV:  cpu time    2.5337: real time    2.6091
       DOS:  cpu time    0.0032: real time    0.0042
    --------------------------------------------
      LOOP:  cpu time    2.5369: real time    2.6125

 eigenvalue-minimisations  :  7640
 total energy-change (2. order) :-0.5284588E+01  (-0.5257049E+01)
 number of electron      39.0000000 magnetization
 augmentation part       39.0000000 magnetization

 Free energy of the ion-electron system (eV)
  ---------------------------------------------------
  alpha Z        PSCENC =       203.12373693
  Ewald energy   TEWEN  =     -3524.18983400
  -Hartree energ DENC   =      -813.69275869
  -exchange      EXHF   =         0.00000000
  -V(xc)+E(xc)   XCENC  =        89.66055527
  PAW double counting   =      3513.29252893    -3436.88002192
  entropy T*S    EENTRO =        -0.00127906
  eigenvalues    EBANDS =      -152.43186819
  atomic energy  EATOM  =      4095.35208632
  Solvation  Ediel_sol  =         0.00000000
  ---------------------------------------------------
  free energy    TOTEN  =       -25.76685441 eV

  energy without entropy =      -25.76557535  energy(sigma->0) =      -25.76621488


--------------------------------------------------------------------------------------------------------




--------------------------------------- Iteration      1(   5)  ---------------------------------------


     EDDAV:  cpu time    1.9699: real time    2.0380
       DOS:  cpu time    0.0032: real time    0.0050
    CHARGE:  cpu time    0.3583: real time    0.3609
    MIXING:  cpu time    0.0050: real time    0.0053
    --------------------------------------------
      LOOP:  cpu time    2.3366: real time    2.4083

 eigenvalue-minimisations  :  5528
 total energy-change (2. order) :-0.1821325E+00  (-0.1818105E+00)
 number of electron      39.0000000 magnetization
 augmentation part        8.9521762 magnetization

 Broyden mixing:
  rms(total) = 0.14656E+01    rms(broyden)= 0.14656E+01
  rms(prec ) = 0.44388E+01
  weight for this iteration     100.00

 Free energy of the ion-electron system (eV)
  ---------------------------------------------------
  alpha Z        PSCENC =       203.12373693
  Ewald energy   TEWEN  =     -3524.18983400
  -Hartree energ DENC   =      -813.69275869
  -exchange      EXHF   =         0.00000000
  -V(xc)+E(xc)   XCENC  =        89.66055527
  PAW double counting   =      3513.29252893    -3436.88002192
  entropy T*S    EENTRO =        -0.00118287
  eigenvalues    EBANDS =      -152.61409683
  atomic energy  EATOM  =      4095.35208632
  Solvation  Ediel_sol  =         0.00000000
  ---------------------------------------------------
  free energy    TOTEN  =       -25.94898686 eV

  energy without entropy =      -25.94780399  energy(sigma->0) =      -25.94839542


--------------------------------------------------------------------------------------------------------




--------------------------------------- Iteration      1(   6)  ---------------------------------------


    POTLOK:  cpu time    0.0815: real time    0.1212
    SETDIJ:  cpu time    0.1081: real time    0.1084
     EDDAV:  cpu time    2.0463: real time    2.0465
       DOS:  cpu time    0.0030: real time    0.0033
    CHARGE:  cpu time    0.3166: real time    0.3168
    MIXING:  cpu time    0.0056: real time    0.0060
    --------------------------------------------
      LOOP:  cpu time    2.5611: real time    2.6035

 eigenvalue-minimisations  :  6048
 total energy-change (2. order) :-0.8603613E+01  (-0.2178398E+02)
 number of electron      39.0000000 magnetization
 augmentation part        7.0110891 magnetization

 Broyden mixing:
  rms(total) = 0.21993E+01    rms(broyden)= 0.21993E+01
  rms(prec ) = 0.61436E+01
  weight for this iteration     100.00

 eigenvalues of (default mixing * dielectric matrix)
  average eigenvalue GAMMA=   0.3609
  0.3609

 Free energy of the ion-electron system (eV)
  ---------------------------------------------------
  alpha Z        PSCENC =       203.12373693
  Ewald energy   TEWEN  =     -3524.18983400
  -Hartree energ DENC   =      -824.01987013
  -exchange      EXHF   =         0.00000000
  -V(xc)+E(xc)   XCENC  =        90.28506151
  PAW double counting   =      3775.51591738    -3698.83023956
  entropy T*S    EENTRO =        -0.00009333
  eigenvalues    EBANDS =      -151.78936501
  atomic energy  EATOM  =      4095.35208632
  Solvation  Ediel_sol  =         0.00000000
  ---------------------------------------------------
  free energy    TOTEN  =       -34.55259987 eV

  energy without entropy =      -34.55250655  energy(sigma->0) =      -34.55255321


--------------------------------------------------------------------------------------------------------




--------------------------------------- Iteration      1(   7)  ---------------------------------------


    POTLOK:  cpu time    0.0704: real time    0.1040
    SETDIJ:  cpu time    0.0991: real time    0.0993
     EDDAV:  cpu time    1.9986: real time    1.9990
       DOS:  cpu time    0.0032: real time    0.0035
    CHARGE:  cpu time    0.3054: real time    0.3056
    MIXING:  cpu time    0.0045: real time    0.0048
    --------------------------------------------
      LOOP:  cpu time    2.4812: real time    2.5164

 eigenvalue-minimisations  :  5784
 total energy-change (2. order) : 0.9728995E+01  (-0.2696633E+01)
 number of electron      39.0000000 magnetization
 augmentation part        7.4898422 magnetization

 Broyden mixing:
  rms(total) = 0.10704E+01    rms(broyden)= 0.10704E+01
  rms(prec ) = 0.31649E+01
  weight for this iteration     100.00

 eigenvalues of (default mixing * dielectric matrix)
  average eigenvalue GAMMA=   0.7428
  0.7428  0.7428

 Free energy of the ion-electron system (eV)
  ---------------------------------------------------
  alpha Z        PSCENC =       203.12373693
  Ewald energy   TEWEN  =     -3524.18983400
  -Hartree energ DENC   =      -810.12276735
  -exchange      EXHF   =         0.00000000
  -V(xc)+E(xc)   XCENC  =        89.62675657
  PAW double counting   =      3860.04671175    -3787.69572305
  entropy T*S    EENTRO =        -0.00072785
  eigenvalues    EBANDS =      -150.96384399
  atomic energy  EATOM  =      4095.35208632
  Solvation  Ediel_sol  =         0.00000000
  ---------------------------------------------------
  free energy    TOTEN  =       -24.82360467 eV

  energy without entropy =      -24.82287682  energy(sigma->0) =      -24.82324075


--------------------------------------------------------------------------------------------------------




--------------------------------------- Iteration      1(   8)  ---------------------------------------


    POTLOK:  cpu time    0.0707: real time    0.0971
    SETDIJ:  cpu time    0.1079: real time    0.1080
     EDDAV:  cpu time    1.9832: real time    1.9835
       DOS:  cpu time    0.0033: real time    0.0036
    CHARGE:  cpu time    0.3040: real time    0.3041
    MIXING:  cpu time    0.0042: real time    0.0044
    --------------------------------------------
      LOOP:  cpu time    2.4732: real time    2.5004

 eigenvalue-minimisations  :  5896
 total energy-change (2. order) : 0.2152009E+00  (-0.3750929E+01)
 number of electron      39.0000000 magnetization
 augmentation part        9.0353345 magnetization

 Broyden mixing:
  rms(total) = 0.90125E+00    rms(broyden)= 0.90125E+00
  rms(prec ) = 0.29025E+01
  weight for this iteration     100.00

 eigenvalues of (default mixing * dielectric matrix)
  average eigenvalue GAMMA=   0.9001
  1.6378  0.5313  0.5313

 Free energy of the ion-electron system (eV)
  ---------------------------------------------------
  alpha Z        PSCENC =       203.12373693
  Ewald energy   TEWEN  =     -3524.18983400
  -Hartree energ DENC   =      -798.82508661
  -exchange      EXHF   =         0.00000000
  -V(xc)+E(xc)   XCENC  =        89.14407604
  PAW double counting   =      3908.80333792    -3839.44222529
  entropy T*S    EENTRO =        -0.00117671
  eigenvalues    EBANDS =      -158.57331834
  atomic energy  EATOM  =      4095.35208632
  Solvation  Ediel_sol  =         0.00000000
  ---------------------------------------------------
  free energy    TOTEN  =       -24.60840374 eV

  energy without entropy =      -24.60722703  energy(sigma->0) =      -24.60781538


--------------------------------------------------------------------------------------------------------




--------------------------------------- Iteration      1(   9)  ---------------------------------------


    POTLOK:  cpu time    0.0740: real time    0.1410
    SETDIJ:  cpu time    0.0986: real time    0.0987
     EDDAV:  cpu time    2.1036: real time    2.1038
       DOS:  cpu time    0.0032: real time    0.0040
    CHARGE:  cpu time    0.3101: real time    0.3104
    MIXING:  cpu time    0.0043: real time    0.0051
    --------------------------------------------
      LOOP:  cpu time    2.5938: real time    2.6645

 eigenvalue-minimisations  :  6264
 total energy-change (2. order) : 0.9442944E+00  (-0.1006227E+01)
 number of electron      39.0000000 magnetization
 augmentation part        8.1024882 magnetization

 Broyden mixing:
  rms(total) = 0.15295E+00    rms(broyden)= 0.15294E+00
  rms(prec ) = 0.26215E+00
  weight for this iteration     100.00

 eigenvalues of (default mixing * dielectric matrix)
  average eigenvalue GAMMA=   0.8996
  1.9738  0.5793  0.5793  0.4658

 Free energy of the ion-electron system (eV)
  ---------------------------------------------------
  alpha Z        PSCENC =       203.12373693
  Ewald energy   TEWEN  =     -3524.18983400
  -Hartree energ DENC   =      -803.54607297
  -exchange      EXHF   =         0.00000000
  -V(xc)+E(xc)   XCENC  =        89.37841694
  PAW double counting   =      4014.17493168    -3945.45498752
  entropy T*S    EENTRO =        -0.00132585
  eigenvalues    EBANDS =      -152.50106084
  atomic energy  EATOM  =      4095.35208632
  Solvation  Ediel_sol  =         0.00000000
  ---------------------------------------------------
  free energy    TOTEN  =       -23.66410931 eV

  energy without entropy =      -23.66278347  energy(sigma->0) =      -23.66344639


--------------------------------------------------------------------------------------------------------




--------------------------------------- Iteration      1(  10)  ---------------------------------------


    POTLOK:  cpu time    0.0657: real time    0.1088
    SETDIJ:  cpu time    0.1080: real time    0.1082
     EDDAV:  cpu time    2.2008: real time    2.2012
       DOS:  cpu time    0.0030: real time    0.0033
    CHARGE:  cpu time    0.2971: real time    0.3007
    MIXING:  cpu time    0.0052: real time    0.0053
    --------------------------------------------
      LOOP:  cpu time    2.6797: real time    2.7270

 eigenvalue-minimisations  :  6656
 total energy-change (2. order) :-0.8353243E-01  (-0.9687223E-01)
 number of electron      39.0000000 magnetization
 augmentation part        7.9327526 magnetization

 Broyden mixing:
  rms(total) = 0.21419E+00    rms(broyden)= 0.21419E+00
  rms(prec ) = 0.69613E+00
  weight for this iteration     100.00

 eigenvalues of (default mixing * dielectric matrix)
  average eigenvalue GAMMA=   0.9427
  1.9064  1.0627  0.5266  0.5266  0.6912

 Free energy of the ion-electron system (eV)
  ---------------------------------------------------
  alpha Z        PSCENC =       203.12373693
  Ewald energy   TEWEN  =     -3524.18983400
  -Hartree energ DENC   =      -802.92110818
  -exchange      EXHF   =         0.00000000
  -V(xc)+E(xc)   XCENC  =        89.37149182
  PAW double counting   =      4082.63501279    -4014.73122854
  entropy T*S    EENTRO =        -0.00129147
  eigenvalues    EBANDS =      -152.38650742
  atomic energy  EATOM  =      4095.35208632
  Solvation  Ediel_sol  =         0.00000000
  ---------------------------------------------------
  free energy    TOTEN  =       -23.74764174 eV

  energy without entropy =      -23.74635028  energy(sigma->0) =      -23.74699601


--------------------------------------------------------------------------------------------------------




--------------------------------------- Iteration      1(  11)  ---------------------------------------


    POTLOK:  cpu time    0.0649: real time    0.0950
    SETDIJ:  cpu time    0.0989: real time    0.0991
     EDDAV:  cpu time    2.0038: real time    2.0041
       DOS:  cpu time    0.0031: real time    0.0035
    CHARGE:  cpu time    0.3110: real time    0.3110
    MIXING:  cpu time    0.0050: real time    0.0051
    --------------------------------------------
      LOOP:  cpu time    2.4868: real time    2.5164

 eigenvalue-minimisations  :  6000
 total energy-change (2. order) : 0.6684794E-01  (-0.5318382E-01)
 number of electron      39.0000000 magnetization
 augmentation part        8.1290326 magnetization

 Broyden mixing:
  rms(total) = 0.33879E-01    rms(broyden)= 0.33879E-01
  rms(prec ) = 0.49892E-01
  weight for this iteration     100.00

 eigenvalues of (default mixing * dielectric matrix)
  average eigenvalue GAMMA=   1.1064
  2.0573  2.0573  0.5312  0.5312  0.8178  0.6436

 Free energy of the ion-electron system (eV)
  ---------------------------------------------------
  alpha Z        PSCENC =       203.12373693
  Ewald energy   TEWEN  =     -3524.18983400
  -Hartree energ DENC   =      -801.59700985
  -exchange      EXHF   =         0.00000000
  -V(xc)+E(xc)   XCENC  =        89.31032127
  PAW double counting   =      4073.98142732    -4006.29312066
  entropy T*S    EENTRO =        -0.00174322
  eigenvalues    EBANDS =      -153.36665791
  atomic energy  EATOM  =      4095.35208632
  Solvation  Ediel_sol  =         0.00000000
  ---------------------------------------------------
  free energy    TOTEN  =       -23.68079380 eV

  energy without entropy =      -23.67905058  energy(sigma->0) =      -23.67992219


--------------------------------------------------------------------------------------------------------




--------------------------------------- Iteration      1(  12)  ---------------------------------------


    POTLOK:  cpu time    0.0730: real time    0.1007
    SETDIJ:  cpu time    0.1079: real time    0.1080
     EDDAV:  cpu time    2.3029: real time    2.3032
       DOS:  cpu time    0.0032: real time    0.0040
    CHARGE:  cpu time    0.3056: real time    0.3058
    MIXING:  cpu time    0.0047: real time    0.0048
    --------------------------------------------
      LOOP:  cpu time    2.7973: real time    2.8278

 eigenvalue-minimisations  :  6984
 total energy-change (2. order) :-0.2177419E-02  (-0.2635904E-02)
 number of electron      39.0000000 magnetization
 augmentation part        8.1573614 magnetization

 Broyden mixing:
  rms(total) = 0.36294E-01    rms(broyden)= 0.36294E-01
  rms(prec ) = 0.98391E-01
  weight for this iteration     100.00

 eigenvalues of (default mixing * dielectric matrix)
  average eigenvalue GAMMA=   1.2282
  2.5378  2.5378  0.5320  0.5320  0.9178  0.9178  0.6220

 Free energy of the ion-electron system (eV)
  ---------------------------------------------------
  alpha Z        PSCENC =       203.12373693
  Ewald energy   TEWEN  =     -3524.18983400
  -Hartree energ DENC   =      -801.48301911
  -exchange      EXHF   =         0.00000000
  -V(xc)+E(xc)   XCENC  =        89.30275398
  PAW double counting   =      4077.15095569    -4009.48360239
  entropy T*S    EENTRO =        -0.00188702
  eigenvalues    EBANDS =      -153.45416162
  atomic energy  EATOM  =      4095.35208632
  Solvation  Ediel_sol  =         0.00000000
  ---------------------------------------------------
  free energy    TOTEN  =       -23.68297122 eV

  energy without entropy =      -23.68108420  energy(sigma->0) =      -23.68202771


--------------------------------------------------------------------------------------------------------




--------------------------------------- Iteration      1(  13)  ---------------------------------------


    POTLOK:  cpu time    0.0707: real time    0.1026
    SETDIJ:  cpu time    0.0940: real time    0.0941
     EDDAV:  cpu time    2.2885: real time    2.2899
       DOS:  cpu time    0.0032: real time    0.0038
    CHARGE:  cpu time    0.3097: real time    0.3103
    MIXING:  cpu time    0.0054: real time    0.0056
    --------------------------------------------
      LOOP:  cpu time    2.7714: real time    2.8109

 eigenvalue-minimisations  :  6984
 total energy-change (2. order) : 0.1791123E-03  (-0.2076217E-03)
 number of electron      39.0000000 magnetization
 augmentation part        8.1499560 magnetization

 Broyden mixing:
  rms(total) = 0.24750E-01    rms(broyden)= 0.24750E-01
  rms(prec ) = 0.79448E-01
  weight for this iteration     100.00

 eigenvalues of (default mixing * dielectric matrix)
  average eigenvalue GAMMA=   1.2107
  2.6996  2.0788  1.4096  0.5323  0.5323  0.6181  0.9073  0.9073

 Free energy of the ion-electron system (eV)
  ---------------------------------------------------
  alpha Z        PSCENC =       203.12373693
  Ewald energy   TEWEN  =     -3524.18983400
  -Hartree energ DENC   =      -801.80409146
  -exchange      EXHF   =         0.00000000
  -V(xc)+E(xc)   XCENC  =        89.31064537
  PAW double counting   =      4076.67625508    -4008.85864756
  entropy T*S    EENTRO =        -0.00189236
  eigenvalues    EBANDS =      -153.29105043
  atomic energy  EATOM  =      4095.35208632
  Solvation  Ediel_sol  =         0.00000000
  ---------------------------------------------------
  free energy    TOTEN  =       -23.68279211 eV

  energy without entropy =      -23.68089975  energy(sigma->0) =      -23.68184593


--------------------------------------------------------------------------------------------------------




--------------------------------------- Iteration      1(  14)  ---------------------------------------


    POTLOK:  cpu time    0.0530: real time    0.1046
    SETDIJ:  cpu time    0.1067: real time    0.1068
     EDDAV:  cpu time    2.0644: real time    2.0646
       DOS:  cpu time    0.0032: real time    0.0037
    CHARGE:  cpu time    0.3042: real time    0.3043
    MIXING:  cpu time    0.0051: real time    0.0054
    --------------------------------------------
      LOOP:  cpu time    2.5367: real time    2.5816

 eigenvalue-minimisations  :  6192
 total energy-change (2. order) : 0.6804362E-03  (-0.9453530E-03)
 number of electron      39.0000000 magnetization
 augmentation part        8.1207378 magnetization

 Broyden mixing:
  rms(total) = 0.68784E-02    rms(broyden)= 0.68784E-02
  rms(prec ) = 0.20581E-01
  weight for this iteration     100.00

 eigenvalues of (default mixing * dielectric matrix)
  average eigenvalue GAMMA=   1.1470
  2.6266  2.0611  1.4277  0.5324  0.5324  0.9294  0.6287  0.7922  0.7922

 Free energy of the ion-electron system (eV)
  ---------------------------------------------------
  alpha Z        PSCENC =       203.12373693
  Ewald energy   TEWEN  =     -3524.18983400
  -Hartree energ DENC   =      -801.92036737
  -exchange      EXHF   =         0.00000000
  -V(xc)+E(xc)   XCENC  =        89.31651787
  PAW double counting   =      4080.78757398    -4012.95091859
  entropy T*S    EENTRO =        -0.00180675
  eigenvalues    EBANDS =      -153.19910005
  atomic energy  EATOM  =      4095.35208632
  Solvation  Ediel_sol  =         0.00000000
  ---------------------------------------------------
  free energy    TOTEN  =       -23.68211167 eV

  energy without entropy =      -23.68030492  energy(sigma->0) =      -23.68120830


--------------------------------------------------------------------------------------------------------




--------------------------------------- Iteration      1(  15)  ---------------------------------------


    POTLOK:  cpu time    0.0658: real time    0.0896
    SETDIJ:  cpu time    0.0985: real time    0.0986
     EDDAV:  cpu time    2.2446: real time    2.2450
       DOS:  cpu time    0.0033: real time    0.0037
    CHARGE:  cpu time    0.3117: real time    0.3121
    MIXING:  cpu time    0.0059: real time    0.0061
    --------------------------------------------
      LOOP:  cpu time    2.7298: real time    2.7571

 eigenvalue-minimisations  :  6936
 total energy-change (2. order) : 0.3966776E-04  (-0.6657244E-04)
 number of electron      39.0000000 magnetization
 augmentation part        8.1282903 magnetization

 Broyden mixing:
  rms(total) = 0.10716E-02    rms(broyden)= 0.10715E-02
  rms(prec ) = 0.19360E-02
  weight for this iteration     100.00

 eigenvalues of (default mixing * dielectric matrix)
  average eigenvalue GAMMA=   1.2392
  2.7588  2.1541  1.4402  1.4402  0.5324  0.5324  1.0715  1.0715  0.6219  0.7691

 Free energy of the ion-electron system (eV)
  ---------------------------------------------------
  alpha Z        PSCENC =       203.12373693
  Ewald energy   TEWEN  =     -3524.18983400
  -Hartree energ DENC   =      -801.84403403
  -exchange      EXHF   =         0.00000000
  -V(xc)+E(xc)   XCENC  =        89.31356688
  PAW double counting   =      4080.88839686    -4013.05537290
  entropy T*S    EENTRO =        -0.00182829
  eigenvalues    EBANDS =      -153.26878976
  atomic energy  EATOM  =      4095.35208632
  Solvation  Ediel_sol  =         0.00000000
  ---------------------------------------------------
  free energy    TOTEN  =       -23.68207200 eV

  energy without entropy =      -23.68024371  energy(sigma->0) =      -23.68115786


--------------------------------------------------------------------------------------------------------




--------------------------------------- Iteration      1(  16)  ---------------------------------------


    POTLOK:  cpu time    0.0700: real time    0.1225
    SETDIJ:  cpu time    0.1071: real time    0.1072
     EDDAV:  cpu time    1.9728: real time    1.9730
       DOS:  cpu time    0.0033: real time    0.0037
    CHARGE:  cpu time    0.3020: real time    0.3043
    MIXING:  cpu time    0.0063: real time    0.0163
    --------------------------------------------
      LOOP:  cpu time    2.4612: real time    2.5293

 eigenvalue-minimisations  :  5920
 total energy-change (2. order) :-0.3173558E-05  (-0.2681295E-05)
 number of electron      39.0000000 magnetization
 augmentation part        8.1290651 magnetization

 Broyden mixing:
  rms(total) = 0.76712E-03    rms(broyden)= 0.76708E-03
  rms(prec ) = 0.23330E-02
  weight for this iteration     100.00

 eigenvalues of (default mixing * dielectric matrix)
  average eigenvalue GAMMA=   1.2992
  2.7528  2.2051  1.9066  1.9066  0.5324  0.5324  1.0562  1.0562  0.6216  0.8604
  0.8604

 Free energy of the ion-electron system (eV)
  ---------------------------------------------------
  alpha Z        PSCENC =       203.12373693
  Ewald energy   TEWEN  =     -3524.18983400
  -Hartree energ DENC   =      -801.84158774
  -exchange      EXHF   =         0.00000000
  -V(xc)+E(xc)   XCENC  =        89.31349775
  PAW double counting   =      4081.11555654    -4013.27898953
  entropy T*S    EENTRO =        -0.00182998
  eigenvalues    EBANDS =      -153.27471146
  atomic energy  EATOM  =      4095.35208632
  Solvation  Ediel_sol  =         0.00000000
  ---------------------------------------------------
  free energy    TOTEN  =       -23.68207518 eV

  energy without entropy =      -23.68024520  energy(sigma->0) =      -23.68116019


--------------------------------------------------------------------------------------------------------




--------------------------------------- Iteration      1(  17)  ---------------------------------------


    POTLOK:  cpu time    0.0799: real time    0.1297
    SETDIJ:  cpu time    0.0974: real time    0.0975
     EDDAV:  cpu time    2.0394: real time    2.0396
       DOS:  cpu time    0.0033: real time    0.0036
    CHARGE:  cpu time    0.3118: real time    0.3120
    MIXING:  cpu time    0.0056: real time    0.0059
    --------------------------------------------
      LOOP:  cpu time    2.5375: real time    2.5857

 eigenvalue-minimisations  :  6112
 total energy-change (2. order) : 0.6867358E-06  (-0.5423410E-06)
 number of electron      39.0000000 magnetization
 augmentation part        8.1288084 magnetization

 Broyden mixing:
  rms(total) = 0.24731E-03    rms(broyden)= 0.24719E-03
  rms(prec ) = 0.77191E-03
  weight for this iteration     100.00

 eigenvalues of (default mixing * dielectric matrix)
  average eigenvalue GAMMA=   1.2765
  2.7315  2.2270  2.2270  0.5324  0.5324  1.3923  1.2048  1.2048  0.9493  0.9493
  0.6221  0.7454

 Free energy of the ion-electron system (eV)
  ---------------------------------------------------
  alpha Z        PSCENC =       203.12373693
  Ewald energy   TEWEN  =     -3524.18983400
  -Hartree energ DENC   =      -801.83894122
  -exchange      EXHF   =         0.00000000
  -V(xc)+E(xc)   XCENC  =        89.31360587
  PAW double counting   =      4081.42267088    -4013.58808468
  entropy T*S    EENTRO =        -0.00182827
  eigenvalues    EBANDS =      -153.27548633
  atomic energy  EATOM  =      4095.35208632
  Solvation  Ediel_sol  =         0.00000000
  ---------------------------------------------------
  free energy    TOTEN  =       -23.68207449 eV

  energy without entropy =      -23.68024623  energy(sigma->0) =      -23.68116036


--------------------------------------------------------------------------------------------------------




--------------------------------------- Iteration      1(  18)  ---------------------------------------


    POTLOK:  cpu time    0.0660: real time    0.1213
    SETDIJ:  cpu time    0.1058: real time    0.1065
     EDDAV:  cpu time    1.5507: real time    1.5510
       DOS:  cpu time    0.0033: real time    0.0036
    --------------------------------------------
      LOOP:  cpu time    1.7258: real time    1.7800

 eigenvalue-minimisations  :  4104
 total energy-change (2. order) : 0.7632843E-07  (-0.6484683E-07)
 number of electron      39.0000000 magnetization
 augmentation part        8.1288084 magnetization

 Free energy of the ion-electron system (eV)
  ---------------------------------------------------
  alpha Z        PSCENC =       203.12373693
  Ewald energy   TEWEN  =     -3524.18983400
  -Hartree energ DENC   =      -801.84132945
  -exchange      EXHF   =         0.00000000
  -V(xc)+E(xc)   XCENC  =        89.31370928
  PAW double counting   =      4081.49626856    -4013.66122335
  entropy T*S    EENTRO =        -0.00182798
  eigenvalues    EBANDS =      -153.27366073
  atomic energy  EATOM  =      4095.35208632
  Solvation  Ediel_sol  =         0.00000000
  ---------------------------------------------------
  free energy    TOTEN  =       -23.68207441 eV

  energy without entropy =      -23.68024643  energy(sigma->0) =      -23.68116042


--------------------------------------------------------------------------------------------------------




 average (electrostatic) potential at core
  the test charge radii are     1.2087  1.0856  1.2059
  (the norm of the test charge is              1.0000)
       1 -84.3690       2-101.3864       3 -65.1052



 E-fermi :   9.3069     XC(G=0): -11.2147     alpha+bet :-15.1353


 k-point     1 :       0.0000    0.0000    0.0000
  band No.  band energies     occupation
      1     -34.8629      2.00000
      2     -13.5163      2.00000
      3     -13.5163      2.00000
      4     -13.4910      2.00000
      5     -13.4910      2.00000
[...]
  212              fftbas_plan_mpi                       0.081917                     12   6
  213                dfftw_execute                         0.035007                   36   7
  214                map_backward                          0.005537                   12   7
  215                  map_gather                            0.001140                  6   8
  216                  m_alltoallv_z                         0.002975                  6   8
  217                  map_scatter                           0.001139                  6   8
  218                map_forward                           0.038222                   12   7
  219                  map_gather                            0.019386                  6   8
  220                  m_alltoallv_z                         0.006126                  6   8
  221                  map_scatter                           0.012397                  6   8
  222            M_sumb_d                              0.012352                        6   5
  223          M_sumb_d                              0.000027                          1   4
  224        setdij_                               1.603529                           20   3
  225          fft3d_mpi                             0.282910                         40   4
  226            fftbas_plan_mpi                       0.260881                       40   5
  227              dfftw_execute                         0.117296                    120   6
  228              map_backward                          0.014883                     40   6
  229                map_gather                            0.004287                   20   7
  230                m_alltoallv_z                         0.005942                   20   7
  231                map_scatter                           0.003711                   20   7
  232              map_forward                           0.118677                     40   6
  233                map_gather                            0.057208                   20   7
  234                m_alltoallv_z                         0.020440                   20   7
  235                map_scatter                           0.040037                   20   7
  236          M_sumb_d                              0.021240                         20   4
  237        set_dd_magatom                        0.000004                            1   3
  238        set_dd_paw                            0.009393                            1   3
  239          set_rsgf_all                          0.000004                          1   4
  240          M_sumb_d                              0.009238                          8   4
  241        strkin                                0.000821                            1   3
  242          M_sumb_d                              0.000176                          1   4
  243        strelo                                0.003368                            1   3
  244          M_sumb_d                              0.000181                          2   4
  245        strenl                                1.137044                            1   3
  246          spher                                 0.845850                         19   4
  247          phase                                 0.013477                        189   4
  248          proj1                                 0.250154                       1134   4
  249            crexp_mul_wave                        0.033592                     3402   5
  250            M_sumb_d                              0.068643                     1134   5
  251          M_sumb_d                              0.004342                          1   4
  252        M_sumb_d                              0.000227                            6   3
  253        fft3d_mpi                             0.017298                           11   3
  254          fftbas_plan_mpi                       0.015986                         11   4
  255            dfftw_execute                         0.006273                       33   5
  256            map_forward                           0.003320                       10   5
  257              map_gather                            0.000674                      5   6
  258              m_alltoallv_z                         0.001345                      5   6
  259              map_scatter                           0.001059                      5   6
  260            map_backward                          0.004160                       12   5
  261              map_gather                            0.001225                      6   6
  262              m_alltoallv_z                         0.001494                      6   6
  263              map_scatter                           0.001162                      6   6
  264        ggaall_grid                           0.002073                            1   3
  265        forhar                                0.007386                            2   3
  266          M_sumb_d                              0.000116                          2   4
  267        strehar                               0.003207                            1   3
  268          M_sumb_d                              0.000217                          1   4
  269        chggra                                0.007430                            1   3
  270          fft3d_mpi                             0.004689                          3   4
  271            fftbas_plan_mpi                       0.004328                        3   5
  272              dfftw_execute                         0.001710                      9   6
  273              map_backward                          0.000717                      2   6
  274                map_gather                            0.000204                    1   7
  275                m_alltoallv_z                         0.000274                    1   7
  276                map_scatter                           0.000186                    1   7
  277              map_forward                           0.001234                      4   6
  278                map_gather                            0.000257                    2   7
  279                m_alltoallv_z                         0.000473                    2   7
  280                map_scatter                           0.000407                    2   7
  281          M_sumb_d                              0.000129                          3   4
  282        brmix                                 0.024524                            1   3
  283          M_sumb_d                              0.000238                          6   4
  284          brpre                                 0.000059                          1   4
  285          setg0                                 0.001685                          1   4
  286          broyd                                 0.002886                          1   4
  287            M_sumb_d                              0.000772                       20   5
  288            brget                                 0.000419                       74   5
  289            brsav                                 0.000129                       18   5
  290          M_bcast_z                             0.018542                          1   4
  291          M_bcast_d                             0.000052                          1   4
  292        M_bcast_d                             0.000080                            2   3
  293      potlok                                0.031527                              1   2
  294        fft3d_mpi                             0.021352                           13   3
  295          fftbas_plan_mpi                       0.019759                         13   4
  296            dfftw_execute                         0.007162                       39   5
  297            map_forward                           0.004266                       14   5
  298              map_gather                            0.000806                      8   6
  299              m_alltoallv_z                         0.001711                      8   6
  300              map_scatter                           0.001400                      8   6
  301            map_backward                          0.005475                       12   5
  302              map_gather                            0.001638                      6   6
  303              m_alltoallv_z                         0.002020                      6   6
  304              map_scatter                           0.001493                      6   6
  305        ggaall_grid                           0.002000                            1   3
  306        M_sumb_d                              0.000218                            6   3
  307        M_bcast_d                             0.000112                            1   3
  308      potlok_metagga                        0.000003                              1   2
  309      set_dd_magatom                        0.000004                              1   2
  310      set_dd_paw                            0.000467                              1   2
  311        set_rsgf_all                          0.000004                            1   3
  312        M_sumb_d                              0.000285                            8   3
  313      densta                                0.002667                              1   2
  314        M_sumb_d                              0.001024                           44   3
  315      lprj_proall                           0.000007                              1   2

 Flat profile
 ============

             routine name                   CPU           calls
 ---------------------------------------------------------------
 total_time                             15.629795           1
 dfftw_execute                           7.158480       59301
 eddav                                   6.541292          18
 fftbas_plan_mpi                         4.307333       19769
 M_sumb_d                                3.211869       54293
 setdij_                                 2.902836          42
 set_charge                              2.545126          14
 elmin                                   2.230264           1
 m_alltoallv_z                           2.000527       19796
 pdssyex_zheevx                          1.679058         378
 M_alltoall_d                            1.401816       65422
 proj1                                   1.150952        7924
 orth1                                   1.117272       13419
 vhamil                                  1.073626        8932
 gemm                                    1.046674       26796
 spher                                   0.965195          20
 fftwav_mpi                              0.890213       10513
 map_forward                             0.870106       21336
 map_scatter                             0.794740       19796
 map_gather                              0.787224       19796
 vnlac0                                  0.596792        8932
 M_bcast_z                               0.581845        7021
 redis_pw                                0.550486       25326
 hamiltmu                                0.492577        4466
 redis_proj                              0.488507       32011
 w1_copy                                 0.396646       26796
 fft3d_mpi                               0.343526       19767
 map_backward                            0.317959       18198
 work_mul_crexp                          0.317760       26796
 fftext_mpi                              0.299839        8932
 crpa_reader                             0.252358           1
 crexp_mul_wave                          0.248974       23772
 eccp                                    0.231010        2268
 kinhamil                                0.184391        8932
 overl                                   0.177375       15617
 M_bcast_d                               0.148688        4502
 pw_charge                               0.122519        1581
 potlok                                  0.122013          15
 overl1                                  0.108120        8932
 apply_precond                           0.096514        6664
 setup_precond                           0.078819        2268
 lincom                                  0.074216         399
 w1_projall                              0.073244        3332
 fornl                                   0.049942           1
 force_and_stress                        0.047927           1
 phase                                   0.042989         610
 soft_charge                             0.040710          14
 truncate_high_frequency_w1              0.038154       11200
 ggaall_grid                             0.032660          16
 densta                                  0.031108          19
 strenl                                  0.023221           1
 broyd                                   0.022273          14
 setg0                                   0.019655          15
 brmix                                   0.018391          14
 forhar                                  0.007270           2
 depsum                                  0.006021          14
 brgrid                                  0.003510           1
 forloc                                  0.003490           1
 set_dd_paw                              0.003232          16
 strelo                                  0.003187           1
 brget                                   0.003148         575
 strehar                                 0.002990           1
 chggra                                  0.002612           1
 orthch                                  0.002259           1
 choleski                                0.001915          21
 proj                                    0.001600          21
 brsav                                   0.001359         163
 brpre                                   0.000825          14
 strkin                                  0.000645           1
 fordep                                  0.000134           1
 vectorpot                               0.000078          15
 set_rsgf_all                            0.000072          16
 set_dd_magatom                          0.000066          16
 potlok_metagga                          0.000058          15
 set_kineden                             0.000050          13
 rotate_active_occupied_orbital          0.000014           1
 lprj_proall                             0.000007           1
 redis_pw_over_bands                     0.000003           1
 ---------------------------------------------------------------
  summed up times    65.0201499462128

 Accumulative profile
 ====================

             routine name                   CPU           calls
 ---------------------------------------------------------------
 total_time                             65.020150           1
 elmin                                  44.469374           1
 eddav                                  36.186784          18
 fft3d_mpi                              16.536977       19767
 fftbas_plan_mpi                        16.236369       19769
 hamiltmu                               11.387374        4466
 fftwav_mpi                              9.428436       10513
 kinhamil                                7.201019        8932
 dfftw_execute                           7.158480       59301
 fftext_mpi                              7.016628        8932
 set_charge                              4.358191          14
 force_and_stress                        3.748827           1
 setdij_                                 3.636283          42
 M_sumb_d                                3.211869       54293
 map_forward                             2.925282       21336
 vnlac0                                  2.512032        8932
 m_alltoallv_z                           2.000527       19796
 proj1                                   1.915885        7924
 map_backward                            1.845274       18198
 w1_projall                              1.710737        3332
 pdssyex_zheevx                          1.679058         378
 soft_charge                             1.562496          14
 M_alltoall_d                            1.401816       65422
 redis_pw                                1.339741       25326
 strenl                                  1.137044           1
 orth1                                   1.117272       13419
 redis_proj                              1.101067       32011
 vhamil                                  1.073626        8932
 gemm                                    1.046674       26796
 spher                                   0.965195          20
 map_scatter                             0.794740       19796
 map_gather                              0.787224       19796
 M_bcast_z                               0.581845        7021
 fordep                                  0.506825           1
 potlok                                  0.465686          15
 w1_copy                                 0.396646       26796
 eccp                                    0.360405        2268
 work_mul_crexp                          0.317760       26796
 crpa_reader                             0.252358           1
 crexp_mul_wave                          0.248974       23772
 set_dd_paw                              0.180208          16
 overl                                   0.177375       15617
 M_bcast_d                               0.148688        4502
 setup_precond                           0.135071        2268
 pw_charge                               0.122519        1581
 overl1                                  0.108120        8932
 brmix                                   0.099030          14
 apply_precond                           0.096514        6664
 lincom                                  0.074216         399
 fornl                                   0.066187           1
 densta                                  0.046737          19
 phase                                   0.042989         610
 truncate_high_frequency_w1              0.038154       11200
 orthch                                  0.036831           1
 broyd                                   0.032688          14
 ggaall_grid                             0.032660          16
 proj                                    0.029838          21
 setg0                                   0.019655          15
 depsum                                  0.010360          14
 chggra                                  0.007430           1
 forhar                                  0.007386           2
 forloc                                  0.003542           1
 brgrid                                  0.003510           1
 strelo                                  0.003368           1
 strehar                                 0.003207           1
 brget                                   0.003148         575
 choleski                                0.001915          21
 brsav                                   0.001359         163
 brpre                                   0.000825          14
 strkin                                  0.000821           1
 vectorpot                               0.000078          15
 set_rsgf_all                            0.000072          16
 set_dd_magatom                          0.000066          16
 potlok_metagga                          0.000058          15
 set_kineden                             0.000050          13
 rotate_active_occupied_orbital          0.000014           1
 lprj_proall                             0.000007           1
 redis_pw_over_bands                     0.000003           1
 ---------------------------------------------------------------

Profiling took   1.563978  1.875056  0.006005  0.004509 seconds
Profiling took   1.529292 seconds
