<?xml version="1.0" encoding="ISO-8859-1"?>
<modeling>
 <generator>
  <i name="program" type="string">vasp </i>
  <i name="version" type="string">6.0.8  </i>
  <i name="subversion" type="string">29Jun18 (build Jun 13 2019 12:54:44) complex                          parallel </i>
  <i name="platform" type="string">IFC18_CrayMPICH </i>
  <i name="date" type="string">2021 12 05 </i>
  <i name="time" type="string">14:21:49 </i>
 </generator>
 <incar>
  <i type="int" name="KPAR">     4</i>
  <i type="int" name="NPAR">     4</i>
  <i type="int" name="ISTART">     0</i>
  <i type="string" name="PREC"> ACC</i>
  <i type="string" name="ALGO"> Normal</i>
  <i type="logical" name="ADDGRID"> T  </i>
  <i type="int" name="ISPIN">     1</i>
  <i type="int" name="NELMIN">     5</i>
  <i type="int" name="IBRION">    -1</i>
  <i name="EDIFF">      0.00000010</i>
  <i type="int" name="NSW">     0</i>
  <i type="int" name="ISIF">     3</i>
  <i name="ENCUT">    700.00000000</i>
  <i type="logical" name="LREAL"> F  </i>
  <i type="int" name="ISMEAR">     0</i>
  <i name="SIGMA">      0.01000000</i>
  <i type="logical" name="LWAVE"> F  </i>
  <i type="logical" name="LCHARG"> F  </i>
  <i type="logical" name="LVTOT"> F  </i>
  <i type="string" name="ALGO"> Normal</i>
  <i type="string" name="GGA"> PS</i>
  <i name="EDIFF">      0.00000010</i>
  <i type="int" name="ISPIN">     1</i>
 </incar>
 <structure name="primitive_cell" >
  <crystal>
   <varray name="basis" >
    <v>       0.00000000       3.38270930       3.38270930 </v>
    <v>       3.38270930       0.00000000       3.38270930 </v>
    <v>       3.38270930       3.38270930       0.00000000 </v>
   </varray>
   <i name="volume">     77.41480592 </i>
   <varray name="rec_basis" >
    <v>      -0.14781051       0.14781051       0.14781051 </v>
    <v>       0.14781051      -0.14781051       0.14781051 </v>
    <v>       0.14781051       0.14781051      -0.14781051 </v>
   </varray>
  </crystal>
  <varray name="positions" >
   <v>       0.25000000       0.25000000       0.25000000 </v>
   <v>       0.75000000       0.75000000       0.75000000 </v>
   <v>       0.00000000       0.00000000       0.00000000 </v>
  </varray>
 </structure>
 <varray name="primitive_index" >
  <v type="int" >        1 </v>
  <v type="int" >        2 </v>
  <v type="int" >        3 </v>
 </varray>
 <kpoints>
  <generation param="Gamma">
   <v type="int" name="divisions">      13       13       13 </v>
   <v name="usershift">      0.00000000       0.00000000       0.00000000 </v>
   <v name="genvec1">      0.07692308       0.00000000      -0.00000000 </v>
   <v name="genvec2">      0.00000000       0.07692308       0.00000000 </v>
   <v name="genvec3">     -0.00000000      -0.00000000       0.07692308 </v>
   <v name="shift">      0.00000000       0.00000000       0.00000000 </v>
  </generation>
  <varray name="kpointlist" >
   <v>       0.00000000       0.00000000       0.00000000 </v>
   <v>       0.07692308      -0.00000000       0.00000000 </v>
   <v>       0.15384615       0.00000000       0.00000000 </v>
   <v>       0.23076923      -0.00000000       0.00000000 </v>
   <v>       0.30769231       0.00000000       0.00000000 </v>
   <v>       0.38461538       0.00000000      -0.00000000 </v>
   <v>       0.46153846      -0.00000000       0.00000000 </v>
   <v>       0.07692308       0.07692308      -0.00000000 </v>
   <v>       0.15384615       0.07692308       0.00000000 </v>
   <v>       0.23076923       0.07692308      -0.00000000 </v>
   <v>       0.30769231       0.07692308       0.00000000 </v>
   <v>       0.38461538       0.07692308       0.00000000 </v>
   <v>       0.46153846       0.07692308       0.00000000 </v>
   <v>      -0.46153846       0.07692308       0.00000000 </v>
   <v>      -0.38461538       0.07692308      -0.00000000 </v>
   <v>      -0.30769231       0.07692308       0.00000000 </v>
   <v>      -0.23076923       0.07692308       0.00000000 </v>
   <v>      -0.15384615       0.07692308      -0.00000000 </v>
   <v>      -0.07692308       0.07692308      -0.00000000 </v>
   <v>       0.15384615       0.15384615      -0.00000000 </v>
   <v>       0.23076923       0.15384615      -0.00000000 </v>
   <v>       0.30769231       0.15384615      -0.00000000 </v>
   <v>       0.38461538       0.15384615       0.00000000 </v>
   <v>       0.46153846       0.15384615       0.00000000 </v>
   <v>      -0.46153846       0.15384615      -0.00000000 </v>
   <v>      -0.38461538       0.15384615       0.00000000 </v>
   <v>      -0.30769231       0.15384615       0.00000000 </v>
   <v>      -0.23076923       0.15384615       0.00000000 </v>
   <v>      -0.15384615       0.15384615      -0.00000000 </v>
   <v>       0.23076923       0.23076923      -0.00000000 </v>
   <v>       0.30769231       0.23076923      -0.00000000 </v>
   <v>       0.38461538       0.23076923       0.00000000 </v>
   <v>       0.46153846       0.23076923      -0.00000000 </v>
   <v>      -0.46153846       0.23076923      -0.00000000 </v>
   <v>      -0.38461538       0.23076923       0.00000000 </v>
   <v>      -0.30769231       0.23076923       0.00000000 </v>
   <v>      -0.23076923       0.23076923      -0.00000000 </v>
   <v>       0.30769231       0.30769231      -0.00000000 </v>
   <v>       0.38461538       0.30769231      -0.00000000 </v>
   <v>       0.46153846       0.30769231      -0.00000000 </v>
   <v>      -0.46153846       0.30769231      -0.00000000 </v>
   <v>      -0.38461538       0.30769231      -0.00000000 </v>
   <v>      -0.30769231       0.30769231      -0.00000000 </v>
   <v>       0.38461538       0.38461538      -0.00000000 </v>
   <v>       0.46153846       0.38461538      -0.00000000 </v>
   <v>      -0.46153846       0.38461538      -0.00000000 </v>
   <v>      -0.38461538       0.38461538       0.00000000 </v>
   <v>       0.46153846       0.46153846      -0.00000000 </v>
   <v>      -0.46153846       0.46153846       0.00000000 </v>
   <v>       0.23076923       0.15384615       0.07692308 </v>
   <v>       0.30769231       0.15384615       0.07692308 </v>
   <v>       0.38461538       0.15384615       0.07692308 </v>
   <v>       0.46153846       0.15384615       0.07692308 </v>
   <v>      -0.46153846       0.15384615       0.07692308 </v>
   <v>       0.30769231       0.23076923       0.07692308 </v>
   <v>       0.38461538       0.23076923       0.07692308 </v>
   <v>       0.46153846       0.23076923       0.07692308 </v>
   <v>      -0.46153846       0.23076923       0.07692308 </v>
   <v>      -0.38461538       0.23076923       0.07692308 </v>
   <v>      -0.30769231       0.23076923       0.07692308 </v>
   <v>      -0.23076923       0.23076923       0.07692308 </v>
   <v>      -0.15384615       0.23076923       0.07692308 </v>
   <v>       0.38461538       0.30769231       0.07692308 </v>
   <v>       0.46153846       0.30769231       0.07692308 </v>
   <v>      -0.46153846       0.30769231       0.07692308 </v>
   <v>      -0.38461538       0.30769231       0.07692308 </v>
   <v>      -0.30769231       0.30769231       0.07692308 </v>
   <v>      -0.23076923       0.30769231       0.07692308 </v>
   <v>       0.46153846       0.38461538       0.07692308 </v>
   <v>      -0.46153846       0.38461538       0.07692308 </v>
   <v>      -0.38461538       0.38461538       0.07692308 </v>
   <v>      -0.30769231       0.38461538       0.07692308 </v>
   <v>      -0.46153846       0.46153846       0.07692308 </v>
   <v>      -0.38461538       0.46153846       0.07692308 </v>
   <v>       0.46153846       0.30769231       0.15384615 </v>
   <v>      -0.46153846       0.30769231       0.15384615 </v>
   <v>      -0.38461538       0.30769231       0.15384615 </v>
   <v>      -0.46153846       0.38461538       0.15384615 </v>
   <v>      -0.38461538       0.38461538       0.15384615 </v>
   <v>      -0.30769231       0.38461538       0.15384615 </v>
   <v>      -0.23076923       0.38461538       0.15384615 </v>
   <v>      -0.38461538       0.46153846       0.15384615 </v>
   <v>      -0.30769231       0.46153846       0.15384615 </v>
   <v>      -0.30769231       0.46153846       0.23076923 </v>
  </varray>
  <varray name="weights" >
   <v>       0.00045517 </v>
   <v>       0.00364133 </v>
   <v>       0.00364133 </v>
   <v>       0.00364133 </v>
   <v>       0.00364133 </v>
   <v>       0.00364133 </v>
   <v>       0.00364133 </v>
   <v>       0.00273100 </v>
   <v>       0.01092399 </v>
   <v>       0.01092399 </v>
   <v>       0.01092399 </v>
   <v>       0.01092399 </v>
   <v>       0.01092399 </v>
   <v>       0.01092399 </v>
   <v>       0.01092399 </v>
   <v>       0.01092399 </v>
   <v>       0.01092399 </v>
   <v>       0.01092399 </v>
   <v>       0.00546199 </v>
   <v>       0.00273100 </v>
   <v>       0.01092399 </v>
   <v>       0.01092399 </v>
   <v>       0.01092399 </v>
   <v>       0.01092399 </v>
   <v>       0.01092399 </v>
   <v>       0.01092399 </v>
   <v>       0.01092399 </v>
   <v>       0.01092399 </v>
   <v>       0.00546199 </v>
   <v>       0.00273100 </v>
   <v>       0.01092399 </v>
   <v>       0.01092399 </v>
   <v>       0.01092399 </v>
   <v>       0.01092399 </v>
   <v>       0.01092399 </v>
   <v>       0.01092399 </v>
   <v>       0.00546199 </v>
   <v>       0.00273100 </v>
   <v>       0.01092399 </v>
   <v>       0.01092399 </v>
   <v>       0.01092399 </v>
   <v>       0.01092399 </v>
   <v>       0.00546199 </v>
   <v>       0.00273100 </v>
   <v>       0.01092399 </v>
   <v>       0.01092399 </v>
   <v>       0.00546199 </v>
   <v>       0.00273100 </v>
   <v>       0.00546199 </v>
   <v>       0.01092399 </v>
   <v>       0.02184797 </v>
   <v>       0.02184797 </v>
   <v>       0.02184797 </v>
   <v>       0.02184797 </v>
   <v>       0.01092399 </v>
   <v>       0.02184797 </v>
   <v>       0.02184797 </v>
   <v>       0.02184797 </v>
   <v>       0.02184797 </v>
   <v>       0.02184797 </v>
   <v>       0.02184797 </v>
   <v>       0.01092399 </v>
   <v>       0.01092399 </v>
   <v>       0.02184797 </v>
   <v>       0.02184797 </v>
   <v>       0.02184797 </v>
   <v>       0.02184797 </v>
   <v>       0.01092399 </v>
   <v>       0.01092399 </v>
   <v>       0.02184797 </v>
   <v>       0.02184797 </v>
   <v>       0.01092399 </v>
   <v>       0.01092399 </v>
   <v>       0.01092399 </v>
   <v>       0.01092399 </v>
   <v>       0.02184797 </v>
   <v>       0.02184797 </v>
   <v>       0.01092399 </v>
   <v>       0.02184797 </v>
   <v>       0.02184797 </v>
   <v>       0.01092399 </v>
   <v>       0.01092399 </v>
   <v>       0.01092399 </v>
   <v>       0.01092399 </v>
  </varray>
 </kpoints>
 <parameters>
  <separator name="general" >
   <i type="string" name="SYSTEM">unknown system</i>
   <i type="logical" name="LCOMPAT"> F  </i>
  </separator>
  <separator name="electronic" >
   <i type="string" name="PREC">acc</i>
   <i name="ENMAX">    700.00000000</i>
   <i name="ENAUG">    526.41000000</i>
   <i name="EDIFF">      0.00000010</i>
   <i type="int" name="IALGO">    38</i>
   <i type="int" name="IWAVPR">    10</i>
   <i type="int" name="NBANDS">    24</i>
   <i type="int" name="NBANDSLOW">    -1</i>
   <i type="int" name="NBANDSHIGH">    -1</i>
   <i name="NELECT">     39.00000000</i>
   <i type="int" name="TURBO">     0</i>
   <i type="int" name="IRESTART">     0</i>
   <i type="int" name="NREBOOT">     0</i>
   <i type="int" name="NMIN">     0</i>
   <i name="EREF">      0.00000000</i>
   <separator name="electronic smearing" >
    <i type="int" name="ISMEAR">     0</i>
    <i name="SIGMA">      0.01000000</i>
    <i name="KSPACING">      0.50000000</i>
    <i type="logical" name="KGAMMA"> T  </i>
    <i type="logical" name="KBLOWUP"> T  </i>
   </separator>
   <separator name="electronic projectors" >
    <i type="logical" name="LREAL"> F  </i>
    <v name="ROPT">      0.00000000      0.00000000      0.00000000</v>
    <i type="int" name="LMAXPAW">  -100</i>
    <i type="int" name="LMAXMIX">     2</i>
    <i type="logical" name="NLSPLINE"> F  </i>
   </separator>
   <separator name="electronic startup" >
    <i type="int" name="ISTART">     0</i>
    <i type="int" name="ICHARG">     2</i>
    <i type="int" name="INIWAV">     1</i>
   </separator>
   <separator name="electronic spin" >
    <i type="int" name="ISPIN">     1</i>
    <i type="logical" name="LNONCOLLINEAR"> F  </i>
    <v name="MAGMOM">      1.00000000      1.00000000      1.00000000</v>
    <i name="NUPDOWN">     -1.00000000</i>
    <i type="logical" name="LSORBIT"> F  </i>
    <v name="SAXIS">      0.00000000      0.00000000      1.00000000</v>
    <i type="logical" name="LSPIRAL"> F  </i>
    <v name="QSPIRAL">      0.00000000      0.00000000      0.00000000</v>
    <i type="logical" name="LZEROZ"> F  </i>
   </separator>
   <separator name="electronic exchange-correlation" >
    <i type="logical" name="LASPH"> F  </i>
    <i type="logical" name="LMETAGGA"> F  </i>
   </separator>
   <separator name="electronic convergence" >
    <i type="int" name="NELM">    60</i>
    <i type="int" name="NELMDL">    -5</i>
    <i type="int" name="NELMIN">     5</i>
    <i name="ENINI">    700.00000000</i>
    <separator name="electronic convergence detail" >
     <i type="logical" name="LDIAG"> T  </i>
     <i type="logical" name="LSUBROT"> F  </i>
     <i name="WEIMIN">      0.00000000</i>
     <i name="EBREAK">      0.00000000</i>
     <i name="DEPER">      0.30000000</i>
     <i type="int" name="NRMM">     4</i>
     <i name="TIME">      0.40000000</i>
    </separator>
   </separator>
   <separator name="electronic mixer" >
    <i name="AMIX">      0.40000000</i>
    <i name="BMIX">      1.00000000</i>
    <i name="AMIN">      0.10000000</i>
    <i name="AMIX_MAG">      1.60000000</i>
    <i name="BMIX_MAG">      1.00000000</i>
    <separator name="electronic mixer details" >
     <i type="int" name="IMIX">     4</i>
     <i type="logical" name="MIXFIRST"> F  </i>
     <i type="int" name="MAXMIX">   -45</i>
     <i name="WC">    100.00000000</i>
     <i type="int" name="INIMIX">     1</i>
     <i type="int" name="MIXPRE">     1</i>
     <i type="int" name="MREMOVE">     5</i>
    </separator>
   </separator>
   <separator name="electronic dipolcorrection" >
    <i type="logical" name="LDIPOL"> F  </i>
    <i type="logical" name="LMONO"> F  </i>
    <i type="int" name="IDIPOL">     0</i>
    <i name="EPSILON">      1.00000000</i>
    <v name="DIPOL">   -100.00000000   -100.00000000   -100.00000000</v>
    <i name="EFIELD">      0.00000000</i>
   </separator>
  </separator>
  <separator name="grids" >
   <i type="int" name="NGX">    42</i>
   <i type="int" name="NGY">    42</i>
   <i type="int" name="NGZ">    42</i>
   <i type="int" name="NGXF">    84</i>
   <i type="int" name="NGYF">    84</i>
   <i type="int" name="NGZF">    84</i>
   <i type="logical" name="ADDGRID"> T  </i>
  </separator>
  <separator name="ionic" >
   <i type="int" name="NSW">     0</i>
   <i type="int" name="IBRION">    -1</i>
   <i type="int" name="MDALGO">     0</i>
   <i type="int" name="ISIF">     3</i>
   <i name="PSTRESS">      0.00000000</i>
   <i name="EDIFFG">      0.00000100</i>
   <i type="int" name="NFREE">     0</i>
   <i name="POTIM">      0.50000000</i>
   <i name="SMASS">     -3.00000000</i>
   <i name="SCALEE">      1.00000000</i>
  </separator>
  <separator name="ionic md" >
   <i name="TEBEG">      0.00010000</i>
   <i name="TEEND">      0.00010000</i>
   <i type="int" name="NBLOCK">     1</i>
   <i type="int" name="KBLOCK">     1</i>
   <i type="int" name="NPACO">   256</i>
   <i name="APACO">     16.00000000</i>
  </separator>
  <separator name="symmetry" >
   <i type="int" name="ISYM">     2</i>
   <i name="SYMPREC">      0.00001000</i>
  </separator>
  <separator name="dos" >
   <i type="int" name="LORBIT">     0</i>
   <v name="RWIGS">     -1.00000000     -1.00000000     -1.00000000</v>
   <i type="int" name="NEDOS">   301</i>
   <i name="EMIN">     10.00000000</i>
   <i name="EMAX">    -10.00000000</i>
   <i name="EFERMI">      0.00000000</i>
  </separator>
  <separator name="writing" >
   <i type="int" name="NWRITE">     2</i>
   <i type="logical" name="LWAVE"> F  </i>
   <i type="logical" name="LDOWNSAMPLE"> F  </i>
   <i type="logical" name="LCHARG"> F  </i>
   <i type="logical" name="LPARD"> F  </i>
   <i type="logical" name="LVTOT"> F  </i>
   <i type="logical" name="LVHAR"> F  </i>
   <i type="logical" name="LELF"> F  </i>
   <i type="logical" name="LOPTICS"> F  </i>
   <v name="STM">      0.00000000      0.00000000      0.00000000      0.00000000      0.00000000      0.00000000      0.00000000</v>
  </separator>
  <separator name="performance" >
   <i type="int" name="NPAR">     4</i>
   <i type="int" name="NSIM">     4</i>
   <i type="int" name="NBLK">    -1</i>
   <i type="logical" name="LPLANE"> T  </i>
   <i type="logical" name="LSCALAPACK"> T  </i>
   <i type="logical" name="LSCAAWARE"> F  </i>
   <i type="logical" name="LSCALU"> F  </i>
   <i type="logical" name="LASYNC"> F  </i>
   <i type="logical" name="LORBITALREAL"> F  </i>
  </separator>
  <separator name="miscellaneous" >
   <i type="int" name="IDIOT">     3</i>
   <i type="int" name="PHON_NSTRUCT">    -1</i>
   <i type="logical" name="LMUSIC"> F  </i>
   <v name="POMASS">    238.02900000    208.98000000    195.08000000</v>
   <v name="DARWINR">      0.00000000      0.00000000      0.00000000</v>
   <v name="DARWINV">      1.00000000      1.00000000      1.00000000</v>
   <i type="logical" name="LCORR"> T  </i>
  </separator>
  <i type="logical" name="GGA_COMPAT"> T  </i>
  <i type="logical" name="LBERRY"> F  </i>
  <i type="int" name="ICORELEVEL">     0</i>
  <i type="logical" name="LDAU"> F  </i>
  <i type="int" name="I_CONSTRAINED_M">     0</i>
  <separator name="electronic exchange-correlation" >
   <i type="string" name="GGA">PS</i>
   <i type="int" name="VOSKOWN">     0</i>
   <i type="logical" name="LHFCALC"> F  </i>
   <i type="string" name="PRECFOCK"></i>
   <i type="logical" name="LSYMGRAD"> F  </i>
   <i type="logical" name="LHFONE"> F  </i>
   <i type="logical" name="LRHFCALC"> F  </i>
   <i type="logical" name="LTHOMAS"> F  </i>
   <i type="logical" name="LMODELHF"> F  </i>
   <i type="logical" name="LFOCKACE"> F  </i>
   <i name="ENCUT4O">     -1.00000000</i>
   <i type="int" name="EXXOEP">     0</i>
   <i type="int" name="FOURORBIT">     0</i>
   <i name="AEXX">      0.00000000</i>
   <i name="HFALPHA">      0.00000000</i>
   <i name="MCALPHA">      0.00000000</i>
   <i name="ALDAX">      1.00000000</i>
   <i name="AGGAX">      1.00000000</i>
   <i name="ALDAC">      1.00000000</i>
   <i name="AGGAC">      1.00000000</i>
   <i type="int" name="NKREDX">     1</i>
   <i type="int" name="NKREDY">     1</i>
   <i type="int" name="NKREDZ">     1</i>
   <i type="logical" name="SHIFTRED"> F  </i>
   <i type="logical" name="ODDONLY"> F  </i>
   <i type="logical" name="EVENONLY"> F  </i>
   <i type="int" name="LMAXFOCK">     0</i>
   <i type="int" name="NMAXFOCKAE">     0</i>
   <i type="logical" name="LFOCKAEDFT"> F  </i>
   <i name="HFSCREEN">      0.00000000</i>
   <i name="HFSCREENC">      0.00000000</i>
   <i type="int" name="NBANDSGWLOW">     0</i>
  </separator>
  <separator name="vdW DFT" >
   <i type="logical" name="LUSE_VDW"> F  </i>
   <i name="Zab_VDW">     -0.84910000</i>
   <i name="PARAM1">      0.12340000</i>
   <i name="PARAM2">      1.00000000</i>
   <i name="PARAM3">      0.00000000</i>
  </separator>
  <separator name="model GW" >
   <i type="int" name="MODEL_GW">     0</i>
   <i name="MODEL_EPS0">     15.48296118</i>
   <i name="MODEL_ALPHA">      1.00000000</i>
  </separator>
  <separator name="linear response parameters" >
   <i type="logical" name="LEPSILON"> F  </i>
   <i type="logical" name="LRPA"> F  </i>
   <i type="logical" name="LNABLA"> F  </i>
   <i type="logical" name="LVEL"> F  </i>
   <i type="int" name="KINTER">     0</i>
   <i name="CSHIFT">      0.10000000</i>
   <i name="OMEGAMAX">     -1.00000000</i>
   <i name="DEG_THRESHOLD">      0.00200000</i>
   <i name="RTIME">     -0.10000000</i>
   <i name="WPLASMAI">      0.00000000</i>
   <v name="DFIELD">      0.00000000      0.00000000      0.00000000</v>
   <v name="WPLASMA">      0.00000000      0.00000000      0.00000000      0.00000000      0.00000000      0.00000000      0.00000000      0.00000000      0.00000000</v>
  </separator>
  <separator name="orbital magnetization" >
   <i type="logical" name="NUCIND"> F  </i>
   <v name="MAGPOS">      0.00000000      0.00000000      0.00000000</v>
   <i type="logical" name="LNICSALL"> T  </i>
   <i type="logical" name="ORBITALMAG"> F  </i>
   <i type="logical" name="LMAGBLOCH"> F  </i>
   <i type="logical" name="LCHIMAG"> F  </i>
   <i type="logical" name="LGAUGE"> T  </i>
   <i type="int" name="MAGATOM">     0</i>
   <v name="MAGDIPOL">      0.00000000      0.00000000      0.00000000</v>
   <v name="AVECCONST">      0.00000000      0.00000000      0.00000000</v>
  </separator>
  <separator name="response functions" >
   <i type="logical" name="LFINITE_TEMPERATURE"> F  </i>
   <i type="logical" name="LADDER"> F  </i>
   <i type="logical" name="LRPAFORCE"> F  </i>
   <i type="logical" name="LFXC"> F  </i>
   <i type="logical" name="LHARTREE"> T  </i>
   <i type="int" name="IBSE">     0</i>
   <v type="int" name="KPOINT">    -1     0     0     0</v>
   <i type="logical" name="LTCTC"> F  </i>
   <i type="logical" name="LTCTE"> F  </i>
   <i type="logical" name="LTETE"> F  </i>
   <i type="logical" name="LTRIPLET"> F  </i>
   <i type="logical" name="LFXCEPS"> F  </i>
   <i type="logical" name="LFXHEG"> F  </i>
   <i type="int" name="NATURALO">     2</i>
   <i type="logical" name="L2ORDER"> F  </i>
   <i type="logical" name="LDMP1"> F  </i>
   <i type="logical" name="LMP2LT"> F  </i>
   <i type="logical" name="LSMP2LT"> F  </i>
   <i type="logical" name="LUSEW"> F  </i>
   <i name="ENCUTGW">     -2.00000000</i>
   <i name="ENCUTGWSOFT">     -2.00000000</i>
   <i name="ENCUTLF">     -1.00000000</i>
   <i type="int" name="LMAXMP2">    -1</i>
   <i name="SCISSOR">      0.00000000</i>
   <i type="int" name="NOMEGA">     0</i>
   <i type="int" name="NOMEGAR">     0</i>
   <i type="int" name="NBANDSGW">    -1</i>
   <i type="int" name="NBANDSO">    -1</i>
   <i type="int" name="NBANDSV">    -1</i>
   <i type="int" name="NELM">     1</i>
   <i type="int" name="NELMHF">     1</i>
   <i type="int" name="DIM">     3</i>
   <i type="int" name="IESPILON">     4</i>
   <i type="int" name="ANTIRES">     0</i>
   <i name="OMEGAMAX">    -30.00000000</i>
   <i name="OMEGAMIN">    -30.00000000</i>
   <i name="OMEGATL">   -200.00000000</i>
   <i type="int" name="OMEGAGRID">   145</i>
   <i name="CSHIFT">     -0.10000000</i>
   <i type="logical" name="LSELFENERGY"> F  </i>
   <i type="logical" name="LSPECTRAL"> F  </i>
   <i type="logical" name="LSPECTRALGW"> F  </i>
   <i type="logical" name="LSINGLES"> F  </i>
   <i type="logical" name="LFERMIGW"> F  </i>
   <i type="logical" name="ODDONLYGW"> F  </i>
   <i type="logical" name="EVENONLYGW"> F  </i>
   <i type="int" name="NKREDLFX">     1</i>
   <i type="int" name="NKREDLFY">     1</i>
   <i type="int" name="NKREDLFZ">     1</i>
   <i type="int" name="MAXMEM">  2800</i>
   <i type="int" name="TELESCOPE">     0</i>
   <i type="int" name="NTAUPAR">     1</i>
   <i type="int" name="NOMEGAPAR">    -1</i>
   <i name="LAMBDA">      1.00000000</i>
  </separator>
  <separator name="External order field" >
   <i name="OFIELD_KAPPA">      0.00000000</i>
   <v name="OFIELD_K">      0.00000000      0.00000000      0.00000000</v>
   <i name="OFIELD_Q6_NEAR">      0.00000000</i>
   <i name="OFIELD_Q6_FAR">      0.00000000</i>
   <i name="OFIELD_A">      0.00000000</i>
  </separator>
 </parameters>
 <atominfo>
  <atoms>       3 </atoms>
  <types>       3 </types>
  <array name="atoms" >
   <dimension dim="1">ion</dimension>
   <field type="string">element</field>
   <field type="int">atomtype</field>
   <set>
    <rc><c>U </c><c>   1</c></rc>
    <rc><c>Bi</c><c>   2</c></rc>
    <rc><c>Pt</c><c>   3</c></rc>
   </set>
  </array>
  <array name="atomtypes" >
   <dimension dim="1">type</dimension>
   <field type="int">atomspertype</field>
   <field type="string">element</field>
   <field>mass</field>
   <field>valence</field>
   <field type="string">pseudopotential</field>
   <set>
    <rc><c>   1</c><c>U </c><c>    238.02900000</c><c>     14.00000000</c><c>  PAW_PBE U 06Sep2000                   </c></rc>
    <rc><c>   1</c><c>Bi</c><c>    208.98000000</c><c>     15.00000000</c><c>  PAW_PBE Bi_d 06Sep2000                </c></rc>
    <rc><c>   1</c><c>Pt</c><c>    195.08000000</c><c>     10.00000000</c><c>  PAW_PBE Pt 04Feb2005                  </c></rc>
   </set>
  </array>
 </atominfo>
 <structure name="initialpos" >
  <crystal>
   <varray name="basis" >
    <v>       0.00000000       3.38270930       3.38270930 </v>
    <v>       3.38270930       0.00000000       3.38270930 </v>
    <v>       3.38270930       3.38270930       0.00000000 </v>
   </varray>
   <i name="volume">     77.41480592 </i>
   <varray name="rec_basis" >
    <v>      -0.14781051       0.14781051       0.14781051 </v>
    <v>       0.14781051      -0.14781051       0.14781051 </v>
    <v>       0.14781051       0.14781051      -0.14781051 </v>
   </varray>
  </crystal>
  <varray name="positions" >
   <v>       0.25000000       0.25000000       0.25000000 </v>
   <v>       0.75000000       0.75000000       0.75000000 </v>
   <v>       0.00000000       0.00000000       0.00000000 </v>
  </varray>
 </structure>
 <calculation>
  <scstep>
   <time name="dav">    1.52    1.58</time>
   <time name="total">    1.69    1.82</time>
   <energy>
    <i name="alphaZ">    203.12373693 </i>
    <i name="ewald">  -3524.18983400 </i>
    <i name="hartreedc">   -813.69275869 </i>
    <i name="XCdc">     89.66055527 </i>
    <i name="pawpsdc">   3513.29252893 </i>
    <i name="pawaedc">  -3436.88002192 </i>
    <i name="eentropy">     -0.00017811 </i>
    <i name="bandstr">    302.63657751 </i>
    <i name="atom">   4095.35208632 </i>
    <i name="e_fr_energy">    429.30269224 </i>
    <i name="e_wo_entrp">    429.30287035 </i>
    <i name="e_0_energy">    429.30278129 </i>
   </energy>
  </scstep>
  <scstep>
   <time name="dav">    1.73    1.79</time>
   <time name="total">    1.73    1.80</time>
   <energy>
    <i name="e_fr_energy">     27.96110191 </i>
    <i name="e_wo_entrp">     27.96151076 </i>
    <i name="e_0_energy">     27.96130633 </i>
   </energy>
  </scstep>
  <scstep>
   <time name="dav">    1.83    1.88</time>
   <time name="total">    1.83    1.88</time>
   <energy>
    <i name="e_fr_energy">    -20.48226667 </i>
    <i name="e_wo_entrp">    -20.48110522 </i>
    <i name="e_0_energy">    -20.48168594 </i>
   </energy>
  </scstep>
  <scstep>
   <time name="dav">    2.53    2.61</time>
   <time name="total">    2.54    2.61</time>
   <energy>
    <i name="e_fr_energy">    -25.76685441 </i>
    <i name="e_wo_entrp">    -25.76557535 </i>
    <i name="e_0_energy">    -25.76621488 </i>
   </energy>
  </scstep>
  <scstep>
   <time name="dav">    1.97    2.04</time>
   <time name="total">    2.34    2.41</time>
   <energy>
    <i name="e_fr_energy">    -25.94898686 </i>
    <i name="e_wo_entrp">    -25.94780399 </i>
    <i name="e_0_energy">    -25.94839542 </i>
   </energy>
  </scstep>
  <scstep>
   <time name="dav">    2.05    2.05</time>
   <time name="total">    2.56    2.60</time>
   <energy>
    <i name="e_fr_energy">    -34.55259987 </i>
    <i name="e_wo_entrp">    -34.55250655 </i>
    <i name="e_0_energy">    -34.55255321 </i>
   </energy>
  </scstep>
  <scstep>
   <time name="dav">    2.00    2.00</time>
   <time name="total">    2.48    2.52</time>
   <energy>
    <i name="e_fr_energy">    -24.82360467 </i>
    <i name="e_wo_entrp">    -24.82287682 </i>
    <i name="e_0_energy">    -24.82324075 </i>
   </energy>
  </scstep>
  <scstep>
   <time name="dav">    1.98    1.98</time>
   <time name="total">    2.47    2.50</time>
   <energy>
    <i name="e_fr_energy">    -24.60840374 </i>
    <i name="e_wo_entrp">    -24.60722703 </i>
    <i name="e_0_energy">    -24.60781538 </i>
   </energy>
  </scstep>
  <scstep>
   <time name="dav">    2.10    2.10</time>
   <time name="total">    2.59    2.66</time>
   <energy>
    <i name="e_fr_energy">    -23.66410931 </i>
    <i name="e_wo_entrp">    -23.66278347 </i>
    <i name="e_0_energy">    -23.66344639 </i>
   </energy>
  </scstep>
  <scstep>
   <time name="dav">    2.20    2.20</time>
   <time name="total">    2.68    2.73</time>
   <energy>
    <i name="e_fr_energy">    -23.74764174 </i>
    <i name="e_wo_entrp">    -23.74635028 </i>
    <i name="e_0_energy">    -23.74699601 </i>
   </energy>
  </scstep>
  <scstep>
   <time name="dav">    2.00    2.00</time>
   <time name="total">    2.49    2.52</time>
   <energy>
    <i name="e_fr_energy">    -23.68079380 </i>
    <i name="e_wo_entrp">    -23.67905058 </i>
    <i name="e_0_energy">    -23.67992219 </i>
   </energy>
  </scstep>
  <scstep>
   <time name="dav">    2.30    2.30</time>
   <time name="total">    2.80    2.83</time>
   <energy>
    <i name="e_fr_energy">    -23.68297122 </i>
    <i name="e_wo_entrp">    -23.68108420 </i>
    <i name="e_0_energy">    -23.68202771 </i>
   </energy>
  </scstep>
  <scstep>
   <time name="dav">    2.29    2.29</time>
   <time name="total">    2.77    2.81</time>
   <energy>
    <i name="e_fr_energy">    -23.68279211 </i>
    <i name="e_wo_entrp">    -23.68089975 </i>
    <i name="e_0_energy">    -23.68184593 </i>
   </energy>
  </scstep>
  <scstep>
   <time name="dav">    2.06    2.06</time>
   <time name="total">    2.54    2.58</time>
   <energy>
    <i name="e_fr_energy">    -23.68211167 </i>
    <i name="e_wo_entrp">    -23.68030492 </i>
    <i name="e_0_energy">    -23.68120830 </i>
   </energy>
  </scstep>
  <scstep>
   <time name="dav">    2.24    2.24</time>
   <time name="total">    2.73    2.76</time>
   <energy>
    <i name="e_fr_energy">    -23.68207200 </i>
    <i name="e_wo_entrp">    -23.68024371 </i>
    <i name="e_0_energy">    -23.68115786 </i>
   </energy>
  </scstep>
  <scstep>
   <time name="dav">    1.97    1.97</time>
   <time name="total">    2.46    2.53</time>
   <energy>
    <i name="e_fr_energy">    -23.68207518 </i>
    <i name="e_wo_entrp">    -23.68024520 </i>
    <i name="e_0_energy">    -23.68116019 </i>
   </energy>
  </scstep>
  <scstep>
   <time name="dav">    2.04    2.04</time>
   <time name="total">    2.54    2.59</time>
   <energy>
    <i name="e_fr_energy">    -23.68207449 </i>
    <i name="e_wo_entrp">    -23.68024623 </i>
    <i name="e_0_energy">    -23.68116036 </i>
   </energy>
  </scstep>
  <scstep>
   <time name="dav">    1.55    1.55</time>
   <time name="total">    1.73    1.78</time>
   <energy>
    <i name="alphaZ">    203.12373693 </i>
    <i name="ewald">  -3524.18983400 </i>
    <i name="hartreedc">   -801.84132945 </i>
    <i name="XCdc">     89.31370928 </i>
    <i name="pawpsdc">   4081.49626856 </i>
    <i name="pawaedc">  -4013.66122335 </i>
    <i name="eentropy">     -0.00182798 </i>
    <i name="bandstr">   -153.27366073 </i>
    <i name="atom">   4095.35208632 </i>
    <i name="e_fr_energy">    -23.68207441 </i>
    <i name="e_wo_entrp">    -23.68024643 </i>
    <i name="e_0_energy">    -23.68116042 </i>
   </energy>
  </scstep>
  <structure>
   <crystal>
    <varray name="basis" >
     <v>       0.00000000       3.38270930       3.38270930 </v>
     <v>       3.38270930       0.00000000       3.38270930 </v>
     <v>       3.38270930       3.38270930       0.00000000 </v>
    </varray>
    <i name="volume">     77.41480592 </i>
    <varray name="rec_basis" >
     <v>      -0.14781051       0.14781051       0.14781051 </v>
     <v>       0.14781051      -0.14781051       0.14781051 </v>
     <v>       0.14781051       0.14781051      -0.14781051 </v>
    </varray>
   </crystal>
   <varray name="positions" >
    <v>       0.25000000       0.25000000       0.25000000 </v>
    <v>       0.75000000       0.75000000       0.75000000 </v>
    <v>       0.00000000       0.00000000       0.00000000 </v>
   </varray>
  </structure>
  <varray name="forces" >
   <v>      -0.00000000       0.00000000       0.00000000 </v>
   <v>      -0.00000000       0.00000000       0.00000000 </v>
   <v>       0.00000000      -0.00000000      -0.00000000 </v>
  </varray>
  <varray name="stress" >
   <v>     -60.46972637      -0.00000000       0.00000000 </v>
   <v>      -0.00000000     -60.46972637       0.00000000 </v>
   <v>       0.00000000       0.00000000     -60.46972637 </v>
  </varray>
  <energy>
   <i name="e_fr_energy">    -23.68207441 </i>
   <i name="e_wo_entrp">    -23.68116042 </i>
   <i name="e_0_energy">     -0.00182798 </i>
  </energy>
  <time name="totalsc">   46.98   48.45</time>
  <eigenvalues>
   <array>
    <dimension dim="1">band</dimension>
    <dimension dim="2">kpoint</dimension>
    <dimension dim="3">spin</dimension>
    <field>eigene</field>
    <field>occ</field>
    <set>
     <set comment="spin 1">
      <set comment="kpoint 1">
       <r>  -34.8629    1.0000 </r>
       <r>  -13.5163    1.0000 </r>
       <r>  -13.5163    1.0000 </r>
       <r>  -13.4910    1.0000 </r>
       <r>  -13.4910    1.0000 </r>
       <r>  -13.4910    1.0000 </r>
       <r>  -10.1048    1.0000 </r>
       <r>  -10.1048    1.0000 </r>
       <r>  -10.1048    1.0000 </r>
       <r>   -2.8980    1.0000 </r>
       <r>    4.9352    1.0000 </r>
       <r>    4.9352    1.0000 </r>
       <r>    4.9352    1.0000 </r>
       <r>    5.2318    1.0000 </r>
       <r>    5.2318    1.0000 </r>
       <r>    7.5264    1.0000 </r>
       <r>    8.2270    1.0000 </r>
       <r>    8.2270    1.0000 </r>
       <r>    8.2270    1.0000 </r>
       <r>    9.3190    0.0436 </r>
       <r>    9.3190    0.0436 </r>
       <r>    9.3190    0.0436 </r>
       <r>    9.3572    0.0000 </r>
       <r>    9.5152    0.0000 </r>
      </set>
      <set comment="kpoint 2">
       <r>  -34.8627    1.0000 </r>
       <r>  -13.5175    1.0000 </r>
       <r>  -13.5175    1.0000 </r>
       <r>  -13.4912    1.0000 </r>
       <r>  -13.4908    1.0000 </r>
       <r>  -13.4908    1.0000 </r>
       <r>  -10.1159    1.0000 </r>
       <r>  -10.1023    1.0000 </r>
       <r>  -10.1023    1.0000 </r>
       <r>   -2.8395    1.0000 </r>
       <r>    4.8077    1.0000 </r>
       <r>    4.8415    1.0000 </r>
       <r>    4.8415    1.0000 </r>
       <r>    5.3198    1.0000 </r>
       <r>    5.3198    1.0000 </r>
       <r>    7.2453    1.0000 </r>
       <r>    8.1718    1.0000 </r>
       <r>    8.1718    1.0000 </r>
       <r>    8.4022    1.0000 </r>
       <r>    9.2400    1.0000 </r>
       <r>    9.2938    0.9683 </r>
       <r>    9.2938    0.9683 </r>
       <r>    9.4992    0.0000 </r>
       <r>    9.5919    0.0000 </r>
      </set>
      <set comment="kpoint 3">
       <r>  -34.8622    1.0000 </r>
       <r>  -13.5209    1.0000 </r>
       <r>  -13.5209    1.0000 </r>
       <r>  -13.4918    1.0000 </r>
       <r>  -13.4904    1.0000 </r>
       <r>  -13.4904    1.0000 </r>
       <r>  -10.1460    1.0000 </r>
       <r>  -10.0954    1.0000 </r>
       <r>  -10.0954    1.0000 </r>
       <r>   -2.6760    1.0000 </r>
       <r>    4.4878    1.0000 </r>
       <r>    4.6976    1.0000 </r>
       <r>    4.6976    1.0000 </r>
       <r>    5.4377    1.0000 </r>
       <r>    5.4377    1.0000 </r>
       <r>    6.7548    1.0000 </r>
       <r>    8.0496    1.0000 </r>
       <r>    8.0496    1.0000 </r>
       <r>    8.4957    1.0000 </r>
       <r>    9.2736    1.0000 </r>
       <r>    9.2736    1.0000 </r>
       <r>    9.4251    0.0000 </r>
       <r>    9.5193    0.0000 </r>
       <r>    9.6570    0.0000 </r>
      </set>
      <set comment="kpoint 4">
       <r>  -34.8615    1.0000 </r>
       <r>  -13.5256    1.0000 </r>
       <r>  -13.5256    1.0000 </r>
       <r>  -13.4928    1.0000 </r>
       <r>  -13.4896    1.0000 </r>
       <r>  -13.4896    1.0000 </r>
       <r>  -10.1863    1.0000 </r>
       <r>  -10.0858    1.0000 </r>
       <r>  -10.0858    1.0000 </r>
       <r>   -2.4413    1.0000 </r>
       <r>    4.0955    1.0000 </r>
       <r>    4.5856    1.0000 </r>
       <r>    4.5856    1.0000 </r>
       <r>    5.4871    1.0000 </r>
       <r>    5.4871    1.0000 </r>
       <r>    6.2712    1.0000 </r>
       <r>    7.9369    1.0000 </r>
       <r>    7.9369    1.0000 </r>
       <r>    8.5013    1.0000 </r>
       <r>    9.2769    1.0000 </r>
       <r>    9.2769    1.0000 </r>
       <r>    9.5226    0.0000 </r>
       <r>    9.5642    0.0000 </r>
       <r>    9.7820    0.0000 </r>
      </set>
      <set comment="kpoint 5">
       <r>  -34.8607    1.0000 </r>
       <r>  -13.5306    1.0000 </r>
       <r>  -13.5306    1.0000 </r>
       <r>  -13.4941    1.0000 </r>
       <r>  -13.4889    1.0000 </r>
       <r>  -13.4889    1.0000 </r>
       <r>  -10.2266    1.0000 </r>
       <r>  -10.0756    1.0000 </r>
       <r>  -10.0756    1.0000 </r>
       <r>   -2.1860    1.0000 </r>
       <r>    3.7292    1.0000 </r>
       <r>    4.5231    1.0000 </r>
       <r>    4.5231    1.0000 </r>
       <r>    5.4512    1.0000 </r>
       <r>    5.4512    1.0000 </r>
       <r>    5.8767    1.0000 </r>
       <r>    7.8761    1.0000 </r>
       <r>    7.8761    1.0000 </r>
       <r>    8.5397    1.0000 </r>
       <r>    9.2987    0.8761 </r>
       <r>    9.2987    0.8761 </r>
       <r>    9.5297    0.0000 </r>
       <r>    9.6237    0.0000 </r>
       <r>    9.7458    0.0000 </r>
      </set>
      <set comment="kpoint 6">
       <r>  -34.8601    1.0000 </r>
       <r>  -13.5347    1.0000 </r>
       <r>  -13.5347    1.0000 </r>
       <r>  -13.4952    1.0000 </r>
       <r>  -13.4882    1.0000 </r>
       <r>  -13.4882    1.0000 </r>
       <r>  -10.2581    1.0000 </r>
       <r>  -10.0672    1.0000 </r>
       <r>  -10.0672    1.0000 </r>
       <r>   -1.9689    1.0000 </r>
       <r>    3.4534    1.0000 </r>
       <r>    4.5056    1.0000 </r>
       <r>    4.5056    1.0000 </r>
       <r>    5.3654    1.0000 </r>
       <r>    5.3654    1.0000 </r>
       <r>    5.6074    1.0000 </r>
       <r>    7.8612    1.0000 </r>
       <r>    7.8612    1.0000 </r>
       <r>    8.6092    1.0000 </r>
       <r>    9.3336    0.0001 </r>
       <r>    9.3336    0.0001 </r>
       <r>    9.5301    0.0000 </r>
       <r>    9.6700    0.0000 </r>
       <r>    9.6701    0.0000 </r>
      </set>
      <set comment="kpoint 7">
       <r>  -34.8597    1.0000 </r>
       <r>  -13.5371    1.0000 </r>
       <r>  -13.5371    1.0000 </r>
       <r>  -13.4959    1.0000 </r>
       <r>  -13.4878    1.0000 </r>
       <r>  -13.4878    1.0000 </r>
       <r>  -10.2752    1.0000 </r>
       <r>  -10.0625    1.0000 </r>
       <r>  -10.0625    1.0000 </r>
       <r>   -1.8439    1.0000 </r>
       <r>    3.3065    1.0000 </r>
       <r>    4.5109    1.0000 </r>
       <r>    4.5109    1.0000 </r>
       <r>    5.2949    1.0000 </r>
       <r>    5.2949    1.0000 </r>
       <r>    5.4727    1.0000 </r>
       <r>    7.8639    1.0000 </r>
       <r>    7.8639    1.0000 </r>
       <r>    8.6673    1.0000 </r>
       <r>    9.3672    0.0000 </r>
       <r>    9.3672    0.0000 </r>
       <r>    9.5998    0.0000 </r>
       <r>    9.6087    0.0000 </r>
       <r>    9.6368    0.0000 </r>
      </set>
      <set comment="kpoint 8">
       <r>  -34.8627    1.0000 </r>
       <r>  -13.5196    1.0000 </r>
       <r>  -13.5160    1.0000 </r>
       <r>  -13.4914    1.0000 </r>
       <r>  -13.4907    1.0000 </r>
       <r>  -13.4907    1.0000 </r>
       <r>  -10.1106    1.0000 </r>
       <r>  -10.1061    1.0000 </r>
       <r>  -10.1061    1.0000 </r>
       <r>   -2.8214    1.0000 </r>
       <r>    4.5878    1.0000 </r>
       <r>    4.9493    1.0000 </r>
       <r>    4.9493    1.0000 </r>
       <r>    5.2456    1.0000 </r>
       <r>    5.3575    1.0000 </r>
       <r>    7.2266    1.0000 </r>
       <r>    8.0834    1.0000 </r>
       <r>    8.0834    1.0000 </r>
       <r>    8.5635    1.0000 </r>
       <r>    9.1694    1.0000 </r>
       <r>    9.3034    0.6872 </r>
       <r>    9.3034    0.6872 </r>
       <r>    9.5224    0.0000 </r>
       <r>    9.5250    0.0000 </r>
      </set>
      <set comment="kpoint 9">
       <r>  -34.8623    1.0000 </r>
       <r>  -13.5233    1.0000 </r>
       <r>  -13.5170    1.0000 </r>
       <r>  -13.4919    1.0000 </r>
       <r>  -13.4904    1.0000 </r>
       <r>  -13.4903    1.0000 </r>
       <r>  -10.1336    1.0000 </r>
       <r>  -10.1048    1.0000 </r>
       <r>  -10.0980    1.0000 </r>
       <r>   -2.6969    1.0000 </r>
       <r>    4.3154    1.0000 </r>
       <r>    4.8473    1.0000 </r>
       <r>    4.8823    1.0000 </r>
       <r>    5.3241    1.0000 </r>
       <r>    5.4449    1.0000 </r>
       <r>    6.9034    1.0000 </r>
       <r>    7.9435    1.0000 </r>
       <r>    7.9507    1.0000 </r>
       <r>    8.6845    1.0000 </r>
       <r>    9.2346    1.0000 </r>
       <r>    9.2917    0.9840 </r>
       <r>    9.3511    0.0000 </r>
       <r>    9.5303    0.0000 </r>
       <r>    9.6257    0.0000 </r>
      </set>
      <set comment="kpoint 10">
       <r>  -34.8616    1.0000 </r>
       <r>  -13.5278    1.0000 </r>
       <r>  -13.5202    1.0000 </r>
       <r>  -13.4926    1.0000 </r>
       <r>  -13.4899    1.0000 </r>
       <r>  -13.4896    1.0000 </r>
       <r>  -10.1707    1.0000 </r>
       <r>  -10.0987    1.0000 </r>
       <r>  -10.0873    1.0000 </r>
       <r>   -2.4928    1.0000 </r>
       <r>    4.0308    1.0000 </r>
       <r>    4.6517    1.0000 </r>
       <r>    4.7759    1.0000 </r>
       <r>    5.3944    1.0000 </r>
       <r>    5.5266    1.0000 </r>
       <r>    6.4629    1.0000 </r>
       <r>    7.7989    1.0000 </r>
       <r>    7.8456    1.0000 </r>
       <r>    8.6709    1.0000 </r>
       <r>    9.2642    1.0000 </r>
       <r>    9.2870    0.9976 </r>
       <r>    9.5268    0.0000 </r>
       <r>    9.5327    0.0000 </r>
       <r>    9.7414    0.0000 </r>
      </set>
      <set comment="kpoint 11">
       <r>  -34.8609    1.0000 </r>
       <r>  -13.5320    1.0000 </r>
       <r>  -13.5250    1.0000 </r>
       <r>  -13.4936    1.0000 </r>
       <r>  -13.4893    1.0000 </r>
       <r>  -13.4888    1.0000 </r>
       <r>  -10.2110    1.0000 </r>
       <r>  -10.0893    1.0000 </r>
       <r>  -10.0775    1.0000 </r>
       <r>   -2.2537    1.0000 </r>
       <r>    3.7537    1.0000 </r>
       <r>    4.5050    1.0000 </r>
       <r>    4.6933    1.0000 </r>
       <r>    5.3857    1.0000 </r>
       <r>    5.5368    1.0000 </r>
       <r>    6.0432    1.0000 </r>
       <r>    7.7131    1.0000 </r>
       <r>    7.8020    1.0000 </r>
       <r>    8.6592    1.0000 </r>
       <r>    9.2933    0.9728 </r>
       <r>    9.2971    0.9165 </r>
       <r>    9.5347    0.0000 </r>
       <r>    9.5917    0.0000 </r>
       <r>    9.7371    0.0000 </r>
      </set>
      <set comment="kpoint 12">
       <r>  -34.8602    1.0000 </r>
       <r>  -13.5351    1.0000 </r>
       <r>  -13.5301    1.0000 </r>
       <r>  -13.4947    1.0000 </r>
       <r>  -13.4887    1.0000 </r>
       <r>  -13.4881    1.0000 </r>
       <r>  -10.2451    1.0000 </r>
       <r>  -10.0787    1.0000 </r>
       <r>  -10.0710    1.0000 </r>
       <r>   -2.0342    1.0000 </r>
       <r>    3.5256    1.0000 </r>
       <r>    4.4449    1.0000 </r>
       <r>    4.6333    1.0000 </r>
       <r>    5.3284    1.0000 </r>
       <r>    5.4749    1.0000 </r>
       <r>    5.7206    1.0000 </r>
       <r>    7.6859    1.0000 </r>
       <r>    7.8049    1.0000 </r>
       <r>    8.6853    1.0000 </r>
       <r>    9.3233    0.0101 </r>
       <r>    9.3315    0.0003 </r>
       <r>    9.5351    0.0000 </r>
       <r>    9.6197    0.0000 </r>
       <r>    9.6979    0.0000 </r>
      </set>
      <set comment="kpoint 13">
       <r>  -34.8597    1.0000 </r>
       <r>  -13.5362    1.0000 </r>
       <r>  -13.5343    1.0000 </r>
       <r>  -13.4955    1.0000 </r>
       <r>  -13.4882    1.0000 </r>
       <r>  -13.4877    1.0000 </r>
       <r>  -10.2667    1.0000 </r>
       <r>  -10.0694    1.0000 </r>
       <r>  -10.0691    1.0000 </r>
       <r>   -1.8862    1.0000 </r>
       <r>    3.3838    1.0000 </r>
       <r>    4.4608    1.0000 </r>
       <r>    4.5719    1.0000 </r>
       <r>    5.2942    1.0000 </r>
       <r>    5.3823    1.0000 </r>
       <r>    5.5274    1.0000 </r>
       <r>    7.6866    1.0000 </r>
       <r>    7.8204    1.0000 </r>
       <r>    8.7299    1.0000 </r>
       <r>    9.3610    0.0000 </r>
       <r>    9.3655    0.0000 </r>
       <r>    9.5310    0.0000 </r>
       <r>    9.6006    0.0000 </r>
       <r>    9.6748    0.0000 </r>
      </set>
      <set comment="kpoint 14">
       <r>  -34.8596    1.0000 </r>
       <r>  -13.5369    1.0000 </r>
       <r>  -13.5353    1.0000 </r>
       <r>  -13.4957    1.0000 </r>
       <r>  -13.4880    1.0000 </r>
       <r>  -13.4876    1.0000 </r>
       <r>  -10.2721    1.0000 </r>
       <r>  -10.0721    1.0000 </r>
       <r>  -10.0634    1.0000 </r>
       <r>   -1.8456    1.0000 </r>
       <r>    3.3468    1.0000 </r>
       <r>    4.4955    1.0000 </r>
       <r>    4.5240    1.0000 </r>
       <r>    5.3082    1.0000 </r>
       <r>    5.3314    1.0000 </r>
       <r>    5.4796    1.0000 </r>
       <r>    7.6808    1.0000 </r>
       <r>    7.8293    1.0000 </r>
       <r>    8.7484    1.0000 </r>
       <r>    9.3671    0.0000 </r>
       <r>    9.3879    0.0000 </r>
       <r>    9.5225    0.0000 </r>
       <r>    9.6059    0.0000 </r>
       <r>    9.6135    0.0000 </r>
      </set>
      <set comment="kpoint 15">
       <r>  -34.8599    1.0000 </r>
       <r>  -13.5370    1.0000 </r>
       <r>  -13.5324    1.0000 </r>
       <r>  -13.4952    1.0000 </r>
       <r>  -13.4881    1.0000 </r>
       <r>  -13.4880    1.0000 </r>
       <r>  -10.2608    1.0000 </r>
       <r>  -10.0793    1.0000 </r>
       <r>  -10.0620    1.0000 </r>
       <r>   -1.9225    1.0000 </r>
       <r>    3.4209    1.0000 </r>
       <r>    4.4262    1.0000 </r>
       <r>    4.6024    1.0000 </r>
       <r>    5.2922    1.0000 </r>
       <r>    5.4259    1.0000 </r>
       <r>    5.5785    1.0000 </r>
       <r>    7.6499    1.0000 </r>
       <r>    7.8367    1.0000 </r>
       <r>    8.7211    1.0000 </r>
       <r>    9.3368    0.0000 </r>
       <r>    9.3691    0.0000 </r>
       <r>    9.5277    0.0000 </r>
       <r>    9.6303    0.0000 </r>
       <r>    9.6467    0.0000 </r>
      </set>
      <set comment="kpoint 16">
       <r>  -34.8604    1.0000 </r>
       <r>  -13.5349    1.0000 </r>
       <r>  -13.5282    1.0000 </r>
       <r>  -13.4943    1.0000 </r>
       <r>  -13.4887    1.0000 </r>
       <r>  -13.4886    1.0000 </r>
       <r>  -10.2345    1.0000 </r>
       <r>  -10.0890    1.0000 </r>
       <r>  -10.0657    1.0000 </r>
       <r>   -2.0983    1.0000 </r>
       <r>    3.6051    1.0000 </r>
       <r>    4.3964    1.0000 </r>
       <r>    4.6826    1.0000 </r>
       <r>    5.3325    1.0000 </r>
       <r>    5.5267    1.0000 </r>
       <r>    5.8149    1.0000 </r>
       <r>    7.6028    1.0000 </r>
       <r>    7.8657    1.0000 </r>
       <r>    8.6783    1.0000 </r>
       <r>    9.3055    0.5786 </r>
       <r>    9.3273    0.0020 </r>
       <r>    9.5321    0.0000 </r>
       <r>    9.6280    0.0000 </r>
       <r>    9.6920    0.0000 </r>
      </set>
      <set comment="kpoint 17">
       <r>  -34.8611    1.0000 </r>
       <r>  -13.5309    1.0000 </r>
       <r>  -13.5237    1.0000 </r>
       <r>  -13.4932    1.0000 </r>
       <r>  -13.4894    1.0000 </r>
       <r>  -13.4892    1.0000 </r>
       <r>  -10.1978    1.0000 </r>
       <r>  -10.0988    1.0000 </r>
       <r>  -10.0736    1.0000 </r>
       <r>   -2.3305    1.0000 </r>
       <r>    3.8834    1.0000 </r>
       <r>    4.4258    1.0000 </r>
       <r>    4.7784    1.0000 </r>
       <r>    5.3697    1.0000 </r>
       <r>    5.5796    1.0000 </r>
       <r>    6.1727    1.0000 </r>
       <r>    7.5831    1.0000 </r>
       <r>    7.9398    1.0000 </r>
       <r>    8.6575    1.0000 </r>
       <r>    9.2862    0.9983 </r>
       <r>    9.2899    0.9917 </r>
       <r>    9.5307    0.0000 </r>
       <r>    9.5821    0.0000 </r>
       <r>    9.7585    0.0000 </r>
      </set>
      <set comment="kpoint 18">
       <r>  -34.8619    1.0000 </r>
       <r>  -13.5259    1.0000 </r>
       <r>  -13.5198    1.0000 </r>
       <r>  -13.4922    1.0000 </r>
       <r>  -13.4901    1.0000 </r>
       <r>  -13.4899    1.0000 </r>
       <r>  -10.1588    1.0000 </r>
       <r>  -10.1061    1.0000 </r>
       <r>  -10.0839    1.0000 </r>
       <r>   -2.5645    1.0000 </r>
       <r>    4.2172    1.0000 </r>
       <r>    4.5193    1.0000 </r>
       <r>    4.8951    1.0000 </r>
       <r>    5.3449    1.0000 </r>
       <r>    5.5530    1.0000 </r>
       <r>    6.6013    1.0000 </r>
       <r>    7.6612    1.0000 </r>
       <r>    8.0545    1.0000 </r>
       <r>    8.6618    1.0000 </r>
       <r>    9.2671    1.0000 </r>
       <r>    9.2789    1.0000 </r>
       <r>    9.5001    0.0000 </r>
       <r>    9.5270    0.0000 </r>
       <r>    9.7201    0.0000 </r>
      </set>
      <set comment="kpoint 19">
       <r>  -34.8624    1.0000 </r>
       <r>  -13.5211    1.0000 </r>
       <r>  -13.5176    1.0000 </r>
       <r>  -13.4915    1.0000 </r>
       <r>  -13.4906    1.0000 </r>
       <r>  -13.4905    1.0000 </r>
       <r>  -10.1284    1.0000 </r>
       <r>  -10.1076    1.0000 </r>
       <r>  -10.0943    1.0000 </r>
       <r>   -2.7474    1.0000 </r>
       <r>    4.5480    1.0000 </r>
       <r>    4.6676    1.0000 </r>
       <r>    4.9616    1.0000 </r>
       <r>    5.2913    1.0000 </r>
       <r>    5.4534    1.0000 </r>
       <r>    6.9930    1.0000 </r>
       <r>    7.8968    1.0000 </r>
       <r>    8.1564    1.0000 </r>
       <r>    8.6017    1.0000 </r>
       <r>    9.2591    1.0000 </r>
       <r>    9.2681    1.0000 </r>
       <r>    9.3339    0.0001 </r>
       <r>    9.5218    0.0000 </r>
       <r>    9.5854    0.0000 </r>
      </set>
      <set comment="kpoint 20">
       <r>  -34.8620    1.0000 </r>
       <r>  -13.5265    1.0000 </r>
       <r>  -13.5152    1.0000 </r>
       <r>  -13.4924    1.0000 </r>
       <r>  -13.4899    1.0000 </r>
       <r>  -13.4899    1.0000 </r>
       <r>  -10.1281    1.0000 </r>
       <r>  -10.1099    1.0000 </r>
       <r>  -10.1099    1.0000 </r>
       <r>   -2.6231    1.0000 </r>
       <r>    4.0367    1.0000 </r>
       <r>    4.9792    1.0000 </r>
       <r>    4.9792    1.0000 </r>
       <r>    5.2844    1.0000 </r>
       <r>    5.3914    1.0000 </r>
       <r>    6.8752    1.0000 </r>
       <r>    7.8194    1.0000 </r>
       <r>    7.8194    1.0000 </r>
       <r>    8.7579    1.0000 </r>
       <r>    9.2832    0.9996 </r>
       <r>    9.2986    0.8791 </r>
       <r>    9.2986    0.8791 </r>
       <r>    9.5545    0.0000 </r>
       <r>    9.6765    0.0000 </r>
      </set>
      <set comment="kpoint 21">
       <r>  -34.8615    1.0000 </r>
       <r>  -13.5296    1.0000 </r>
       <r>  -13.5160    1.0000 </r>
       <r>  -13.4931    1.0000 </r>
       <r>  -13.4894    1.0000 </r>
       <r>  -13.4893    1.0000 </r>
       <r>  -10.1558    1.0000 </r>
       <r>  -10.1095    1.0000 </r>
       <r>  -10.1022    1.0000 </r>
       <r>   -2.4731    1.0000 </r>
       <r>    3.8022    1.0000 </r>
       <r>    4.8702    1.0000 </r>
       <r>    4.9378    1.0000 </r>
       <r>    5.3342    1.0000 </r>
       <r>    5.4365    1.0000 </r>
       <r>    6.6350    1.0000 </r>
       <r>    7.6445    1.0000 </r>
       <r>    7.7236    1.0000 </r>
       <r>    8.7785    1.0000 </r>
       <r>    9.2696    1.0000 </r>
       <r>    9.3000    0.8367 </r>
       <r>    9.4622    0.0000 </r>
       <r>    9.5662    0.0000 </r>
       <r>    9.7491    0.0000 </r>
      </set>
      <set comment="kpoint 22">
       <r>  -34.8608    1.0000 </r>
       <r>  -13.5321    1.0000 </r>
       <r>  -13.5192    1.0000 </r>
       <r>  -13.4938    1.0000 </r>
       <r>  -13.4891    1.0000 </r>
       <r>  -13.4884    1.0000 </r>
       <r>  -10.1930    1.0000 </r>
       <r>  -10.1037    1.0000 </r>
       <r>  -10.0929    1.0000 </r>
       <r>   -2.2829    1.0000 </r>
       <r>    3.6394    1.0000 </r>
       <r>    4.6703    1.0000 </r>
       <r>    4.8603    1.0000 </r>
       <r>    5.3510    1.0000 </r>
       <r>    5.5034    1.0000 </r>
       <r>    6.2859    1.0000 </r>
       <r>    7.4660    1.0000 </r>
       <r>    7.6936    1.0000 </r>
       <r>    8.8013    1.0000 </r>
       <r>    9.2858    0.9986 </r>
       <r>    9.3074    0.4713 </r>
       <r>    9.5360    0.0000 </r>
       <r>    9.5673    0.0000 </r>
       <r>    9.7507    0.0000 </r>
      </set>
      <set comment="kpoint 23">
       <r>  -34.8601    1.0000 </r>
       <r>  -13.5332    1.0000 </r>
       <r>  -13.5241    1.0000 </r>
       <r>  -13.4944    1.0000 </r>
       <r>  -13.4888    1.0000 </r>
       <r>  -13.4877    1.0000 </r>
       <r>  -10.2265    1.0000 </r>
       <r>  -10.0940    1.0000 </r>
       <r>  -10.0882    1.0000 </r>
       <r>   -2.0974    1.0000 </r>
       <r>    3.5538    1.0000 </r>
       <r>    4.5169    1.0000 </r>
       <r>    4.7736    1.0000 </r>
       <r>    5.3289    1.0000 </r>
       <r>    5.5105    1.0000 </r>
       <r>    5.9373    1.0000 </r>
       <r>    7.3694    1.0000 </r>
       <r>    7.7095    1.0000 </r>
       <r>    8.8133    1.0000 </r>
       <r>    9.3242    0.0073 </r>
       <r>    9.3278    0.0015 </r>
       <r>    9.5611    0.0000 </r>
       <r>    9.5626    0.0000 </r>
       <r>    9.7233    0.0000 </r>
      </set>
      <set comment="kpoint 24">
       <r>  -34.8596    1.0000 </r>
       <r>  -13.5330    1.0000 </r>
       <r>  -13.5293    1.0000 </r>
       <r>  -13.4948    1.0000 </r>
       <r>  -13.4887    1.0000 </r>
       <r>  -13.4873    1.0000 </r>
       <r>  -10.2496    1.0000 </r>
       <r>  -10.0892    1.0000 </r>
       <r>  -10.0825    1.0000 </r>
       <r>   -1.9577    1.0000 </r>
       <r>    3.5249    1.0000 </r>
       <r>    4.4554    1.0000 </r>
       <r>    4.6613    1.0000 </r>
       <r>    5.3312    1.0000 </r>
       <r>    5.4549    1.0000 </r>
       <r>    5.6829    1.0000 </r>
       <r>    7.3314    1.0000 </r>
       <r>    7.7314    1.0000 </r>
       <r>    8.8384    1.0000 </r>
       <r>    9.3571    0.0000 </r>
       <r>    9.3633    0.0000 </r>
       <r>    9.5498    0.0000 </r>
       <r>    9.5743    0.0000 </r>
       <r>    9.7060    0.0000 </r>
      </set>
      <set comment="kpoint 25">
       <r>  -34.8594    1.0000 </r>
       <r>  -13.5338    1.0000 </r>
       <r>  -13.5313    1.0000 </r>
       <r>  -13.4949    1.0000 </r>
       <r>  -13.4887    1.0000 </r>
       <r>  -13.4872    1.0000 </r>
       <r>  -10.2583    1.0000 </r>
       <r>  -10.0954    1.0000 </r>
       <r>  -10.0718    1.0000 </r>
       <r>   -1.8920    1.0000 </r>
       <r>    3.5165    1.0000 </r>
       <r>    4.4913    1.0000 </r>
       <r>    4.5288    1.0000 </r>
       <r>    5.3705    1.0000 </r>
       <r>    5.3923    1.0000 </r>
       <r>    5.5809    1.0000 </r>
       <r>    7.3047    1.0000 </r>
       <r>    7.7402    1.0000 </r>
       <r>    8.8634    1.0000 </r>
       <r>    9.3583    0.0000 </r>
       <r>    9.4069    0.0000 </r>
       <r>    9.5229    0.0000 </r>
       <r>    9.5994    0.0000 </r>
       <r>    9.6688    0.0000 </r>
      </set>
      <set comment="kpoint 26">
       <r>  -34.8595    1.0000 </r>
       <r>  -13.5365    1.0000 </r>
       <r>  -13.5286    1.0000 </r>
       <r>  -13.4945    1.0000 </r>
       <r>  -13.4887    1.0000 </r>
       <r>  -13.4876    1.0000 </r>
       <r>  -10.2520    1.0000 </r>
       <r>  -10.1048    1.0000 </r>
       <r>  -10.0644    1.0000 </r>
       <r>   -1.9131    1.0000 </r>
       <r>    3.5168    1.0000 </r>
       <r>    4.4098    1.0000 </r>
       <r>    4.6004    1.0000 </r>
       <r>    5.3082    1.0000 </r>
       <r>    5.4936    1.0000 </r>
       <r>    5.6432    1.0000 </r>
       <r>    7.2515    1.0000 </r>
       <r>    7.7466    1.0000 </r>
       <r>    8.8626    1.0000 </r>
       <r>    9.3322    0.0002 </r>
       <r>    9.4213    0.0000 </r>
       <r>    9.5086    0.0000 </r>
       <r>    9.6285    0.0000 </r>
       <r>    9.6365    0.0000 </r>
      </set>
      <set comment="kpoint 27">
       <r>  -34.8600    1.0000 </r>
       <r>  -13.5369    1.0000 </r>
       <r>  -13.5254    1.0000 </r>
       <r>  -13.4938    1.0000 </r>
       <r>  -13.4889    1.0000 </r>
       <r>  -13.4882    1.0000 </r>
       <r>  -10.2324    1.0000 </r>
       <r>  -10.1145    1.0000 </r>
       <r>  -10.0619    1.0000 </r>
       <r>   -2.0194    1.0000 </r>
       <r>    3.5601    1.0000 </r>
       <r>    4.3360    1.0000 </r>
       <r>    4.7453    1.0000 </r>
       <r>    5.2847    1.0000 </r>
       <r>    5.5930    1.0000 </r>
       <r>    5.8538    1.0000 </r>
       <r>    7.1685    1.0000 </r>
       <r>    7.7780    1.0000 </r>
       <r>    8.8387    1.0000 </r>
       <r>    9.3060    0.5475 </r>
       <r>    9.3795    0.0000 </r>
       <r>    9.5320    0.0000 </r>
       <r>    9.6197    0.0000 </r>
       <r>    9.6531    0.0000 </r>
      </set>
      <set comment="kpoint 28">
       <r>  -34.8606    1.0000 </r>
       <r>  -13.5349    1.0000 </r>
       <r>  -13.5224    1.0000 </r>
       <r>  -13.4932    1.0000 </r>
       <r>  -13.4892    1.0000 </r>
       <r>  -13.4890    1.0000 </r>
       <r>  -10.2045    1.0000 </r>
       <r>  -10.1206    1.0000 </r>
       <r>  -10.0649    1.0000 </r>
       <r>   -2.1909    1.0000 </r>
       <r>    3.6902    1.0000 </r>
       <r>    4.3268    1.0000 </r>
       <r>    4.8898    1.0000 </r>
       <r>    5.2812    1.0000 </r>
       <r>    5.6469    1.0000 </r>
       <r>    6.1608    1.0000 </r>
       <r>    7.1153    1.0000 </r>
       <r>    7.8563    1.0000 </r>
       <r>    8.8104    1.0000 </r>
       <r>    9.2912    0.9867 </r>
       <r>    9.3302    0.0005 </r>
       <r>    9.5417    0.0000 </r>
       <r>    9.5923    0.0000 </r>
       <r>    9.7045    0.0000 </r>
      </set>
      <set comment="kpoint 29">
       <r>  -34.8613    1.0000 </r>
       <r>  -13.5309    1.0000 </r>
       <r>  -13.5204    1.0000 </r>
       <r>  -13.4927    1.0000 </r>
       <r>  -13.4897    1.0000 </r>
       <r>  -13.4895    1.0000 </r>
       <r>  -10.1772    1.0000 </r>
       <r>  -10.1183    1.0000 </r>
       <r>  -10.0729    1.0000 </r>
       <r>   -2.3886    1.0000 </r>
       <r>    3.9193    1.0000 </r>
       <r>    4.3895    1.0000 </r>
       <r>    4.9810    1.0000 </r>
       <r>    5.2775    1.0000 </r>
       <r>    5.6315    1.0000 </r>
       <r>    6.4393    1.0000 </r>
       <r>    7.2508    1.0000 </r>
       <r>    7.9682    1.0000 </r>
       <r>    8.7726    1.0000 </r>
       <r>    9.2843    0.9993 </r>
       <r>    9.2890    0.9942 </r>
       <r>    9.5376    0.0000 </r>
       <r>    9.5559    0.0000 </r>
       <r>    9.7571    0.0000 </r>
      </set>
      <set comment="kpoint 30">
       <r>  -34.8611    1.0000 </r>
       <r>  -13.5307    1.0000 </r>
       <r>  -13.5140    1.0000 </r>
       <r>  -13.4940    1.0000 </r>
       <r>  -13.4887    1.0000 </r>
       <r>  -13.4887    1.0000 </r>
       <r>  -10.1560    1.0000 </r>
       <r>  -10.1155    1.0000 </r>
       <r>  -10.1155    1.0000 </r>
       <r>   -2.3910    1.0000 </r>
       <r>    3.6236    1.0000 </r>
       <r>    4.9948    1.0000 </r>
       <r>    4.9948    1.0000 </r>
       <r>    5.2998    1.0000 </r>
       <r>    5.3404    1.0000 </r>
       <r>    6.6026    1.0000 </r>
       <r>    7.6365    1.0000 </r>
       <r>    7.6365    1.0000 </r>
       <r>    8.7446    1.0000 </r>
       <r>    9.3084    0.4175 </r>
       <r>    9.3084    0.4175 </r>
       <r>    9.4268    0.0000 </r>
       <r>    9.6025    0.0000 </r>
       <r>    9.8331    0.0000 </r>
      </set>
      <set comment="kpoint 31">
       <r>  -34.8605    1.0000 </r>
       <r>  -13.5307    1.0000 </r>
       <r>  -13.5148    1.0000 </r>
       <r>  -13.4947    1.0000 </r>
       <r>  -13.4881    1.0000 </r>
       <r>  -13.4879    1.0000 </r>
       <r>  -10.1820    1.0000 </r>
       <r>  -10.1155    1.0000 </r>
       <r>  -10.1126    1.0000 </r>
       <r>   -2.2712    1.0000 </r>
       <r>    3.5464    1.0000 </r>
       <r>    4.8590    1.0000 </r>
       <r>    4.9602    1.0000 </r>
       <r>    5.3390    1.0000 </r>
       <r>    5.3654    1.0000 </r>
       <r>    6.4122    1.0000 </r>
       <r>    7.4742    1.0000 </r>
       <r>    7.6157    1.0000 </r>
       <r>    8.8218    1.0000 </r>
       <r>    9.2964    0.9307 </r>
       <r>    9.3179    0.0600 </r>
       <r>    9.4691    0.0000 </r>
       <r>    9.6193    0.0000 </r>
       <r>    9.8036    0.0000 </r>
      </set>
      <set comment="kpoint 32">
       <r>  -34.8599    1.0000 </r>
       <r>  -13.5296    1.0000 </r>
       <r>  -13.5181    1.0000 </r>
       <r>  -13.4951    1.0000 </r>
       <r>  -13.4880    1.0000 </r>
       <r>  -13.4871    1.0000 </r>
       <r>  -10.2110    1.0000 </r>
       <r>  -10.1103    1.0000 </r>
       <r>  -10.1094    1.0000 </r>
       <r>   -2.1448    1.0000 </r>
       <r>    3.5783    1.0000 </r>
       <r>    4.6601    1.0000 </r>
       <r>    4.8791    1.0000 </r>
       <r>    5.3703    1.0000 </r>
       <r>    5.4210    1.0000 </r>
       <r>    6.1456    1.0000 </r>
       <r>    7.2360    1.0000 </r>
       <r>    7.6387    1.0000 </r>
       <r>    8.9025    1.0000 </r>
       <r>    9.3091    0.3791 </r>
       <r>    9.3357    0.0000 </r>
       <r>    9.5002    0.0000 </r>
       <r>    9.6168    0.0000 </r>
       <r>    9.7631    0.0000 </r>
      </set>
      <set comment="kpoint 33">
       <r>  -34.8595    1.0000 </r>
       <r>  -13.5279    1.0000 </r>
       <r>  -13.5231    1.0000 </r>
       <r>  -13.4951    1.0000 </r>
       <r>  -13.4883    1.0000 </r>
       <r>  -13.4867    1.0000 </r>
       <r>  -10.2314    1.0000 </r>
       <r>  -10.1146    1.0000 </r>
       <r>  -10.0987    1.0000 </r>
       <r>   -2.0381    1.0000 </r>
       <r>    3.6849    1.0000 </r>
       <r>    4.5214    1.0000 </r>
       <r>    4.7541    1.0000 </r>
       <r>    5.3930    1.0000 </r>
       <r>    5.4437    1.0000 </r>
       <r>    5.8869    1.0000 </r>
       <r>    7.0557    1.0000 </r>
       <r>    7.6592    1.0000 </r>
       <r>    8.9372    1.0000 </r>
       <r>    9.3376    0.0000 </r>
       <r>    9.3661    0.0000 </r>
       <r>    9.5340    0.0000 </r>
       <r>    9.5990    0.0000 </r>
       <r>    9.7233    0.0000 </r>
      </set>
      <set comment="kpoint 34">
       <r>  -34.8592    1.0000 </r>
       <r>  -13.5285    1.0000 </r>
       <r>  -13.5258    1.0000 </r>
       <r>  -13.4945    1.0000 </r>
       <r>  -13.4889    1.0000 </r>
       <r>  -13.4866    1.0000 </r>
       <r>  -10.2391    1.0000 </r>
       <r>  -10.1247    1.0000 </r>
       <r>  -10.0859    1.0000 </r>
       <r>   -1.9679    1.0000 </r>
       <r>    3.7762    1.0000 </r>
       <r>    4.4743    1.0000 </r>
       <r>    4.6009    1.0000 </r>
       <r>    5.3880    1.0000 </r>
       <r>    5.4577    1.0000 </r>
       <r>    5.7555    1.0000 </r>
       <r>    6.9381    1.0000 </r>
       <r>    7.6570    1.0000 </r>
       <r>    8.9600    1.0000 </r>
       <r>    9.3403    0.0000 </r>
       <r>    9.4080    0.0000 </r>
       <r>    9.5621    0.0000 </r>
       <r>    9.5847    0.0000 </r>
       <r>    9.6944    0.0000 </r>
      </set>
      <set comment="kpoint 35">
       <r>  -34.8592    1.0000 </r>
       <r>  -13.5332    1.0000 </r>
       <r>  -13.5240    1.0000 </r>
       <r>  -13.4935    1.0000 </r>
       <r>  -13.4896    1.0000 </r>
       <r>  -13.4870    1.0000 </r>
       <r>  -10.2341    1.0000 </r>
       <r>  -10.1372    1.0000 </r>
       <r>  -10.0738    1.0000 </r>
       <r>   -1.9442    1.0000 </r>
       <r>    3.7551    1.0000 </r>
       <r>    4.4545    1.0000 </r>
       <r>    4.5313    1.0000 </r>
       <r>    5.3265    1.0000 </r>
       <r>    5.5480    1.0000 </r>
       <r>    5.7934    1.0000 </r>
       <r>    6.8468    1.0000 </r>
       <r>    7.6496    1.0000 </r>
       <r>    8.9688    1.0000 </r>
       <r>    9.3171    0.0746 </r>
       <r>    9.4532    0.0000 </r>
       <r>    9.5102    0.0000 </r>
       <r>    9.6174    0.0000 </r>
       <r>    9.6695    0.0000 </r>
      </set>
      <set comment="kpoint 36">
       <r>  -34.8595    1.0000 </r>
       <r>  -13.5362    1.0000 </r>
       <r>  -13.5227    1.0000 </r>
       <r>  -13.4929    1.0000 </r>
       <r>  -13.4899    1.0000 </r>
       <r>  -13.4876    1.0000 </r>
       <r>  -10.2213    1.0000 </r>
       <r>  -10.1454    1.0000 </r>
       <r>  -10.0651    1.0000 </r>
       <r>   -1.9747    1.0000 </r>
       <r>    3.6604    1.0000 </r>
       <r>    4.3472    1.0000 </r>
       <r>    4.6615    1.0000 </r>
       <r>    5.2984    1.0000 </r>
       <r>    5.6291    1.0000 </r>
       <r>    5.9652    1.0000 </r>
       <r>    6.7672    1.0000 </r>
       <r>    7.6721    1.0000 </r>
       <r>    8.9487    1.0000 </r>
       <r>    9.2958    0.9415 </r>
       <r>    9.4396    0.0000 </r>
       <r>    9.5104    0.0000 </r>
       <r>    9.6136    0.0000 </r>
       <r>    9.6511    0.0000 </r>
      </set>
      <set comment="kpoint 37">
       <r>  -34.8600    1.0000 </r>
       <r>  -13.5368    1.0000 </r>
       <r>  -13.5222    1.0000 </r>
       <r>  -13.4929    1.0000 </r>
       <r>  -13.4895    1.0000 </r>
       <r>  -13.4883    1.0000 </r>
       <r>  -10.2101    1.0000 </r>
       <r>  -10.1402    1.0000 </r>
       <r>  -10.0619    1.0000 </r>
       <r>   -2.0615    1.0000 </r>
       <r>    3.6147    1.0000 </r>
       <r>    4.3008    1.0000 </r>
       <r>    4.8103    1.0000 </r>
       <r>    5.2801    1.0000 </r>
       <r>    5.6668    1.0000 </r>
       <r>    6.1373    1.0000 </r>
       <r>    6.8021    1.0000 </r>
       <r>    7.7469    1.0000 </r>
       <r>    8.8970    1.0000 </r>
       <r>    9.2907    0.9889 </r>
       <r>    9.3837    0.0000 </r>
       <r>    9.5386    0.0000 </r>
       <r>    9.6023    0.0000 </r>
       <r>    9.6619    0.0000 </r>
      </set>
      <set comment="kpoint 38">
       <r>  -34.8601    1.0000 </r>
       <r>  -13.5282    1.0000 </r>
       <r>  -13.5128    1.0000 </r>
       <r>  -13.4957    1.0000 </r>
       <r>  -13.4872    1.0000 </r>
       <r>  -13.4872    1.0000 </r>
       <r>  -10.1903    1.0000 </r>
       <r>  -10.1218    1.0000 </r>
       <r>  -10.1218    1.0000 </r>
       <r>   -2.2289    1.0000 </r>
       <r>    3.5524    1.0000 </r>
       <r>    4.9746    1.0000 </r>
       <r>    4.9746    1.0000 </r>
       <r>    5.1481    1.0000 </r>
       <r>    5.4017    1.0000 </r>
       <r>    6.3184    1.0000 </r>
       <r>    7.6034    1.0000 </r>
       <r>    7.6034    1.0000 </r>
       <r>    8.8143    1.0000 </r>
       <r>    9.3287    0.0010 </r>
       <r>    9.3287    0.0010 </r>
       <r>    9.4185    0.0000 </r>
       <r>    9.6651    0.0000 </r>
       <r>    9.8956    0.0000 </r>
      </set>
      <set comment="kpoint 39">
       <r>  -34.8596    1.0000 </r>
       <r>  -13.5250    1.0000 </r>
       <r>  -13.5137    1.0000 </r>
       <r>  -13.4963    1.0000 </r>
       <r>  -13.4867    1.0000 </r>
       <r>  -13.4865    1.0000 </r>
       <r>  -10.2100    1.0000 </r>
       <r>  -10.1241    1.0000 </r>
       <r>  -10.1214    1.0000 </r>
       <r>   -2.1709    1.0000 </r>
       <r>    3.6708    1.0000 </r>
       <r>    4.8091    1.0000 </r>
       <r>    4.9294    1.0000 </r>
       <r>    5.2197    1.0000 </r>
       <r>    5.4229    1.0000 </r>
       <r>    6.1232    1.0000 </r>
       <r>    7.4593    1.0000 </r>
       <r>    7.6343    1.0000 </r>
       <r>    8.9373    1.0000 </r>
       <r>    9.3157    0.1062 </r>
       <r>    9.3446    0.0000 </r>
       <r>    9.4368    0.0000 </r>
       <r>    9.6835    0.0000 </r>
       <r>    9.8262    0.0000 </r>
      </set>
      <set comment="kpoint 40">
       <r>  -34.8592    1.0000 </r>
       <r>  -13.5221    1.0000 </r>
       <r>  -13.5171    1.0000 </r>
       <r>  -13.4962    1.0000 </r>
       <r>  -13.4870    1.0000 </r>
       <r>  -13.4860    1.0000 </r>
       <r>  -10.2244    1.0000 </r>
       <r>  -10.1312    1.0000 </r>
       <r>  -10.1144    1.0000 </r>
       <r>   -2.1094    1.0000 </r>
       <r>    3.8690    1.0000 </r>
       <r>    4.6280    1.0000 </r>
       <r>    4.8318    1.0000 </r>
       <r>    5.3278    1.0000 </r>
       <r>    5.4490    1.0000 </r>
       <r>    5.9092    1.0000 </r>
       <r>    7.1421    1.0000 </r>
       <r>    7.6531    1.0000 </r>
       <r>    9.0303    1.0000 </r>
       <r>    9.3169    0.0779 </r>
       <r>    9.3691    0.0000 </r>
       <r>    9.4862    0.0000 </r>
       <r>    9.6744    0.0000 </r>
       <r>    9.7515    0.0000 </r>
      </set>
      <set comment="kpoint 41">
       <r>  -34.8590    1.0000 </r>
       <r>  -13.5223    1.0000 </r>
       <r>  -13.5201    1.0000 </r>
       <r>  -13.4954    1.0000 </r>
       <r>  -13.4879    1.0000 </r>
       <r>  -13.4859    1.0000 </r>
       <r>  -10.2263    1.0000 </r>
       <r>  -10.1459    1.0000 </r>
       <r>  -10.1023    1.0000 </r>
       <r>   -2.0512    1.0000 </r>
       <r>    4.0569    1.0000 </r>
       <r>    4.5107    1.0000 </r>
       <r>    4.6943    1.0000 </r>
       <r>    5.3511    1.0000 </r>
       <r>    5.5017    1.0000 </r>
       <r>    5.7988    1.0000 </r>
       <r>    6.8309    1.0000 </r>
       <r>    7.6344    1.0000 </r>
       <r>    9.0511    1.0000 </r>
       <r>    9.3226    0.0130 </r>
       <r>    9.4017    0.0000 </r>
       <r>    9.5595    0.0000 </r>
       <r>    9.6343    0.0000 </r>
       <r>    9.6922    0.0000 </r>
      </set>
      <set comment="kpoint 42">
       <r>  -34.8590    1.0000 </r>
       <r>  -13.5280    1.0000 </r>
       <r>  -13.5196    1.0000 </r>
       <r>  -13.4939    1.0000 </r>
       <r>  -13.4893    1.0000 </r>
       <r>  -13.4863    1.0000 </r>
       <r>  -10.2163    1.0000 </r>
       <r>  -10.1642    1.0000 </r>
       <r>  -10.0879    1.0000 </r>
       <r>   -2.0022    1.0000 </r>
       <r>    4.0741    1.0000 </r>
       <r>    4.4748    1.0000 </r>
       <r>    4.5475    1.0000 </r>
       <r>    5.3112    1.0000 </r>
       <r>    5.5687    1.0000 </r>
       <r>    5.8748    1.0000 </r>
       <r>    6.6083    1.0000 </r>
       <r>    7.6037    1.0000 </r>
       <r>    9.0477    1.0000 </r>
       <r>    9.3066    0.5175 </r>
       <r>    9.4384    0.0000 </r>
       <r>    9.5682    0.0000 </r>
       <r>    9.6105    0.0000 </r>
       <r>    9.6880    0.0000 </r>
      </set>
      <set comment="kpoint 43">
       <r>  -34.8592    1.0000 </r>
       <r>  -13.5330    1.0000 </r>
       <r>  -13.5206    1.0000 </r>
       <r>  -13.4924    1.0000 </r>
       <r>  -13.4906    1.0000 </r>
       <r>  -13.4869    1.0000 </r>
       <r>  -10.2091    1.0000 </r>
       <r>  -10.1696    1.0000 </r>
       <r>  -10.0745    1.0000 </r>
       <r>   -1.9720    1.0000 </r>
       <r>    3.8758    1.0000 </r>
       <r>    4.4233    1.0000 </r>
       <r>    4.5463    1.0000 </r>
       <r>    5.3044    1.0000 </r>
       <r>    5.6197    1.0000 </r>
       <r>    6.0018    1.0000 </r>
       <r>    6.5434    1.0000 </r>
       <r>    7.6074    1.0000 </r>
       <r>    9.0182    1.0000 </r>
       <r>    9.2908    0.9887 </r>
       <r>    9.4739    0.0000 </r>
       <r>    9.5036    0.0000 </r>
       <r>    9.6127    0.0000 </r>
       <r>    9.6743    0.0000 </r>
      </set>
      <set comment="kpoint 44">
       <r>  -34.8593    1.0000 </r>
       <r>  -13.5205    1.0000 </r>
       <r>  -13.5118    1.0000 </r>
       <r>  -13.4971    1.0000 </r>
       <r>  -13.4858    1.0000 </r>
       <r>  -13.4858    1.0000 </r>
       <r>  -10.2226    1.0000 </r>
       <r>  -10.1274    1.0000 </r>
       <r>  -10.1274    1.0000 </r>
       <r>   -2.1754    1.0000 </r>
       <r>    3.8523    1.0000 </r>
       <r>    4.9310    1.0000 </r>
       <r>    4.9310    1.0000 </r>
       <r>    5.0070    1.0000 </r>
       <r>    5.4541    1.0000 </r>
       <r>    5.9383    1.0000 </r>
       <r>    7.6790    1.0000 </r>
       <r>    7.6790    1.0000 </r>
       <r>    8.9879    1.0000 </r>
       <r>    9.3567    0.0000 </r>
       <r>    9.3567    0.0000 </r>
       <r>    9.3792    0.0000 </r>
       <r>    9.7306    0.0000 </r>
       <r>    9.9439    0.0000 </r>
      </set>
      <set comment="kpoint 45">
       <r>  -34.8590    1.0000 </r>
       <r>  -13.5170    1.0000 </r>
       <r>  -13.5128    1.0000 </r>
       <r>  -13.4973    1.0000 </r>
       <r>  -13.4857    1.0000 </r>
       <r>  -13.4854    1.0000 </r>
       <r>  -10.2330    1.0000 </r>
       <r>  -10.1324    1.0000 </r>
       <r>  -10.1259    1.0000 </r>
       <r>   -2.1589    1.0000 </r>
       <r>    4.0915    1.0000 </r>
       <r>    4.7562    1.0000 </r>
       <r>    4.8836    1.0000 </r>
       <r>    5.1285    1.0000 </r>
       <r>    5.4760    1.0000 </r>
       <r>    5.7165    1.0000 </r>
       <r>    7.5273    1.0000 </r>
       <r>    7.7084    1.0000 </r>
       <r>    9.1159    1.0000 </r>
       <r>    9.3200    0.0322 </r>
       <r>    9.3738    0.0000 </r>
       <r>    9.4337    0.0000 </r>
       <r>    9.7455    0.0000 </r>
       <r>    9.7640    0.0000 </r>
      </set>
      <set comment="kpoint 46">
       <r>  -34.8589    1.0000 </r>
       <r>  -13.5165    1.0000 </r>
       <r>  -13.5156    1.0000 </r>
       <r>  -13.4968    1.0000 </r>
       <r>  -13.4864    1.0000 </r>
       <r>  -13.4853    1.0000 </r>
       <r>  -10.2319    1.0000 </r>
       <r>  -10.1451    1.0000 </r>
       <r>  -10.1173    1.0000 </r>
       <r>   -2.1218    1.0000 </r>
       <r>    4.2921    1.0000 </r>
       <r>    4.6084    1.0000 </r>
       <r>    4.7891    1.0000 </r>
       <r>    5.2507    1.0000 </r>
       <r>    5.5105    1.0000 </r>
       <r>    5.5881    1.0000 </r>
       <r>    7.1395    1.0000 </r>
       <r>    7.6817    1.0000 </r>
       <r>    9.1458    1.0000 </r>
       <r>    9.3129    0.1961 </r>
       <r>    9.3949    0.0000 </r>
       <r>    9.5337    0.0000 </r>
       <r>    9.6687    0.0000 </r>
       <r>    9.7336    0.0000 </r>
      </set>
      <set comment="kpoint 47">
       <r>  -34.8588    1.0000 </r>
       <r>  -13.5220    1.0000 </r>
       <r>  -13.5165    1.0000 </r>
       <r>  -13.4955    1.0000 </r>
       <r>  -13.4878    1.0000 </r>
       <r>  -13.4857    1.0000 </r>
       <r>  -10.2200    1.0000 </r>
       <r>  -10.1624    1.0000 </r>
       <r>  -10.1036    1.0000 </r>
       <r>   -2.0668    1.0000 </r>
       <r>    4.3169    1.0000 </r>
       <r>    4.4906    1.0000 </r>
       <r>    4.6677    1.0000 </r>
       <r>    5.2772    1.0000 </r>
       <r>    5.5501    1.0000 </r>
       <r>    5.7195    1.0000 </r>
       <r>    6.7580    1.0000 </r>
       <r>    7.6264    1.0000 </r>
       <r>    9.1061    1.0000 </r>
       <r>    9.3099    0.3353 </r>
       <r>    9.4171    0.0000 </r>
       <r>    9.6054    0.0000 </r>
       <r>    9.6460    0.0000 </r>
       <r>    9.6517    0.0000 </r>
      </set>
      <set comment="kpoint 48">
       <r>  -34.8589    1.0000 </r>
       <r>  -13.5139    1.0000 </r>
       <r>  -13.5112    1.0000 </r>
       <r>  -13.4979    1.0000 </r>
       <r>  -13.4850    1.0000 </r>
       <r>  -13.4850    1.0000 </r>
       <r>  -10.2425    1.0000 </r>
       <r>  -10.1306    1.0000 </r>
       <r>  -10.1306    1.0000 </r>
       <r>   -2.1790    1.0000 </r>
       <r>    4.3175    1.0000 </r>
       <r>    4.8974    1.0000 </r>
       <r>    4.8974    1.0000 </r>
       <r>    4.9263    1.0000 </r>
       <r>    5.4843    1.0000 </r>
       <r>    5.4996    1.0000 </r>
       <r>    7.7601    1.0000 </r>
       <r>    7.7601    1.0000 </r>
       <r>    9.2112    1.0000 </r>
       <r>    9.3618    0.0000 </r>
       <r>    9.3803    0.0000 </r>
       <r>    9.3803    0.0000 </r>
       <r>    9.6854    0.0000 </r>
       <r>    9.7758    0.0000 </r>
      </set>
      <set comment="kpoint 49">
       <r>  -34.8588    1.0000 </r>
       <r>  -13.5133    1.0000 </r>
       <r>  -13.5125    1.0000 </r>
       <r>  -13.4977    1.0000 </r>
       <r>  -13.4853    1.0000 </r>
       <r>  -13.4850    1.0000 </r>
       <r>  -10.2420    1.0000 </r>
       <r>  -10.1353    1.0000 </r>
       <r>  -10.1275    1.0000 </r>
       <r>   -2.1664    1.0000 </r>
       <r>    4.4126    1.0000 </r>
       <r>    4.7417    1.0000 </r>
       <r>    4.8635    1.0000 </r>
       <r>    5.0934    1.0000 </r>
       <r>    5.4176    1.0000 </r>
       <r>    5.4967    1.0000 </r>
       <r>    7.5675    1.0000 </r>
       <r>    7.7470    1.0000 </r>
       <r>    9.2340    1.0000 </r>
       <r>    9.3162    0.0931 </r>
       <r>    9.3877    0.0000 </r>
       <r>    9.4806    0.0000 </r>
       <r>    9.6244    0.0000 </r>
       <r>    9.7758    0.0000 </r>
      </set>
      <set comment="kpoint 50">
       <r>  -34.8618    1.0000 </r>
       <r>  -13.5273    1.0000 </r>
       <r>  -13.5175    1.0000 </r>
       <r>  -13.4924    1.0000 </r>
       <r>  -13.4899    1.0000 </r>
       <r>  -13.4898    1.0000 </r>
       <r>  -10.1509    1.0000 </r>
       <r>  -10.1121    1.0000 </r>
       <r>  -10.0897    1.0000 </r>
       <r>   -2.5569    1.0000 </r>
       <r>    4.0402    1.0000 </r>
       <r>    4.6878    1.0000 </r>
       <r>    4.9846    1.0000 </r>
       <r>    5.2979    1.0000 </r>
       <r>    5.5194    1.0000 </r>
       <r>    6.6947    1.0000 </r>
       <r>    7.5884    1.0000 </r>
       <r>    7.9474    1.0000 </r>
       <r>    8.7618    1.0000 </r>
       <r>    9.2541    1.0000 </r>
       <r>    9.2915    0.9852 </r>
       <r>    9.4665    0.0000 </r>
       <r>    9.5414    0.0000 </r>
       <r>    9.7140    0.0000 </r>
      </set>
      <set comment="kpoint 51">
       <r>  -34.8611    1.0000 </r>
       <r>  -13.5313    1.0000 </r>
       <r>  -13.5200    1.0000 </r>
       <r>  -13.4931    1.0000 </r>
       <r>  -13.4895    1.0000 </r>
       <r>  -13.4891    1.0000 </r>
       <r>  -10.1827    1.0000 </r>
       <r>  -10.1122    1.0000 </r>
       <r>  -10.0793    1.0000 </r>
       <r>   -2.3598    1.0000 </r>
       <r>    3.7993    1.0000 </r>
       <r>    4.5277    1.0000 </r>
       <r>    4.9222    1.0000 </r>
       <r>    5.3171    1.0000 </r>
       <r>    5.5795    1.0000 </r>
       <r>    6.3740    1.0000 </r>
       <r>    7.3748    1.0000 </r>
       <r>    7.8700    1.0000 </r>
       <r>    8.7773    1.0000 </r>
       <r>    9.2775    1.0000 </r>
       <r>    9.2980    0.8949 </r>
       <r>    9.5461    0.0000 </r>
       <r>    9.5501    0.0000 </r>
       <r>    9.7492    0.0000 </r>
      </set>
      <set comment="kpoint 52">
       <r>  -34.8604    1.0000 </r>
       <r>  -13.5344    1.0000 </r>
       <r>  -13.5238    1.0000 </r>
       <r>  -13.4938    1.0000 </r>
       <r>  -13.4891    1.0000 </r>
       <r>  -13.4884    1.0000 </r>
       <r>  -10.2175    1.0000 </r>
       <r>  -10.1056    1.0000 </r>
       <r>  -10.0716    1.0000 </r>
       <r>   -2.1520    1.0000 </r>
       <r>    3.6184    1.0000 </r>
       <r>    4.4272    1.0000 </r>
[...]
       <r>    9.0683    1.0000 </r>
       <r>    9.3332    0.0001 </r>
       <r>    9.4852    0.0000 </r>
       <r>    9.5414    0.0000 </r>
       <r>    9.6113    0.0000 </r>
       <r>    9.6901    0.0000 </r>
      </set>
      <set comment="kpoint 81">
       <r>  -34.8590    1.0000 </r>
       <r>  -13.5301    1.0000 </r>
       <r>  -13.5177    1.0000 </r>
       <r>  -13.4932    1.0000 </r>
       <r>  -13.4906    1.0000 </r>
       <r>  -13.4859    1.0000 </r>
       <r>  -10.2097    1.0000 </r>
       <r>  -10.1644    1.0000 </r>
       <r>  -10.0916    1.0000 </r>
       <r>   -2.0088    1.0000 </r>
       <r>    4.0108    1.0000 </r>
       <r>    4.3519    1.0000 </r>
       <r>    4.7659    1.0000 </r>
       <r>    5.3564    1.0000 </r>
       <r>    5.5588    1.0000 </r>
       <r>    5.9596    1.0000 </r>
       <r>    6.3584    1.0000 </r>
       <r>    7.7228    1.0000 </r>
       <r>    9.0474    1.0000 </r>
       <r>    9.3181    0.0561 </r>
       <r>    9.4763    0.0000 </r>
       <r>    9.5306    0.0000 </r>
       <r>    9.5907    0.0000 </r>
       <r>    9.6974    0.0000 </r>
      </set>
      <set comment="kpoint 82">
       <r>  -34.8588    1.0000 </r>
       <r>  -13.5226    1.0000 </r>
       <r>  -13.5132    1.0000 </r>
       <r>  -13.4958    1.0000 </r>
       <r>  -13.4882    1.0000 </r>
       <r>  -13.4849    1.0000 </r>
       <r>  -10.2217    1.0000 </r>
       <r>  -10.1509    1.0000 </r>
       <r>  -10.1174    1.0000 </r>
       <r>   -2.0874    1.0000 </r>
       <r>    4.2901    1.0000 </r>
       <r>    4.4703    1.0000 </r>
       <r>    4.8840    1.0000 </r>
       <r>    5.3221    1.0000 </r>
       <r>    5.5418    1.0000 </r>
       <r>    5.6258    1.0000 </r>
       <r>    6.5959    1.0000 </r>
       <r>    7.8086    1.0000 </r>
       <r>    9.1227    1.0000 </r>
       <r>    9.3329    0.0001 </r>
       <r>    9.4331    0.0000 </r>
       <r>    9.5752    0.0000 </r>
       <r>    9.6477    0.0000 </r>
       <r>    9.6781    0.0000 </r>
      </set>
      <set comment="kpoint 83">
       <r>  -34.8588    1.0000 </r>
       <r>  -13.5257    1.0000 </r>
       <r>  -13.5133    1.0000 </r>
       <r>  -13.4946    1.0000 </r>
       <r>  -13.4897    1.0000 </r>
       <r>  -13.4849    1.0000 </r>
       <r>  -10.2113    1.0000 </r>
       <r>  -10.1635    1.0000 </r>
       <r>  -10.1121    1.0000 </r>
       <r>   -2.0577    1.0000 </r>
       <r>    4.3144    1.0000 </r>
       <r>    4.4223    1.0000 </r>
       <r>    4.8529    1.0000 </r>
       <r>    5.3365    1.0000 </r>
       <r>    5.5696    1.0000 </r>
       <r>    5.7217    1.0000 </r>
       <r>    6.2825    1.0000 </r>
       <r>    7.8037    1.0000 </r>
       <r>    9.1040    1.0000 </r>
       <r>    9.3434    0.0000 </r>
       <r>    9.4633    0.0000 </r>
       <r>    9.5927    0.0000 </r>
       <r>    9.6297    0.0000 </r>
       <r>    9.6483    0.0000 </r>
      </set>
      <set comment="kpoint 84">
       <r>  -34.8588    1.0000 </r>
       <r>  -13.5274    1.0000 </r>
       <r>  -13.5133    1.0000 </r>
       <r>  -13.4935    1.0000 </r>
       <r>  -13.4909    1.0000 </r>
       <r>  -13.4849    1.0000 </r>
       <r>  -10.2050    1.0000 </r>
       <r>  -10.1681    1.0000 </r>
       <r>  -10.1109    1.0000 </r>
       <r>   -2.0434    1.0000 </r>
       <r>    4.2862    1.0000 </r>
       <r>    4.3869    1.0000 </r>
       <r>    4.8682    1.0000 </r>
       <r>    5.3661    1.0000 </r>
       <r>    5.5969    1.0000 </r>
       <r>    5.8308    1.0000 </r>
       <r>    6.0511    1.0000 </r>
       <r>    7.8203    1.0000 </r>
       <r>    9.0924    1.0000 </r>
       <r>    9.3511    0.0000 </r>
       <r>    9.4945    0.0000 </r>
       <r>    9.5551    0.0000 </r>
       <r>    9.6164    0.0000 </r>
       <r>    9.6709    0.0000 </r>
      </set>
     </set>
    </set>
   </array>
  </eigenvalues>
  <separator name="orbital magnetization" >
   <v name="MAGDIPOLOUT">      0.00000000      0.00000000      0.00000000</v>
  </separator>
  <dos>
   <i name="efermi">      9.30688671 </i>
   <total>
    <array>
     <dimension dim="1">gridpoints</dimension>
     <dimension dim="2">spin</dimension>
     <field>energy</field>
     <field>total</field>
     <field>integrated</field>
     <set>
      <set comment="spin 1">
       <r>   -37.1032     0.0000     0.0000 </r>
       <r>   -36.9390     0.0000     0.0000 </r>
       <r>   -36.7747     0.0000     0.0000 </r>
       <r>   -36.6104     0.0000     0.0000 </r>
       <r>   -36.4461     0.0000     0.0000 </r>
       <r>   -36.2818     0.0000     0.0000 </r>
       <r>   -36.1175     0.0000     0.0000 </r>
       <r>   -35.9532     0.0000     0.0000 </r>
       <r>   -35.7889     0.0000     0.0000 </r>
       <r>   -35.6246     0.0000     0.0000 </r>
       <r>   -35.4603     0.0000     0.0000 </r>
       <r>   -35.2960     0.0000     0.0000 </r>
       <r>   -35.1317     0.0000     0.0000 </r>
       <r>   -34.9675     0.0000     0.0000 </r>
       <r>   -34.8032    12.1735     2.0000 </r>
       <r>   -34.6389     0.0000     2.0000 </r>
       <r>   -34.4746     0.0000     2.0000 </r>
       <r>   -34.3103     0.0000     2.0000 </r>
       <r>   -34.1460     0.0000     2.0000 </r>
       <r>   -33.9817     0.0000     2.0000 </r>
       <r>   -33.8174     0.0000     2.0000 </r>
       <r>   -33.6531     0.0000     2.0000 </r>
       <r>   -33.4888     0.0000     2.0000 </r>
       <r>   -33.3245     0.0000     2.0000 </r>
       <r>   -33.1602     0.0000     2.0000 </r>
       <r>   -32.9960     0.0000     2.0000 </r>
       <r>   -32.8317     0.0000     2.0000 </r>
       <r>   -32.6674     0.0000     2.0000 </r>
       <r>   -32.5031     0.0000     2.0000 </r>
       <r>   -32.3388     0.0000     2.0000 </r>
       <r>   -32.1745     0.0000     2.0000 </r>
       <r>   -32.0102     0.0000     2.0000 </r>
       <r>   -31.8459     0.0000     2.0000 </r>
       <r>   -31.6816     0.0000     2.0000 </r>
       <r>   -31.5173     0.0000     2.0000 </r>
       <r>   -31.3530     0.0000     2.0000 </r>
       <r>   -31.1887     0.0000     2.0000 </r>
       <r>   -31.0245     0.0000     2.0000 </r>
       <r>   -30.8602     0.0000     2.0000 </r>
       <r>   -30.6959     0.0000     2.0000 </r>
       <r>   -30.5316     0.0000     2.0000 </r>
       <r>   -30.3673     0.0000     2.0000 </r>
       <r>   -30.2030     0.0000     2.0000 </r>
       <r>   -30.0387     0.0000     2.0000 </r>
       <r>   -29.8744     0.0000     2.0000 </r>
       <r>   -29.7101     0.0000     2.0000 </r>
       <r>   -29.5458     0.0000     2.0000 </r>
       <r>   -29.3815     0.0000     2.0000 </r>
       <r>   -29.2172     0.0000     2.0000 </r>
       <r>   -29.0530     0.0000     2.0000 </r>
       <r>   -28.8887     0.0000     2.0000 </r>
       <r>   -28.7244     0.0000     2.0000 </r>
       <r>   -28.5601     0.0000     2.0000 </r>
       <r>   -28.3958     0.0000     2.0000 </r>
       <r>   -28.2315     0.0000     2.0000 </r>
       <r>   -28.0672     0.0000     2.0000 </r>
       <r>   -27.9029     0.0000     2.0000 </r>
       <r>   -27.7386     0.0000     2.0000 </r>
       <r>   -27.5743     0.0000     2.0000 </r>
       <r>   -27.4100     0.0000     2.0000 </r>
       <r>   -27.2457     0.0000     2.0000 </r>
       <r>   -27.0815     0.0000     2.0000 </r>
       <r>   -26.9172     0.0000     2.0000 </r>
       <r>   -26.7529     0.0000     2.0000 </r>
       <r>   -26.5886     0.0000     2.0000 </r>
       <r>   -26.4243     0.0000     2.0000 </r>
       <r>   -26.2600     0.0000     2.0000 </r>
       <r>   -26.0957     0.0000     2.0000 </r>
       <r>   -25.9314     0.0000     2.0000 </r>
       <r>   -25.7671     0.0000     2.0000 </r>
       <r>   -25.6028     0.0000     2.0000 </r>
       <r>   -25.4385     0.0000     2.0000 </r>
       <r>   -25.2742     0.0000     2.0000 </r>
       <r>   -25.1100     0.0000     2.0000 </r>
       <r>   -24.9457     0.0000     2.0000 </r>
       <r>   -24.7814     0.0000     2.0000 </r>
       <r>   -24.6171     0.0000     2.0000 </r>
       <r>   -24.4528     0.0000     2.0000 </r>
       <r>   -24.2885     0.0000     2.0000 </r>
       <r>   -24.1242     0.0000     2.0000 </r>
       <r>   -23.9599     0.0000     2.0000 </r>
       <r>   -23.7956     0.0000     2.0000 </r>
       <r>   -23.6313     0.0000     2.0000 </r>
       <r>   -23.4670     0.0000     2.0000 </r>
       <r>   -23.3027     0.0000     2.0000 </r>
       <r>   -23.1384     0.0000     2.0000 </r>
       <r>   -22.9742     0.0000     2.0000 </r>
       <r>   -22.8099     0.0000     2.0000 </r>
       <r>   -22.6456     0.0000     2.0000 </r>
       <r>   -22.4813     0.0000     2.0000 </r>
       <r>   -22.3170     0.0000     2.0000 </r>
       <r>   -22.1527     0.0000     2.0000 </r>
       <r>   -21.9884     0.0000     2.0000 </r>
       <r>   -21.8241     0.0000     2.0000 </r>
       <r>   -21.6598     0.0000     2.0000 </r>
       <r>   -21.4955     0.0000     2.0000 </r>
       <r>   -21.3312     0.0000     2.0000 </r>
       <r>   -21.1669     0.0000     2.0000 </r>
       <r>   -21.0027     0.0000     2.0000 </r>
       <r>   -20.8384     0.0000     2.0000 </r>
       <r>   -20.6741     0.0000     2.0000 </r>
       <r>   -20.5098     0.0000     2.0000 </r>
       <r>   -20.3455     0.0000     2.0000 </r>
       <r>   -20.1812     0.0000     2.0000 </r>
       <r>   -20.0169     0.0000     2.0000 </r>
       <r>   -19.8526     0.0000     2.0000 </r>
       <r>   -19.6883     0.0000     2.0000 </r>
       <r>   -19.5240     0.0000     2.0000 </r>
       <r>   -19.3597     0.0000     2.0000 </r>
       <r>   -19.1954     0.0000     2.0000 </r>
       <r>   -19.0312     0.0000     2.0000 </r>
       <r>   -18.8669     0.0000     2.0000 </r>
       <r>   -18.7026     0.0000     2.0000 </r>
       <r>   -18.5383     0.0000     2.0000 </r>
       <r>   -18.3740     0.0000     2.0000 </r>
       <r>   -18.2097     0.0000     2.0000 </r>
       <r>   -18.0454     0.0000     2.0000 </r>
       <r>   -17.8811     0.0000     2.0000 </r>
       <r>   -17.7168     0.0000     2.0000 </r>
       <r>   -17.5525     0.0000     2.0000 </r>
       <r>   -17.3882     0.0000     2.0000 </r>
       <r>   -17.2239     0.0000     2.0000 </r>
       <r>   -17.0597     0.0000     2.0000 </r>
       <r>   -16.8954     0.0000     2.0000 </r>
       <r>   -16.7311     0.0000     2.0000 </r>
       <r>   -16.5668     0.0000     2.0000 </r>
       <r>   -16.4025     0.0000     2.0000 </r>
       <r>   -16.2382     0.0000     2.0000 </r>
       <r>   -16.0739     0.0000     2.0000 </r>
       <r>   -15.9096     0.0000     2.0000 </r>
       <r>   -15.7453     0.0000     2.0000 </r>
       <r>   -15.5810     0.0000     2.0000 </r>
       <r>   -15.4167     0.0000     2.0000 </r>
       <r>   -15.2524     0.0000     2.0000 </r>
       <r>   -15.0882     0.0000     2.0000 </r>
       <r>   -14.9239     0.0000     2.0000 </r>
       <r>   -14.7596     0.0000     2.0000 </r>
       <r>   -14.5953     0.0000     2.0000 </r>
       <r>   -14.4310     0.0000     2.0000 </r>
       <r>   -14.2667     0.0000     2.0000 </r>
       <r>   -14.1024     0.0000     2.0000 </r>
       <r>   -13.9381     0.0000     2.0000 </r>
       <r>   -13.7738     0.0000     2.0000 </r>
       <r>   -13.6095     0.0000     2.0000 </r>
       <r>   -13.4452    48.3780    12.0000 </r>
       <r>   -13.2809     0.0000    12.0000 </r>
       <r>   -13.1167     0.0000    12.0000 </r>
       <r>   -12.9524     0.0000    12.0000 </r>
       <r>   -12.7881     0.0000    12.0000 </r>
       <r>   -12.6238     0.0000    12.0000 </r>
       <r>   -12.4595     0.0000    12.0000 </r>
       <r>   -12.2952     0.0000    12.0000 </r>
       <r>   -12.1309     0.0000    12.0000 </r>
       <r>   -11.9666     0.0000    12.0000 </r>
       <r>   -11.8023     0.0000    12.0000 </r>
       <r>   -11.6380     0.0000    12.0000 </r>
       <r>   -11.4737     0.0000    12.0000 </r>
       <r>   -11.3094     0.0000    12.0000 </r>
       <r>   -11.1452     0.0000    12.0000 </r>
       <r>   -10.9809     0.0000    12.0000 </r>
       <r>   -10.8166     0.0000    12.0000 </r>
       <r>   -10.6523     0.0000    12.0000 </r>
       <r>   -10.4880     0.0000    12.0000 </r>
       <r>   -10.3237     0.0000    12.0000 </r>
       <r>   -10.1594    10.5970    14.0997 </r>
       <r>    -9.9951     3.8343    18.0000 </r>
       <r>    -9.8308     0.0000    18.0000 </r>
       <r>    -9.6665     0.0000    18.0000 </r>
       <r>    -9.5022     0.0000    18.0000 </r>
       <r>    -9.3379     0.0000    18.0000 </r>
       <r>    -9.1736     0.0000    18.0000 </r>
       <r>    -9.0094     0.0000    18.0000 </r>
       <r>    -8.8451     0.0000    18.0000 </r>
       <r>    -8.6808     0.0000    18.0000 </r>
       <r>    -8.5165     0.0000    18.0000 </r>
       <r>    -8.3522     0.0000    18.0000 </r>
       <r>    -8.1879     0.0000    18.0000 </r>
       <r>    -8.0236     0.0000    18.0000 </r>
       <r>    -7.8593     0.0000    18.0000 </r>
       <r>    -7.6950     0.0000    18.0000 </r>
       <r>    -7.5307     0.0000    18.0000 </r>
       <r>    -7.3664     0.0000    18.0000 </r>
       <r>    -7.2021     0.0000    18.0000 </r>
       <r>    -7.0379     0.0000    18.0000 </r>
       <r>    -6.8736     0.0000    18.0000 </r>
       <r>    -6.7093     0.0000    18.0000 </r>
       <r>    -6.5450     0.0000    18.0000 </r>
       <r>    -6.3807     0.0000    18.0000 </r>
       <r>    -6.2164     0.0000    18.0000 </r>
       <r>    -6.0521     0.0000    18.0000 </r>
       <r>    -5.8878     0.0000    18.0000 </r>
       <r>    -5.7235     0.0000    18.0000 </r>
       <r>    -5.5592     0.0000    18.0000 </r>
       <r>    -5.3949     0.0000    18.0000 </r>
       <r>    -5.2306     0.0000    18.0000 </r>
       <r>    -5.0664     0.0000    18.0000 </r>
       <r>    -4.9021     0.0000    18.0000 </r>
       <r>    -4.7378     0.0000    18.0000 </r>
       <r>    -4.5735     0.0000    18.0000 </r>
       <r>    -4.4092     0.0000    18.0000 </r>
       <r>    -4.2449     0.0000    18.0000 </r>
       <r>    -4.0806     0.0000    18.0000 </r>
       <r>    -3.9163     0.0000    18.0000 </r>
       <r>    -3.7520     0.0000    18.0000 </r>
       <r>    -3.5877     0.0000    18.0000 </r>
       <r>    -3.4234     0.0000    18.0000 </r>
       <r>    -3.2591     0.0000    18.0000 </r>
       <r>    -3.0949     0.0000    18.0000 </r>
       <r>    -2.9306     0.0000    18.0000 </r>
       <r>    -2.7663     0.0778    18.0137 </r>
       <r>    -2.6020     0.0775    18.0592 </r>
       <r>    -2.4377     0.2968    18.1516 </r>
       <r>    -2.2734     0.4382    18.2859 </r>
       <r>    -2.1091     1.9536    18.6933 </r>
       <r>    -1.9448     3.3474    19.7816 </r>
       <r>    -1.7805     0.1773    20.0000 </r>
       <r>    -1.6162     0.0000    20.0000 </r>
       <r>    -1.4519     0.0000    20.0000 </r>
       <r>    -1.2876     0.0000    20.0000 </r>
       <r>    -1.1234     0.0000    20.0000 </r>
       <r>    -0.9591     0.0000    20.0000 </r>
       <r>    -0.7948     0.0000    20.0000 </r>
       <r>    -0.6305     0.0000    20.0000 </r>
       <r>    -0.4662     0.0000    20.0000 </r>
       <r>    -0.3019     0.0000    20.0000 </r>
       <r>    -0.1376     0.0000    20.0000 </r>
       <r>     0.0267     0.0000    20.0000 </r>
       <r>     0.1910     0.0000    20.0000 </r>
       <r>     0.3553     0.0000    20.0000 </r>
       <r>     0.5196     0.0000    20.0000 </r>
       <r>     0.6839     0.0000    20.0000 </r>
       <r>     0.8481     0.0000    20.0000 </r>
       <r>     1.0124     0.0000    20.0000 </r>
       <r>     1.1767     0.0000    20.0000 </r>
       <r>     1.3410     0.0000    20.0000 </r>
       <r>     1.5053     0.0000    20.0000 </r>
       <r>     1.6696     0.0000    20.0000 </r>
       <r>     1.8339     0.0000    20.0000 </r>
       <r>     1.9982     0.0000    20.0000 </r>
       <r>     2.1625     0.0000    20.0000 </r>
       <r>     2.3268     0.0000    20.0000 </r>
       <r>     2.4911     0.0000    20.0000 </r>
       <r>     2.6554     0.0000    20.0000 </r>
       <r>     2.8196     0.0000    20.0000 </r>
       <r>     2.9839     0.0000    20.0000 </r>
       <r>     3.1482     0.0000    20.0000 </r>
       <r>     3.3125     0.0356    20.0058 </r>
       <r>     3.4768     0.4322    20.1220 </r>
       <r>     3.6411     2.1611    20.6809 </r>
       <r>     3.8054     1.0135    21.1205 </r>
       <r>     3.9697     0.5212    21.3910 </r>
       <r>     4.1340     0.8328    21.6334 </r>
       <r>     4.2983     0.6552    21.8518 </r>
       <r>     4.4626     4.3365    23.0083 </r>
       <r>     4.6269     2.6245    23.9469 </r>
       <r>     4.7912     2.4063    24.9397 </r>
       <r>     4.9554     2.6014    25.8785 </r>
       <r>     5.1197     0.0809    26.0242 </r>
       <r>     5.2840     1.0610    26.2453 </r>
       <r>     5.4483     4.5676    28.4127 </r>
       <r>     5.6126     4.4989    30.0855 </r>
       <r>     5.7769     1.6635    30.6101 </r>
       <r>     5.9412     1.9032    31.2066 </r>
       <r>     6.1055     0.9317    31.5295 </r>
       <r>     6.2698     0.6317    31.7533 </r>
       <r>     6.4341     0.8819    31.9819 </r>
       <r>     6.5984     0.4817    32.1237 </r>
       <r>     6.7627     0.6544    32.4525 </r>
       <r>     6.9269     0.5517    32.6614 </r>
       <r>     7.0912     1.0631    33.0240 </r>
       <r>     7.2555     0.3520    33.2130 </r>
       <r>     7.4198     1.0632    33.5502 </r>
       <r>     7.5841     0.3160    33.6678 </r>
       <r>     7.7484     5.8581    35.1145 </r>
       <r>     7.9127     1.1296    35.8123 </r>
       <r>     8.0770     0.2337    35.9637 </r>
       <r>     8.2413     0.1049    36.0009 </r>
       <r>     8.4056     0.0303    36.0059 </r>
       <r>     8.5699     0.1601    36.0345 </r>
       <r>     8.7342     1.2060    36.2518 </r>
       <r>     8.8984     1.8362    36.8488 </r>
       <r>     9.0627     2.3392    37.6415 </r>
       <r>     9.2270     0.3634    37.9996 </r>
       <r>     9.3913    11.8606    41.1175 </r>
       <r>     9.5556    10.6039    43.8459 </r>
       <r>     9.7199     8.7465    47.3032 </r>
       <r>     9.8842     0.3010    47.9894 </r>
       <r>    10.0485     0.0000    48.0000 </r>
       <r>    10.2128     0.0000    48.0000 </r>
       <r>    10.3771     0.0000    48.0000 </r>
       <r>    10.5414     0.0000    48.0000 </r>
       <r>    10.7057     0.0000    48.0000 </r>
       <r>    10.8699     0.0000    48.0000 </r>
       <r>    11.0342     0.0000    48.0000 </r>
       <r>    11.1985     0.0000    48.0000 </r>
       <r>    11.3628     0.0000    48.0000 </r>
       <r>    11.5271     0.0000    48.0000 </r>
       <r>    11.6914     0.0000    48.0000 </r>
       <r>    11.8557     0.0000    48.0000 </r>
       <r>    12.0200     0.0000    48.0000 </r>
       <r>    12.1843     0.0000    48.0000 </r>
      </set>
     </set>
    </array>
   </total>
  </dos>
 </calculation>
 <structure name="finalpos" >
  <crystal>
   <varray name="basis" >
    <v>       0.00000000       3.38270930       3.38270930 </v>
    <v>       3.38270930       0.00000000       3.38270930 </v>
    <v>       3.38270930       3.38270930       0.00000000 </v>
   </varray>
   <i name="volume">     77.41480592 </i>
   <varray name="rec_basis" >
    <v>      -0.14781051       0.14781051       0.14781051 </v>
    <v>       0.14781051      -0.14781051       0.14781051 </v>
    <v>       0.14781051       0.14781051      -0.14781051 </v>
   </varray>
  </crystal>
  <varray name="positions" >
   <v>       0.25000000       0.25000000       0.25000000 </v>
   <v>       0.75000000       0.75000000       0.75000000 </v>
   <v>       0.00000000       0.00000000       0.00000000 </v>
  </varray>
 </structure>
</modeling>
