       N       E                     dE             d eps       ncg     rms          rms(c)
DAV:   1     0.112204763723E+03    0.11220E+03   -0.42624E+03 14576   0.451E+02
DAV:   2    -0.205933979220E+01   -0.11426E+03   -0.10595E+03 14776   0.160E+02
DAV:   3    -0.872550315609E+01   -0.66662E+01   -0.65703E+01 17184   0.381E+01
DAV:   4    -0.877343557934E+01   -0.47932E-01   -0.47926E-01 15688   0.334E+00
DAV:   5    -0.877354512903E+01   -0.10955E-03   -0.10955E-03 17096   0.156E-01    0.824E+00
DAV:   6    -0.771668196349E+01    0.10569E+01   -0.84893E-01 18360   0.843E+00    0.205E+00
DAV:   7    -0.771469145537E+01    0.19905E-02   -0.34666E-02 15480   0.914E-01    0.129E+00
DAV:   8    -0.772411050770E+01   -0.94191E-02   -0.39399E-02 14376   0.101E+00    0.143E-01
DAV:   9    -0.772364724377E+01    0.46326E-03   -0.88689E-04 16288   0.212E-01    0.680E-02
DAV:  10    -0.772373765545E+01   -0.90412E-04   -0.31739E-04 15288   0.654E-02    0.150E-02
DAV:  11    -0.772374444957E+01   -0.67941E-05   -0.23268E-05 16712   0.148E-02    0.692E-03
DAV:  12    -0.772374370774E+01    0.74183E-06   -0.93524E-07 16624   0.335E-03    0.967E-04
DAV:  13    -0.772374434218E+01   -0.63444E-06   -0.15119E-07 16184   0.194E-03    0.544E-04
DAV:  14    -0.772374458404E+01   -0.24186E-06   -0.43020E-08 15336   0.770E-04    0.251E-04
DAV:  15    -0.772374459546E+01   -0.11423E-07   -0.31426E-09  8224   0.192E-04
   1 F= -.77237446E+01 E0= -.77237446E+01  d E =0.000000E+00
