unknown system                          
            1
    -1.634125    1.634125    1.634125
     1.634125   -1.634125    1.634125
     1.634125    1.634125   -1.634125
   Ti
     1
Direct configuration=     1
   0.00000000  0.00000000  0.00000000
