   3   3   0   0
  0.2140361E+02  0.4494773E-09  0.4494773E-09  0.4494773E-09  0.1000000E-15
  1.000000000000000E-004
  CAR
 unknown system
     13.42619538    -25.04702258  301      8.98501014      1.00000000
    -25.047  0.0000E+00  0.0000E+00
    -24.919  0.0000E+00  0.0000E+00
    -24.791  0.0000E+00  0.0000E+00
    -24.662  0.0000E+00  0.0000E+00
    -24.534  0.0000E+00  0.0000E+00
    -24.406  0.0000E+00  0.0000E+00
    -24.278  0.0000E+00  0.0000E+00
    -24.149  0.0000E+00  0.0000E+00
    -24.021  0.0000E+00  0.0000E+00
    -23.893  0.0000E+00  0.0000E+00
    -23.765  0.0000E+00  0.0000E+00
    -23.636  0.0000E+00  0.0000E+00
    -23.508  0.0000E+00  0.0000E+00
    -23.380  0.0000E+00  0.0000E+00
    -23.252  0.7798E+00  0.1000E+00
    -23.123  0.0000E+00  0.1000E+00
    -22.995  0.0000E+00  0.1000E+00
    -22.867  0.0000E+00  0.1000E+00
    -22.739  0.0000E+00  0.1000E+00
    -22.610  0.0000E+00  0.1000E+00
    -22.482  0.0000E+00  0.1000E+00
    -22.354  0.0000E+00  0.1000E+00
    -22.226  0.0000E+00  0.1000E+00
    -22.097  0.0000E+00  0.1000E+00
    -21.969  0.0000E+00  0.1000E+00
    -21.841  0.0000E+00  0.1000E+00
    -21.713  0.0000E+00  0.1000E+00
    -21.584  0.0000E+00  0.1000E+00
    -21.456  0.0000E+00  0.1000E+00
    -21.328  0.0000E+00  0.1000E+00
    -21.200  0.0000E+00  0.1000E+00
    -21.071  0.0000E+00  0.1000E+00
    -20.943  0.0000E+00  0.1000E+00
    -20.815  0.0000E+00  0.1000E+00
    -20.687  0.0000E+00  0.1000E+00
    -20.558  0.0000E+00  0.1000E+00
    -20.430  0.0000E+00  0.1000E+00
    -20.302  0.0000E+00  0.1000E+00
    -20.174  0.0000E+00  0.1000E+00
    -20.046  0.0000E+00  0.1000E+00
    -19.917  0.0000E+00  0.1000E+00
    -19.789  0.0000E+00  0.1000E+00
    -19.661  0.0000E+00  0.1000E+00
    -19.533  0.0000E+00  0.1000E+00
    -19.404  0.0000E+00  0.1000E+00
    -19.276  0.0000E+00  0.1000E+00
    -19.148  0.0000E+00  0.1000E+00
    -19.020  0.0000E+00  0.1000E+00
    -18.891  0.0000E+00  0.1000E+00
    -18.763  0.0000E+00  0.1000E+00
    -18.635  0.0000E+00  0.1000E+00
    -18.507  0.0000E+00  0.1000E+00
    -18.378  0.0000E+00  0.1000E+00
    -18.250  0.0000E+00  0.1000E+00
    -18.122  0.0000E+00  0.1000E+00
    -17.994  0.0000E+00  0.1000E+00
    -17.865  0.0000E+00  0.1000E+00
    -17.737  0.0000E+00  0.1000E+00
    -17.609  0.0000E+00  0.1000E+00
    -17.481  0.0000E+00  0.1000E+00
    -17.352  0.0000E+00  0.1000E+00
    -17.224  0.0000E+00  0.1000E+00
    -17.096  0.0000E+00  0.1000E+00
    -16.968  0.0000E+00  0.1000E+00
    -16.839  0.0000E+00  0.1000E+00
    -16.711  0.0000E+00  0.1000E+00
    -16.583  0.0000E+00  0.1000E+00
    -16.455  0.0000E+00  0.1000E+00
    -16.326  0.0000E+00  0.1000E+00
    -16.198  0.0000E+00  0.1000E+00
    -16.070  0.0000E+00  0.1000E+00
    -15.942  0.0000E+00  0.1000E+00
    -15.813  0.0000E+00  0.1000E+00
    -15.685  0.0000E+00  0.1000E+00
    -15.557  0.0000E+00  0.1000E+00
    -15.429  0.0000E+00  0.1000E+00
    -15.300  0.0000E+00  0.1000E+00
    -15.172  0.0000E+00  0.1000E+00
    -15.044  0.0000E+00  0.1000E+00
    -14.916  0.0000E+00  0.1000E+00
    -14.787  0.0000E+00  0.1000E+00
    -14.659  0.0000E+00  0.1000E+00
    -14.531  0.0000E+00  0.1000E+00
    -14.403  0.0000E+00  0.1000E+00
    -14.275  0.0000E+00  0.1000E+00
    -14.146  0.0000E+00  0.1000E+00
    -14.018  0.0000E+00  0.1000E+00
    -13.890  0.0000E+00  0.1000E+00
    -13.762  0.0000E+00  0.1000E+00
    -13.633  0.0000E+00  0.1000E+00
    -13.505  0.0000E+00  0.1000E+00
    -13.377  0.0000E+00  0.1000E+00
    -13.249  0.0000E+00  0.1000E+00
    -13.120  0.0000E+00  0.1000E+00
    -12.992  0.0000E+00  0.1000E+00
    -12.864  0.0000E+00  0.1000E+00
    -12.736  0.0000E+00  0.1000E+00
    -12.607  0.0000E+00  0.1000E+00
    -12.479  0.0000E+00  0.1000E+00
    -12.351  0.0000E+00  0.1000E+00
    -12.223  0.0000E+00  0.1000E+00
    -12.094  0.0000E+00  0.1000E+00
    -11.966  0.0000E+00  0.1000E+00
    -11.838  0.0000E+00  0.1000E+00
    -11.710  0.0000E+00  0.1000E+00
    -11.581  0.0000E+00  0.1000E+00
    -11.453  0.0000E+00  0.1000E+00
    -11.325  0.0000E+00  0.1000E+00
    -11.197  0.0000E+00  0.1000E+00
    -11.068  0.0000E+00  0.1000E+00
    -10.940  0.0000E+00  0.1000E+00
    -10.812  0.0000E+00  0.1000E+00
    -10.684  0.0000E+00  0.1000E+00
    -10.555  0.0000E+00  0.1000E+00
    -10.427  0.0000E+00  0.1000E+00
    -10.299  0.0000E+00  0.1000E+00
    -10.171  0.0000E+00  0.1000E+00
    -10.042  0.0000E+00  0.1000E+00
     -9.914  0.0000E+00  0.1000E+00
     -9.786  0.0000E+00  0.1000E+00
     -9.658  0.0000E+00  0.1000E+00
     -9.529  0.0000E+00  0.1000E+00
     -9.401  0.0000E+00  0.1000E+00
     -9.273  0.0000E+00  0.1000E+00
     -9.145  0.0000E+00  0.1000E+00
     -9.017  0.0000E+00  0.1000E+00
     -8.888  0.0000E+00  0.1000E+00
     -8.760  0.0000E+00  0.1000E+00
     -8.632  0.0000E+00  0.1000E+00
     -8.504  0.0000E+00  0.1000E+00
     -8.375  0.0000E+00  0.1000E+00
     -8.247  0.0000E+00  0.1000E+00
     -8.119  0.0000E+00  0.1000E+00
     -7.991  0.0000E+00  0.1000E+00
     -7.862  0.0000E+00  0.1000E+00
     -7.734  0.0000E+00  0.1000E+00
     -7.606  0.0000E+00  0.1000E+00
     -7.478  0.0000E+00  0.1000E+00
     -7.349  0.0000E+00  0.1000E+00
     -7.221  0.0000E+00  0.1000E+00
     -7.093  0.0000E+00  0.1000E+00
     -6.965  0.0000E+00  0.1000E+00
     -6.836  0.0000E+00  0.1000E+00
     -6.708  0.0000E+00  0.1000E+00
     -6.580  0.0000E+00  0.1000E+00
     -6.452  0.0000E+00  0.1000E+00
     -6.323  0.0000E+00  0.1000E+00
     -6.195  0.0000E+00  0.1000E+00
     -6.067  0.0000E+00  0.1000E+00
     -5.939  0.0000E+00  0.1000E+00
     -5.810  0.0000E+00  0.1000E+00
     -5.682  0.0000E+00  0.1000E+00
     -5.554  0.0000E+00  0.1000E+00
     -5.426  0.0000E+00  0.1000E+00
     -5.297  0.0000E+00  0.1000E+00
     -5.169  0.0000E+00  0.1000E+00
     -5.041  0.0000E+00  0.1000E+00
     -4.913  0.0000E+00  0.1000E+00
     -4.784  0.0000E+00  0.1000E+00
     -4.656  0.0000E+00  0.1000E+00
     -4.528  0.0000E+00  0.1000E+00
     -4.400  0.0000E+00  0.1000E+00
     -4.271  0.0000E+00  0.1000E+00
     -4.143  0.0000E+00  0.1000E+00
     -4.015  0.0000E+00  0.1000E+00
     -3.887  0.8765E-10  0.1000E+00
     -3.759  0.1565E-02  0.1002E+00
     -3.630  0.1663E-02  0.1004E+00
     -3.502  0.7078E-03  0.1010E+00
     -3.374  0.3266E-02  0.1018E+00
     -3.246  0.3787E-02  0.1026E+00
     -3.117  0.9230E-02  0.1039E+00
     -2.989  0.5679E-02  0.1050E+00
     -2.861  0.8895E-02  0.1063E+00
     -2.733  0.3850E-02  0.1082E+00
     -2.604  0.1323E-01  0.1109E+00
     -2.476  0.1997E-01  0.1143E+00
     -2.348  0.3735E-01  0.1206E+00
     -2.220  0.7088E-01  0.1324E+00
     -2.091  0.0000E+00  0.1333E+00
     -1.963  0.0000E+00  0.1333E+00
     -1.835  0.0000E+00  0.1333E+00
     -1.707  0.0000E+00  0.1333E+00
     -1.578  0.0000E+00  0.1333E+00
     -1.450  0.0000E+00  0.1333E+00
     -1.322  0.0000E+00  0.1333E+00
     -1.194  0.0000E+00  0.1333E+00
     -1.065  0.0000E+00  0.1333E+00
     -0.937  0.0000E+00  0.1333E+00
     -0.809  0.0000E+00  0.1333E+00
     -0.681  0.0000E+00  0.1333E+00
     -0.552  0.0000E+00  0.1333E+00
     -0.424  0.0000E+00  0.1333E+00
     -0.296  0.0000E+00  0.1333E+00
     -0.168  0.0000E+00  0.1333E+00
     -0.039  0.0000E+00  0.1333E+00
      0.089  0.0000E+00  0.1333E+00
      0.217  0.0000E+00  0.1333E+00
      0.345  0.0000E+00  0.1333E+00
      0.474  0.0000E+00  0.1333E+00
      0.602  0.0000E+00  0.1333E+00
      0.730  0.0000E+00  0.1333E+00
      0.858  0.0000E+00  0.1333E+00
      0.987  0.0000E+00  0.1333E+00
      1.115  0.0000E+00  0.1333E+00
      1.243  0.2937E-06  0.1333E+00
      1.371  0.3629E-02  0.1343E+00
      1.499  0.1199E-01  0.1368E+00
      1.628  0.4268E-01  0.1476E+00
      1.756  0.3853E-01  0.1551E+00
      1.884  0.2007E-01  0.1600E+00
      2.012  0.1559E-01  0.1634E+00
      2.141  0.4259E-02  0.1645E+00
      2.269  0.6668E-02  0.1653E+00
      2.397  0.2819E-02  0.1658E+00
      2.525  0.1139E-01  0.1672E+00
      2.654  0.4477E-01  0.1748E+00
      2.782  0.5354E-01  0.1914E+00
      2.910  0.5420E-01  0.2029E+00
      3.038  0.6129E-01  0.2141E+00
      3.167  0.3814E-01  0.2231E+00
      3.295  0.3401E-01  0.2288E+00
      3.423  0.1534E-01  0.2329E+00
      3.551  0.1507E-01  0.2356E+00
      3.680  0.2656E-01  0.2403E+00
      3.808  0.4900E-01  0.2498E+00
      3.936  0.9750E-01  0.2694E+00
      4.064  0.9331E-01  0.2868E+00
      4.193  0.4423E-01  0.3006E+00
      4.321  0.4317E-01  0.3125E+00
      4.449  0.2629E-01  0.3206E+00
      4.577  0.2388E-01  0.3253E+00
      4.706  0.1039E-01  0.3275E+00
      4.834  0.1176E-01  0.3297E+00
      4.962  0.1143E-01  0.3323E+00
      5.090  0.1044E-01  0.3344E+00
      5.219  0.2563E-01  0.3383E+00
      5.347  0.8305E-02  0.3417E+00
      5.475  0.1051E-01  0.3438E+00
      5.603  0.1832E-01  0.3476E+00
      5.732  0.1773E-01  0.3510E+00
      5.860  0.2626E-01  0.3554E+00
      5.988  0.2600E-01  0.3593E+00
      6.116  0.5774E-01  0.3677E+00
      6.245  0.3338E-01  0.3758E+00
      6.373  0.3061E-01  0.3815E+00
      6.501  0.2544E-01  0.3873E+00
      6.629  0.1901E-01  0.3927E+00
      6.758  0.1025E-01  0.3952E+00
      6.886  0.5470E-02  0.3970E+00
      7.014  0.7098E-02  0.3987E+00
      7.142  0.6152E-02  0.3995E+00
      7.270  0.3313E-02  0.4000E+00
      7.399  0.0000E+00  0.4000E+00
      7.527  0.0000E+00  0.4000E+00
      7.655  0.0000E+00  0.4000E+00
      7.783  0.0000E+00  0.4000E+00
      7.912  0.0000E+00  0.4000E+00
      8.040  0.1183E-03  0.4000E+00
      8.168  0.0000E+00  0.4000E+00
      8.296  0.1061E-02  0.4002E+00
      8.425  0.6937E-02  0.4012E+00
      8.553  0.1672E-01  0.4037E+00
      8.681  0.1064E-01  0.4062E+00
      8.809  0.1918E-01  0.4098E+00
      8.938  0.1279E-01  0.4134E+00
      9.066  0.2273E-01  0.4196E+00
      9.194  0.4614E-01  0.4288E+00
      9.322  0.2296E-01  0.4345E+00
      9.451  0.3169E-01  0.4403E+00
      9.579  0.4199E-01  0.4475E+00
      9.707  0.3700E-01  0.4564E+00
      9.835  0.5168E-01  0.4702E+00
      9.964  0.3261E-01  0.4768E+00
     10.092  0.5446E-01  0.4875E+00
     10.220  0.2876E-01  0.4963E+00
     10.348  0.6734E-02  0.4985E+00
     10.477  0.3506E-01  0.5045E+00
     10.605  0.3095E-01  0.5097E+00
     10.733  0.3791E-01  0.5169E+00
     10.861  0.3415E-01  0.5229E+00
     10.990  0.2555E-01  0.5284E+00
     11.118  0.4983E-02  0.5310E+00
     11.246  0.1301E-01  0.5328E+00
     11.374  0.2839E-02  0.5332E+00
     11.503  0.0000E+00  0.5332E+00
     11.631  0.2011E-13  0.5332E+00
     11.759  0.0000E+00  0.5333E+00
     11.887  0.0000E+00  0.5333E+00
     12.016  0.0000E+00  0.5333E+00
     12.144  0.0000E+00  0.5333E+00
     12.272  0.0000E+00  0.5333E+00
     12.400  0.0000E+00  0.5333E+00
     12.528  0.0000E+00  0.5333E+00
     12.657  0.0000E+00  0.5333E+00
     12.785  0.0000E+00  0.5333E+00
     12.913  0.0000E+00  0.5333E+00
     13.041  0.0000E+00  0.5333E+00
     13.170  0.0000E+00  0.5333E+00
     13.298  0.0000E+00  0.5333E+00
     13.426  0.0000E+00  0.5333E+00
