    3    3   60    1
  0.2140361E+02  0.4494773E-09  0.4494773E-09  0.4494773E-09  0.1000000E-15
  1.000000000000000E-004
  CAR
 unknown system
     25     84     16

  0.0000000E+00  0.0000000E+00  0.0000000E+00  0.4551661E-03
    1      -23.279527   1.000000
    2      -23.279527   1.000000
    3      -23.279527   1.000000
    4       -3.852715   1.000000
    5        2.893534   1.000000
    6        2.893534   1.000000
    7        2.893534   1.000000
    8        3.708124   1.000000
    9        3.708124   1.000000
   10        7.308168   1.000000
   11        7.308168   1.000000
   12        7.308168   1.000000
   13        7.989914   1.000000
   14        9.855452   0.000000
   15        9.855452   0.000000
   16        9.855452   0.000000

  0.7692308E-01  0.6882614E-17 -0.2209607E-18  0.3641329E-02
    1      -23.280590   1.000000
    2      -23.279473   1.000000
    3      -23.279472   1.000000
    4       -3.787786   1.000000
    5        2.814686   1.000000
    6        2.865561   1.000000
    7        2.865561   1.000000
    8        3.748753   1.000000
    9        3.748753   1.000000
   10        6.755733   1.000000
   11        7.242311   1.000000
   12        7.242311   1.000000
   13        8.231434   1.000000
   14        9.691319   0.000000
   15        9.691319   0.000000
   16       10.237212   0.000000

  0.1538462E+00  0.1942904E-17  0.3535134E-18  0.3641329E-02
    1      -23.283524   1.000000
    2      -23.279347   1.000000
    3      -23.279347   1.000000
    4       -3.599637   1.000000
    5        2.595490   1.000000
    6        2.806124   1.000000
    7        2.806124   1.000000
    8        3.838881   1.000000
    9        3.838881   1.000000
   10        5.895146   1.000000
   11        7.077392   1.000000
   12        7.077392   1.000000
   13        8.460220   1.000000
   14        9.591525   0.000000
   15        9.591526   0.000000
   16       11.024955   0.000000

  0.2307692E+00  0.3312073E-17  0.1325526E-18  0.3641329E-02
    1      -23.287603   1.000000
    2      -23.279161   1.000000
    3      -23.279161   1.000000
    4       -3.309577   1.000000
    5        2.272775   1.000000
    6        2.752902   1.000000
    7        2.752902   1.000000
    8        3.922663   1.000000
    9        3.922663   1.000000
   10        5.106975   1.000000
   11        6.885230   1.000000
   12        6.885230   1.000000
   13        8.639337   1.000000
   14        9.622662   0.000000
   15        9.622662   0.000000
   16       11.677413   0.000000

  0.3076923E+00  0.3885807E-17  0.7070267E-18  0.3641329E-02
    1      -23.291903   1.000000
    2      -23.278973   1.000000
    3      -23.278973   1.000000
    4       -2.958474   1.000000
    5        1.889021   1.000000
    6        2.724188   1.000000
    7        2.724188   1.000000
    8        3.964045   1.000000
    9        3.964045   1.000000
   10        4.500338   1.000000
   11        6.728443   1.000000
   12        6.728443   1.000000
   13        8.801630   1.000000
   14        9.752452   0.000000
   15        9.752452   0.000000
   16       11.223855   0.000000

  0.3846154E+00 -0.5771913E-17  0.1151295E-16  0.3641329E-02
    1      -23.295444   1.000000
    2      -23.278817   1.000000
    3      -23.278817   1.000000
    4       -2.616757   1.000000
    5        1.514076   1.000000
    6        2.718814   1.000000
    7        2.718814   1.000000
    8        3.962066   1.000000
    9        3.962066   1.000000
   10        4.110280   1.000000
   11        6.632939   1.000000
   12        6.632939   1.000000
   13        8.964498   0.998139
   14        9.930769   0.000000
   15        9.930769   0.000000
   16       10.481613   0.000000

  0.4615385E+00  0.2977812E-17  0.3911439E-17  0.3641329E-02
    1      -23.297414   1.000000
    2      -23.278714   1.000000
    3      -23.278714   1.000000
    4       -2.392564   1.000000
    5        1.267217   1.000000
    6        2.723105   1.000000
    7        2.723105   1.000000
    8        3.925556   1.000000
    9        3.945964   1.000000
   10        3.945964   1.000000
   11        6.592139   1.000000
   12        6.592139   1.000000
   13        9.117679   0.000000
   14        9.998377   0.000000
   15       10.071051   0.000000
   16       10.071051   0.000000

  0.7692308E-01  0.7692308E-01  0.3128200E-17  0.2730997E-02
    1      -23.280564   1.000000
    2      -23.279648   1.000000
    3      -23.279648   1.000000
    4       -3.766502   1.000000
    5        2.673975   1.000000
    6        2.924285   1.000000
    7        2.924285   1.000000
    8        3.741301   1.000000
    9        3.765846   1.000000
   10        6.794887   1.000000
   11        7.112212   1.000000
   12        7.112212   1.000000
   13        8.303782   1.000000
   14        9.556809   0.000000
   15       10.138501   0.000000
   16       10.138510   0.000000

  0.1538462E+00  0.7692308E-01  0.1999204E-19  0.1092399E-01
    1      -23.282737   1.000000
    2      -23.279722   1.000000
    3      -23.279531   1.000000
    4       -3.620591   1.000000
    5        2.461751   1.000000
    6        2.900512   1.000000
    7        2.927294   1.000000
    8        3.806109   1.000000
    9        3.823822   1.000000
   10        6.145184   1.000000
   11        6.920949   1.000000
   12        6.988402   1.000000
   13        8.541298   1.000000
   14        9.412350   0.000000
   15        9.851103   0.000000
   16       10.624060   0.000000

  0.2307692E+00  0.7692308E-01 -0.2009687E-18  0.1092399E-01
    1      -23.286370   1.000000
    2      -23.279668   1.000000
    3      -23.279352   1.000000
    4       -3.366458   1.000000
    5        2.214374   1.000000
    6        2.808316   1.000000
    7        2.897220   1.000000
    8        3.893984   1.000000
    9        3.900522   1.000000
   10        5.367011   1.000000
   11        6.737626   1.000000
   12        6.815819   1.000000
   13        8.808505   1.000000
   14        9.408096   0.000000
   15        9.737006   0.000000
   16       11.191689   0.000000

  0.3076923E+00  0.7692308E-01  0.6075303E-17  0.1092399E-01
    1      -23.290493   1.000000
    2      -23.279495   1.000000
    3      -23.279245   1.000000
    4       -3.038167   1.000000
    5        1.922956   1.000000
    6        2.720385   1.000000
    7        2.861764   1.000000
    8        3.950674   1.000000
    9        3.957616   1.000000
   10        4.704946   1.000000
   11        6.607158   1.000000
   12        6.642455   1.000000
   13        8.916519   1.000000
   14        9.658919   0.000000
   15        9.751202   0.000000
   16       11.302862   0.000000

  0.3846154E+00  0.7692308E-01  0.3003444E-17  0.1092399E-01
    1      -23.294181   1.000000
    2      -23.279259   1.000000
    3      -23.279256   1.000000
    4       -2.694927   1.000000
    5        1.608020   1.000000
    6        2.677799   1.000000
    7        2.827814   1.000000
    8        3.963431   1.000000
    9        3.969756   1.000000
   10        4.244194   1.000000
   11        6.513914   1.000000
   12        6.540500   1.000000
   13        8.983977   0.558074
   14        9.873145   0.000000
   15        9.967160   0.000000
   16       10.661045   0.000000

  0.4615385E+00  0.7692308E-01 -0.4598072E-17  0.1092399E-01
    1      -23.296606   1.000000
    2      -23.279374   1.000000
    3      -23.279011   1.000000
    4       -2.429770   1.000000
    5        1.353485   1.000000
    6        2.683748   1.000000
    7        2.787316   1.000000
    8        3.917181   1.000000
    9        3.960251   1.000000
   10        4.027199   1.000000
   11        6.438305   1.000000
   12        6.522320   1.000000
   13        9.101492   0.000000
   14        9.955390   0.000000
   15       10.032698   0.000000
   16       10.341339   0.000000

 -0.4615385E+00  0.7692308E-01  0.9632827E-17  0.1092399E-01
    1      -23.297227   1.000000
    2      -23.279556   1.000000
    3      -23.278792   1.000000
    4       -2.351757   1.000000
    5        1.278076   1.000000
    6        2.723922   1.000000
    7        2.734429   1.000000
    8        3.870553   1.000000
    9        3.972069   1.000000
   10        3.994022   1.000000
   11        6.398395   1.000000
   12        6.539075   1.000000
   13        9.191602   0.000000
   14        9.767178   0.000000
   15       10.099749   0.000000
   16       10.395455   0.000000

 -0.3846154E+00  0.7692308E-01  0.2031312E-17  0.1092399E-01
    1      -23.295937   1.000000
    2      -23.279769   1.000000
    3      -23.278668   1.000000
    4       -2.501841   1.000000
    5        1.429046   1.000000
    6        2.679400   1.000000
    7        2.782094   1.000000
    8        3.908915   1.000000
    9        3.998041   1.000000
   10        4.075930   1.000000
   11        6.376720   1.000000
   12        6.597119   1.000000
   13        9.099042   0.000000
   14        9.984231   0.000000
   15        9.998298   0.000000
   16       10.392417   0.000000

 -0.3076923E+00  0.7692308E-01 -0.9216538E-17  0.1092399E-01
    1      -23.293003   1.000000
    2      -23.279950   1.000000
    3      -23.278657   1.000000
    4       -2.805271   1.000000
    5        1.728521   1.000000
    6        2.643599   1.000000
    7        2.847349   1.000000
    8        3.928417   1.000000
    9        4.009864   1.000000
   10        4.379740   1.000000
   11        6.378734   1.000000
   12        6.714470   1.000000
   13        9.015213   0.000010
   14        9.795441   0.000000
   15        9.909981   0.000000
   16       10.889660   0.000000

 -0.2307692E+00  0.7692308E-01 -0.4660740E-18  0.1092399E-01
    1      -23.289099   1.000000
    2      -23.280059   1.000000
    3      -23.278777   1.000000
    4       -3.152197   1.000000
    5        2.067013   1.000000
    6        2.645246   1.000000
    7        2.911720   1.000000
    8        3.906251   1.000000
    9        3.981315   1.000000
   10        4.908371   1.000000
   11        6.435049   1.000000
   12        6.894349   1.000000
   13        8.954040   0.999994
   14        9.586795   0.000000
   15        9.737579   0.000000
   16       11.191381   0.000000

 -0.1538462E+00  0.7692308E-01  0.2163864E-17  0.1092399E-01
    1      -23.285106   1.000000
    2      -23.280026   1.000000
    3      -23.278979   1.000000
    4       -3.461075   1.000000
    5        2.379947   1.000000
    6        2.691321   1.000000
    7        2.958554   1.000000
    8        3.843279   1.000000
    9        3.910341   1.000000
   10        5.609817   1.000000
   11        6.583050   1.000000
   12        7.098149   1.000000
   13        8.787910   1.000000
   14        9.448682   0.000000
   15        9.720960   0.000000
   16       10.708614   0.000000

 -0.7692308E-01  0.7692308E-01  0.2738338E-17  0.5461994E-02
    1      -23.282028   1.000000
    2      -23.279826   1.000000
    3      -23.279241   1.000000
    4       -3.682153   1.000000
    5        2.640006   1.000000
    6        2.773713   1.000000
    7        2.950097   1.000000
    8        3.776472   1.000000
    9        3.819682   1.000000
   10        6.322487   1.000000
   11        6.875639   1.000000
   12        7.240472   1.000000
   13        8.482117   1.000000
   14        9.462370   0.000000
   15        9.845401   0.000000
   16       10.271641   0.000000

  0.1538462E+00  0.1538462E+00  0.6256401E-17  0.2730997E-02
    1      -23.283484   1.000000
    2      -23.280012   1.000000
    3      -23.280012   1.000000
    4       -3.521570   1.000000
    5        2.214765   1.000000
    6        3.011307   1.000000
    7        3.011307   1.000000
    8        3.804724   1.000000
    9        3.836369   1.000000
   10        6.094526   1.000000
   11        6.710991   1.000000
   12        6.710991   1.000000
   13        8.504595   1.000000
   14        9.430241   0.000000
   15        9.905674   0.000000
   16       10.741541   0.000000

  0.2307692E+00  0.1538462E+00  0.4371873E-17  0.1092399E-01
    1      -23.286147   1.000000
    2      -23.280143   1.000000
    3      -23.280080   1.000000
    4       -3.314909   1.000000
    5        1.981868   1.000000
    6        3.003264   1.000000
    7        3.039457   1.000000
    8        3.824984   1.000000
    9        3.912899   1.000000
   10        5.574767   1.000000
   11        6.522471   1.000000
   12        6.522937   1.000000
   13        8.710351   1.000000
   14        9.411571   0.000000
   15        9.765982   0.000000
   16       11.084444   0.000000

  0.3076923E+00  0.1538462E+00  0.4946347E-17  0.1092399E-01
    1      -23.289631   1.000000
    2      -23.280204   1.000000
    3      -23.280110   1.000000
    4       -3.029530   1.000000
    5        1.777955   1.000000
    6        2.900624   1.000000
    7        3.027143   1.000000
    8        3.884255   1.000000
    9        3.979988   1.000000
   10        4.945658   1.000000
   11        6.331372   1.000000
   12        6.401454   1.000000
   13        8.934803   1.000000
   14        9.618106   0.000000
   15        9.697338   0.000000
   16       11.210636   0.000000

  0.3846154E+00  0.1538462E+00  0.4725386E-17  0.1092399E-01
    1      -23.292916   1.000000
    2      -23.280551   1.000000
    3      -23.279902   1.000000
    4       -2.715542   1.000000
    5        1.603282   1.000000
    6        2.775281   1.000000
    7        2.986839   1.000000
    8        3.934310   1.000000
    9        4.007210   1.000000
   10        4.423812   1.000000
   11        6.169472   1.000000
   12        6.354317   1.000000
   13        8.955019   0.999989
   14        9.766065   0.000000
   15       10.108224   0.000000
   16       10.747675   0.000000

  0.4615385E+00  0.1538462E+00  0.1100166E-16  0.1092399E-01
    1      -23.295245   1.000000
    2      -23.281076   1.000000
    3      -23.279567   1.000000
    4       -2.448366   1.000000
    5        1.465000   1.000000
    6        2.688934   1.000000
    7        2.916696   1.000000
    8        3.906174   1.000000
    9        4.015409   1.000000
   10        4.138547   1.000000
   11        6.055934   1.000000
   12        6.355031   1.000000
   13        9.001926   0.008372
   14        9.948575   0.000000
   15       10.115178   0.000000
   16       10.593692   0.000000

 -0.4615385E+00  0.1538462E+00  0.1458238E-16  0.1092399E-01
    1      -23.296124   1.000000
    2      -23.281625   1.000000
    3      -23.279184   1.000000
    4       -2.318324   1.000000
    5        1.400398   1.000000
    6        2.681251   1.000000
    7        2.819356   1.000000
    8        3.816013   1.000000
    9        4.034660   1.000000
   10        4.100107   1.000000
   11        5.978315   1.000000
   12        6.383876   1.000000
   13        9.141594   0.000000
   14        9.729852   0.000000
   15       10.112912   0.000000
   16       10.855014   0.000000

 -0.3846154E+00  0.1538462E+00  0.2333284E-16  0.1092399E-01
    1      -23.295421   1.000000
    2      -23.282028   1.000000
    3      -23.278851   1.000000
    4       -2.382044   1.000000
    5        1.452352   1.000000
    6        2.715398   1.000000
    7        2.758679   1.000000
    8        3.823880   1.000000
    9        4.063331   1.000000
   10        4.158688   1.000000
   11        5.908901   1.000000
   12        6.450117   1.000000
   13        9.217917   0.000000
   14        9.786296   0.000000
   15       10.093644   0.000000
   16       10.837430   0.000000

 -0.3076923E+00  0.1538462E+00  0.6813948E-18  0.1092399E-01
    1      -23.293341   1.000000
    2      -23.282134   1.000000
    3      -23.278631   1.000000
    4       -2.611169   1.000000
    5        1.613166   1.000000
    6        2.633590   1.000000
    7        2.887997   1.000000
    8        3.876981   1.000000
    9        4.075573   1.000000
   10        4.366304   1.000000
   11        5.843355   1.000000
   12        6.575668   1.000000
   13        9.225890   0.000000
   14        9.914549   0.000000
   15       10.168056   0.000000
   16       10.697301   0.000000

 -0.2307692E+00  0.1538462E+00 -0.6920121E-17  0.1092399E-01
    1      -23.290439   1.000000
    2      -23.281831   1.000000
    3      -23.278570   1.000000
    4       -2.919404   1.000000
    5        1.841887   1.000000
    6        2.596729   1.000000
    7        3.004879   1.000000
    8        3.888658   1.000000
    9        4.050773   1.000000
   10        4.777049   1.000000
   11        5.838438   1.000000
   12        6.762339   1.000000
   13        9.326227   0.000000
   14        9.687422   0.000000
   15        9.997350   0.000000
   16       10.848133   0.000000

 -0.1538462E+00  0.1538462E+00  0.3885807E-17  0.5461994E-02
    1      -23.287474   1.000000
    2      -23.281064   1.000000
    3      -23.278700   1.000000
    4       -3.222426   1.000000
    5        2.106450   1.000000
    6        2.616320   1.000000
    7        3.042533   1.000000
    8        3.863338   1.000000
    9        3.989713   1.000000
   10        5.261494   1.000000
   11        6.042205   1.000000
   12        6.966514   1.000000
   13        9.287414   0.000000
   14        9.501670   0.000000
   15        9.705884   0.000000
   16       10.672679   0.000000

  0.2307692E+00  0.2307692E+00  0.9384601E-17  0.2730997E-02
    1      -23.287671   1.000000
    2      -23.280520   1.000000
    3      -23.280520   1.000000
    4       -3.162989   1.000000
    5        1.762731   1.000000
    6        3.138463   1.000000
    7        3.138463   1.000000
    8        3.738847   1.000000
    9        3.979280   1.000000
   10        5.468786   1.000000
   11        6.318607   1.000000
   12        6.318607   1.000000
   13        8.501919   1.000000
   14        9.530172   0.000000
   15        9.654609   0.000000
   16       11.207008   0.000000

  0.3076923E+00  0.2307692E+00  0.1012627E-16  0.1092399E-01
    1      -23.290256   1.000000
    2      -23.280842   1.000000
    3      -23.280669   1.000000
    4       -2.935313   1.000000
    5        1.605582   1.000000
    6        3.119773   1.000000
    7        3.178312   1.000000
    8        3.742982   1.000000
    9        4.053630   1.000000
   10        5.056599   1.000000
   11        6.110385   1.000000
   12        6.183969   1.000000
   13        8.618364   1.000000
   14        9.545513   0.000000
   15        9.676706   0.000000
   16       11.213098   0.000000

  0.3846154E+00  0.2307692E+00  0.7242764E-17  0.1092399E-01
    1      -23.292781   1.000000
    2      -23.281533   1.000000
    3      -23.280594   1.000000
    4       -2.674333   1.000000
    5        1.529096   1.000000
    6        2.974416   1.000000
    7        3.161485   1.000000
    8        3.834014   1.000000
    9        4.093492   1.000000
   10        4.570648   1.000000
   11        5.871037   1.000000
   12        6.135778   1.000000
   13        8.746534   1.000000
   14        9.564863   0.000000
   15       10.102696   0.000000
   16       10.842269   0.000000

  0.4615385E+00  0.2307692E+00  0.1636993E-16  0.1092399E-01
    1      -23.294449   1.000000
    2      -23.282646   1.000000
    3      -23.280292   1.000000
    4       -2.439126   1.000000
    5        1.532652   1.000000
    6        2.801842   1.000000
    7        3.087314   1.000000
    8        3.872536   1.000000
    9        4.107577   1.000000
   10        4.229717   1.000000
   11        5.667577   1.000000
   12        6.144371   1.000000
   13        8.801769   1.000000
   14        9.760049   0.000000
   15       10.299821   0.000000
   16       10.673469   0.000000

 -0.4615385E+00  0.2307692E+00  0.5319451E-17  0.1092399E-01
    1      -23.294907   1.000000
    2      -23.283906   1.000000
    3      -23.279830   1.000000
    4       -2.294635   1.000000
    5        1.581103   1.000000
    6        2.671535   1.000000
    7        2.963843   1.000000
    8        3.746256   1.000000
    9        4.125175   1.000000
   10        4.217421   1.000000
   11        5.519289   1.000000
   12        6.179628   1.000000
   13        8.914902   1.000000
   14        9.872065   0.000000
   15       10.059050   0.000000
   16       10.952755   0.000000

 -0.3846154E+00  0.2307692E+00 -0.1863404E-16  0.1092399E-01
    1      -23.294228   1.000000
    2      -23.284867   1.000000
    3      -23.279322   1.000000
    4       -2.287907   1.000000
    5        1.609249   1.000000
    6        2.665783   1.000000
    7        2.820779   1.000000
    8        3.709349   1.000000
    9        4.145275   1.000000
   10        4.314105   1.000000
   11        5.414061   1.000000
   12        6.249099   1.000000
   13        9.113027   0.000000
   14        9.689901   0.000000
   15       10.196895   0.000000
   16       10.893098   0.000000

 -0.3076923E+00  0.2307692E+00  0.1422566E-16  0.1092399E-01
    1      -23.292924   1.000000
    2      -23.284953   1.000000
    3      -23.278889   1.000000
    4       -2.422668   1.000000
    5        1.619214   1.000000
    6        2.694976   1.000000
    7        2.793488   1.000000
    8        3.786398   1.000000
    9        4.145140   1.000000
   10        4.460236   1.000000
   11        5.352454   1.000000
   12        6.376737   1.000000
   13        9.241946   0.000000
   14        9.955773   0.000000
   15       10.080422   0.000000
   16       10.793635   0.000000

 -0.2307692E+00  0.2307692E+00  0.6624145E-17  0.5461994E-02
    1      -23.291639   1.000000
    2      -23.283781   1.000000
    3      -23.278619   1.000000
    4       -2.655472   1.000000
    5        1.685522   1.000000
    6        2.614853   1.000000
    7        2.945547   1.000000
    8        3.863088   1.000000
    9        4.111370   1.000000
   10        4.645085   1.000000
   11        5.439581   1.000000
   12        6.562606   1.000000
   13        9.324886   0.000000
   14        9.877198   0.000000
   15       10.459973   0.000000
   16       10.668955   0.000000

  0.3076923E+00  0.3076923E+00  0.1251280E-16  0.2730997E-02
    1      -23.292204   1.000000
    2      -23.281059   1.000000
    3      -23.281059   1.000000
    4       -2.775096   1.000000
    5        1.493952   1.000000
    6        3.278314   1.000000
    7        3.278314   1.000000
    8        3.596317   1.000000
    9        4.144732   1.000000
   10        4.864639   1.000000
   11        6.020266   1.000000
   12        6.020266   1.000000
   13        8.430505   1.000000
   14        9.374605   0.000000
   15        9.733486   0.000000
   16       11.157943   0.000000

  0.3846154E+00  0.3076923E+00  0.1039016E-16  0.1092399E-01
    1      -23.294213   1.000000
    2      -23.281591   1.000000
    3      -23.281183   1.000000
    4       -2.583536   1.000000
    5        1.479934   1.000000
    6        3.194212   1.000000
    7        3.309461   1.000000
    8        3.658686   1.000000
    9        4.204687   1.000000
   10        4.501304   1.000000
   11        5.817319   1.000000
   12        5.947444   1.000000
   13        8.485509   1.000000
   14        9.312046   0.000000
   15        9.959901   0.000000
   16       10.888633   0.000000

  0.4615385E+00  0.3076923E+00  0.1239008E-16  0.1092399E-01
    1      -23.295304   1.000000
    2      -23.282819   1.000000
    3      -23.280999   1.000000
    4       -2.404455   1.000000
    5        1.570475   1.000000
    6        2.991452   1.000000
    7        3.262409   1.000000
    8        3.782114   1.000000
    9        4.173084   1.000000
   10        4.223117   1.000000
   11        5.520416   1.000000
   12        5.948121   1.000000
   13        8.571582   1.000000
   14        9.454050   0.000000
   15       10.361376   0.000000
   16       10.608596   0.000000

 -0.4615385E+00  0.3076923E+00 -0.1134596E-17  0.1092399E-01
    1      -23.295085   1.000000
    2      -23.284649   1.000000
    3      -23.280567   1.000000
    4       -2.279431   1.000000
    5        1.727026   1.000000
    6        2.777673   1.000000
    7        3.141082   1.000000
    8        3.648079   1.000000
    9        4.223345   1.000000
   10        4.228363   1.000000
   11        5.244350   1.000000
   12        5.984414   1.000000
   13        8.671198   1.000000
   14        9.821859   0.000000
   15       10.034714   0.000000
   16       10.726742   0.000000

 -0.3846154E+00  0.3076923E+00 -0.2508809E-16  0.1092399E-01
    1      -23.293749   1.000000
    2      -23.286515   1.000000
    3      -23.279982   1.000000
    4       -2.236719   1.000000
    5        1.825452   1.000000
    6        2.612434   1.000000
    7        2.977899   1.000000
    8        3.570947   1.000000
    9        4.225977   1.000000
   10        4.431086   1.000000
   11        5.044442   1.000000
   12        6.057320   1.000000
   13        8.855283   1.000000
   14        9.766122   0.000000
   15       10.254707   0.000000
   16       10.713787   0.000000

 -0.3076923E+00  0.3076923E+00  0.7771614E-17  0.5461994E-02
    1      -23.292590   1.000000
    2      -23.287013   1.000000
    3      -23.279374   1.000000
    4       -2.287329   1.000000
    5        1.737882   1.000000
    6        2.649066   1.000000
    7        2.817263   1.000000
    8        3.655856   1.000000
    9        4.199741   1.000000
   10        4.548537   1.000000
   11        5.035980   1.000000
   12        6.189219   1.000000
   13        9.100595   0.000000
   14        9.712061   0.000000
   15       10.244159   0.000000
   16       10.659555   0.000000

  0.3846154E+00  0.3846154E+00  0.1564100E-16  0.2730997E-02
    1      -23.296043   1.000000
    2      -23.281513   1.000000
    3      -23.281513   1.000000
    4       -2.467983   1.000000
    5        1.510498   1.000000
    6        3.396267   1.000000
    7        3.396267   1.000000
    8        3.454342   1.000000
    9        4.222176   1.000000
   10        4.295253   1.000000
   11        5.837637   1.000000
   12        5.837637   1.000000
   13        8.357616   1.000000
   14        9.129337   0.000000
   15        9.855833   0.000000
   16       10.825339   0.000000

  0.4615385E+00  0.3846154E+00  0.1063111E-16  0.1092399E-01
    1      -23.297066   1.000000
    2      -23.282116   1.000000
    3      -23.281531   1.000000
    4       -2.356992   1.000000
    5        1.629053   1.000000
    6        3.205794   1.000000
    7        3.399641   1.000000
    8        3.625830   1.000000
    9        3.919530   1.000000
   10        4.329752   1.000000
   11        5.658141   1.000000
   12        5.812964   1.000000
   13        8.388106   1.000000
   14        9.141803   0.000000
   15       10.036104   0.000000
   16       10.605877   0.000000

 -0.4615385E+00  0.3846154E+00  0.1240967E-16  0.1092399E-01
    1      -23.296720   1.000000
    2      -23.283589   1.000000
    3      -23.281224   1.000000
    4       -2.274316   1.000000
    5        1.792786   1.000000
    6        2.993094   1.000000
    7        3.311938   1.000000
    8        3.534761   1.000000
    9        4.000179   1.000000
   10        4.321484   1.000000
   11        5.342905   1.000000
   12        5.842318   1.000000
   13        8.476172   1.000000
   14        9.411943   0.000000
   15       10.164490   0.000000
   16       10.568496   0.000000

 -0.3846154E+00  0.3846154E+00 -0.1154383E-16  0.5461994E-02
    1      -23.295205   1.000000
    2      -23.285514   1.000000
    3      -23.280680   1.000000
    4       -2.232667   1.000000
    5        1.903093   1.000000
    6        2.745898   1.000000
    7        3.156096   1.000000
    8        3.470811   1.000000
    9        4.278236   1.000000
   10        4.287144   1.000000
   11        5.063787   1.000000
   12        5.918639   1.000000
   13        8.625456   1.000000
   14        9.900139   0.000000
   15        9.942698   0.000000
   16       10.491443   0.000000

  0.4615385E+00  0.4615385E+00  0.1876920E-16  0.2730997E-02
    1      -23.298240   1.000000
    2      -23.281768   1.000000
    3      -23.281768   1.000000
    4       -2.313006   1.000000
    5        1.715963   1.000000
    6        3.407030   1.000000
    7        3.462628   1.000000
    8        3.462628   1.000000
    9        3.652289   1.000000
   10        4.386849   1.000000
   11        5.757897   1.000000
   12        5.757897   1.000000
   13        8.312526   1.000000
   14        8.984346   0.537440
   15        9.818449   0.000000
   16       10.580840   0.000000

 -0.4615385E+00  0.4615385E+00  0.5955623E-17  0.5461994E-02
    1      -23.298109   1.000000
    2      -23.282318   1.000000
    3      -23.281664   1.000000
    4       -2.284305   1.000000
    5        1.785746   1.000000
    6        3.233636   1.000000
    7        3.430953   1.000000
    8        3.489188   1.000000
    9        3.713915   1.000000
   10        4.380318   1.000000
   11        5.610597   1.000000
   12        5.769444   1.000000
   13        8.353046   1.000000
   14        9.080635   0.000000
   15        9.991583   0.000000
   16       10.501213   0.000000

  0.2307692E+00  0.1538462E+00  0.7692308E-01  0.1092399E-01
    1      -23.284882   1.000000
    2      -23.280296   1.000000
    3      -23.279309   1.000000
    4       -3.443024   1.000000
    5        2.221635   1.000000
    6        2.830953   1.000000
    7        3.021313   1.000000
    8        3.834293   1.000000
    9        3.892847   1.000000
   10        5.738031   1.000000
   11        6.455510   1.000000
   12        6.946626   1.000000
   13        8.832106   1.000000
   14        9.347410   0.000000
   15        9.807756   0.000000
   16       10.681495   0.000000

  0.3076923E+00  0.1538462E+00  0.7692308E-01  0.2184797E-01
    1      -23.288137   1.000000
    2      -23.280731   1.000000
    3      -23.279087   1.000000
    4       -3.172116   1.000000
    5        1.979018   1.000000
    6        2.746282   1.000000
    7        3.026617   1.000000
    8        3.881110   1.000000