 ----------------------------------------------------
    OOO  PPPP  EEEEE N   N M   M PPPP
   O   O P   P E     NN  N MM MM P   P
   O   O PPPP  EEEEE N N N M M M PPPP   -- VERSION
   O   O P     E     N  NN M   M P
    OOO  P     EEEEE N   N M   M P
 ----------------------------------------------------
 running   64 mpi-ranks, with    1 threads/rank
 distrk:  each k-point on   16 cores,    4 groups
 distr:  one band on    4 cores,    4 groups
 using from now: INCAR
 vasp.6.0.8 29Jun18 (build Jun 13 2019 12:54:44) complex

 POSCAR found type information on POSCAR  Hf Pt Sb
 POSCAR found :  3 types and       3 ions
 scaLAPACK will be used

 -----------------------------------------------------------------------------
|                                                                             |
|  ADVICE TO THIS USER RUNNING 'VASP/VAMP'   (HEAR YOUR MASTER'S VOICE ...):  |
|                                                                             |
|      You enforced a specific xc-type in the INCAR file,                     |
|      a different type was found on the POTCAR file                          |
|          I HOPE YOU KNOW, WHAT YOU ARE  DOING                               |
|                                                                             |
 -----------------------------------------------------------------------------

 LDA part: xc-table for Pade appr. of Perdew
 POSCAR, INCAR and KPOINTS ok, starting setup
 FFT: planning ...
 WAVECAR not read
 entering main loop
       N       E                     dE             d eps       ncg     rms          rms(c)
 ELPA: falling back to scaLAPACK
 ELPA: falling back to scaLAPACK
 ELPA: falling back to scaLAPACK
 ELPA: falling back to scaLAPACK
DAV:   1     0.116633841896E+03    0.11663E+03   -0.12213E+04  2744   0.137E+03
DAV:   2    -0.209986177328E+02   -0.13763E+03   -0.13651E+03  3360   0.298E+02
DAV:   3    -0.249427157529E+02   -0.39441E+01   -0.38807E+01  3632   0.460E+01
DAV:   4    -0.249947345132E+02   -0.52019E-01   -0.51989E-01  3328   0.577E+00
DAV:   5    -0.249959893335E+02   -0.12548E-02   -0.12547E-02  3680   0.824E-01    0.427E+01
DAV:   6    -0.242310234424E+02    0.76497E+00   -0.16838E+00  3480   0.925E+00    0.259E+01
DAV:   7    -0.240940539657E+02    0.13697E+00   -0.10074E+00  3784   0.556E+00    0.385E+00
DAV:   8    -0.240678338920E+02    0.26220E-01   -0.39072E-01  3504   0.350E+00    0.950E-01
DAV:   9    -0.240587634252E+02    0.90705E-02   -0.56085E-02  2920   0.183E+00    0.351E-01
DAV:  10    -0.240586006085E+02    0.16282E-03   -0.74972E-03  3680   0.445E-01    0.267E-01
DAV:  11    -0.240584836082E+02    0.11700E-03   -0.54724E-04  3240   0.148E-01    0.792E-02
DAV:  12    -0.240584819963E+02    0.16120E-05   -0.78176E-05  3624   0.544E-02
   1 F= -.24058482E+02 E0= -.24058348E+02  d E =-.240585E+02
quench:  g(F)=  0.000E+00 g(S)=  0.423E-06 dE (1.order)=-0.847E-06
 reached required accuracy - stopping structural energy minimisation
