<?xml version="1.0" encoding="ISO-8859-1"?>
<modeling>
 <generator>
  <i name="program" type="string">vasp </i>
  <i name="version" type="string">6.0.8  </i>
  <i name="subversion" type="string">29Jun18 (build Jun 13 2019 12:54:44) complex                          parallel </i>
  <i name="platform" type="string">IFC18_CrayMPICH </i>
  <i name="date" type="string">2021 11 11 </i>
  <i name="time" type="string">21:51:18 </i>
 </generator>
 <incar>
  <i type="int" name="KPAR">     4</i>
  <i type="int" name="NPAR">     4</i>
  <i type="int" name="ISTART">     0</i>
  <i type="string" name="PREC"> ACC</i>
  <i type="string" name="ALGO"> Normal</i>
  <i type="logical" name="ADDGRID"> T  </i>
  <i type="int" name="ISPIN">     1</i>
  <i type="int" name="NELMIN">     5</i>
  <i type="int" name="IBRION">     3</i>
  <i name="EDIFF">      0.00001000</i>
  <i name="EDIFFG">     -0.01000000</i>
  <i type="int" name="NSW">    60</i>
  <i type="int" name="ISIF">     7</i>
  <i name="ENCUT">    520.00000000</i>
  <i name="POTIM">      0.10000000</i>
  <i type="logical" name="LREAL"> F  </i>
  <i type="int" name="ISMEAR">     0</i>
  <i name="SIGMA">      0.01000000</i>
  <i type="logical" name="LWAVE"> F  </i>
  <i type="logical" name="LCHARG"> F  </i>
  <i type="logical" name="LVTOT"> F  </i>
  <i type="string" name="ALGO"> Normal</i>
  <i type="string" name="GGA"> PS</i>
  <i name="EDIFF">      0.00001000</i>
  <i type="int" name="ISPIN">     1</i>
 </incar>
 <structure name="primitive_cell" >
  <crystal>
   <varray name="basis" >
    <v>       0.00000000       3.17828433       3.17828433 </v>
    <v>       3.17828433       0.00000000       3.17828433 </v>
    <v>       3.17828433       3.17828433       0.00000000 </v>
   </varray>
   <i name="volume">     64.21082263 </i>
   <varray name="rec_basis" >
    <v>      -0.15731758       0.15731758       0.15731758 </v>
    <v>       0.15731758      -0.15731758       0.15731758 </v>
    <v>       0.15731758       0.15731758      -0.15731758 </v>
   </varray>
  </crystal>
  <varray name="positions" >
   <v>       0.25000000       0.25000000       0.25000000 </v>
   <v>       0.00000000       0.00000000       0.00000000 </v>
   <v>       0.75000000       0.75000000       0.75000000 </v>
  </varray>
 </structure>
 <varray name="primitive_index" >
  <v type="int" >        1 </v>
  <v type="int" >        2 </v>
  <v type="int" >        3 </v>
 </varray>
 <kpoints>
  <generation param="Gamma">
   <v type="int" name="divisions">      13       13       13 </v>
   <v name="usershift">      0.00000000       0.00000000       0.00000000 </v>
   <v name="genvec1">      0.07692308       0.00000000      -0.00000000 </v>
   <v name="genvec2">      0.00000000       0.07692308       0.00000000 </v>
   <v name="genvec3">     -0.00000000      -0.00000000       0.07692308 </v>
   <v name="shift">      0.00000000       0.00000000       0.00000000 </v>
  </generation>
  <varray name="kpointlist" >
   <v>       0.00000000       0.00000000       0.00000000 </v>
   <v>       0.07692308       0.00000000      -0.00000000 </v>
   <v>       0.15384615       0.00000000       0.00000000 </v>
   <v>       0.23076923       0.00000000       0.00000000 </v>
   <v>       0.30769231       0.00000000       0.00000000 </v>
   <v>       0.38461538      -0.00000000       0.00000000 </v>
   <v>       0.46153846       0.00000000       0.00000000 </v>
   <v>       0.07692308       0.07692308       0.00000000 </v>
   <v>       0.15384615       0.07692308       0.00000000 </v>
   <v>       0.23076923       0.07692308      -0.00000000 </v>
   <v>       0.30769231       0.07692308       0.00000000 </v>
   <v>       0.38461538       0.07692308       0.00000000 </v>
   <v>       0.46153846       0.07692308      -0.00000000 </v>
   <v>      -0.46153846       0.07692308       0.00000000 </v>
   <v>      -0.38461538       0.07692308       0.00000000 </v>
   <v>      -0.30769231       0.07692308      -0.00000000 </v>
   <v>      -0.23076923       0.07692308      -0.00000000 </v>
   <v>      -0.15384615       0.07692308       0.00000000 </v>
   <v>      -0.07692308       0.07692308       0.00000000 </v>
   <v>       0.15384615       0.15384615       0.00000000 </v>
   <v>       0.23076923       0.15384615       0.00000000 </v>
   <v>       0.30769231       0.15384615       0.00000000 </v>
   <v>       0.38461538       0.15384615       0.00000000 </v>
   <v>       0.46153846       0.15384615       0.00000000 </v>
   <v>      -0.46153846       0.15384615       0.00000000 </v>
   <v>      -0.38461538       0.15384615       0.00000000 </v>
   <v>      -0.30769231       0.15384615       0.00000000 </v>
   <v>      -0.23076923       0.15384615      -0.00000000 </v>
   <v>      -0.15384615       0.15384615       0.00000000 </v>
   <v>       0.23076923       0.23076923       0.00000000 </v>
   <v>       0.30769231       0.23076923       0.00000000 </v>
   <v>       0.38461538       0.23076923       0.00000000 </v>
   <v>       0.46153846       0.23076923       0.00000000 </v>
   <v>      -0.46153846       0.23076923       0.00000000 </v>
   <v>      -0.38461538       0.23076923      -0.00000000 </v>
   <v>      -0.30769231       0.23076923       0.00000000 </v>
   <v>      -0.23076923       0.23076923       0.00000000 </v>
   <v>       0.30769231       0.30769231       0.00000000 </v>
   <v>       0.38461538       0.30769231       0.00000000 </v>
   <v>       0.46153846       0.30769231       0.00000000 </v>
   <v>      -0.46153846       0.30769231      -0.00000000 </v>
   <v>      -0.38461538       0.30769231      -0.00000000 </v>
   <v>      -0.30769231       0.30769231       0.00000000 </v>
   <v>       0.38461538       0.38461538       0.00000000 </v>
   <v>       0.46153846       0.38461538       0.00000000 </v>
   <v>      -0.46153846       0.38461538       0.00000000 </v>
   <v>      -0.38461538       0.38461538      -0.00000000 </v>
   <v>       0.46153846       0.46153846       0.00000000 </v>
   <v>      -0.46153846       0.46153846       0.00000000 </v>
   <v>       0.23076923       0.15384615       0.07692308 </v>
   <v>       0.30769231       0.15384615       0.07692308 </v>
   <v>       0.38461538       0.15384615       0.07692308 </v>
   <v>       0.46153846       0.15384615       0.07692308 </v>
   <v>      -0.46153846       0.15384615       0.07692308 </v>
   <v>       0.30769231       0.23076923       0.07692308 </v>
   <v>       0.38461538       0.23076923       0.07692308 </v>
   <v>       0.46153846       0.23076923       0.07692308 </v>
   <v>      -0.46153846       0.23076923       0.07692308 </v>
   <v>      -0.38461538       0.23076923       0.07692308 </v>
   <v>      -0.30769231       0.23076923       0.07692308 </v>
   <v>      -0.23076923       0.23076923       0.07692308 </v>
   <v>      -0.15384615       0.23076923       0.07692308 </v>
   <v>       0.38461538       0.30769231       0.07692308 </v>
   <v>       0.46153846       0.30769231       0.07692308 </v>
   <v>      -0.46153846       0.30769231       0.07692308 </v>
   <v>      -0.38461538       0.30769231       0.07692308 </v>
   <v>      -0.30769231       0.30769231       0.07692308 </v>
   <v>      -0.23076923       0.30769231       0.07692308 </v>
   <v>       0.46153846       0.38461538       0.07692308 </v>
   <v>      -0.46153846       0.38461538       0.07692308 </v>
   <v>      -0.38461538       0.38461538       0.07692308 </v>
   <v>      -0.30769231       0.38461538       0.07692308 </v>
   <v>      -0.46153846       0.46153846       0.07692308 </v>
   <v>      -0.38461538       0.46153846       0.07692308 </v>
   <v>       0.46153846       0.30769231       0.15384615 </v>
   <v>      -0.46153846       0.30769231       0.15384615 </v>
   <v>      -0.38461538       0.30769231       0.15384615 </v>
   <v>      -0.46153846       0.38461538       0.15384615 </v>
   <v>      -0.38461538       0.38461538       0.15384615 </v>
   <v>      -0.30769231       0.38461538       0.15384615 </v>
   <v>      -0.23076923       0.38461538       0.15384615 </v>
   <v>      -0.38461538       0.46153846       0.15384615 </v>
   <v>      -0.30769231       0.46153846       0.15384615 </v>
   <v>      -0.30769231       0.46153846       0.23076923 </v>
  </varray>
  <varray name="weights" >
   <v>       0.00045517 </v>
   <v>       0.00364133 </v>
   <v>       0.00364133 </v>
   <v>       0.00364133 </v>
   <v>       0.00364133 </v>
   <v>       0.00364133 </v>
   <v>       0.00364133 </v>
   <v>       0.00273100 </v>
   <v>       0.01092399 </v>
   <v>       0.01092399 </v>
   <v>       0.01092399 </v>
   <v>       0.01092399 </v>
   <v>       0.01092399 </v>
   <v>       0.01092399 </v>
   <v>       0.01092399 </v>
   <v>       0.01092399 </v>
   <v>       0.01092399 </v>
   <v>       0.01092399 </v>
   <v>       0.00546199 </v>
   <v>       0.00273100 </v>
   <v>       0.01092399 </v>
   <v>       0.01092399 </v>
   <v>       0.01092399 </v>
   <v>       0.01092399 </v>
   <v>       0.01092399 </v>
   <v>       0.01092399 </v>
   <v>       0.01092399 </v>
   <v>       0.01092399 </v>
   <v>       0.00546199 </v>
   <v>       0.00273100 </v>
   <v>       0.01092399 </v>
   <v>       0.01092399 </v>
   <v>       0.01092399 </v>
   <v>       0.01092399 </v>
   <v>       0.01092399 </v>
   <v>       0.01092399 </v>
   <v>       0.00546199 </v>
   <v>       0.00273100 </v>
   <v>       0.01092399 </v>
   <v>       0.01092399 </v>
   <v>       0.01092399 </v>
   <v>       0.01092399 </v>
   <v>       0.00546199 </v>
   <v>       0.00273100 </v>
   <v>       0.01092399 </v>
   <v>       0.01092399 </v>
   <v>       0.00546199 </v>
   <v>       0.00273100 </v>
   <v>       0.00546199 </v>
   <v>       0.01092399 </v>
   <v>       0.02184797 </v>
   <v>       0.02184797 </v>
   <v>       0.02184797 </v>
   <v>       0.02184797 </v>
   <v>       0.01092399 </v>
   <v>       0.02184797 </v>
   <v>       0.02184797 </v>
   <v>       0.02184797 </v>
   <v>       0.02184797 </v>
   <v>       0.02184797 </v>
   <v>       0.02184797 </v>
   <v>       0.01092399 </v>
   <v>       0.01092399 </v>
   <v>       0.02184797 </v>
   <v>       0.02184797 </v>
   <v>       0.02184797 </v>
   <v>       0.02184797 </v>
   <v>       0.01092399 </v>
   <v>       0.01092399 </v>
   <v>       0.02184797 </v>
   <v>       0.02184797 </v>
   <v>       0.01092399 </v>
   <v>       0.01092399 </v>
   <v>       0.01092399 </v>
   <v>       0.01092399 </v>
   <v>       0.02184797 </v>
   <v>       0.02184797 </v>
   <v>       0.01092399 </v>
   <v>       0.02184797 </v>
   <v>       0.02184797 </v>
   <v>       0.01092399 </v>
   <v>       0.01092399 </v>
   <v>       0.01092399 </v>
   <v>       0.01092399 </v>
  </varray>
 </kpoints>
 <parameters>
  <separator name="general" >
   <i type="string" name="SYSTEM">unknown system</i>
   <i type="logical" name="LCOMPAT"> F  </i>
  </separator>
  <separator name="electronic" >
   <i type="string" name="PREC">acc</i>
   <i name="ENMAX">    520.00000000</i>
   <i name="ENAUG">    380.87800000</i>
   <i name="EDIFF">      0.00001000</i>
   <i type="int" name="IALGO">    38</i>
   <i type="int" name="IWAVPR">    11</i>
   <i type="int" name="NBANDS">    16</i>
   <i type="int" name="NBANDSLOW">    -1</i>
   <i type="int" name="NBANDSHIGH">    -1</i>
   <i name="NELECT">     25.00000000</i>
   <i type="int" name="TURBO">     0</i>
   <i type="int" name="IRESTART">     0</i>
   <i type="int" name="NREBOOT">     0</i>
   <i type="int" name="NMIN">     0</i>
   <i name="EREF">      0.00000000</i>
   <separator name="electronic smearing" >
    <i type="int" name="ISMEAR">     0</i>
    <i name="SIGMA">      0.01000000</i>
    <i name="KSPACING">      0.50000000</i>
    <i type="logical" name="KGAMMA"> T  </i>
    <i type="logical" name="KBLOWUP"> T  </i>
   </separator>
   <separator name="electronic projectors" >
    <i type="logical" name="LREAL"> F  </i>
    <v name="ROPT">      0.00000000      0.00000000      0.00000000</v>
    <i type="int" name="LMAXPAW">  -100</i>
    <i type="int" name="LMAXMIX">     2</i>
    <i type="logical" name="NLSPLINE"> F  </i>
   </separator>
   <separator name="electronic startup" >
    <i type="int" name="ISTART">     0</i>
    <i type="int" name="ICHARG">     2</i>
    <i type="int" name="INIWAV">     1</i>
   </separator>
   <separator name="electronic spin" >
    <i type="int" name="ISPIN">     1</i>
    <i type="logical" name="LNONCOLLINEAR"> F  </i>
    <v name="MAGMOM">      1.00000000      1.00000000      1.00000000</v>
    <i name="NUPDOWN">     -1.00000000</i>
    <i type="logical" name="LSORBIT"> F  </i>
    <v name="SAXIS">      0.00000000      0.00000000      1.00000000</v>
    <i type="logical" name="LSPIRAL"> F  </i>
    <v name="QSPIRAL">      0.00000000      0.00000000      0.00000000</v>
    <i type="logical" name="LZEROZ"> F  </i>
   </separator>
   <separator name="electronic exchange-correlation" >
    <i type="logical" name="LASPH"> F  </i>
    <i type="logical" name="LMETAGGA"> F  </i>
   </separator>
   <separator name="electronic convergence" >
    <i type="int" name="NELM">    60</i>
    <i type="int" name="NELMDL">    -5</i>
    <i type="int" name="NELMIN">     5</i>
    <i name="ENINI">    520.00000000</i>
    <separator name="electronic convergence detail" >
     <i type="logical" name="LDIAG"> T  </i>
     <i type="logical" name="LSUBROT"> F  </i>
     <i name="WEIMIN">      0.00100000</i>
     <i name="EBREAK">      0.00000016</i>
     <i name="DEPER">      0.30000000</i>
     <i type="int" name="NRMM">     4</i>
     <i name="TIME">      0.40000000</i>
    </separator>
   </separator>
   <separator name="electronic mixer" >
    <i name="AMIX">      0.40000000</i>
    <i name="BMIX">      1.00000000</i>
    <i name="AMIN">      0.10000000</i>
    <i name="AMIX_MAG">      1.60000000</i>
    <i name="BMIX_MAG">      1.00000000</i>
    <separator name="electronic mixer details" >
     <i type="int" name="IMIX">     4</i>
     <i type="logical" name="MIXFIRST"> F  </i>
     <i type="int" name="MAXMIX">   -45</i>
     <i name="WC">    100.00000000</i>
     <i type="int" name="INIMIX">     1</i>
     <i type="int" name="MIXPRE">     1</i>
     <i type="int" name="MREMOVE">     5</i>
    </separator>
   </separator>
   <separator name="electronic dipolcorrection" >
    <i type="logical" name="LDIPOL"> F  </i>
    <i type="logical" name="LMONO"> F  </i>
    <i type="int" name="IDIPOL">     0</i>
    <i name="EPSILON">      1.00000000</i>
    <v name="DIPOL">   -100.00000000   -100.00000000   -100.00000000</v>
    <i name="EFIELD">      0.00000000</i>
   </separator>
  </separator>
  <separator name="grids" >
   <i type="int" name="NGX">    36</i>
   <i type="int" name="NGY">    36</i>
   <i type="int" name="NGZ">    36</i>
   <i type="int" name="NGXF">    72</i>
   <i type="int" name="NGYF">    72</i>
   <i type="int" name="NGZF">    72</i>
   <i type="logical" name="ADDGRID"> T  </i>
  </separator>
  <separator name="ionic" >
   <i type="int" name="NSW">    60</i>
   <i type="int" name="IBRION">     3</i>
   <i type="int" name="MDALGO">     0</i>
   <i type="int" name="ISIF">     7</i>
   <i name="PSTRESS">      0.00000000</i>
   <i name="EDIFFG">     -0.01000000</i>
   <i type="int" name="NFREE">     0</i>
   <i name="POTIM">      0.10000000</i>
   <i name="SMASS">     -3.00000000</i>
   <i name="SCALEE">      1.00000000</i>
  </separator>
  <separator name="ionic md" >
   <i name="TEBEG">      0.00010000</i>
   <i name="TEEND">      0.00010000</i>
   <i type="int" name="NBLOCK">     1</i>
   <i type="int" name="KBLOCK">    60</i>
   <i type="int" name="NPACO">   256</i>
   <i name="APACO">     16.00000000</i>
  </separator>
  <separator name="symmetry" >
   <i type="int" name="ISYM">     2</i>
   <i name="SYMPREC">      0.00001000</i>
  </separator>
  <separator name="dos" >
   <i type="int" name="LORBIT">     0</i>
   <v name="RWIGS">     -1.00000000     -1.00000000     -1.00000000</v>
   <i type="int" name="NEDOS">   301</i>
   <i name="EMIN">     10.00000000</i>
   <i name="EMAX">    -10.00000000</i>
   <i name="EFERMI">      0.00000000</i>
  </separator>
  <separator name="writing" >
   <i type="int" name="NWRITE">     2</i>
   <i type="logical" name="LWAVE"> F  </i>
   <i type="logical" name="LDOWNSAMPLE"> F  </i>
   <i type="logical" name="LCHARG"> F  </i>
   <i type="logical" name="LPARD"> F  </i>
   <i type="logical" name="LVTOT"> F  </i>
   <i type="logical" name="LVHAR"> F  </i>
   <i type="logical" name="LELF"> F  </i>
   <i type="logical" name="LOPTICS"> F  </i>
   <v name="STM">      0.00000000      0.00000000      0.00000000      0.00000000      0.00000000      0.00000000      0.00000000</v>
  </separator>
  <separator name="performance" >
   <i type="int" name="NPAR">     4</i>
   <i type="int" name="NSIM">     4</i>
   <i type="int" name="NBLK">    -1</i>
   <i type="logical" name="LPLANE"> T  </i>
   <i type="logical" name="LSCALAPACK"> T  </i>
   <i type="logical" name="LSCAAWARE"> F  </i>
   <i type="logical" name="LSCALU"> F  </i>
   <i type="logical" name="LASYNC"> F  </i>
   <i type="logical" name="LORBITALREAL"> F  </i>
  </separator>
  <separator name="miscellaneous" >
   <i type="int" name="IDIOT">     3</i>
   <i type="int" name="PHON_NSTRUCT">    -1</i>
   <i type="logical" name="LMUSIC"> F  </i>
   <v name="POMASS">    178.49000000    195.08000000    121.75000000</v>
   <v name="DARWINR">      0.00000000      0.00000000      0.00000000</v>
   <v name="DARWINV">      1.00000000      1.00000000      1.00000000</v>
   <i type="logical" name="LCORR"> T  </i>
  </separator>
  <i type="logical" name="GGA_COMPAT"> T  </i>
  <i type="logical" name="LBERRY"> F  </i>
  <i type="int" name="ICORELEVEL">     0</i>
  <i type="logical" name="LDAU"> F  </i>
  <i type="int" name="I_CONSTRAINED_M">     0</i>
  <separator name="electronic exchange-correlation" >
   <i type="string" name="GGA">PS</i>
   <i type="int" name="VOSKOWN">     0</i>
   <i type="logical" name="LHFCALC"> F  </i>
   <i type="string" name="PRECFOCK"></i>
   <i type="logical" name="LSYMGRAD"> F  </i>
   <i type="logical" name="LHFONE"> F  </i>
   <i type="logical" name="LRHFCALC"> F  </i>
   <i type="logical" name="LTHOMAS"> F  </i>
   <i type="logical" name="LMODELHF"> F  </i>
   <i type="logical" name="LFOCKACE"> F  </i>
   <i name="ENCUT4O">     -1.00000000</i>
   <i type="int" name="EXXOEP">     0</i>
   <i type="int" name="FOURORBIT">     0</i>
   <i name="AEXX">      0.00000000</i>
   <i name="HFALPHA">      0.00000000</i>
   <i name="MCALPHA">      0.00000000</i>
   <i name="ALDAX">      1.00000000</i>
   <i name="AGGAX">      1.00000000</i>
   <i name="ALDAC">      1.00000000</i>
   <i name="AGGAC">      1.00000000</i>
   <i type="int" name="NKREDX">     1</i>
   <i type="int" name="NKREDY">     1</i>
   <i type="int" name="NKREDZ">     1</i>
   <i type="logical" name="SHIFTRED"> F  </i>
   <i type="logical" name="ODDONLY"> F  </i>
   <i type="logical" name="EVENONLY"> F  </i>
   <i type="int" name="LMAXFOCK">     0</i>
   <i type="int" name="NMAXFOCKAE">     0</i>
   <i type="logical" name="LFOCKAEDFT"> F  </i>
   <i name="HFSCREEN">      0.00000000</i>
   <i name="HFSCREENC">      0.00000000</i>
   <i type="int" name="NBANDSGWLOW">     0</i>
  </separator>
  <separator name="vdW DFT" >
   <i type="logical" name="LUSE_VDW"> F  </i>
   <i name="Zab_VDW">     -0.84910000</i>
   <i name="PARAM1">      0.12340000</i>
   <i name="PARAM2">      1.00000000</i>
   <i name="PARAM3">      0.00000000</i>
  </separator>
  <separator name="model GW" >
   <i type="int" name="MODEL_GW">     0</i>
   <i name="MODEL_EPS0">     12.84216453</i>
   <i name="MODEL_ALPHA">      1.00000000</i>
  </separator>
  <separator name="linear response parameters" >
   <i type="logical" name="LEPSILON"> F  </i>
   <i type="logical" name="LRPA"> F  </i>
   <i type="logical" name="LNABLA"> F  </i>
   <i type="logical" name="LVEL"> F  </i>
   <i type="int" name="KINTER">     0</i>
   <i name="CSHIFT">      0.10000000</i>
   <i name="OMEGAMAX">     -1.00000000</i>
   <i name="DEG_THRESHOLD">      0.00200000</i>
   <i name="RTIME">     -0.10000000</i>
   <i name="WPLASMAI">      0.00000000</i>
   <v name="DFIELD">      0.00000000      0.00000000      0.00000000</v>
   <v name="WPLASMA">      0.00000000      0.00000000      0.00000000      0.00000000      0.00000000      0.00000000      0.00000000      0.00000000      0.00000000</v>
  </separator>
  <separator name="orbital magnetization" >
   <i type="logical" name="NUCIND"> F  </i>
   <v name="MAGPOS">      0.00000000      0.00000000      0.00000000</v>
   <i type="logical" name="LNICSALL"> T  </i>
   <i type="logical" name="ORBITALMAG"> F  </i>
   <i type="logical" name="LMAGBLOCH"> F  </i>
   <i type="logical" name="LCHIMAG"> F  </i>
   <i type="logical" name="LGAUGE"> T  </i>
   <i type="int" name="MAGATOM">     0</i>
   <v name="MAGDIPOL">      0.00000000      0.00000000      0.00000000</v>
   <v name="AVECCONST">      0.00000000      0.00000000      0.00000000</v>
  </separator>
  <separator name="response functions" >
   <i type="logical" name="LFINITE_TEMPERATURE"> F  </i>
   <i type="logical" name="LADDER"> F  </i>
   <i type="logical" name="LRPAFORCE"> F  </i>
   <i type="logical" name="LFXC"> F  </i>
   <i type="logical" name="LHARTREE"> T  </i>
   <i type="int" name="IBSE">     0</i>
   <v type="int" name="KPOINT">    -1     0     0     0</v>
   <i type="logical" name="LTCTC"> F  </i>
   <i type="logical" name="LTCTE"> F  </i>
   <i type="logical" name="LTETE"> F  </i>
   <i type="logical" name="LTRIPLET"> F  </i>
   <i type="logical" name="LFXCEPS"> F  </i>
   <i type="logical" name="LFXHEG"> F  </i>
   <i type="int" name="NATURALO">     2</i>
   <i type="logical" name="L2ORDER"> F  </i>
   <i type="logical" name="LDMP1"> F  </i>
   <i type="logical" name="LMP2LT"> F  </i>
   <i type="logical" name="LSMP2LT"> F  </i>
   <i type="logical" name="LUSEW"> F  </i>
   <i name="ENCUTGW">     -2.00000000</i>
   <i name="ENCUTGWSOFT">     -2.00000000</i>
   <i name="ENCUTLF">     -1.00000000</i>
   <i type="int" name="LMAXMP2">    -1</i>
   <i name="SCISSOR">      0.00000000</i>
   <i type="int" name="NOMEGA">     0</i>
   <i type="int" name="NOMEGAR">     0</i>
   <i type="int" name="NBANDSGW">    -1</i>
   <i type="int" name="NBANDSO">    -1</i>
   <i type="int" name="NBANDSV">    -1</i>
   <i type="int" name="NELM">     1</i>
   <i type="int" name="NELMHF">     1</i>
   <i type="int" name="DIM">     3</i>
   <i type="int" name="IESPILON">     4</i>
   <i type="int" name="ANTIRES">     0</i>
   <i name="OMEGAMAX">    -30.00000000</i>
   <i name="OMEGAMIN">    -30.00000000</i>
   <i name="OMEGATL">   -200.00000000</i>
   <i type="int" name="OMEGAGRID">   145</i>
   <i name="CSHIFT">     -0.10000000</i>
   <i type="logical" name="LSELFENERGY"> F  </i>
   <i type="logical" name="LSPECTRAL"> F  </i>
   <i type="logical" name="LSPECTRALGW"> F  </i>
   <i type="logical" name="LSINGLES"> F  </i>
   <i type="logical" name="LFERMIGW"> F  </i>
   <i type="logical" name="ODDONLYGW"> F  </i>
   <i type="logical" name="EVENONLYGW"> F  </i>
   <i type="int" name="NKREDLFX">     1</i>
   <i type="int" name="NKREDLFY">     1</i>
   <i type="int" name="NKREDLFZ">     1</i>
   <i type="int" name="MAXMEM">  2800</i>
   <i type="int" name="TELESCOPE">     0</i>
   <i type="int" name="NTAUPAR">     1</i>
   <i type="int" name="NOMEGAPAR">    -1</i>
   <i name="LAMBDA">      1.00000000</i>
  </separator>
  <separator name="External order field" >
   <i name="OFIELD_KAPPA">      0.00000000</i>
   <v name="OFIELD_K">      0.00000000      0.00000000      0.00000000</v>
   <i name="OFIELD_Q6_NEAR">      0.00000000</i>
   <i name="OFIELD_Q6_FAR">      0.00000000</i>
   <i name="OFIELD_A">      0.00000000</i>
  </separator>
 </parameters>
 <atominfo>
  <atoms>       3 </atoms>
  <types>       3 </types>
  <array name="atoms" >
   <dimension dim="1">ion</dimension>
   <field type="string">element</field>
   <field type="int">atomtype</field>
   <set>
    <rc><c>Hf</c><c>   1</c></rc>
    <rc><c>Pt</c><c>   2</c></rc>
    <rc><c>Sb</c><c>   3</c></rc>
   </set>
  </array>
  <array name="atomtypes" >
   <dimension dim="1">type</dimension>
   <field type="int">atomspertype</field>
   <field type="string">element</field>
   <field>mass</field>
   <field>valence</field>
   <field type="string">pseudopotential</field>
   <set>
    <rc><c>   1</c><c>Hf</c><c>    178.49000000</c><c>     10.00000000</c><c>  PAW_PBE Hf_pv 06Sep2000               </c></rc>
    <rc><c>   1</c><c>Pt</c><c>    195.08000000</c><c>     10.00000000</c><c>  PAW_PBE Pt 04Feb2005                  </c></rc>
    <rc><c>   1</c><c>Sb</c><c>    121.75000000</c><c>      5.00000000</c><c>  PAW_PBE Sb 06Sep2000                  </c></rc>
   </set>
  </array>
 </atominfo>
 <structure name="initialpos" >
  <crystal>
   <varray name="basis" >
    <v>       0.00000000       3.17828433       3.17828433 </v>
    <v>       3.17828433       0.00000000       3.17828433 </v>
    <v>       3.17828433       3.17828433       0.00000000 </v>
   </varray>
   <i name="volume">     64.21082263 </i>
   <varray name="rec_basis" >
    <v>      -0.15731758       0.15731758       0.15731758 </v>
    <v>       0.15731758      -0.15731758       0.15731758 </v>
    <v>       0.15731758       0.15731758      -0.15731758 </v>
   </varray>
  </crystal>
  <varray name="positions" >
   <v>       0.25000000       0.25000000       0.25000000 </v>
   <v>       0.00000000       0.00000000       0.00000000 </v>
   <v>       0.75000000       0.75000000       0.75000000 </v>
  </varray>
 </structure>
 <calculation>
  <scstep>
   <time name="dav">    0.79    0.83</time>
   <time name="total">    0.90    0.99</time>
   <energy>
    <i name="alphaZ">    106.09977020 </i>
    <i name="ewald">  -1564.38476090 </i>
    <i name="hartreedc">   -323.83133154 </i>
    <i name="XCdc">    -18.98576581 </i>
    <i name="pawpsdc">   1514.36848356 </i>
    <i name="pawaedc">  -1421.27055995 </i>
    <i name="eentropy">     -0.00015478 </i>
    <i name="bandstr">     83.53693951 </i>
    <i name="atom">   1741.10122161 </i>
    <i name="e_fr_energy">    116.63384190 </i>
    <i name="e_wo_entrp">    116.63399667 </i>
    <i name="e_0_energy">    116.63391928 </i>
   </energy>
  </scstep>
  <scstep>
   <time name="dav">    0.92    0.92</time>
   <time name="total">    0.92    0.93</time>
   <energy>
    <i name="e_fr_energy">    -20.99861773 </i>
    <i name="e_wo_entrp">    -20.99847135 </i>
    <i name="e_0_energy">    -20.99854454 </i>
   </energy>
  </scstep>
  <scstep>
   <time name="dav">    0.99    1.00</time>
   <time name="total">    0.99    1.00</time>
   <energy>
    <i name="e_fr_energy">    -24.94271575 </i>
    <i name="e_wo_entrp">    -24.94256657 </i>
    <i name="e_0_energy">    -24.94264116 </i>
   </energy>
  </scstep>
  <scstep>
   <time name="dav">    0.91    0.92</time>
   <time name="total">    0.92    0.93</time>
   <energy>
    <i name="e_fr_energy">    -24.99473451 </i>
    <i name="e_wo_entrp">    -24.99458458 </i>
    <i name="e_0_energy">    -24.99465954 </i>
   </energy>
  </scstep>
  <scstep>
   <time name="dav">    1.01    1.03</time>
   <time name="total">    1.20    1.21</time>
   <energy>
    <i name="e_fr_energy">    -24.99598933 </i>
    <i name="e_wo_entrp">    -24.99583761 </i>
    <i name="e_0_energy">    -24.99591347 </i>
   </energy>
  </scstep>
  <scstep>
   <time name="dav">    0.96    0.96</time>
   <time name="total">    1.20    1.22</time>
   <energy>
    <i name="e_fr_energy">    -24.23102344 </i>
    <i name="e_wo_entrp">    -24.23082144 </i>
    <i name="e_0_energy">    -24.23092244 </i>
   </energy>
  </scstep>
  <scstep>
   <time name="dav">    1.00    1.00</time>
   <time name="total">    1.24    1.25</time>
   <energy>
    <i name="e_fr_energy">    -24.09405397 </i>
    <i name="e_wo_entrp">    -24.09373020 </i>
    <i name="e_0_energy">    -24.09389208 </i>
   </energy>
  </scstep>
  <scstep>
   <time name="dav">    0.95    0.95</time>
   <time name="total">    1.18    1.19</time>
   <energy>
    <i name="e_fr_energy">    -24.06783389 </i>
    <i name="e_wo_entrp">    -24.06762139 </i>
    <i name="e_0_energy">    -24.06772764 </i>
   </energy>
  </scstep>
  <scstep>
   <time name="dav">    0.83    0.83</time>
   <time name="total">    1.07    1.08</time>
   <energy>
    <i name="e_fr_energy">    -24.05876343 </i>
    <i name="e_wo_entrp">    -24.05853240 </i>
    <i name="e_0_energy">    -24.05864791 </i>
   </energy>
  </scstep>
  <scstep>
   <time name="dav">    1.01    1.01</time>
   <time name="total">    1.25    1.26</time>
   <energy>
    <i name="e_fr_energy">    -24.05860061 </i>
    <i name="e_wo_entrp">    -24.05831676 </i>
    <i name="e_0_energy">    -24.05845868 </i>
   </energy>
  </scstep>
  <scstep>
   <time name="dav">    0.88    0.88</time>
   <time name="total">    1.11    1.13</time>
   <energy>
    <i name="e_fr_energy">    -24.05848361 </i>
    <i name="e_wo_entrp">    -24.05821187 </i>
    <i name="e_0_energy">    -24.05834774 </i>
   </energy>
  </scstep>
  <scstep>
   <time name="dav">    1.01    1.01</time>
   <time name="total">    1.12    1.13</time>
   <energy>
    <i name="alphaZ">    106.09977020 </i>
    <i name="ewald">  -1564.38476090 </i>
    <i name="hartreedc">   -302.64223130 </i>
    <i name="XCdc">    -19.60742584 </i>
    <i name="pawpsdc">   2634.04242027 </i>
    <i name="pawaedc">  -2546.35848651 </i>
    <i name="eentropy">     -0.00026796 </i>
    <i name="bandstr">    -72.30872156 </i>
    <i name="atom">   1741.10122161 </i>
    <i name="e_fr_energy">    -24.05848200 </i>
    <i name="e_wo_entrp">    -24.05821404 </i>
    <i name="e_0_energy">    -24.05834802 </i>
   </energy>
  </scstep>
  <structure>
   <crystal>
    <varray name="basis" >
     <v>       0.00000000       3.17828433       3.17828433 </v>
     <v>       3.17828433       0.00000000       3.17828433 </v>
     <v>       3.17828433       3.17828433       0.00000000 </v>
    </varray>
    <i name="volume">     64.21082263 </i>
    <varray name="rec_basis" >
     <v>      -0.15731758       0.15731758       0.15731758 </v>
     <v>       0.15731758      -0.15731758       0.15731758 </v>
     <v>       0.15731758       0.15731758      -0.15731758 </v>
    </varray>
   </crystal>
   <varray name="positions" >
    <v>       0.25000000       0.25000000       0.25000000 </v>
    <v>       0.00000000       0.00000000       0.00000000 </v>
    <v>       0.75000000       0.75000000       0.75000000 </v>
   </varray>
  </structure>
  <varray name="forces" >
   <v>       0.00000000       0.00000000       0.00000000 </v>
   <v>      -0.00000000      -0.00000000      -0.00000000 </v>
   <v>       0.00000000      -0.00000000      -0.00000000 </v>
  </varray>
  <varray name="stress" >
   <v>      -0.16528445       0.00000000       0.00000000 </v>
   <v>      -0.00000000      -0.16528445       0.00000000 </v>
   <v>       0.00000000      -0.00000000      -0.16528445 </v>
  </varray>
  <energy>
   <i name="e_fr_energy">    -24.05848200 </i>
   <i name="e_wo_entrp">    -24.05834802 </i>
   <i name="e_0_energy">     -0.00026796 </i>
  </energy>
  <time name="totalsc">   15.49   15.98</time>
  <eigenvalues>
   <array>
    <dimension dim="1">band</dimension>
    <dimension dim="2">kpoint</dimension>
    <dimension dim="3">spin</dimension>
    <field>eigene</field>
    <field>occ</field>
    <set>
     <set comment="spin 1">
      <set comment="kpoint 1">
       <r>  -23.2795    1.0000 </r>
       <r>  -23.2795    1.0000 </r>
       <r>  -23.2795    1.0000 </r>
       <r>   -3.8527    1.0000 </r>
       <r>    2.8935    1.0000 </r>
       <r>    2.8935    1.0000 </r>
       <r>    2.8935    1.0000 </r>
       <r>    3.7081    1.0000 </r>
       <r>    3.7081    1.0000 </r>
       <r>    7.3082    1.0000 </r>
       <r>    7.3082    1.0000 </r>
       <r>    7.3082    1.0000 </r>
       <r>    7.9899    1.0000 </r>
       <r>    9.8555    0.0000 </r>
       <r>    9.8555    0.0000 </r>
       <r>    9.8555    0.0000 </r>
      </set>
      <set comment="kpoint 2">
       <r>  -23.2806    1.0000 </r>
       <r>  -23.2795    1.0000 </r>
       <r>  -23.2795    1.0000 </r>
       <r>   -3.7878    1.0000 </r>
       <r>    2.8147    1.0000 </r>
       <r>    2.8656    1.0000 </r>
       <r>    2.8656    1.0000 </r>
       <r>    3.7488    1.0000 </r>
       <r>    3.7488    1.0000 </r>
       <r>    6.7557    1.0000 </r>
       <r>    7.2423    1.0000 </r>
       <r>    7.2423    1.0000 </r>
       <r>    8.2314    1.0000 </r>
       <r>    9.6913    0.0000 </r>
       <r>    9.6913    0.0000 </r>
       <r>   10.2372    0.0000 </r>
      </set>
      <set comment="kpoint 3">
       <r>  -23.2835    1.0000 </r>
       <r>  -23.2793    1.0000 </r>
       <r>  -23.2793    1.0000 </r>
       <r>   -3.5996    1.0000 </r>
       <r>    2.5955    1.0000 </r>
       <r>    2.8061    1.0000 </r>
       <r>    2.8061    1.0000 </r>
       <r>    3.8389    1.0000 </r>
       <r>    3.8389    1.0000 </r>
       <r>    5.8951    1.0000 </r>
       <r>    7.0774    1.0000 </r>
       <r>    7.0774    1.0000 </r>
       <r>    8.4602    1.0000 </r>
       <r>    9.5915    0.0000 </r>
       <r>    9.5915    0.0000 </r>
       <r>   11.0250    0.0000 </r>
      </set>
      <set comment="kpoint 4">
       <r>  -23.2876    1.0000 </r>
       <r>  -23.2792    1.0000 </r>
       <r>  -23.2792    1.0000 </r>
       <r>   -3.3096    1.0000 </r>
       <r>    2.2728    1.0000 </r>
       <r>    2.7529    1.0000 </r>
       <r>    2.7529    1.0000 </r>
       <r>    3.9227    1.0000 </r>
       <r>    3.9227    1.0000 </r>
       <r>    5.1070    1.0000 </r>
       <r>    6.8852    1.0000 </r>
       <r>    6.8852    1.0000 </r>
       <r>    8.6393    1.0000 </r>
       <r>    9.6227    0.0000 </r>
       <r>    9.6227    0.0000 </r>
       <r>   11.6774    0.0000 </r>
      </set>
      <set comment="kpoint 5">
       <r>  -23.2919    1.0000 </r>
       <r>  -23.2790    1.0000 </r>
       <r>  -23.2790    1.0000 </r>
       <r>   -2.9585    1.0000 </r>
       <r>    1.8890    1.0000 </r>
       <r>    2.7242    1.0000 </r>
       <r>    2.7242    1.0000 </r>
       <r>    3.9640    1.0000 </r>
       <r>    3.9640    1.0000 </r>
       <r>    4.5003    1.0000 </r>
       <r>    6.7284    1.0000 </r>
       <r>    6.7284    1.0000 </r>
       <r>    8.8016    1.0000 </r>
       <r>    9.7525    0.0000 </r>
       <r>    9.7525    0.0000 </r>
       <r>   11.2239    0.0000 </r>
      </set>
      <set comment="kpoint 6">
       <r>  -23.2954    1.0000 </r>
       <r>  -23.2788    1.0000 </r>
       <r>  -23.2788    1.0000 </r>
       <r>   -2.6168    1.0000 </r>
       <r>    1.5141    1.0000 </r>
       <r>    2.7188    1.0000 </r>
       <r>    2.7188    1.0000 </r>
       <r>    3.9621    1.0000 </r>
       <r>    3.9621    1.0000 </r>
       <r>    4.1103    1.0000 </r>
       <r>    6.6329    1.0000 </r>
       <r>    6.6329    1.0000 </r>
       <r>    8.9645    0.9981 </r>
       <r>    9.9308    0.0000 </r>
       <r>    9.9308    0.0000 </r>
       <r>   10.4816    0.0000 </r>
      </set>
      <set comment="kpoint 7">
       <r>  -23.2974    1.0000 </r>
       <r>  -23.2787    1.0000 </r>
       <r>  -23.2787    1.0000 </r>
       <r>   -2.3926    1.0000 </r>
       <r>    1.2672    1.0000 </r>
       <r>    2.7231    1.0000 </r>
       <r>    2.7231    1.0000 </r>
       <r>    3.9256    1.0000 </r>
       <r>    3.9460    1.0000 </r>
       <r>    3.9460    1.0000 </r>
       <r>    6.5921    1.0000 </r>
       <r>    6.5921    1.0000 </r>
       <r>    9.1177    0.0000 </r>
       <r>    9.9984    0.0000 </r>
       <r>   10.0711    0.0000 </r>
       <r>   10.0711    0.0000 </r>
      </set>
      <set comment="kpoint 8">
       <r>  -23.2806    1.0000 </r>
       <r>  -23.2796    1.0000 </r>
       <r>  -23.2796    1.0000 </r>
       <r>   -3.7665    1.0000 </r>
       <r>    2.6740    1.0000 </r>
       <r>    2.9243    1.0000 </r>
       <r>    2.9243    1.0000 </r>
       <r>    3.7413    1.0000 </r>
       <r>    3.7658    1.0000 </r>
       <r>    6.7949    1.0000 </r>
       <r>    7.1122    1.0000 </r>
       <r>    7.1122    1.0000 </r>
       <r>    8.3038    1.0000 </r>
       <r>    9.5568    0.0000 </r>
       <r>   10.1385    0.0000 </r>
       <r>   10.1385    0.0000 </r>
      </set>
      <set comment="kpoint 9">
       <r>  -23.2827    1.0000 </r>
       <r>  -23.2797    1.0000 </r>
       <r>  -23.2795    1.0000 </r>
       <r>   -3.6206    1.0000 </r>
       <r>    2.4618    1.0000 </r>
       <r>    2.9005    1.0000 </r>
       <r>    2.9273    1.0000 </r>
       <r>    3.8061    1.0000 </r>
       <r>    3.8238    1.0000 </r>
       <r>    6.1452    1.0000 </r>
       <r>    6.9209    1.0000 </r>
       <r>    6.9884    1.0000 </r>
       <r>    8.5413    1.0000 </r>
       <r>    9.4123    0.0000 </r>
       <r>    9.8511    0.0000 </r>
       <r>   10.6241    0.0000 </r>
      </set>
      <set comment="kpoint 10">
       <r>  -23.2864    1.0000 </r>
       <r>  -23.2797    1.0000 </r>
       <r>  -23.2794    1.0000 </r>
       <r>   -3.3665    1.0000 </r>
       <r>    2.2144    1.0000 </r>
       <r>    2.8083    1.0000 </r>
       <r>    2.8972    1.0000 </r>
       <r>    3.8940    1.0000 </r>
       <r>    3.9005    1.0000 </r>
       <r>    5.3670    1.0000 </r>
       <r>    6.7376    1.0000 </r>
       <r>    6.8158    1.0000 </r>
       <r>    8.8085    1.0000 </r>
       <r>    9.4081    0.0000 </r>
       <r>    9.7370    0.0000 </r>
       <r>   11.1917    0.0000 </r>
      </set>
      <set comment="kpoint 11">
       <r>  -23.2905    1.0000 </r>
       <r>  -23.2795    1.0000 </r>
       <r>  -23.2792    1.0000 </r>
       <r>   -3.0382    1.0000 </r>
       <r>    1.9230    1.0000 </r>
       <r>    2.7204    1.0000 </r>
       <r>    2.8618    1.0000 </r>
       <r>    3.9507    1.0000 </r>
       <r>    3.9576    1.0000 </r>
       <r>    4.7049    1.0000 </r>
       <r>    6.6072    1.0000 </r>
       <r>    6.6425    1.0000 </r>
       <r>    8.9165    1.0000 </r>
       <r>    9.6589    0.0000 </r>
       <r>    9.7512    0.0000 </r>
       <r>   11.3029    0.0000 </r>
      </set>
      <set comment="kpoint 12">
       <r>  -23.2942    1.0000 </r>
       <r>  -23.2793    1.0000 </r>
       <r>  -23.2793    1.0000 </r>
       <r>   -2.6949    1.0000 </r>
       <r>    1.6080    1.0000 </r>
       <r>    2.6778    1.0000 </r>
       <r>    2.8278    1.0000 </r>
       <r>    3.9634    1.0000 </r>
       <r>    3.9698    1.0000 </r>
       <r>    4.2442    1.0000 </r>
       <r>    6.5139    1.0000 </r>
       <r>    6.5405    1.0000 </r>
       <r>    8.9840    0.5581 </r>
       <r>    9.8731    0.0000 </r>
       <r>    9.9672    0.0000 </r>
       <r>   10.6610    0.0000 </r>
      </set>
      <set comment="kpoint 13">
       <r>  -23.2966    1.0000 </r>
       <r>  -23.2794    1.0000 </r>
       <r>  -23.2790    1.0000 </r>
       <r>   -2.4298    1.0000 </r>
       <r>    1.3535    1.0000 </r>
       <r>    2.6837    1.0000 </r>
       <r>    2.7873    1.0000 </r>
       <r>    3.9172    1.0000 </r>
       <r>    3.9603    1.0000 </r>
       <r>    4.0272    1.0000 </r>
       <r>    6.4383    1.0000 </r>
       <r>    6.5223    1.0000 </r>
       <r>    9.1015    0.0000 </r>
       <r>    9.9554    0.0000 </r>
       <r>   10.0327    0.0000 </r>
       <r>   10.3413    0.0000 </r>
      </set>
      <set comment="kpoint 14">
       <r>  -23.2972    1.0000 </r>
       <r>  -23.2796    1.0000 </r>
       <r>  -23.2788    1.0000 </r>
       <r>   -2.3518    1.0000 </r>
       <r>    1.2781    1.0000 </r>
       <r>    2.7239    1.0000 </r>
       <r>    2.7344    1.0000 </r>
       <r>    3.8706    1.0000 </r>
       <r>    3.9721    1.0000 </r>
       <r>    3.9940    1.0000 </r>
       <r>    6.3984    1.0000 </r>
       <r>    6.5391    1.0000 </r>
       <r>    9.1916    0.0000 </r>
       <r>    9.7672    0.0000 </r>
       <r>   10.0997    0.0000 </r>
       <r>   10.3955    0.0000 </r>
      </set>
      <set comment="kpoint 15">
       <r>  -23.2959    1.0000 </r>
       <r>  -23.2798    1.0000 </r>
       <r>  -23.2787    1.0000 </r>
       <r>   -2.5018    1.0000 </r>
       <r>    1.4290    1.0000 </r>
       <r>    2.6794    1.0000 </r>
       <r>    2.7821    1.0000 </r>
       <r>    3.9089    1.0000 </r>
       <r>    3.9980    1.0000 </r>
       <r>    4.0759    1.0000 </r>
       <r>    6.3767    1.0000 </r>
       <r>    6.5971    1.0000 </r>
       <r>    9.0990    0.0000 </r>
       <r>    9.9842    0.0000 </r>
       <r>    9.9983    0.0000 </r>
       <r>   10.3924    0.0000 </r>
      </set>
      <set comment="kpoint 16">
       <r>  -23.2930    1.0000 </r>
       <r>  -23.2800    1.0000 </r>
       <r>  -23.2787    1.0000 </r>
       <r>   -2.8053    1.0000 </r>
       <r>    1.7285    1.0000 </r>
       <r>    2.6436    1.0000 </r>
       <r>    2.8473    1.0000 </r>
       <r>    3.9284    1.0000 </r>
       <r>    4.0099    1.0000 </r>
       <r>    4.3797    1.0000 </r>
       <r>    6.3787    1.0000 </r>
       <r>    6.7145    1.0000 </r>
       <r>    9.0152    0.0000 </r>
       <r>    9.7954    0.0000 </r>
       <r>    9.9100    0.0000 </r>
       <r>   10.8897    0.0000 </r>
      </set>
      <set comment="kpoint 17">
       <r>  -23.2891    1.0000 </r>
       <r>  -23.2801    1.0000 </r>
       <r>  -23.2788    1.0000 </r>
       <r>   -3.1522    1.0000 </r>
       <r>    2.0670    1.0000 </r>
       <r>    2.6452    1.0000 </r>
       <r>    2.9117    1.0000 </r>
       <r>    3.9063    1.0000 </r>
       <r>    3.9813    1.0000 </r>
       <r>    4.9084    1.0000 </r>
       <r>    6.4350    1.0000 </r>
       <r>    6.8943    1.0000 </r>
       <r>    8.9540    1.0000 </r>
       <r>    9.5868    0.0000 </r>
       <r>    9.7376    0.0000 </r>
       <r>   11.1914    0.0000 </r>
      </set>
      <set comment="kpoint 18">
       <r>  -23.2851    1.0000 </r>
       <r>  -23.2800    1.0000 </r>
       <r>  -23.2790    1.0000 </r>
       <r>   -3.4611    1.0000 </r>
       <r>    2.3799    1.0000 </r>
       <r>    2.6913    1.0000 </r>
       <r>    2.9586    1.0000 </r>
       <r>    3.8433    1.0000 </r>
       <r>    3.9103    1.0000 </r>
       <r>    5.6098    1.0000 </r>
       <r>    6.5830    1.0000 </r>
       <r>    7.0981    1.0000 </r>
       <r>    8.7879    1.0000 </r>
       <r>    9.4487    0.0000 </r>
       <r>    9.7210    0.0000 </r>
       <r>   10.7086    0.0000 </r>
      </set>
      <set comment="kpoint 19">
       <r>  -23.2820    1.0000 </r>
       <r>  -23.2798    1.0000 </r>
       <r>  -23.2792    1.0000 </r>
       <r>   -3.6822    1.0000 </r>
       <r>    2.6400    1.0000 </r>
       <r>    2.7737    1.0000 </r>
       <r>    2.9501    1.0000 </r>
       <r>    3.7765    1.0000 </r>
       <r>    3.8197    1.0000 </r>
       <r>    6.3225    1.0000 </r>
       <r>    6.8756    1.0000 </r>
       <r>    7.2405    1.0000 </r>
       <r>    8.4821    1.0000 </r>
       <r>    9.4624    0.0000 </r>
       <r>    9.8454    0.0000 </r>
       <r>   10.2716    0.0000 </r>
      </set>
      <set comment="kpoint 20">
       <r>  -23.2835    1.0000 </r>
       <r>  -23.2800    1.0000 </r>
       <r>  -23.2800    1.0000 </r>
       <r>   -3.5216    1.0000 </r>
       <r>    2.2148    1.0000 </r>
       <r>    3.0113    1.0000 </r>
       <r>    3.0113    1.0000 </r>
       <r>    3.8047    1.0000 </r>
       <r>    3.8364    1.0000 </r>
       <r>    6.0945    1.0000 </r>
       <r>    6.7110    1.0000 </r>
       <r>    6.7110    1.0000 </r>
       <r>    8.5046    1.0000 </r>
       <r>    9.4302    0.0000 </r>
       <r>    9.9057    0.0000 </r>
       <r>   10.7415    0.0000 </r>
      </set>
      <set comment="kpoint 21">
       <r>  -23.2861    1.0000 </r>
       <r>  -23.2801    1.0000 </r>
       <r>  -23.2801    1.0000 </r>
       <r>   -3.3149    1.0000 </r>
       <r>    1.9819    1.0000 </r>
       <r>    3.0033    1.0000 </r>
       <r>    3.0395    1.0000 </r>
       <r>    3.8250    1.0000 </r>
       <r>    3.9129    1.0000 </r>
       <r>    5.5748    1.0000 </r>
       <r>    6.5225    1.0000 </r>
       <r>    6.5229    1.0000 </r>
       <r>    8.7104    1.0000 </r>
       <r>    9.4116    0.0000 </r>
       <r>    9.7660    0.0000 </r>
       <r>   11.0844    0.0000 </r>
      </set>
      <set comment="kpoint 22">
       <r>  -23.2896    1.0000 </r>
       <r>  -23.2802    1.0000 </r>
       <r>  -23.2801    1.0000 </r>
       <r>   -3.0295    1.0000 </r>
       <r>    1.7780    1.0000 </r>
       <r>    2.9006    1.0000 </r>
       <r>    3.0271    1.0000 </r>
       <r>    3.8843    1.0000 </r>
       <r>    3.9800    1.0000 </r>
       <r>    4.9457    1.0000 </r>
       <r>    6.3314    1.0000 </r>
       <r>    6.4015    1.0000 </r>
       <r>    8.9348    1.0000 </r>
       <r>    9.6181    0.0000 </r>
       <r>    9.6973    0.0000 </r>
       <r>   11.2106    0.0000 </r>
      </set>
      <set comment="kpoint 23">
       <r>  -23.2929    1.0000 </r>
       <r>  -23.2806    1.0000 </r>
       <r>  -23.2799    1.0000 </r>
       <r>   -2.7155    1.0000 </r>
       <r>    1.6033    1.0000 </r>
       <r>    2.7753    1.0000 </r>
       <r>    2.9868    1.0000 </r>
       <r>    3.9343    1.0000 </r>
       <r>    4.0072    1.0000 </r>
       <r>    4.4238    1.0000 </r>
       <r>    6.1695    1.0000 </r>
       <r>    6.3543    1.0000 </r>
       <r>    8.9550    1.0000 </r>
       <r>    9.7661    0.0000 </r>
       <r>   10.1082    0.0000 </r>
       <r>   10.7477    0.0000 </r>
      </set>
      <set comment="kpoint 24">
       <r>  -23.2952    1.0000 </r>
       <r>  -23.2811    1.0000 </r>
       <r>  -23.2796    1.0000 </r>
       <r>   -2.4484    1.0000 </r>
       <r>    1.4650    1.0000 </r>
       <r>    2.6889    1.0000 </r>
       <r>    2.9167    1.0000 </r>
       <r>    3.9062    1.0000 </r>
       <r>    4.0154    1.0000 </r>
       <r>    4.1385    1.0000 </r>
       <r>    6.0559    1.0000 </r>
       <r>    6.3550    1.0000 </r>
       <r>    9.0019    0.0084 </r>
       <r>    9.9486    0.0000 </r>
       <r>   10.1152    0.0000 </r>
       <r>   10.5937    0.0000 </r>
      </set>
      <set comment="kpoint 25">
       <r>  -23.2961    1.0000 </r>
       <r>  -23.2816    1.0000 </r>
       <r>  -23.2792    1.0000 </r>
       <r>   -2.3183    1.0000 </r>
       <r>    1.4004    1.0000 </r>
       <r>    2.6813    1.0000 </r>
       <r>    2.8194    1.0000 </r>
       <r>    3.8160    1.0000 </r>
       <r>    4.0347    1.0000 </r>
       <r>    4.1001    1.0000 </r>
       <r>    5.9783    1.0000 </r>
       <r>    6.3839    1.0000 </r>
       <r>    9.1416    0.0000 </r>
       <r>    9.7299    0.0000 </r>
       <r>   10.1129    0.0000 </r>
       <r>   10.8550    0.0000 </r>
      </set>
      <set comment="kpoint 26">
       <r>  -23.2954    1.0000 </r>
       <r>  -23.2820    1.0000 </r>
       <r>  -23.2789    1.0000 </r>
       <r>   -2.3820    1.0000 </r>
       <r>    1.4524    1.0000 </r>
       <r>    2.7154    1.0000 </r>
       <r>    2.7587    1.0000 </r>
       <r>    3.8239    1.0000 </r>
       <r>    4.0633    1.0000 </r>
       <r>    4.1587    1.0000 </r>
       <r>    5.9089    1.0000 </r>
       <r>    6.4501    1.0000 </r>
       <r>    9.2179    0.0000 </r>
       <r>    9.7863    0.0000 </r>
       <r>   10.0936    0.0000 </r>
       <r>   10.8374    0.0000 </r>
      </set>
      <set comment="kpoint 27">
       <r>  -23.2933    1.0000 </r>
       <r>  -23.2821    1.0000 </r>
       <r>  -23.2786    1.0000 </r>
       <r>   -2.6112    1.0000 </r>
       <r>    1.6132    1.0000 </r>
       <r>    2.6336    1.0000 </r>
       <r>    2.8880    1.0000 </r>
       <r>    3.8770    1.0000 </r>
       <r>    4.0756    1.0000 </r>
       <r>    4.3663    1.0000 </r>
       <r>    5.8434    1.0000 </r>
       <r>    6.5757    1.0000 </r>
       <r>    9.2259    0.0000 </r>
       <r>    9.9145    0.0000 </r>
       <r>   10.1681    0.0000 </r>
       <r>   10.6973    0.0000 </r>
      </set>
      <set comment="kpoint 28">
       <r>  -23.2904    1.0000 </r>
       <r>  -23.2818    1.0000 </r>
       <r>  -23.2786    1.0000 </r>
       <r>   -2.9194    1.0000 </r>
       <r>    1.8419    1.0000 </r>
       <r>    2.5967    1.0000 </r>
       <r>    3.0049    1.0000 </r>
       <r>    3.8887    1.0000 </r>
       <r>    4.0508    1.0000 </r>
       <r>    4.7770    1.0000 </r>
       <r>    5.8384    1.0000 </r>
       <r>    6.7623    1.0000 </r>
       <r>    9.3262    0.0000 </r>
       <r>    9.6874    0.0000 </r>
       <r>    9.9973    0.0000 </r>
       <r>   10.8481    0.0000 </r>
      </set>
      <set comment="kpoint 29">
       <r>  -23.2875    1.0000 </r>
       <r>  -23.2811    1.0000 </r>
       <r>  -23.2787    1.0000 </r>
       <r>   -3.2224    1.0000 </r>
       <r>    2.1064    1.0000 </r>
       <r>    2.6163    1.0000 </r>
       <r>    3.0425    1.0000 </r>
       <r>    3.8633    1.0000 </r>
       <r>    3.9897    1.0000 </r>
       <r>    5.2615    1.0000 </r>
       <r>    6.0422    1.0000 </r>
       <r>    6.9665    1.0000 </r>
       <r>    9.2874    0.0000 </r>
       <r>    9.5017    0.0000 </r>
       <r>    9.7059    0.0000 </r>
       <r>   10.6727    0.0000 </r>
      </set>
      <set comment="kpoint 30">
       <r>  -23.2877    1.0000 </r>
       <r>  -23.2805    1.0000 </r>
       <r>  -23.2805    1.0000 </r>
       <r>   -3.1630    1.0000 </r>
       <r>    1.7627    1.0000 </r>
       <r>    3.1385    1.0000 </r>
       <r>    3.1385    1.0000 </r>
       <r>    3.7388    1.0000 </r>
       <r>    3.9793    1.0000 </r>
       <r>    5.4688    1.0000 </r>
       <r>    6.3186    1.0000 </r>
       <r>    6.3186    1.0000 </r>
       <r>    8.5019    1.0000 </r>
       <r>    9.5302    0.0000 </r>
       <r>    9.6546    0.0000 </r>
       <r>   11.2070    0.0000 </r>
      </set>
      <set comment="kpoint 31">
       <r>  -23.2903    1.0000 </r>
       <r>  -23.2808    1.0000 </r>
       <r>  -23.2807    1.0000 </r>
       <r>   -2.9353    1.0000 </r>
       <r>    1.6056    1.0000 </r>
       <r>    3.1198    1.0000 </r>
       <r>    3.1783    1.0000 </r>
       <r>    3.7430    1.0000 </r>
       <r>    4.0536    1.0000 </r>
       <r>    5.0566    1.0000 </r>
       <r>    6.1104    1.0000 </r>
       <r>    6.1840    1.0000 </r>
       <r>    8.6184    1.0000 </r>
       <r>    9.5455    0.0000 </r>
       <r>    9.6767    0.0000 </r>
       <r>   11.2131    0.0000 </r>
      </set>
      <set comment="kpoint 32">
       <r>  -23.2928    1.0000 </r>
       <r>  -23.2815    1.0000 </r>
       <r>  -23.2806    1.0000 </r>
       <r>   -2.6743    1.0000 </r>
       <r>    1.5291    1.0000 </r>
       <r>    2.9744    1.0000 </r>
       <r>    3.1615    1.0000 </r>
       <r>    3.8340    1.0000 </r>
       <r>    4.0935    1.0000 </r>
       <r>    4.5706    1.0000 </r>
       <r>    5.8710    1.0000 </r>
       <r>    6.1358    1.0000 </r>
       <r>    8.7465    1.0000 </r>
       <r>    9.5649    0.0000 </r>
       <r>   10.1027    0.0000 </r>
       <r>   10.8423    0.0000 </r>
      </set>
      <set comment="kpoint 33">
       <r>  -23.2944    1.0000 </r>
       <r>  -23.2826    1.0000 </r>
       <r>  -23.2803    1.0000 </r>
       <r>   -2.4391    1.0000 </r>
       <r>    1.5327    1.0000 </r>
       <r>    2.8018    1.0000 </r>
       <r>    3.0873    1.0000 </r>
       <r>    3.8725    1.0000 </r>
       <r>    4.1076    1.0000 </r>
       <r>    4.2297    1.0000 </r>
       <r>    5.6676    1.0000 </r>
       <r>    6.1444    1.0000 </r>
       <r>    8.8018    1.0000 </r>
       <r>    9.7600    0.0000 </r>
       <r>   10.2998    0.0000 </r>
       <r>   10.6735    0.0000 </r>
      </set>
      <set comment="kpoint 34">
       <r>  -23.2949    1.0000 </r>
       <r>  -23.2839    1.0000 </r>
       <r>  -23.2798    1.0000 </r>
       <r>   -2.2946    1.0000 </r>
       <r>    1.5811    1.0000 </r>
       <r>    2.6715    1.0000 </r>
       <r>    2.9638    1.0000 </r>
       <r>    3.7463    1.0000 </r>
       <r>    4.1252    1.0000 </r>
       <r>    4.2174    1.0000 </r>
       <r>    5.5193    1.0000 </r>
       <r>    6.1796    1.0000 </r>
       <r>    8.9149    1.0000 </r>
       <r>    9.8721    0.0000 </r>
       <r>   10.0590    0.0000 </r>
       <r>   10.9528    0.0000 </r>
      </set>
      <set comment="kpoint 35">
       <r>  -23.2942    1.0000 </r>
       <r>  -23.2849    1.0000 </r>
       <r>  -23.2793    1.0000 </r>
       <r>   -2.2879    1.0000 </r>
       <r>    1.6092    1.0000 </r>
       <r>    2.6658    1.0000 </r>
       <r>    2.8208    1.0000 </r>
       <r>    3.7093    1.0000 </r>
       <r>    4.1453    1.0000 </r>
       <r>    4.3141    1.0000 </r>
       <r>    5.4141    1.0000 </r>
       <r>    6.2491    1.0000 </r>
       <r>    9.1130    0.0000 </r>
       <r>    9.6899    0.0000 </r>
       <r>   10.1969    0.0000 </r>
       <r>   10.8931    0.0000 </r>
      </set>
      <set comment="kpoint 36">
       <r>  -23.2929    1.0000 </r>
       <r>  -23.2850    1.0000 </r>
       <r>  -23.2789    1.0000 </r>
       <r>   -2.4227    1.0000 </r>
       <r>    1.6192    1.0000 </r>
       <r>    2.6950    1.0000 </r>
       <r>    2.7935    1.0000 </r>
       <r>    3.7864    1.0000 </r>
       <r>    4.1451    1.0000 </r>
       <r>    4.4602    1.0000 </r>
       <r>    5.3525    1.0000 </r>
       <r>    6.3767    1.0000 </r>
       <r>    9.2419    0.0000 </r>
       <r>    9.9558    0.0000 </r>
       <r>   10.0804    0.0000 </r>
       <r>   10.7936    0.0000 </r>
      </set>
      <set comment="kpoint 37">
       <r>  -23.2916    1.0000 </r>
       <r>  -23.2838    1.0000 </r>
       <r>  -23.2786    1.0000 </r>
       <r>   -2.6555    1.0000 </r>
       <r>    1.6855    1.0000 </r>
       <r>    2.6149    1.0000 </r>
       <r>    2.9455    1.0000 </r>
       <r>    3.8631    1.0000 </r>
       <r>    4.1114    1.0000 </r>
       <r>    4.6451    1.0000 </r>
       <r>    5.4396    1.0000 </r>
       <r>    6.5626    1.0000 </r>
       <r>    9.3249    0.0000 </r>
       <r>    9.8772    0.0000 </r>
       <r>   10.4600    0.0000 </r>
       <r>   10.6690    0.0000 </r>
      </set>
      <set comment="kpoint 38">
       <r>  -23.2922    1.0000 </r>
       <r>  -23.2811    1.0000 </r>
       <r>  -23.2811    1.0000 </r>
       <r>   -2.7751    1.0000 </r>
       <r>    1.4940    1.0000 </r>
       <r>    3.2783    1.0000 </r>
       <r>    3.2783    1.0000 </r>
       <r>    3.5963    1.0000 </r>
       <r>    4.1447    1.0000 </r>
       <r>    4.8646    1.0000 </r>
       <r>    6.0203    1.0000 </r>
       <r>    6.0203    1.0000 </r>
       <r>    8.4305    1.0000 </r>
       <r>    9.3746    0.0000 </r>
       <r>    9.7335    0.0000 </r>
       <r>   11.1579    0.0000 </r>
      </set>
      <set comment="kpoint 39">
       <r>  -23.2942    1.0000 </r>
       <r>  -23.2816    1.0000 </r>
       <r>  -23.2812    1.0000 </r>
       <r>   -2.5835    1.0000 </r>
       <r>    1.4799    1.0000 </r>
       <r>    3.1942    1.0000 </r>
       <r>    3.3095    1.0000 </r>
       <r>    3.6587    1.0000 </r>
       <r>    4.2047    1.0000 </r>
       <r>    4.5013    1.0000 </r>
       <r>    5.8173    1.0000 </r>
       <r>    5.9474    1.0000 </r>
       <r>    8.4855    1.0000 </r>
       <r>    9.3120    0.0000 </r>
       <r>    9.9599    0.0000 </r>
       <r>   10.8886    0.0000 </r>
      </set>
      <set comment="kpoint 40">
       <r>  -23.2953    1.0000 </r>
       <r>  -23.2828    1.0000 </r>
       <r>  -23.2810    1.0000 </r>
       <r>   -2.4045    1.0000 </r>
       <r>    1.5705    1.0000 </r>
       <r>    2.9915    1.0000 </r>
       <r>    3.2624    1.0000 </r>
       <r>    3.7821    1.0000 </r>
       <r>    4.1731    1.0000 </r>
       <r>    4.2231    1.0000 </r>
       <r>    5.5204    1.0000 </r>
       <r>    5.9481    1.0000 </r>
       <r>    8.5716    1.0000 </r>
       <r>    9.4540    0.0000 </r>
       <r>   10.3614    0.0000 </r>
       <r>   10.6086    0.0000 </r>
      </set>
      <set comment="kpoint 41">
       <r>  -23.2951    1.0000 </r>
       <r>  -23.2846    1.0000 </r>
       <r>  -23.2806    1.0000 </r>
       <r>   -2.2794    1.0000 </r>
       <r>    1.7270    1.0000 </r>
       <r>    2.7777    1.0000 </r>
       <r>    3.1411    1.0000 </r>
       <r>    3.6481    1.0000 </r>
       <r>    4.2233    1.0000 </r>
       <r>    4.2284    1.0000 </r>
       <r>    5.2444    1.0000 </r>
       <r>    5.9844    1.0000 </r>
       <r>    8.6712    1.0000 </r>
       <r>    9.8219    0.0000 </r>
       <r>   10.0347    0.0000 </r>
       <r>   10.7267    0.0000 </r>
      </set>
      <set comment="kpoint 42">
       <r>  -23.2937    1.0000 </r>
       <r>  -23.2865    1.0000 </r>
       <r>  -23.2800    1.0000 </r>
       <r>   -2.2367    1.0000 </r>
       <r>    1.8255    1.0000 </r>
       <r>    2.6124    1.0000 </r>
       <r>    2.9779    1.0000 </r>
       <r>    3.5709    1.0000 </r>
       <r>    4.2260    1.0000 </r>
       <r>    4.4311    1.0000 </r>
       <r>    5.0444    1.0000 </r>
       <r>    6.0573    1.0000 </r>
       <r>    8.8553    1.0000 </r>
       <r>    9.7661    0.0000 </r>
       <r>   10.2547    0.0000 </r>
       <r>   10.7138    0.0000 </r>
      </set>
      <set comment="kpoint 43">
       <r>  -23.2926    1.0000 </r>
       <r>  -23.2870    1.0000 </r>
       <r>  -23.2794    1.0000 </r>
       <r>   -2.2873    1.0000 </r>
       <r>    1.7379    1.0000 </r>
       <r>    2.6491    1.0000 </r>
       <r>    2.8173    1.0000 </r>
       <r>    3.6559    1.0000 </r>
       <r>    4.1997    1.0000 </r>
       <r>    4.5485    1.0000 </r>
       <r>    5.0360    1.0000 </r>
       <r>    6.1892    1.0000 </r>
       <r>    9.1006    0.0000 </r>
       <r>    9.7121    0.0000 </r>
       <r>   10.2442    0.0000 </r>
       <r>   10.6596    0.0000 </r>
      </set>
      <set comment="kpoint 44">
       <r>  -23.2960    1.0000 </r>
       <r>  -23.2815    1.0000 </r>
       <r>  -23.2815    1.0000 </r>
       <r>   -2.4680    1.0000 </r>
       <r>    1.5105    1.0000 </r>
       <r>    3.3963    1.0000 </r>
       <r>    3.3963    1.0000 </r>
       <r>    3.4543    1.0000 </r>
       <r>    4.2222    1.0000 </r>
       <r>    4.2953    1.0000 </r>
       <r>    5.8376    1.0000 </r>
       <r>    5.8376    1.0000 </r>
       <r>    8.3576    1.0000 </r>
       <r>    9.1293    0.0000 </r>
       <r>    9.8558    0.0000 </r>
       <r>   10.8253    0.0000 </r>
      </set>
      <set comment="kpoint 45">
       <r>  -23.2971    1.0000 </r>
       <r>  -23.2821    1.0000 </r>
       <r>  -23.2815    1.0000 </r>
       <r>   -2.3570    1.0000 </r>
       <r>    1.6291    1.0000 </r>
       <r>    3.2058    1.0000 </r>
       <r>    3.3996    1.0000 </r>
       <r>    3.6258    1.0000 </r>
       <r>    3.9195    1.0000 </r>
       <r>    4.3298    1.0000 </r>
       <r>    5.6581    1.0000 </r>
       <r>    5.8130    1.0000 </r>
       <r>    8.3881    1.0000 </r>
       <r>    9.1418    0.0000 </r>
       <r>   10.0361    0.0000 </r>
       <r>   10.6059    0.0000 </r>
      </set>
      <set comment="kpoint 46">
       <r>  -23.2967    1.0000 </r>
       <r>  -23.2836    1.0000 </r>
       <r>  -23.2812    1.0000 </r>
       <r>   -2.2743    1.0000 </r>
       <r>    1.7928    1.0000 </r>
       <r>    2.9931    1.0000 </r>
       <r>    3.3119    1.0000 </r>
       <r>    3.5348    1.0000 </r>
       <r>    4.0002    1.0000 </r>
       <r>    4.3215    1.0000 </r>
       <r>    5.3429    1.0000 </r>
       <r>    5.8423    1.0000 </r>
       <r>    8.4762    1.0000 </r>
       <r>    9.4119    0.0000 </r>
       <r>   10.1645    0.0000 </r>
       <r>   10.5685    0.0000 </r>
      </set>
      <set comment="kpoint 47">
       <r>  -23.2952    1.0000 </r>
       <r>  -23.2855    1.0000 </r>
       <r>  -23.2807    1.0000 </r>
       <r>   -2.2327    1.0000 </r>
       <r>    1.9031    1.0000 </r>
       <r>    2.7459    1.0000 </r>
       <r>    3.1561    1.0000 </r>
       <r>    3.4708    1.0000 </r>
       <r>    4.2782    1.0000 </r>
       <r>    4.2871    1.0000 </r>
       <r>    5.0638    1.0000 </r>
       <r>    5.9186    1.0000 </r>
       <r>    8.6255    1.0000 </r>
       <r>    9.9001    0.0000 </r>
       <r>    9.9427    0.0000 </r>
       <r>   10.4914    0.0000 </r>
      </set>
      <set comment="kpoint 48">
       <r>  -23.2982    1.0000 </r>
       <r>  -23.2818    1.0000 </r>
       <r>  -23.2818    1.0000 </r>
       <r>   -2.3130    1.0000 </r>
       <r>    1.7160    1.0000 </r>
       <r>    3.4070    1.0000 </r>
       <r>    3.4626    1.0000 </r>
       <r>    3.4626    1.0000 </r>
       <r>    3.6523    1.0000 </r>
       <r>    4.3868    1.0000 </r>
       <r>    5.7579    1.0000 </r>
       <r>    5.7579    1.0000 </r>
       <r>    8.3125    1.0000 </r>
       <r>    8.9843    0.5374 </r>
       <r>    9.8184    0.0000 </r>
       <r>   10.5808    0.0000 </r>
      </set>
      <set comment="kpoint 49">
       <r>  -23.2981    1.0000 </r>
       <r>  -23.2823    1.0000 </r>
       <r>  -23.2817    1.0000 </r>
       <r>   -2.2843    1.0000 </r>
       <r>    1.7857    1.0000 </r>
       <r>    3.2336    1.0000 </r>
       <r>    3.4310    1.0000 </r>
       <r>    3.4892    1.0000 </r>
       <r>    3.7139    1.0000 </r>
       <r>    4.3803    1.0000 </r>
       <r>    5.6106    1.0000 </r>
       <r>    5.7694    1.0000 </r>
       <r>    8.3530    1.0000 </r>
       <r>    9.0806    0.0000 </r>
       <r>    9.9916    0.0000 </r>
       <r>   10.5012    0.0000 </r>
      </set>
      <set comment="kpoint 50">
       <r>  -23.2849    1.0000 </r>
       <r>  -23.2803    1.0000 </r>
       <r>  -23.2793    1.0000 </r>
       <r>   -3.4430    1.0000 </r>
       <r>    2.2216    1.0000 </r>
       <r>    2.8310    1.0000 </r>
       <r>    3.0213    1.0000 </r>
       <r>    3.8343    1.0000 </r>
       <r>    3.8928    1.0000 </r>
       <r>    5.7380    1.0000 </r>
       <r>    6.4555    1.0000 </r>
       <r>    6.9466    1.0000 </r>
       <r>    8.8321    1.0000 </r>
       <r>    9.3474    0.0000 </r>
       <r>    9.8078    0.0000 </r>
       <r>   10.6815    0.0000 </r>
      </set>
      <set comment="kpoint 51">
       <r>  -23.2881    1.0000 </r>
       <r>  -23.2807    1.0000 </r>
       <r>  -23.2791    1.0000 </r>
       <r>   -3.1721    1.0000 </r>
       <r>    1.9790    1.0000 </r>
       <r>    2.7463    1.0000 </r>
       <r>    3.0266    1.0000 </r>
       <r>    3.8811    1.0000 </r>
       <r>    3.9714    1.0000 </r>
       <r>    5.1433    1.0000 </r>
       <r>    6.1818    1.0000 </r>
       <r>    6.7994    1.0000 </r>
       <r>    9.1348    0.0000 </r>
       <r>    9.4431    0.0000 </r>
       <r>    9.7475    0.0000 </r>
       <r>   10.9643    0.0000 </r>
      </set>
      <set comment="kpoint 52">
       <r>  -23.2917    1.0000 </r>
       <r>  -23.2809    1.0000 </r>
       <r>  -23.2790    1.0000 </r>
       <r>   -2.8502    1.0000 </r>
       <r>    1.7396    1.0000 </r>
       <r>    2.6889    1.0000 </r>
       <r>    2.9647    1.0000 </r>
       <r>    3.9168    1.0000 </r>
       <r>    4.0179    1.0000 </r>
       <r>    4.5807    1.0000 </r>
       <r>    6.0944    1.0000 </r>
       <r>    6.6266    1.0000 </r>
       <r>    9.1136    0.0000 </r>
       <r>    9.7097    0.0000 </r>
       <r>    9.9750    0.0000 </r>
       <r>   10.9602    0.0000 </r>
      </set>
      <set comment="kpoint 53">
       <r>  -23.2946    1.0000 </r>
       <r>  -23.2810    1.0000 </r>
       <r>  -23.2790    1.0000 </r>
       <r>   -2.5456    1.0000 </r>
       <r>    1.5213    1.0000 </r>
       <r>    2.6700    1.0000 </r>
       <r>    2.8790    1.0000 </r>
       <r>    3.9062    1.0000 </r>
       <r>    4.0233    1.0000 </r>
       <r>    4.2122    1.0000 </r>
       <r>    6.0858    1.0000 </r>
       <r>    6.5015    1.0000 </r>
       <r>    9.1037    0.0000 </r>
       <r>    9.8794    0.0000 </r>
       <r>   10.1815    0.0000 </r>
       <r>   10.5428    0.0000 </r>
      </set>
      <set comment="kpoint 54">
       <r>  -23.2963    1.0000 </r>
       <r>  -23.2810    1.0000 </r>
       <r>  -23.2790    1.0000 </r>
       <r>   -2.3522    1.0000 </r>
       <r>    1.3788    1.0000 </r>
       <r>    2.6803    1.0000 </r>
       <r>    2.8095    1.0000 </r>
       <r>    3.8468    1.0000 </r>
       <r>    4.0020    1.0000 </r>
       <r>    4.0903    1.0000 </r>
       <r>    6.0937    1.0000 </r>
       <r>    6.4438    1.0000 </r>
       <r>    9.1865    0.0000 </r>
       <r>    9.7326    0.0000 </r>
       <r>   10.1071    0.0000 </r>
       <r>   10.7099    0.0000 </r>
      </set>
      <set comment="kpoint 55">
       <r>  -23.2885    1.0000 </r>
       <r>  -23.2809    1.0000 </r>
       <r>  -23.2799    1.0000 </r>
       <r>   -3.0951    1.0000 </r>
       <r>    1.7763    1.0000 </r>
       <r>    2.9635    1.0000 </r>
       <r>    3.1207    1.0000 </r>
       <r>    3.8238    1.0000 </r>
       <r>    3.9849    1.0000 </r>
       <r>    5.2319    1.0000 </r>
       <r>    6.0833    1.0000 </r>
       <r>    6.5097    1.0000 </r>
       <r>    8.8440    1.0000 </r>
       <r>    9.5210    0.0000 </r>
       <r>    9.6920    0.0000 </r>
       <r>   11.1129    0.0000 </r>
      </set>
      <set comment="kpoint 56">
       <r>  -23.2912    1.0000 </r>
       <r>  -23.2817    1.0000 </r>
       <r>  -23.2798    1.0000 </r>
       <r>   -2.8202    1.0000 </r>
       <r>    1.6293    1.0000 </r>
       <r>    2.8710    1.0000 </r>
       <r>    3.1089    1.0000 </r>
       <r>    3.8761    1.0000 </r>
       <r>    4.0333    1.0000 </r>
       <r>    4.7665    1.0000 </r>
       <r>    5.8392    1.0000 </r>
       <r>    6.3993    1.0000 </r>
       <r>    8.9767    0.8801 </r>
       <r>    9.5732    0.0000 </r>
       <r>    9.9961    0.0000 </r>
       <r>   11.0240    0.0000 </r>
      </set>
      <set comment="kpoint 57">
       <r>  -23.2936    1.0000 </r>
       <r>  -23.2823    1.0000 </r>
       <r>  -23.2798    1.0000 </r>
       <r>   -2.5466    1.0000 </r>
       <r>    1.5477    1.0000 </r>
       <r>    2.7588    1.0000 </r>
       <r>    3.0425    1.0000 </r>
       <r>    3.9133    1.0000 </r>
       <r>    4.0389    1.0000 </r>
       <r>    4.3638    1.0000 </r>
       <r>    5.7310    1.0000 </r>
       <r>    6.3067    1.0000 </r>
       <r>    8.9893    0.2741 </r>
       <r>    9.7042    0.0000 </r>
       <r>   10.4152    0.0000 </r>
       <r>   10.5647    0.0000 </r>
      </set>
      <set comment="kpoint 58">
       <r>  -23.2949    1.0000 </r>
       <r>  -23.2830    1.0000 </r>
       <r>  -23.2797    1.0000 </r>
       <r>   -2.3473    1.0000 </r>
       <r>    1.5216    1.0000 </r>
       <r>    2.6604    1.0000 </r>
       <r>    2.9621    1.0000 </r>
       <r>    3.8263    1.0000 </r>
       <r>    4.0402    1.0000 </r>
       <r>    4.2188    1.0000 </r>
       <r>    5.6635    1.0000 </r>
       <r>    6.2743    1.0000 </r>
       <r>    9.0464    0.0000 </r>
       <r>    9.7992    0.0000 </r>
       <r>   10.0632    0.0000 </r>
       <r>   10.9111    0.0000 </r>
      </set>
      <set comment="kpoint 59">
       <r>  -23.2951    1.0000 </r>
       <r>  -23.2835    1.0000 </r>
       <r>  -23.2795    1.0000 </r>
       <r>   -2.2894    1.0000 </r>
       <r>    1.5267    1.0000 </r>
       <r>    2.6304    1.0000 </r>
       <r>    2.8918    1.0000 </r>
       <r>    3.7600    1.0000 </r>
       <r>    4.0618    1.0000 </r>
       <r>    4.2280    1.0000 </r>
       <r>    5.6124    1.0000 </r>
       <r>    6.2908    1.0000 </r>
       <r>    9.1855    0.0000 </r>
       <r>    9.5996    0.0000 </r>
       <r>   10.1364    0.0000 </r>
       <r>   11.0160    0.0000 </r>
      </set>
      <set comment="kpoint 60">
       <r>  -23.2941    1.0000 </r>
       <r>  -23.2837    1.0000 </r>
       <r>  -23.2792    1.0000 </r>
       <r>   -2.3954    1.0000 </r>
       <r>    1.5553    1.0000 </r>
       <r>    2.6623    1.0000 </r>
       <r>    2.8812    1.0000 </r>
       <r>    3.8132    1.0000 </r>
       <r>    4.0857    1.0000 </r>
       <r>    4.3089    1.0000 </r>
       <r>    5.5700    1.0000 </r>
       <r>    6.3584    1.0000 </r>
       <r>    9.2167    0.0000 </r>
       <r>    9.7673    0.0000 </r>
       <r>   10.1004    0.0000 </r>
       <r>   10.9458    0.0000 </r>
      </set>
      <set comment="kpoint 61">
       <r>  -23.2923    1.0000 </r>
       <r>  -23.2832    1.0000 </r>
       <r>  -23.2790    1.0000 </r>
       <r>   -2.6262    1.0000 </r>
       <r>    1.6323    1.0000 </r>
       <r>    2.6704    1.0000 </r>
       <r>    2.9747    1.0000 </r>
       <r>    3.8818    1.0000 </r>
       <r>    4.0797    1.0000 </r>
       <r>    4.5422    1.0000 </r>
       <r>    5.5603    1.0000 </r>
       <r>    6.4903    1.0000 </r>
       <r>    9.2576    0.0000 </r>
       <r>    9.7251    0.0000 </r>
       <r>   10.4121    0.0000 </r>
       <r>   10.7089    0.0000 </r>
      </set>
      <set comment="kpoint 62">
       <r>  -23.2902    1.0000 </r>
       <r>  -23.2821    1.0000 </r>
       <r>  -23.2789    1.0000 </r>
       <r>   -2.9085    1.0000 </r>
       <r>    1.7759    1.0000 </r>
       <r>    2.6879    1.0000 </r>
       <r>    3.0583    1.0000 </r>
       <r>    3.8887    1.0000 </r>
       <r>    4.0388    1.0000 </r>
       <r>    4.8829    1.0000 </r>
       <r>    5.7127    1.0000 </r>
       <r>    6.6647    1.0000 </r>
       <r>    9.3311    0.0000 </r>
       <r>    9.5570    0.0000 </r>
       <r>   10.0211    0.0000 </r>
       <r>   10.8854    0.0000 </r>
      </set>
      <set comment="kpoint 63">
       <r>  -23.2924    1.0000 </r>
       <r>  -23.2817    1.0000 </r>
       <r>  -23.2806    1.0000 </r>
       <r>   -2.7234    1.0000 </r>
       <r>    1.5174    1.0000 </r>
       <r>    3.0716    1.0000 </r>
       <r>    3.2388    1.0000 </r>
       <r>    3.7557    1.0000 </r>
       <r>    4.1123    1.0000 </r>
       <r>    4.7449    1.0000 </r>
       <r>    5.7964    1.0000 </r>
       <r>    6.1441    1.0000 </r>
       <r>    8.6633    1.0000 </r>
       <r>    9.4369    0.0000 </r>
       <r>    9.9492    0.0000 </r>
       <r>   11.0342    0.0000 </r>
      </set>
      <set comment="kpoint 64">
       <r>  -23.2940    1.0000 </r>
       <r>  -23.2827    1.0000 </r>
       <r>  -23.2806    1.0000 </r>
       <r>   -2.5051    1.0000 </r>
       <r>    1.5313    1.0000 </r>
       <r>    2.9201    1.0000 </r>
       <r>    3.2281    1.0000 </r>
       <r>    3.8507    1.0000 </r>
       <r>    4.1020    1.0000 </r>
       <r>    4.4092    1.0000 </r>
       <r>    5.5227    1.0000 </r>
       <r>    6.1011    1.0000 </r>
       <r>    8.7531    1.0000 </r>
       <r>    9.4663    0.0000 </r>
       <r>   10.4183    0.0000 </r>
       <r>   10.5899    0.0000 </r>
      </set>
      <set comment="kpoint 65">
       <r>  -23.2946    1.0000 </r>
       <r>  -23.2841    1.0000 </r>
       <r>  -23.2805    1.0000 </r>
       <r>   -2.3328    1.0000 </r>
       <r>    1.6330    1.0000 </r>
       <r>    2.7397    1.0000 </r>
       <r>    3.1589    1.0000 </r>
       <r>    3.7941    1.0000 </r>
       <r>    4.0811    1.0000 </r>
       <r>    4.2883    1.0000 </r>
       <r>    5.3069    1.0000 </r>
       <r>    6.0980    1.0000 </r>
       <r>    8.8230    1.0000 </r>
       <r>    9.7056    0.0000 </r>
       <r>   10.0609    0.0000 </r>
       <r>   10.8291    0.0000 </r>
      </set>
      <set comment="kpoint 66">
       <r>  -23.2941    1.0000 </r>
       <r>  -23.2856    1.0000 </r>
       <r>  -23.2801    1.0000 </r>
       <r>   -2.2509    1.0000 </r>
       <r>    1.7392    1.0000 </r>
       <r>    2.5926    1.0000 </r>
       <r>    3.0504    1.0000 </r>
       <r>    3.6506    1.0000 </r>
       <r>    4.1419    1.0000 </r>
       <r>    4.3481    1.0000 </r>
       <r>    5.1552    1.0000 </r>
       <r>    6.1272    1.0000 </r>
       <r>    8.9651    0.9975 </r>
       <r>    9.7158    0.0000 </r>
       <r>   10.0443    0.0000 </r>
       <r>   10.7662    0.0000 </r>
      </set>
      <set comment="kpoint 67">
       <r>  -23.2931    1.0000 </r>
       <r>  -23.2863    1.0000 </r>
       <r>  -23.2796    1.0000 </r>
       <r>   -2.2817    1.0000 </r>
       <r>    1.7199    1.0000 </r>
       <r>    2.5915    1.0000 </r>
       <r>    2.9419    1.0000 </r>
       <r>    3.6756    1.0000 </r>
       <r>    4.1585    1.0000 </r>
       <r>    4.4612    1.0000 </r>
       <r>    5.0933    1.0000 </r>
       <r>    6.1955    1.0000 </r>
       <r>    9.1710    0.0000 </r>
       <r>    9.6234    0.0000 </r>
       <r>   10.0838    0.0000 </r>
       <r>   10.7841    0.0000 </r>
      </set>
      <set comment="kpoint 68">
       <r>  -23.2926    1.0000 </r>
       <r>  -23.2854    1.0000 </r>
       <r>  -23.2792    1.0000 </r>
       <r>   -2.4188    1.0000 </r>
       <r>    1.6372    1.0000 </r>
       <r>    2.6622    1.0000 </r>
       <r>    2.9120    1.0000 </r>
       <r>    3.7948    1.0000 </r>
       <r>    4.1316    1.0000 </r>
       <r>    4.5361    1.0000 </r>
       <r>    5.2003    1.0000 </r>
       <r>    6.3219    1.0000 </r>
       <r>    9.2616    0.0000 </r>
       <r>    9.7923    0.0000 </r>
       <r>   10.0834    0.0000 </r>
       <r>   10.7891    0.0000 </r>
      </set>
      <set comment="kpoint 69">
       <r>  -23.2956    1.0000 </r>
       <r>  -23.2822    1.0000 </r>
       <r>  -23.2813    1.0000 </r>
       <r>   -2.4347    1.0000 </r>
       <r>    1.5463    1.0000 </r>
       <r>    3.0932    1.0000 </r>
       <r>    3.3655    1.0000 </r>
       <r>    3.7150    1.0000 </r>
       <r>    4.1481    1.0000 </r>
       <r>    4.2869    1.0000 </r>
       <r>    5.5793    1.0000 </r>
       <r>    5.9327    1.0000 </r>
       <r>    8.5075    1.0000 </r>
       <r>    9.2509    0.0000 </r>
       <r>   10.2110    0.0000 </r>
       <r>   10.6424    0.0000 </r>
      </set>
      <set comment="kpoint 70">
       <r>  -23.2959    1.0000 </r>
       <r>  -23.2836    1.0000 </r>
       <r>  -23.2812    1.0000 </r>
       <r>   -2.3114    1.0000 </r>
       <r>    1.7036    1.0000 </r>
       <r>    2.9046    1.0000 </r>
       <r>    3.3396    1.0000 </r>
       <r>    3.7333    1.0000 </r>
       <r>    3.9926    1.0000 </r>
       <r>    4.2848    1.0000 </r>
       <r>    5.2607    1.0000 </r>
       <r>    5.9594    1.0000 </r>
       <r>    8.5965    1.0000 </r>
       <r>    9.3738    0.0000 </r>
       <r>   10.2037    0.0000 </r>
       <r>   10.6491    0.0000 </r>
      </set>
      <set comment="kpoint 71">
       <r>  -23.2949    1.0000 </r>
       <r>  -23.2855    1.0000 </r>
       <r>  -23.2808    1.0000 </r>
       <r>   -2.2381    1.0000 </r>
       <r>    1.8789    1.0000 </r>
       <r>    2.6894    1.0000 </r>
       <r>    3.2356    1.0000 </r>
       <r>    3.5385    1.0000 </r>
       <r>    4.2017    1.0000 </r>
       <r>    4.2945    1.0000 </r>
       <r>    4.9770    1.0000 </r>
       <r>    6.0021    1.0000 </r>
       <r>    8.7241    1.0000 </r>
       <r>    9.7038    0.0000 </r>
       <r>    9.9605    0.0000 </r>
       <r>   10.4644    0.0000 </r>
      </set>
      <set comment="kpoint 72">
       <r>  -23.2933    1.0000 </r>
       <r>  -23.2870    1.0000 </r>
       <r>  -23.2803    1.0000 </r>
       <r>   -2.2271    1.0000 </r>
       <r>    1.9056    1.0000 </r>
       <r>    2.5415    1.0000 </r>
       <r>    3.0823    1.0000 </r>
       <r>    3.5423    1.0000 </r>
       <r>    4.2194    1.0000 </r>
       <r>    4.5034    1.0000 </r>
       <r>    4.8235    1.0000 </r>
       <r>    6.0733    1.0000 </r>
       <r>    8.9336    1.0000 </r>
       <r>    9.6807    0.0000 </r>
       <r>   10.1168    0.0000 </r>
       <r>   10.5091    0.0000 </r>
      </set>
      <set comment="kpoint 73">
       <r>  -23.2975    1.0000 </r>
       <r>  -23.2826    1.0000 </r>
       <r>  -23.2817    1.0000 </r>
       <r>   -2.2921    1.0000 </r>
       <r>    1.7594    1.0000 </r>
       <r>    3.0997    1.0000 </r>
       <r>    3.4216    1.0000 </r>
       <r>    3.6499    1.0000 </r>
       <r>    3.7464    1.0000 </r>
       <r>    4.3490    1.0000 </r>
       <r>    5.4516    1.0000 </r>
       <r>    5.8558    1.0000 </r>
       <r>    8.4221    1.0000 </r>
       <r>    9.1378    0.0000 </r>
       <r>   10.1908    0.0000 </r>
       <r>   10.4856    0.0000 </r>
      </set>
      <set comment="kpoint 74">
       <r>  -23.2965    1.0000 </r>
       <r>  -23.2839    1.0000 </r>
       <r>  -23.2814    1.0000 </r>
       <r>   -2.2515    1.0000 </r>
       <r>    1.8685    1.0000 </r>
       <r>    2.9049    1.0000 </r>
       <r>    3.3569    1.0000 </r>
       <r>    3.5369    1.0000 </r>
       <r>    3.9623    1.0000 </r>
       <r>    4.3182    1.0000 </r>
       <r>    5.1562    1.0000 </r>
       <r>    5.9223    1.0000 </r>
       <r>    8.5423    1.0000 </r>
       <r>    9.3331    0.0000 </r>
       <r>   10.1844    0.0000 </r>
       <r>   10.4012    0.0000 </r>
      </set>
      <set comment="kpoint 75">
       <r>  -23.2926    1.0000 </r>
       <r>  -23.2833    1.0000 </r>
       <r>  -23.2798    1.0000 </r>
       <r>   -2.5869    1.0000 </r>
       <r>    1.5738    1.0000 </r>
       <r>    2.7921    1.0000 </r>
       <r>    3.1129    1.0000 </r>
       <r>    3.9037    1.0000 </r>
       <r>    4.0469    1.0000 </r>
       <r>    4.5826    1.0000 </r>
       <r>    5.4421    1.0000 </r>
       <r>    6.3082    1.0000 </r>
       <r>    9.0871    0.0000 </r>
       <r>    9.5101    0.0000 </r>
       <r>   10.4718    0.0000 </r>
       <r>   10.6454    0.0000 </r>
      </set>
      <set comment="kpoint 76">
       <r>  -23.2935    1.0000 </r>
       <r>  -23.2846    1.0000 </r>
       <r>  -23.2799    1.0000 </r>
       <r>   -2.3848    1.0000 </r>
       <r>    1.6173    1.0000 </r>
       <r>    2.6790    1.0000 </r>
       <r>    3.0857    1.0000 </r>
       <r>    3.8389    1.0000 </r>
       <r>    4.0562    1.0000 </r>
       <r>    4.4195    1.0000 </r>
       <r>    5.2424    1.0000 </r>
       <r>    6.2231    1.0000 </r>
       <r>    9.1277    0.0000 </r>
       <r>    9.6155    0.0000 </r>
       <r>   10.0483    0.0000 </r>
       <r>   10.8982    0.0000 </r>
      </set>
      <set comment="kpoint 77">
       <r>  -23.2939    1.0000 </r>
       <r>  -23.2854    1.0000 </r>
       <r>  -23.2801    1.0000 </r>
       <r>   -2.2675    1.0000 </r>
       <r>    1.7033    1.0000 </r>
       <r>    2.5650    1.0000 </r>
       <r>    3.0753    1.0000 </r>
       <r>    3.7105    1.0000 </r>
       <r>    4.0735    1.0000 </r>
       <r>    4.3612    1.0000 </r>
       <r>    5.1598    1.0000 </r>
       <r>    6.1874    1.0000 </r>
       <r>    9.1986    0.0000 </r>
       <r>    9.5303    0.0000 </r>
       <r>    9.9598    0.0000 </r>
       <r>   10.8197    0.0000 </r>
      </set>
      <set comment="kpoint 78">
       <r>  -23.2944    1.0000 </r>
       <r>  -23.2842    1.0000 </r>
       <r>  -23.2808    1.0000 </r>
       <r>   -2.3529    1.0000 </r>
       <r>    1.6485    1.0000 </r>
       <r>    2.7745    1.0000 </r>
       <r>    3.2778    1.0000 </r>
       <r>    3.9018    1.0000 </r>
       <r>    3.9626    1.0000 </r>
       <r>    4.3505    1.0000 </r>
       <r>    5.1488    1.0000 </r>
       <r>    6.0942    1.0000 </r>
       <r>    8.8713    1.0000 </r>
       <r>    9.4291    0.0000 </r>
       <r>   10.1020    0.0000 </r>
       <r>   10.7599    0.0000 </r>
      </set>
      <set comment="kpoint 79">
       <r>  -23.2940    1.0000 </r>
       <r>  -23.2858    1.0000 </r>
       <r>  -23.2809    1.0000 </r>
       <r>   -2.2522    1.0000 </r>
       <r>    1.8359    1.0000 </r>
       <r>    2.6032    1.0000 </r>
       <r>    3.2801    1.0000 </r>
       <r>    3.6979    1.0000 </r>
       <r>    4.0596    1.0000 </r>
       <r>    4.3507    1.0000 </r>
       <r>    4.8610    1.0000 </r>
       <r>    6.1097    1.0000 </r>
       <r>    8.9984    0.0294 </r>
       <r>    9.5914    0.0000 </r>
       <r>    9.7479    0.0000 </r>
       <r>   10.5412    0.0000 </r>
      </set>
      <set comment="kpoint 80">
       <r>  -23.2932    1.0000 </r>
       <r>  -23.2869    1.0000 </r>
       <r>  -23.2807    1.0000 </r>
       <r>   -2.2223    1.0000 </r>
       <r>    1.9360    1.0000 </r>
       <r>    2.4862    1.0000 </r>
       <r>    3.2356    1.0000 </r>
       <r>    3.5981    1.0000 </r>
       <r>    4.1346    1.0000 </r>
       <r>    4.4457    1.0000 </r>
       <r>    4.6993    1.0000 </r>
       <r>    6.1296    1.0000 </r>
       <r>    9.1709    0.0000 </r>
       <r>    9.4998    0.0000 </r>
       <r>    9.7996    0.0000 </r>
       <r>   10.4137    0.0000 </r>
      </set>
      <set comment="kpoint 81">
       <r>  -23.2930    1.0000 </r>
       <r>  -23.2865    1.0000 </r>
       <r>  -23.2803    1.0000 </r>
       <r>   -2.2688    1.0000 </r>
       <r>    1.7944    1.0000 </r>
       <r>    2.5557    1.0000 </r>
       <r>    3.1567    1.0000 </r>
       <r>    3.6866    1.0000 </r>
       <r>    4.1101    1.0000 </r>
       <r>    4.4897    1.0000 </r>
       <r>    4.8395    1.0000 </r>
       <r>    6.1589    1.0000 </r>
       <r>    9.2592    0.0000 </r>
       <r>    9.5188    0.0000 </r>
       <r>    9.7660    0.0000 </r>
       <r>   10.7153    0.0000 </r>
      </set>
      <set comment="kpoint 82">
       <r>  -23.2954    1.0000 </r>
       <r>  -23.2847    1.0000 </r>
       <r>  -23.2814    1.0000 </r>
       <r>   -2.2453    1.0000 </r>
       <r>    1.8852    1.0000 </r>
       <r>    2.7437    1.0000 </r>
       <r>    3.3604    1.0000 </r>
       <r>    3.7301    1.0000 </r>
       <r>    3.9284    1.0000 </r>
       <r>    4.2781    1.0000 </r>
       <r>    4.9221    1.0000 </r>
       <r>    6.0374    1.0000 </r>
       <r>    8.7510    1.0000 </r>
       <r>    9.3395    0.0000 </r>
       <r>   10.0245    0.0000 </r>
       <r>   10.3894    0.0000 </r>
      </set>
      <set comment="kpoint 83">
       <r>  -23.2941    1.0000 </r>
       <r>  -23.2862    1.0000 </r>
       <r>  -23.2813    1.0000 </r>
       <r>   -2.2149    1.0000 </r>
       <r>    2.0126    1.0000 </r>
       <r>    2.5646    1.0000 </r>
       <r>    3.3219    1.0000 </r>
       <r>    3.6229    1.0000 </r>
       <r>    4.1620    1.0000 </r>
       <r>    4.2264    1.0000 </r>
       <r>    4.6871    1.0000 </r>
       <r>    6.0927    1.0000 </r>
       <r>    8.9462    1.0000 </r>
       <r>    9.5000    0.0000 </r>
       <r>    9.8250    0.0000 </r>
       <r>   10.2303    0.0000 </r>
      </set>
      <set comment="kpoint 84">
       <r>  -23.2932    1.0000 </r>
       <r>  -23.2869    1.0000 </r>
       <r>  -23.2813    1.0000 </r>
       <r>   -2.2101    1.0000 </r>
       <r>    2.0489    1.0000 </r>
       <r>    2.4754    1.0000 </r>
       <r>    3.3228    1.0000 </r>
       <r>    3.7164    1.0000 </r>
       <r>    4.0854    1.0000 </r>
       <r>    4.2735    1.0000 </r>
       <r>    4.5690    1.0000 </r>
       <r>    6.1381    1.0000 </r>
       <r>    9.2476    0.0000 </r>
       <r>    9.4757    0.0000 </r>
       <r>    9.5461    0.0000 </r>
       <r>   10.2268    0.0000 </r>
      </set>
     </set>
    </set>
   </array>
  </eigenvalues>
  <separator name="orbital magnetization" >
   <v name="MAGDIPOLOUT">      0.00000000      0.00000000      0.00000000</v>
  </separator>
  <dos>
   <i name="efermi">      8.98501014 </i>
   <total>
    <array>
     <dimension dim="1">gridpoints</dimension>
     <dimension dim="2">spin</dimension>
     <field>energy</field>
     <field>total</field>
     <field>integrated</field>
     <set>
      <set comment="spin 1">
       <r>   -25.0470     0.0000     0.0000 </r>
       <r>   -24.9188     0.0000     0.0000 </r>
       <r>   -24.7905     0.0000     0.0000 </r>
       <r>   -24.6623     0.0000     0.0000 </r>
       <r>   -24.5340     0.0000     0.0000 </r>
       <r>   -24.4058     0.0000     0.0000 </r>
       <r>   -24.2776     0.0000     0.0000 </r>
       <r>   -24.1493     0.0000     0.0000 </r>
       <r>   -24.0211     0.0000     0.0000 </r>
       <r>   -23.8928     0.0000     0.0000 </r>
       <r>   -23.7646     0.0000     0.0000 </r>
       <r>   -23.6363     0.0000     0.0000 </r>
       <r>   -23.5081     0.0000     0.0000 </r>
       <r>   -23.3798     0.0000     0.0000 </r>
       <r>   -23.2516    46.7851     5.9999 </r>
       <r>   -23.1234     0.0000     6.0000 </r>
       <r>   -22.9951     0.0000     6.0000 </r>
       <r>   -22.8669     0.0000     6.0000 </r>
       <r>   -22.7386     0.0000     6.0000 </r>
       <r>   -22.6104     0.0000     6.0000 </r>
       <r>   -22.4821     0.0000     6.0000 </r>
       <r>   -22.3539     0.0000     6.0000 </r>
       <r>   -22.2257     0.0000     6.0000 </r>
       <r>   -22.0974     0.0000     6.0000 </r>
       <r>   -21.9692     0.0000     6.0000 </r>
       <r>   -21.8409     0.0000     6.0000 </r>
       <r>   -21.7127     0.0000     6.0000 </r>
       <r>   -21.5844     0.0000     6.0000 </r>
       <r>   -21.4562     0.0000     6.0000 </r>
       <r>   -21.3279     0.0000     6.0000 </r>
       <r>   -21.1997     0.0000     6.0000 </r>
       <r>   -21.0715     0.0000     6.0000 </r>
       <r>   -20.9432     0.0000     6.0000 </r>
       <r>   -20.8150     0.0000     6.0000 </r>
       <r>   -20.6867     0.0000     6.0000 </r>
       <r>   -20.5585     0.0000     6.0000 </r>
       <r>   -20.4302     0.0000     6.0000 </r>
       <r>   -20.3020     0.0000     6.0000 </r>
       <r>   -20.1737     0.0000     6.0000 </r>
       <r>   -20.0455     0.0000     6.0000 </r>
       <r>   -19.9173     0.0000     6.0000 </r>
       <r>   -19.7890     0.0000     6.0000 </r>
       <r>   -19.6608     0.0000     6.0000 </r>
       <r>   -19.5325     0.0000     6.0000 </r>
       <r>   -19.4043     0.0000     6.0000 </r>
       <r>   -19.2760     0.0000     6.0000 </r>
       <r>   -19.1478     0.0000     6.0000 </r>
       <r>   -19.0196     0.0000     6.0000 </r>
       <r>   -18.8913     0.0000     6.0000 </r>
       <r>   -18.7631     0.0000     6.0000 </r>
       <r>   -18.6348     0.0000     6.0000 </r>
       <r>   -18.5066     0.0000     6.0000 </r>
       <r>   -18.3783     0.0000     6.0000 </r>
       <r>   -18.2501     0.0000     6.0000 </r>
       <r>   -18.1218     0.0000     6.0000 </r>
       <r>   -17.9936     0.0000     6.0000 </r>
       <r>   -17.8654     0.0000     6.0000 </r>
       <r>   -17.7371     0.0000     6.0000 </r>
       <r>   -17.6089     0.0000     6.0000 </r>
       <r>   -17.4806     0.0000     6.0000 </r>
       <r>   -17.3524     0.0000     6.0000 </r>
       <r>   -17.2241     0.0000     6.0000 </r>
       <r>   -17.0959     0.0000     6.0000 </r>
       <r>   -16.9676     0.0000     6.0000 </r>
       <r>   -16.8394     0.0000     6.0000 </r>
       <r>   -16.7112     0.0000     6.0000 </r>
       <r>   -16.5829     0.0000     6.0000 </r>
       <r>   -16.4547     0.0000     6.0000 </r>
       <r>   -16.3264     0.0000     6.0000 </r>
       <r>   -16.1982     0.0000     6.0000 </r>
       <r>   -16.0699     0.0000     6.0000 </r>
       <r>   -15.9417     0.0000     6.0000 </r>
       <r>   -15.8135     0.0000     6.0000 </r>
       <r>   -15.6852     0.0000     6.0000 </r>
       <r>   -15.5570     0.0000     6.0000 </r>
       <r>   -15.4287     0.0000     6.0000 </r>
       <r>   -15.3005     0.0000     6.0000 </r>
       <r>   -15.1722     0.0000     6.0000 </r>
       <r>   -15.0440     0.0000     6.0000 </r>
       <r>   -14.9157     0.0000     6.0000 </r>
       <r>   -14.7875     0.0000     6.0000 </r>
       <r>   -14.6593     0.0000     6.0000 </r>
       <r>   -14.5310     0.0000     6.0000 </r>
       <r>   -14.4028     0.0000     6.0000 </r>
       <r>   -14.2745     0.0000     6.0000 </r>
       <r>   -14.1463     0.0000     6.0000 </r>
       <r>   -14.0180     0.0000     6.0000 </r>
       <r>   -13.8898     0.0000     6.0000 </r>
       <r>   -13.7615     0.0000     6.0000 </r>
       <r>   -13.6333     0.0000     6.0000 </r>
       <r>   -13.5051     0.0000     6.0000 </r>
       <r>   -13.3768     0.0000     6.0000 </r>
       <r>   -13.2486     0.0000     6.0000 </r>
       <r>   -13.1203     0.0000     6.0000 </r>
       <r>   -12.9921     0.0000     6.0000 </r>
       <r>   -12.8638     0.0000     6.0000 </r>
       <r>   -12.7356     0.0000     6.0000 </r>
       <r>   -12.6073     0.0000     6.0000 </r>
       <r>   -12.4791     0.0000     6.0000 </r>
       <r>   -12.3509     0.0000     6.0000 </r>
       <r>   -12.2226     0.0000     6.0000 </r>
       <r>   -12.0944     0.0000     6.0000 </r>
       <r>   -11.9661     0.0000     6.0000 </r>
       <r>   -11.8379     0.0000     6.0000 </r>
       <r>   -11.7096     0.0000     6.0000 </r>
       <r>   -11.5814     0.0000     6.0000 </r>
       <r>   -11.4532     0.0000     6.0000 </r>
       <r>   -11.3249     0.0000     6.0000 </r>
       <r>   -11.1967     0.0000     6.0000 </r>
       <r>   -11.0684     0.0000     6.0000 </r>
       <r>   -10.9402     0.0000     6.0000 </r>
       <r>   -10.8119     0.0000     6.0000 </r>
       <r>   -10.6837     0.0000     6.0000 </r>
       <r>   -10.5554     0.0000     6.0000 </r>
       <r>   -10.4272     0.0000     6.0000 </r>
       <r>   -10.2990     0.0000     6.0000 </r>
       <r>   -10.1707     0.0000     6.0000 </r>
       <r>   -10.0425     0.0000     6.0000 </r>
       <r>    -9.9142     0.0000     6.0000 </r>
       <r>    -9.7860     0.0000     6.0000 </r>
       <r>    -9.6577     0.0000     6.0000 </r>
       <r>    -9.5295     0.0000     6.0000 </r>
       <r>    -9.4012     0.0000     6.0000 </r>
       <r>    -9.2730     0.0000     6.0000 </r>
       <r>    -9.1448     0.0000     6.0000 </r>
       <r>    -9.0165     0.0000     6.0000 </r>
       <r>    -8.8883     0.0000     6.0000 </r>
       <r>    -8.7600     0.0000     6.0000 </r>
       <r>    -8.6318     0.0000     6.0000 </r>
       <r>    -8.5035     0.0000     6.0000 </r>
       <r>    -8.3753     0.0000     6.0000 </r>
       <r>    -8.2471     0.0000     6.0000 </r>
       <r>    -8.1188     0.0000     6.0000 </r>
       <r>    -7.9906     0.0000     6.0000 </r>
       <r>    -7.8623     0.0000     6.0000 </r>
       <r>    -7.7341     0.0000     6.0000 </r>
       <r>    -7.6058     0.0000     6.0000 </r>
       <r>    -7.4776     0.0000     6.0000 </r>
       <r>    -7.3493     0.0000     6.0000 </r>
       <r>    -7.2211     0.0000     6.0000 </r>
       <r>    -7.0929     0.0000     6.0000 </r>
       <r>    -6.9646     0.0000     6.0000 </r>
       <r>    -6.8364     0.0000     6.0000 </r>
       <r>    -6.7081     0.0000     6.0000 </r>
       <r>    -6.5799     0.0000     6.0000 </r>
       <r>    -6.4516     0.0000     6.0000 </r>
       <r>    -6.3234     0.0000     6.0000 </r>
       <r>    -6.1951     0.0000     6.0000 </r>
       <r>    -6.0669     0.0000     6.0000 </r>
       <r>    -5.9387     0.0000     6.0000 </r>
       <r>    -5.8104     0.0000     6.0000 </r>
       <r>    -5.6822     0.0000     6.0000 </r>
       <r>    -5.5539     0.0000     6.0000 </r>
       <r>    -5.4257     0.0000     6.0000 </r>
       <r>    -5.2974     0.0000     6.0000 </r>
       <r>    -5.1692     0.0000     6.0000 </r>
       <r>    -5.0409     0.0000     6.0000 </r>
       <r>    -4.9127     0.0000     6.0000 </r>
       <r>    -4.7845     0.0000     6.0000 </r>
       <r>    -4.6562     0.0000     6.0000 </r>
       <r>    -4.5280     0.0000     6.0000 </r>
       <r>    -4.3997     0.0000     6.0000 </r>
       <r>    -4.2715     0.0000     6.0000 </r>
       <r>    -4.1432     0.0000     6.0000 </r>
       <r>    -4.0150     0.0000     6.0000 </r>
       <r>    -3.8868     0.0000     6.0000 </r>
       <r>    -3.7585     0.0939     6.0129 </r>
       <r>    -3.6303     0.0998     6.0265 </r>
       <r>    -3.5020     0.0425     6.0592 </r>
       <r>    -3.3738     0.1960     6.1062 </r>
       <r>    -3.2455     0.2272     6.1539 </r>
       <r>    -3.1173     0.5538     6.2358 </r>
       <r>    -2.9890     0.3407     6.3013 </r>
       <r>    -2.8608     0.5337     6.3770 </r>
       <r>    -2.7326     0.2310     6.4912 </r>
       <r>    -2.6043     0.7940     6.6562 </r>
       <r>    -2.4761     1.1979     6.8573 </r>
       <r>    -2.3478     2.2410     7.2369 </r>
       <r>    -2.2196     4.2529     7.9446 </r>
       <r>    -2.0913     0.0000     8.0000 </r>
       <r>    -1.9631     0.0000     8.0000 </r>
       <r>    -1.8348     0.0000     8.0000 </r>
       <r>    -1.7066     0.0000     8.0000 </r>
       <r>    -1.5784     0.0000     8.0000 </r>
       <r>    -1.4501     0.0000     8.0000 </r>
       <r>    -1.3219     0.0000     8.0000 </r>
       <r>    -1.1936     0.0000     8.0000 </r>
       <r>    -1.0654     0.0000     8.0000 </r>
       <r>    -0.9371     0.0000     8.0000 </r>
       <r>    -0.8089     0.0000     8.0000 </r>
       <r>    -0.6807     0.0000     8.0000 </r>
       <r>    -0.5524     0.0000     8.0000 </r>
       <r>    -0.4242     0.0000     8.0000 </r>
       <r>    -0.2959     0.0000     8.0000 </r>
       <r>    -0.1677     0.0000     8.0000 </r>
       <r>    -0.0394     0.0000     8.0000 </r>
       <r>     0.0888     0.0000     8.0000 </r>
       <r>     0.2171     0.0000     8.0000 </r>
       <r>     0.3453     0.0000     8.0000 </r>
       <r>     0.4735     0.0000     8.0000 </r>
       <r>     0.6018     0.0000     8.0000 </r>
       <r>     0.7300     0.0000     8.0000 </r>
       <r>     0.8583     0.0000     8.0000 </r>
       <r>     0.9865     0.0000     8.0000 </r>
       <r>     1.1148     0.0000     8.0000 </r>
       <r>     1.2430     0.0000     8.0000 </r>
       <r>     1.3713     0.2177     8.0571 </r>
       <r>     1.4995     0.7197     8.2088 </r>
       <r>     1.6277     2.5605     8.8564 </r>
       <r>     1.7560     2.3121     9.3052 </r>
       <r>     1.8842     1.2045     9.6001 </r>
       <r>     2.0125     0.9354     9.8023 </r>
       <r>     2.1407     0.2555     9.8680 </r>
       <r>     2.2690     0.4001     9.9193 </r>
       <r>     2.3972     0.1691     9.9461 </r>
       <r>     2.5255     0.6835    10.0339 </r>
       <r>     2.6537     2.6861    10.4874 </r>
       <r>     2.7819     3.2122    11.4852 </r>
       <r>     2.9102     3.2519    12.1712 </r>
       <r>     3.0384     3.6772    12.8439 </r>
       <r>     3.1667     2.2882    13.3868 </r>
       <r>     3.2949     2.0408    13.7264 </r>
       <r>     3.4232     0.9206    13.9760 </r>
       <r>     3.5514     0.9039    14.1378 </r>
       <r>     3.6796     1.5936    14.4174 </r>
       <r>     3.8079     2.9399    14.9906 </r>
       <r>     3.9361     5.8502    16.1631 </r>
       <r>     4.0644     5.5986    17.2068 </r>
       <r>     4.1926     2.6536    18.0381 </r>
       <r>     4.3209     2.5903    18.7509 </r>
       <r>     4.4491     1.5776    19.2383 </r>
       <r>     4.5774     1.4328    19.5201 </r>
       <r>     4.7056     0.6233    19.6530 </r>
       <r>     4.8338     0.7054    19.7837 </r>
       <r>     4.9621     0.6857    19.9395 </r>
       <r>     5.0903     0.6266    20.0631 </r>
       <r>     5.2186     1.5376    20.2964 </r>
       <r>     5.3468     0.4983    20.5018 </r>
       <r>     5.4751     0.6308    20.6280 </r>
       <r>     5.6033     1.0993    20.8574 </r>
       <r>     5.7316     1.0637    21.0604 </r>
       <r>     5.8598     1.5754    21.3227 </r>
       <r>     5.9880     1.5602    21.5574 </r>
       <r>     6.1163     3.4646    22.0638 </r>
       <r>     6.2445     2.0029    22.5482 </r>
       <r>     6.3728     1.8368    22.8874 </r>
       <r>     6.5010     1.5263    23.2408 </r>
       <r>     6.6293     1.1407    23.5628 </r>
       <r>     6.7575     0.6152    23.7102 </r>
       <r>     6.8857     0.3282    23.8209 </r>
       <r>     7.0140     0.4259    23.9244 </r>
       <r>     7.1422     0.3691    23.9718 </r>
       <r>     7.2705     0.1988    23.9973 </r>
       <r>     7.3987     0.0000    24.0000 </r>
       <r>     7.5270     0.0000    24.0000 </r>
       <r>     7.6552     0.0000    24.0000 </r>
       <r>     7.7835     0.0000    24.0000 </r>
       <r>     7.9117     0.0000    24.0000 </r>
       <r>     8.0399     0.0071    24.0009 </r>
       <r>     8.1682     0.0000    24.0009 </r>
       <r>     8.2964     0.0636    24.0091 </r>
       <r>     8.4247     0.4162    24.0725 </r>
       <r>     8.5529     1.0031    24.2206 </r>
       <r>     8.6812     0.6385    24.3705 </r>
       <r>     8.8094     1.1506    24.5854 </r>
       <r>     8.9377     0.7673    24.8057 </r>
       <r>     9.0659     1.3637    25.1790 </r>
       <r>     9.1941     2.7687    25.7306 </r>
       <r>     9.3224     1.3773    26.0674 </r>
       <r>     9.4506     1.9013    26.4186 </r>
       <r>     9.5789     2.5195    26.8475 </r>
       <r>     9.7071     2.2198    27.3844 </r>
       <r>     9.8354     3.1008    28.2147 </r>
       <r>     9.9636     1.9569    28.6060 </r>
       <r>    10.0918     3.2675    29.2493 </r>
       <r>    10.2201     1.7253    29.7761 </r>
       <r>    10.3483     0.4040    29.9089 </r>
       <r>    10.4766     2.1036    30.2689 </r>
       <r>    10.6048     1.8567    30.5831 </r>
       <r>    10.7331     2.2746    31.0136 </r>
       <r>    10.8613     2.0493    31.3725 </r>
       <r>    10.9896     1.5332    31.7050 </r>
       <r>    11.1178     0.2990    31.8599 </r>
       <r>    11.2460     0.7808    31.9709 </r>
       <r>    11.3743     0.1704    31.9927 </r>
       <r>    11.5025     0.0000    31.9927 </r>
       <r>    11.6308     0.0000    31.9927 </r>
       <r>    11.7590     0.0000    32.0000 </r>
       <r>    11.8873     0.0000    32.0000 </r>
       <r>    12.0155     0.0000    32.0000 </r>
       <r>    12.1438     0.0000    32.0000 </r>
       <r>    12.2720     0.0000    32.0000 </r>
       <r>    12.4002     0.0000    32.0000 </r>
       <r>    12.5285     0.0000    32.0000 </r>
       <r>    12.6567     0.0000    32.0000 </r>
       <r>    12.7850     0.0000    32.0000 </r>
       <r>    12.9132     0.0000    32.0000 </r>
       <r>    13.0415     0.0000    32.0000 </r>
       <r>    13.1697     0.0000    32.0000 </r>
       <r>    13.2980     0.0000    32.0000 </r>
       <r>    13.4262     0.0000    32.0000 </r>
      </set>
     </set>
    </array>
   </total>
  </dos>
 </calculation>
 <structure name="finalpos" >
  <crystal>
   <varray name="basis" >
    <v>       0.00000000       3.17828433       3.17828433 </v>
    <v>       3.17828433       0.00000000       3.17828433 </v>
    <v>       3.17828433       3.17828433       0.00000000 </v>
   </varray>
   <i name="volume">     64.21082263 </i>
   <varray name="rec_basis" >
    <v>      -0.15731758       0.15731758       0.15731758 </v>
    <v>       0.15731758      -0.15731758       0.15731758 </v>
    <v>       0.15731758       0.15731758      -0.15731758 </v>
   </varray>
  </crystal>
  <varray name="positions" >
   <v>       0.25000000       0.25000000       0.25000000 </v>
   <v>       0.00000000       0.00000000       0.00000000 </v>
   <v>       0.75000000       0.75000000       0.75000000 </v>
  </varray>
 </structure>
</modeling>
