   2   2   0   0
  0.3027847E+02  0.4407845E-09  0.4407845E-09  0.4407845E-09  0.1000000E-16
  1.000000000000000E-004
  CAR 
 unknown system                          
     17.95073593     -7.21942748  301      4.53189256      1.00000000
     -7.219  0.0000E+00  0.0000E+00
     -7.136  0.0000E+00  0.0000E+00
     -7.052  0.0000E+00  0.0000E+00
     -6.968  0.0000E+00  0.0000E+00
     -6.884  0.0000E+00  0.0000E+00
     -6.800  0.0000E+00  0.0000E+00
     -6.716  0.0000E+00  0.0000E+00
     -6.632  0.0000E+00  0.0000E+00
     -6.548  0.0000E+00  0.0000E+00
     -6.464  0.0000E+00  0.0000E+00
     -6.380  0.0000E+00  0.0000E+00
     -6.297  0.0000E+00  0.0000E+00
     -6.213  0.0000E+00  0.0000E+00
     -6.129  0.1451E-17  0.1217E-18
     -6.045  0.5189E-03  0.4354E-04
     -5.961  0.3157E-02  0.3225E-03
     -5.877  0.3646E-02  0.6376E-03
     -5.793  0.4088E-02  0.9809E-03
     -5.709  0.7026E-02  0.1607E-02
     -5.625  0.6482E-02  0.2155E-02
     -5.541  0.8040E-02  0.2985E-02
     -5.458  0.6739E-02  0.3551E-02
     -5.374  0.1109E-01  0.4568E-02
     -5.290  0.7237E-02  0.5365E-02
     -5.206  0.1278E-01  0.6508E-02
     -5.122  0.1431E-01  0.7719E-02
     -5.038  0.1262E-01  0.8857E-02
     -4.954  0.1579E-01  0.1040E-01
     -4.870  0.1706E-01  0.1184E-01
     -4.786  0.2839E-01  0.1438E-01
     -4.702  0.1935E-01  0.1638E-01
     -4.619  0.3262E-01  0.1928E-01
     -4.535  0.2539E-01  0.2159E-01
     -4.451  0.3111E-01  0.2423E-01
     -4.367  0.3087E-01  0.2693E-01
     -4.283  0.2577E-01  0.2950E-01
     -4.199  0.3567E-01  0.3261E-01
     -4.115  0.1425E-02  0.3279E-01
     -4.031  0.0000E+00  0.3279E-01
     -3.947  0.0000E+00  0.3279E-01
     -3.863  0.0000E+00  0.3279E-01
     -3.780  0.0000E+00  0.3279E-01
     -3.696  0.0000E+00  0.3279E-01
     -3.612  0.0000E+00  0.3279E-01
     -3.528  0.0000E+00  0.3279E-01
     -3.444  0.0000E+00  0.3279E-01
     -3.360  0.0000E+00  0.3279E-01
     -3.276  0.0000E+00  0.3279E-01
     -3.192  0.0000E+00  0.3279E-01
     -3.108  0.0000E+00  0.3279E-01
     -3.024  0.0000E+00  0.3279E-01
     -2.940  0.0000E+00  0.3279E-01
     -2.857  0.0000E+00  0.3279E-01
     -2.773  0.0000E+00  0.3279E-01
     -2.689  0.0000E+00  0.3279E-01
     -2.605  0.0000E+00  0.3279E-01
     -2.521  0.0000E+00  0.3279E-01
     -2.437  0.0000E+00  0.3279E-01
     -2.353  0.0000E+00  0.3279E-01
     -2.269  0.0000E+00  0.3279E-01
     -2.185  0.0000E+00  0.3279E-01
     -2.101  0.0000E+00  0.3279E-01
     -2.018  0.0000E+00  0.3279E-01
     -1.934  0.0000E+00  0.3279E-01
     -1.850  0.0000E+00  0.3279E-01
     -1.766  0.0000E+00  0.3279E-01
     -1.682  0.0000E+00  0.3279E-01
     -1.598  0.0000E+00  0.3279E-01
     -1.514  0.0000E+00  0.3279E-01
     -1.430  0.0000E+00  0.3279E-01
     -1.346  0.0000E+00  0.3279E-01
     -1.262  0.0000E+00  0.3279E-01
     -1.179  0.0000E+00  0.3279E-01
     -1.095  0.0000E+00  0.3279E-01
     -1.011  0.1068E-06  0.3279E-01
     -0.927  0.3291E-02  0.3306E-01
     -0.843  0.8299E-02  0.3377E-01
     -0.759  0.2862E-01  0.3622E-01
     -0.675  0.4468E-01  0.4017E-01
     -0.591  0.5331E-01  0.4511E-01
     -0.507  0.2610E-01  0.4758E-01
     -0.423  0.2057E-01  0.4941E-01
     -0.340  0.1473E-01  0.5074E-01
     -0.256  0.1461E-01  0.5201E-01
     -0.172  0.1533E-01  0.5329E-01
     -0.088  0.6560E-02  0.5404E-01
     -0.004  0.1581E-01  0.5537E-01
      0.080  0.2666E-02  0.5560E-01
      0.164  0.1275E-01  0.5672E-01
      0.248  0.8268E-02  0.5743E-01
      0.332  0.1082E-02  0.5757E-01
      0.416  0.9725E-02  0.5839E-01
      0.499  0.4498E-02  0.5877E-01
      0.583  0.7943E-02  0.5943E-01
      0.667  0.5902E-02  0.5994E-01
      0.751  0.3218E-02  0.6025E-01
      0.835  0.5565E-02  0.6072E-01
      0.919  0.9050E-05  0.6073E-01
      1.003  0.8031E-02  0.6141E-01
      1.087  0.1663E-02  0.6155E-01
      1.171  0.6818E-02  0.6212E-01
      1.255  0.8401E-02  0.6285E-01
      1.338  0.1206E-01  0.6395E-01
      1.422  0.2278E-01  0.6590E-01
      1.506  0.3381E-01  0.6878E-01
      1.590  0.1278E-01  0.7019E-01
      1.674  0.3018E-01  0.7272E-01
      1.758  0.1705E-01  0.7427E-01
      1.842  0.9065E-02  0.7535E-01
      1.926  0.2916E-01  0.7779E-01
      2.010  0.1702E-01  0.7938E-01
      2.094  0.1913E-01  0.8112E-01
      2.177  0.3045E-01  0.8368E-01
      2.261  0.3124E-01  0.8646E-01
      2.345  0.1758E-01  0.8822E-01
      2.429  0.3459E-01  0.9119E-01
      2.513  0.3742E-01  0.9445E-01
      2.597  0.3116E-01  0.9716E-01
      2.681  0.1681E-01  0.9859E-01
      2.765  0.4069E-01  0.1021E+00
      2.849  0.2547E-01  0.1044E+00
      2.933  0.2894E-01  0.1069E+00
      3.016  0.2654E-01  0.1094E+00
      3.100  0.2817E-01  0.1118E+00
      3.184  0.2803E-01  0.1142E+00
      3.268  0.2317E-01  0.1165E+00
      3.352  0.2485E-01  0.1186E+00
      3.436  0.2164E-01  0.1205E+00
      3.520  0.2746E-01  0.1229E+00
      3.604  0.1936E-01  0.1246E+00
      3.688  0.1200E-01  0.1258E+00
      3.772  0.1195E-01  0.1268E+00
      3.855  0.1344E-01  0.1280E+00
      3.939  0.7136E-02  0.1286E+00
      4.023  0.1208E-01  0.1296E+00
      4.107  0.5598E-02  0.1301E+00
      4.191  0.4481E-02  0.1307E+00
      4.275  0.3062E-02  0.1309E+00
      4.359  0.1686E-02  0.1311E+00
      4.443  0.1325E-03  0.1311E+00
      4.527  0.0000E+00  0.1311E+00
      4.611  0.0000E+00  0.1311E+00
      4.694  0.0000E+00  0.1311E+00
      4.778  0.0000E+00  0.1311E+00
      4.862  0.0000E+00  0.1311E+00
      4.946  0.0000E+00  0.1311E+00
      5.030  0.0000E+00  0.1311E+00
      5.114  0.0000E+00  0.1311E+00
      5.198  0.0000E+00  0.1311E+00
      5.282  0.0000E+00  0.1311E+00
      5.366  0.0000E+00  0.1311E+00
      5.450  0.0000E+00  0.1311E+00
      5.533  0.1833E-15  0.1311E+00
      5.617  0.7805E-03  0.1312E+00
      5.701  0.1608E-02  0.1313E+00
      5.785  0.4050E-02  0.1317E+00
      5.869  0.1084E-01  0.1326E+00
      5.953  0.8293E-02  0.1334E+00
      6.037  0.1416E-01  0.1346E+00
      6.121  0.1333E-01  0.1357E+00
      6.205  0.1521E-01  0.1371E+00
      6.289  0.1989E-01  0.1391E+00
      6.372  0.1982E-01  0.1409E+00
      6.456  0.2357E-01  0.1430E+00
      6.540  0.3169E-01  0.1457E+00
      6.624  0.3605E-01  0.1489E+00
      6.708  0.3956E-01  0.1523E+00
      6.792  0.3057E-01  0.1550E+00
      6.876  0.2566E-01  0.1571E+00
      6.960  0.2317E-01  0.1592E+00
      7.044  0.2240E-01  0.1611E+00
      7.128  0.1635E-01  0.1625E+00
      7.211  0.1616E-01  0.1639E+00
      7.295  0.1440E-01  0.1652E+00
      7.379  0.2244E-01  0.1671E+00
      7.463  0.1249E-01  0.1683E+00
      7.547  0.2748E-01  0.1706E+00
      7.631  0.1673E-01  0.1721E+00
      7.715  0.2111E-01  0.1741E+00
      7.799  0.1219E-01  0.1752E+00
      7.883  0.3523E-01  0.1784E+00
      7.967  0.3903E-01  0.1821E+00
      8.050  0.3010E-01  0.1849E+00
      8.134  0.3461E-01  0.1881E+00
      8.218  0.4625E-01  0.1920E+00
      8.302  0.2202E-01  0.1941E+00
      8.386  0.1835E-01  0.1956E+00
      8.470  0.2070E-01  0.1974E+00
      8.554  0.2411E-01  0.1995E+00
      8.638  0.1025E-01  0.2004E+00
      8.722  0.2540E-01  0.2026E+00
      8.806  0.3166E-01  0.2052E+00
      8.889  0.4700E-01  0.2093E+00
      8.973  0.3026E-01  0.2119E+00
      9.057  0.1447E-01  0.2137E+00
      9.141  0.1569E-01  0.2152E+00
      9.225  0.3818E-01  0.2185E+00
      9.309  0.2220E-01  0.2204E+00
      9.393  0.2066E-01  0.2222E+00
      9.477  0.2884E-01  0.2249E+00
      9.561  0.1871E-01  0.2267E+00
      9.645  0.2240E-01  0.2286E+00
      9.728  0.2126E-01  0.2304E+00
      9.812  0.1134E-01  0.2315E+00
      9.896  0.2555E-01  0.2338E+00
      9.980  0.1562E-01  0.2352E+00
     10.064  0.1442E-01  0.2366E+00
     10.148  0.1421E-01  0.2378E+00
     10.232  0.1953E-01  0.2396E+00
     10.316  0.2238E-01  0.2415E+00
     10.400  0.3215E-01  0.2443E+00
     10.484  0.1170E-01  0.2454E+00
     10.567  0.1799E-01  0.2470E+00
     10.651  0.1906E-01  0.2487E+00
     10.735  0.1920E-01  0.2503E+00
     10.819  0.2930E-01  0.2529E+00
     10.903  0.1820E-01  0.2544E+00
     10.987  0.2986E-01  0.2569E+00
     11.071  0.3561E-01  0.2601E+00
     11.155  0.2334E-01  0.2626E+00
     11.239  0.2049E-01  0.2647E+00
     11.323  0.2126E-01  0.2665E+00
     11.406  0.1591E-01  0.2679E+00
     11.490  0.1761E-01  0.2697E+00
     11.574  0.1947E-01  0.2715E+00
     11.658  0.1468E-01  0.2728E+00
     11.742  0.2280E-01  0.2748E+00
     11.826  0.3501E-01  0.2778E+00
     11.910  0.2776E-01  0.2803E+00
     11.994  0.1575E-01  0.2821E+00
     12.078  0.2299E-01  0.2841E+00
     12.162  0.4808E-01  0.2883E+00
     12.245  0.3136E-01  0.2913E+00
     12.329  0.2542E-01  0.2935E+00
     12.413  0.2074E-01  0.2953E+00
     12.497  0.2167E-01  0.2972E+00
     12.581  0.2952E-01  0.3000E+00
     12.665  0.2115E-01  0.3020E+00
     12.749  0.1528E-01  0.3036E+00
     12.833  0.4104E-01  0.3071E+00
     12.917  0.2265E-01  0.3093E+00
     13.001  0.2133E-01  0.3112E+00
     13.085  0.2266E-01  0.3131E+00
     13.168  0.3767E-01  0.3165E+00
     13.252  0.1712E-01  0.3182E+00
     13.336  0.2648E-01  0.3205E+00
     13.420  0.2191E-01  0.3224E+00
     13.504  0.3026E-01  0.3250E+00
     13.588  0.1396E-01  0.3264E+00
     13.672  0.1977E-01  0.3283E+00
     13.756  0.4397E-01  0.3321E+00
     13.840  0.3584E-01  0.3351E+00
     13.924  0.3557E-01  0.3383E+00
     14.007  0.1509E-01  0.3396E+00
     14.091  0.3023E-01  0.3424E+00
     14.175  0.3010E-01  0.3451E+00
     14.259  0.1807E-01  0.3469E+00
     14.343  0.1515E-01  0.3482E+00
     14.427  0.1720E-01  0.3496E+00
     14.511  0.9399E-02  0.3508E+00
     14.595  0.2130E-01  0.3527E+00
     14.679  0.2043E-01  0.3544E+00
     14.763  0.2283E-01  0.3569E+00
     14.846  0.4007E-01  0.3603E+00
     14.930  0.3497E-01  0.3634E+00
     15.014  0.3396E-01  0.3665E+00
     15.098  0.1800E-01  0.3684E+00
     15.182  0.2169E-01  0.3705E+00
     15.266  0.1318E-01  0.3717E+00
     15.350  0.3409E-01  0.3746E+00
     15.434  0.3346E-01  0.3775E+00
     15.518  0.2218E-01  0.3798E+00
     15.602  0.5716E-02  0.3804E+00
     15.685  0.2053E-01  0.3823E+00
     15.769  0.1102E-01  0.3834E+00
     15.853  0.1206E-01  0.3844E+00
     15.937  0.1130E-01  0.3854E+00
     16.021  0.1858E-01  0.3870E+00
     16.105  0.2674E-01  0.3893E+00
     16.189  0.9465E-02  0.3902E+00
     16.273  0.1092E-01  0.3912E+00
     16.357  0.5860E-02  0.3918E+00
     16.441  0.1586E-02  0.3920E+00
     16.524  0.4066E-02  0.3923E+00
     16.608  0.6388E-02  0.3928E+00
     16.692  0.1607E-02  0.3930E+00
     16.776  0.4824E-02  0.3934E+00
     16.860  0.8041E-03  0.3934E+00
     16.944  0.0000E+00  0.3934E+00
     17.028  0.0000E+00  0.3934E+00
     17.112  0.0000E+00  0.3934E+00
     17.196  0.0000E+00  0.3934E+00
     17.280  0.0000E+00  0.3934E+00
     17.363  0.0000E+00  0.3934E+00
     17.447  0.0000E+00  0.3934E+00
     17.531  0.0000E+00  0.3934E+00
     17.615  0.0000E+00  0.3934E+00
     17.699  0.0000E+00  0.3934E+00
     17.783  0.0000E+00  0.3934E+00
     17.867  0.0000E+00  0.3934E+00
     17.951  0.0000E+00  0.3934E+00
