    2    2   61    1
  0.3027847E+02  0.4407845E-09  0.4407845E-09  0.4407845E-09  0.1000000E-16
  1.000000000000000E-004
  CAR 
 unknown system                          
      8    195     12
 
  0.0000000E+00  0.0000000E+00  0.0000000E+00  0.1714678E-03
    1       -6.075329   1.000000
    2        4.321221   1.000000
    3        4.374955   1.000000
    4        4.426683   1.000000
    5        5.652465   0.000000
    6        7.414341   0.000000
    7        7.444746   0.000000
    8        7.477366   0.000000
    9       10.794262   0.000000
   10       11.998706   0.000000
   11       11.999624   0.000000
   12       13.769919   0.000000
 
  0.5555556E-01  0.0000000E+00  0.0000000E+00  0.1371742E-02
    1       -6.048262   1.000000
    2        3.961866   1.000000
    3        4.282777   1.000000
    4        4.354487   1.000000
    5        5.960548   0.000000
    6        7.482207   0.000000
    7        7.515123   0.000000
    8        7.538213   0.000000
    9       10.949844   0.000000
   10       11.839442   0.000000
   11       11.840117   0.000000
   12       13.580209   0.000000
 
  0.1111111E+00  0.0000000E+00  0.0000000E+00  0.1371742E-02
    1       -5.967903   1.000000
    2        3.171525   1.000000
    3        4.179685   1.000000
    4        4.249063   1.000000
    5        6.234020   0.000000
    6        7.649777   0.000000
    7        7.699226   0.000000
    8        7.875067   0.000000
    9       11.355704   0.000000
   10       11.546124   0.000000
   11       11.548051   0.000000
   12       13.317475   0.000000
 
  0.1666667E+00  0.0000000E+00  0.0000000E+00  0.1371742E-02
    1       -5.837231   1.000000
    2        2.341393   1.000000
    3        4.039288   1.000000
    4        4.107064   1.000000
    5        6.213014   0.000000
    6        7.848029   0.000000
    7        7.904423   0.000000
    8        8.554695   0.000000
    9       11.322154   0.000000
   10       11.329060   0.000000
   11       11.793412   0.000000
   12       13.218322   0.000000
 
  0.2222222E+00  0.0000000E+00  0.0000000E+00  0.1371742E-02
    1       -5.661948   1.000000
    2        1.540613   1.000000
    3        3.888563   1.000000
    4        3.955307   1.000000
    5        6.072517   0.000000
    6        8.015845   0.000000
    7        8.082654   0.000000
    8        9.357635   0.000000
    9       11.275034   0.000000
   10       11.292395   0.000000
   11       11.873001   0.000000
   12       13.679570   0.000000
 
  0.2777778E+00  0.0000000E+00  0.0000000E+00  0.1371742E-02
    1       -5.452106   1.000000
    2        0.802418   1.000000
    3        3.747269   1.000000
    4        3.813510   1.000000
    5        5.914186   0.000000
    6        8.103835   0.000000
    7        8.180150   0.000000
    8       10.174712   0.000000
    9       11.459794   0.000000
   10       11.486369   0.000000
   11       11.725477   0.000000
   12       14.551876   0.000000
 
  0.3333333E+00  0.0000000E+00  0.0000000E+00  0.1371742E-02
    1       -5.224919   1.000000
    2        0.155818   1.000000
    3        3.628107   1.000000
    4        3.694210   1.000000
    5        5.775149   0.000000
    6        8.112934   0.000000
    7        8.194986   0.000000
    8       10.835550   0.000000
    9       11.736574   0.000000
   10       11.871928   0.000000
   11       11.904413   0.000000
   12       15.448687   0.000000
 
  0.3888889E+00  0.0000000E+00  0.0000000E+00  0.1371742E-02
    1       -5.008777   1.000000
    2       -0.363867   1.000000
    3        3.538785   1.000000
    4        3.604935   1.000000
    5        5.670121   0.000000
    6        8.081062   0.000000
    7        8.165670   0.000000
    8       10.988666   0.000000
    9       12.319705   0.000000
   10       12.462437   0.000000
   11       12.498087   0.000000
   12       15.769256   0.000000
 
  0.4444444E+00  0.0000000E+00  0.0000000E+00  0.1371742E-02
    1       -4.846116   1.000000
    2       -0.710086   1.000000
    3        3.483705   1.000000
    4        3.549943   1.000000
    5        5.605386   0.000000
    6        8.046666   0.000000
    7        8.132213   0.000000
    8       10.943009   0.000000
    9       13.156423   0.000000
   10       13.164819   0.000000
   11       13.205418   0.000000
   12       15.102243   0.000000
 
  0.5000000E+00  0.0000000E+00  0.0000000E+00  0.6858711E-03
    1       -4.784335   1.000000
    2       -0.833313   1.000000
    3        3.465113   1.000000
    4        3.531391   1.000000
    5        5.583570   0.000000
    6        8.032776   0.000000
    7        8.118551   0.000000
    8       10.918082   0.000000
    9       13.701475   0.000000
   10       13.748032   0.000000
   11       13.754188   0.000000
   12       14.484211   0.000000
 
  0.5555556E-01  0.5555556E-01  0.0000000E+00  0.1028807E-02
    1       -6.039077   1.000000
    2        3.915057   1.000000
    3        4.251124   1.000000
    4        4.257245   1.000000
    5        6.094546   0.000000
    6        7.329505   0.000000
    7        7.620888   0.000000
    8        7.625271   0.000000
    9       10.997670   0.000000
   10       11.568503   0.000000
   11       12.039143   0.000000
   12       13.811417   0.000000
 
  0.1111111E+00  0.5555556E-01  0.0000000E+00  0.4115226E-02
    1       -5.976462   1.000000
    2        3.345044   1.000000
    3        4.106038   1.000000
    4        4.154301   1.000000
    5        6.410284   0.000000
    6        7.317884   0.000000
    7        7.825090   0.000000
    8        7.910595   0.000000
    9       11.175761   0.000000
   10       11.363103   0.000000
   11       11.940992   0.000000
   12       13.615069   0.000000
 
  0.1666667E+00  0.5555556E-01  0.0000000E+00  0.4115226E-02
    1       -5.862456   1.000000
    2        2.568985   1.000000
    3        3.948471   1.000000
    4        4.041747   1.000000
    5        6.469524   0.000000
    6        7.484556   0.000000
    7        8.060656   0.000000
    8        8.442245   0.000000
    9       10.940607   0.000000
   10       11.747416   0.000000
   11       11.813652   0.000000
   12       13.391098   0.000000
 
  0.2222222E+00  0.5555556E-01  0.0000000E+00  0.4115226E-02
    1       -5.701710   1.000000
    2        1.779963   1.000000
    3        3.791058   1.000000
    4        3.891471   1.000000
    5        6.356704   0.000000
    6        7.715527   0.000000
    7        8.260459   0.000000
    8        9.084372   0.000000
    9       10.891013   0.000000
   10       11.674138   0.000000
   11       12.091938   0.000000
   12       13.562645   0.000000
 
  0.2777778E+00  0.5555556E-01  0.0000000E+00  0.4115226E-02
    1       -5.502616   1.000000
    2        1.032865   1.000000
    3        3.651071   1.000000
    4        3.729281   1.000000
    5        6.203842   0.000000
    6        7.896152   0.000000
    7        8.367999   0.000000
    8        9.702261   0.000000
    9       11.142213   0.000000
   10       11.811064   0.000000
   11       12.015051   0.000000
   12       14.284544   0.000000
 
  0.3333333E+00  0.5555556E-01  0.0000000E+00  0.4115226E-02
    1       -5.279585   1.000000
    2        0.361827   1.000000
    3        3.531809   1.000000
    4        3.584225   1.000000
    5        6.060394   0.000000
    6        7.981920   0.000000
    7        8.374414   0.000000
    8       10.272830   0.000000
    9       11.603355   0.000000
   10       11.960640   0.000000
   11       12.177850   0.000000
   12       15.168620   0.000000
 
  0.3888889E+00  0.5555556E-01  0.0000000E+00  0.4115226E-02
    1       -5.056709   1.000000
    2       -0.198521   1.000000
    3        3.416163   1.000000
    4        3.493448   1.000000
    5        5.945382   0.000000
    6        8.000304   0.000000
    7        8.317050   0.000000
    8       10.771373   0.000000
    9       11.765676   0.000000
   10       12.540140   0.000000
   11       12.729622   0.000000
   12       15.599215   0.000000
 
  0.4444444E+00  0.5555556E-01  0.0000000E+00  0.4115226E-02
    1       -4.871723   1.000000
    2       -0.604505   1.000000
    3        3.315798   1.000000
    4        3.456883   1.000000
    5        5.867189   0.000000
    6        8.000568   0.000000
    7        8.241381   0.000000
    8       11.006711   0.000000
    9       12.170986   0.000000
   10       13.336580   0.000000
   11       13.396222   0.000000
   12       14.999478   0.000000
 
  0.5000000E+00  0.5555556E-01  0.0000000E+00  0.4115226E-02
    1       -4.772330   1.000000
    2       -0.805098   1.000000
    3        3.248150   1.000000
    4        3.463272   1.000000
    5        5.829645   0.000000
    6        8.015105   0.000000
    7        8.178696   0.000000
    8       11.046705   0.000000
    9       12.870010   0.000000
   10       13.720118   0.000000
   11       13.796342   0.000000
   12       14.545144   0.000000
 
 -0.4444444E+00  0.5555556E-01  0.0000000E+00  0.4115226E-02
    1       -4.793039   1.000000
    2       -0.764440   1.000000
    3        3.219025   1.000000
    4        3.509215   1.000000
    5        5.834235   0.000000
    6        8.052990   0.000000
    7        8.146730   0.000000
    8       11.060824   0.000000
    9       13.015006   0.000000
   10       13.041035   0.000000
   11       13.720210   0.000000
   12       14.650512   0.000000
 
 -0.3888889E+00  0.5555556E-01  0.0000000E+00  0.4115226E-02
    1       -4.926083   1.000000
    2       -0.490705   1.000000
    3        3.230976   1.000000
    4        3.591533   1.000000
    5        5.880831   0.000000
    6        8.088238   0.000000
    7        8.166954   0.000000
    8       11.046423   0.000000
    9       12.288533   0.000000
   10       12.314056   0.000000
   11       13.524470   0.000000
   12       14.878153   0.000000
 
 -0.3333333E+00  0.5555556E-01  0.0000000E+00  0.4115226E-02
    1       -5.128697   1.000000
    2       -0.028707   1.000000
    3        3.284882   1.000000
    4        3.705652   1.000000
    5        5.967506   0.000000
    6        8.091591   0.000000
    7        8.231563   0.000000
    8       10.808606   0.000000
    9       11.665489   0.000000
   10       11.865436   0.000000
   11       12.828497   0.000000
   12       15.434088   0.000000
 
 -0.2777778E+00  0.5555556E-01  0.0000000E+00  0.4115226E-02
    1       -5.355088   1.000000
    2        0.571244   1.000000
    3        3.380105   1.000000
    4        3.844621   1.000000
    5        6.089306   0.000000
    6        8.059066   0.000000
    7        8.268943   0.000000
    8       10.234961   0.000000
    9       11.204665   0.000000
   10       11.789124   0.000000
   11       12.286548   0.000000
   12       14.865001   0.000000
 
 -0.2222222E+00  0.5555556E-01  0.0000000E+00  0.4115226E-02
    1       -5.572282   1.000000
    2        1.268170   1.000000
    3        3.514229   1.000000
    4        3.997783   1.000000
    5        6.234594   0.000000
    6        7.963474   0.000000
    7        8.205878   0.000000
    8        9.568011   0.000000
    9       10.962269   0.000000
   10       11.628600   0.000000
   11       12.163292   0.000000
   12       14.007069   0.000000
 
 -0.1666667E+00  0.5555556E-01  0.0000000E+00  0.4115226E-02
    1       -5.759865   1.000000
    2        2.026565   1.000000
    3        3.682925   1.000000
    4        4.148866   1.000000
    5        6.374374   0.000000
    6        7.803939   0.000000
    7        7.995477   0.000000
    8        8.914743   0.000000
    9       10.955037   0.000000
   10       11.511706   0.000000
   11       12.088133   0.000000
   12       13.463079   0.000000
 
 -0.1111111E+00  0.5555556E-01  0.0000000E+00  0.4115226E-02
    1       -5.905808   1.000000
    2        2.801752   1.000000
    3        3.881741   1.000000
    4        4.274456   1.000000
    5        6.429232   0.000000
    6        7.629983   0.000000
    7        7.697016   0.000000
    8        8.322379   0.000000
    9       11.147589   0.000000
   10       11.541449   0.000000
   11       11.730233   0.000000
   12       13.487187   0.000000
 
 -0.5555556E-01  0.5555556E-01  0.0000000E+00  0.2057613E-02
    1       -6.003109   1.000000
    2        3.496479   1.000000
    3        4.118242   1.000000
    4        4.347350   1.000000
    5        6.249218   0.000000
    6        7.502616   0.000000
    7        7.516144   0.000000
    8        7.846366   0.000000
    9       11.186525   0.000000
   10       11.475277   0.000000
   11       11.816175   0.000000
   12       13.704608   0.000000
 
  0.1111111E+00  0.1111111E+00  0.0000000E+00  0.1028807E-02
    1       -5.931194   1.000000
    2        3.148701   1.000000
    3        3.949339   1.000000
    4        3.951305   1.000000
    5        6.701308   0.000000
    6        7.164958   0.000000
    7        8.077939   0.000000
    8        8.080017   0.000000
    9       10.807168   0.000000
   10       11.566928   0.000000
   11       12.158253   0.000000
   12       14.051521   0.000000
 
  0.1666667E+00  0.1111111E+00  0.0000000E+00  0.4115226E-02
    1       -5.834637   1.000000
    2        2.616364   1.000000
    3        3.765550   1.000000
    4        3.791736   1.000000
    5        6.754487   0.000000
    6        7.262597   0.000000
    7        8.357497   0.000000
    8        8.473688   0.000000
    9       10.558319   0.000000
   10       11.984889   0.000000
   11       12.137912   0.000000
   12       13.903389   0.000000
 
  0.2222222E+00  0.1111111E+00  0.0000000E+00  0.4115226E-02
    1       -5.689990   1.000000
    2        1.926992   1.000000
    3        3.595507   1.000000
    4        3.632606   1.000000
    5        6.734321   0.000000
    6        7.408052   0.000000
    7        8.602214   0.000000
    8        8.886234   0.000000
    9       10.615398   0.000000
   10       12.078956   0.000000
   11       12.426162   0.000000
   12       13.798891   0.000000
 
  0.2777778E+00  0.1111111E+00  0.0000000E+00  0.4115226E-02
    1       -5.504262   1.000000
    2        1.221264   1.000000
    3        3.418840   1.000000
    4        3.477460   1.000000
    5        6.647134   0.000000
    6        7.626368   0.000000
    7        8.749372   0.000000
    8        9.136928   0.000000
    9       11.076188   0.000000
   10       12.174223   0.000000
   11       12.543620   0.000000
   12       14.202294   0.000000
 
  0.3333333E+00  0.1111111E+00  0.0000000E+00  0.4115226E-02
    1       -5.289558   1.000000
    2        0.559222   1.000000
    3        3.224658   1.000000
    4        3.369613   1.000000
    5        6.529395   0.000000
    6        7.811661   0.000000
    7        8.775298   0.000000
    8        9.417485   0.000000
    9       11.750092   0.000000
   10       12.444837   0.000000
   11       12.492266   0.000000
   12       14.958567   0.000000
 
  0.3888889E+00  0.1111111E+00  0.0000000E+00  0.4115226E-02
    1       -5.066213   1.000000
    2       -0.016832   1.000000
    3        3.042478   1.000000
    4        3.306513   1.000000
    5        6.419713   0.000000
    6        7.892532   0.000000
    7        8.710876   0.000000
    8        9.882449   0.000000
    9       12.100441   0.000000
   10       12.764288   0.000000
   11       12.998263   0.000000
   12       15.421260   0.000000
 
  0.4444444E+00  0.1111111E+00  0.0000000E+00  0.4115226E-02
    1       -4.866901   1.000000
    2       -0.462695   1.000000
    3        2.888962   1.000000
    4        3.287872   1.000000
    5        6.337546   0.000000
    6        7.916028   0.000000
    7        8.606819   0.000000
    8       10.478494   0.000000
    9       12.077939   0.000000
   10       13.551105   0.000000
   11       13.615731   0.000000
   12       14.941825   0.000000
 
  0.5000000E+00  0.1111111E+00  0.0000000E+00  0.4115226E-02
    1       -4.736520   1.000000
    2       -0.727144   1.000000
    3        2.773438   1.000000
    4        3.313298   1.000000
    5        6.291740   0.000000
    6        7.940276   0.000000
    7        8.501121   0.000000
    8       11.037409   0.000000
    9       12.192111   0.000000
   10       13.694655   0.000000
   11       13.863455   0.000000
   12       14.695972   0.000000
 
 -0.4444444E+00  0.1111111E+00  0.0000000E+00  0.4115226E-02
    1       -4.716598   1.000000
    2       -0.765922   1.000000
    3        2.702011   1.000000
    4        3.380812   1.000000
    5        6.285725   0.000000
    6        7.992707   0.000000
    7        8.413246   0.000000
    8       11.303538   0.000000
    9       12.529322   0.000000
   10       12.924003   0.000000
   11       13.314747   0.000000
   12       15.464450   0.000000
 
 -0.3888889E+00  0.1111111E+00  0.0000000E+00  0.4115226E-02
    1       -4.814485   1.000000
    2       -0.571609   1.000000
    3        2.679139   1.000000
    4        3.486523   1.000000
    5        6.319671   0.000000
    6        8.078202   0.000000
    7        8.347000   0.000000
    8       11.192932   0.000000
    9       12.154170   0.000000
   10       12.364525   0.000000
   11       13.666558   0.000000
   12       14.956052   0.000000
 
 -0.3333333E+00  0.1111111E+00  0.0000000E+00  0.4115226E-02
    1       -4.996595   1.000000
    2       -0.180759   1.000000
    3        2.708629   1.000000
    4        3.624192   1.000000
    5        6.391087   0.000000
    6        8.179572   0.000000
    7        8.294028   0.000000
    8       10.702250   0.000000
    9       11.495383   0.000000
   10       12.232870   0.000000
   11       13.904004   0.000000
   12       14.700539   0.000000
 
 -0.2777778E+00  0.1111111E+00  0.0000000E+00  0.4115226E-02
    1       -5.216310   1.000000
    2        0.352862   1.000000
    3        2.794626   1.000000
    4        3.784345   1.000000
    5        6.493748   0.000000
    6        8.192822   0.000000
    7        8.287628   0.000000
    8       10.079372   0.000000
    9       11.001362   0.000000
   10       12.260472   0.000000
   11       13.277671   0.000000
   12       14.938179   0.000000
 
 -0.2222222E+00  0.1111111E+00  0.0000000E+00  0.4115226E-02
    1       -5.436512   1.000000
    2        0.977627   1.000000
    3        2.943510   1.000000
    4        3.952807   1.000000
    5        6.613111   0.000000
    6        8.072090   0.000000
    7        8.245770   0.000000
    8        9.549923   0.000000
    9       10.722660   0.000000
   10       12.136344   0.000000
   11       12.851165   0.000000
   12       14.352064   0.000000
 
 -0.1666667E+00  0.1111111E+00  0.0000000E+00  0.4115226E-02
    1       -5.633327   1.000000
    2        1.639896   1.000000
    3        3.168186   1.000000
    4        4.108855   1.000000
    5        6.710630   0.000000
    6        7.897787   0.000000
    7        8.007430   0.000000
    8        9.185932   0.000000
    9       10.677647   0.000000
   10       11.789801   0.000000
   11       12.601539   0.000000
   12       13.905817   0.000000
 
 -0.1111111E+00  0.1111111E+00  0.0000000E+00  0.2057613E-02
    1       -5.792335   1.000000
    2        2.266905   1.000000
    3        3.492420   1.000000
    4        4.224661   1.000000
    5        6.684170   0.000000
    6        7.727097   0.000000
    7        7.742300   0.000000
    8        8.815503   0.000000
    9       10.834863   0.000000
   10       11.584107   0.000000
   11       12.150132   0.000000
   12       13.835822   0.000000
 
  0.1666667E+00  0.1666667E+00  0.0000000E+00  0.1028807E-02
    1       -5.754701   1.000000
    2        2.350720   1.000000
    3        3.581854   1.000000
    4        3.582983   1.000000
    5        6.573789   0.000000
    6        7.507551   0.000000
    7        8.699682   0.000000
    8        8.701938   0.000000
    9       10.306603   0.000000
   10       12.329505   0.000000
   11       12.356260   0.000000
   12       14.448469   0.000000
 
  0.2222222E+00  0.1666667E+00  0.0000000E+00  0.4115226E-02
    1       -5.627122   1.000000
    2        1.873266   1.000000
    3        3.375431   1.000000
    4        3.409568   1.000000
    5        6.514285   0.000000
    6        7.569578   0.000000
    7        8.972011   0.000000
    8        9.011323   0.000000
    9       10.436330   0.000000
   10       12.424937   0.000000
   11       12.788492   0.000000
   12       14.372422   0.000000
 
  0.2777778E+00  0.1666667E+00  0.0000000E+00  0.4115226E-02
    1       -5.456748   1.000000
    2        1.286218   1.000000
    3        3.148956   1.000000
    4        3.263293   1.000000
    5        6.575318   0.000000
    6        7.621891   0.000000
    7        8.984971   0.000000
    8        9.221310   0.000000
    9       11.048128   0.000000
   10       12.523595   0.000000
   11       13.129707   0.000000
   12       14.425370   0.000000
 
  0.3333333E+00  0.1666667E+00  0.0000000E+00  0.4115226E-02
    1       -5.253865   1.000000
    2        0.687233   1.000000
    3        2.901723   1.000000
    4        3.156297   1.000000
    5        6.607785   0.000000
    6        7.828249   0.000000
    7        8.929616   0.000000
    8        9.294048   0.000000
    9       11.861828   0.000000
   10       12.799939   0.000000
   11       13.133016   0.000000
   12       14.931886   0.000000
 
  0.3888889E+00  0.1666667E+00  0.0000000E+00  0.4115226E-02
    1       -5.035700   1.000000
    2        0.135646   1.000000
    3        2.662198   1.000000
    4        3.094197   1.000000
    5        6.576984   0.000000
    6        8.084534   0.000000
    7        9.052131   0.000000
    8        9.246596   0.000000
    9       12.594959   0.000000
   10       13.131168   0.000000
   11       13.270626   0.000000
   12       15.348494   0.000000
 
  0.4444444E+00  0.1666667E+00  0.0000000E+00  0.4115226E-02
    1       -4.830214   1.000000
    2       -0.318406   1.000000
    3        2.452189   1.000000
    4        3.079334   1.000000
    5        6.535992   0.000000
    6        8.182604   0.000000
    7        9.132941   0.000000
    8        9.519527   0.000000
    9       12.659657   0.000000
   10       13.784829   0.000000
   11       13.834357   0.000000
   12       14.931066   0.000000
 
  0.5000000E+00  0.1666667E+00  0.0000000E+00  0.4115226E-02
    1       -4.677787   1.000000
    2       -0.622349   1.000000
    3        2.285067   1.000000
    4        3.111836   1.000000
    5        6.519776   0.000000
    6        8.191719   0.000000
    7        9.000651   0.000000
    8       10.209917   0.000000
    9       12.490939   0.000000
   10       13.684208   0.000000
   11       14.051576   0.000000
   12       14.837437   0.000000
 
 -0.4444444E+00  0.1666667E+00  0.0000000E+00  0.4115226E-02
    1       -4.621941   1.000000
    2       -0.726914   1.000000
    3        2.169677   1.000000
    4        3.189774   1.000000
    5        6.540888   0.000000
    6        8.205829   0.000000
    7        8.874945   0.000000
    8       10.959884   0.000000
    9       12.164371   0.000000
   10       12.866194   0.000000
   11       13.574988   0.000000
   12       15.680627   0.000000
 
 -0.3888889E+00  0.1666667E+00  0.0000000E+00  0.4115226E-02
    1       -4.682317   1.000000
    2       -0.611686   1.000000
    3        2.113325   1.000000
    4        3.308963   1.000000
    5        6.600359   0.000000
    6        8.253932   0.000000
    7        8.762783   0.000000
    8       11.251708   0.000000
    9       12.003490   0.000000
   10       12.075134   0.000000
   11       13.505083   0.000000
   12       16.119937   0.000000
 
 -0.3333333E+00  0.1666667E+00  0.0000000E+00  0.4115226E-02
    1       -4.837558   1.000000
    2       -0.303003   1.000000
    3        2.124187   1.000000
    4        3.462395   1.000000
    5        6.692164   0.000000
    6        8.337004   0.000000
    7        8.653734   0.000000
    8       10.607423   0.000000
    9       11.395250   0.000000
   10       12.495349   0.000000
   11       13.841979   0.000000
   12       15.282237   0.000000
 
 -0.2777778E+00  0.1666667E+00  0.0000000E+00  0.4115226E-02
    1       -5.043901   1.000000
    2        0.142251   1.000000
    3        2.214380   1.000000
    4        3.639093   1.000000
    5        6.802712   0.000000
    6        8.422925   0.000000
    7        8.523349   0.000000
    8        9.908089   0.000000
    9       10.885952   0.000000
   10       12.812382   0.000000
   11       14.156939   0.000000
   12       14.684760   0.000000
 
 -0.2222222E+00  0.1666667E+00  0.0000000E+00  0.4115226E-02
    1       -5.261593   1.000000
    2        0.657293   1.000000
    3        2.404615   1.000000
    4        3.822410   1.000000
    5        6.902602   0.000000
    6        8.325388   0.000000
    7        8.418368   0.000000
    8        9.400953   0.000000
    9       10.596227   0.000000
   10       12.834156   0.000000
   11       13.582720   0.000000
   12       14.521270   0.000000
 
 -0.1666667E+00  0.1666667E+00  0.0000000E+00  0.2057613E-02
    1       -5.463289   1.000000
    2        1.169781   1.000000
    3        2.725263   1.000000
    4        3.988138   1.000000
    5        6.918831   0.000000
    6        8.104872   0.000000
    7        8.175944   0.000000
    8        9.247166   0.000000
    9       10.535964   0.000000
   10       12.346364   0.000000
   11       13.125629   0.000000
   12       14.197765   0.000000
 
  0.2222222E+00  0.2222222E+00  0.0000000E+00  0.1028807E-02
    1       -5.515469   1.000000
    2        1.572328   1.000000
    3        3.219354   1.000000
    4        3.220130   1.000000
    5        6.257859   0.000000
    6        7.540154   0.000000
    7        9.411143   0.000000
    8        9.413839   0.000000
    9       10.437499   0.000000
   10       12.632168   0.000000
   11       13.224150   0.000000
   12       14.999294   0.000000
 
  0.2777778E+00  0.2222222E+00  0.0000000E+00  0.4115226E-02
    1       -5.361862   1.000000
    2        1.147477   1.000000
    3        3.000081   1.000000
    4        3.065688   1.000000
    5        6.219194   0.000000
    6        7.428537   0.000000
    7        9.531635   0.000000
    8        9.720737   0.000000
    9       11.003855   0.000000
   10       12.796207   0.000000
   11       13.673451   0.000000
   12       15.001181   0.000000
 
  0.3333333E+00  0.2222222E+00  0.0000000E+00  0.4115226E-02
    1       -5.173730   1.000000
    2        0.662781   1.000000
    3        2.721552   1.000000
    4        2.951358   1.000000
    5        6.316807   0.000000
    6        7.452959   0.000000
    7        9.414537   0.000000
    8        9.877072   0.000000
    9       11.886353   0.000000
   10       13.061732   0.000000
   11       13.877710   0.000000
   12       15.183108   0.000000
 
  0.3888889E+00  0.2222222E+00  0.0000000E+00  0.4115226E-02
    1       -4.965892   1.000000
    2        0.185412   1.000000
    3        2.420383   1.000000
    4        2.883389   1.000000
    5        6.384484   0.000000
    6        7.750735   0.000000
    7        9.270296   0.000000
    8        9.876745   0.000000
    9       12.803867   0.000000
   10       13.502657   0.000000
   11       13.807633   0.000000
   12       15.475332   0.000000
 
  0.4444444E+00  0.2222222E+00  0.0000000E+00  0.4115226E-02
    1       -4.762336   1.000000
    2       -0.231877   1.000000
    3        2.139596   1.000000
    4        2.864681   1.000000
    5        6.396723   0.000000
    6        8.275869   0.000000
    7        9.173531   0.000000
    8        9.774755   0.000000
    9       13.291804   0.000000
   10       13.999707   0.000000
   11       14.040634   0.000000
   12       15.040950   0.000000
 
  0.5000000E+00  0.2222222E+00  0.0000000E+00  0.4115226E-02
    1       -4.598416   1.000000
    2       -0.536881   1.000000
    3        1.905898   1.000000
    4        2.895766   1.000000
    5        6.412803   0.000000
    6        8.742459   0.000000
    7        9.330155   0.000000
    8        9.629827   0.000000
    9       12.952734   0.000000
   10       13.705728   0.000000
   11       14.491669   0.000000
   12       14.951083   0.000000
 
 -0.4444444E+00  0.2222222E+00  0.0000000E+00  0.4115226E-02
    1       -4.515664   1.000000
    2       -0.679357   1.000000
    3        1.735176   1.000000
    4        2.975024   1.000000
    5        6.464243   0.000000
    6        8.819078   0.000000
    7        9.475533   0.000000
    8       10.016112   0.000000
    9       12.279340   0.000000
   10       12.863608   0.000000
   11       14.223302   0.000000
   12       15.852221   0.000000
 
 -0.3888889E+00  0.2222222E+00  0.0000000E+00  0.4115226E-02
    1       -4.540903   1.000000
    2       -0.631564   1.000000
    3        1.639957   1.000000
    4        3.098478   1.000000
    5        6.558224   0.000000
    6        8.825671   0.000000
    7        9.321953   0.000000
    8       10.833610   0.000000
    9       11.500674   0.000000
   10       12.059655   0.000000
   11       14.175885   0.000000
   12       16.631601   0.000000
 
 -0.3333333E+00  0.2222222E+00  0.0000000E+00  0.4115226E-02
    1       -4.664978   1.000000
    2       -0.411384   1.000000
    3        1.635497   1.000000
    4        3.259142   1.000000
    5        6.688208   0.000000
    6        8.858497   0.000000
    7        9.154797   0.000000
    8       10.538778   0.000000
    9       11.378378   0.000000
   10       11.859033   0.000000
   11       14.270722   0.000000
   12       16.303579   0.000000
 
 -0.2777778E+00  0.2222222E+00  0.0000000E+00  0.4115226E-02
    1       -4.850986   1.000000
    2       -0.078117   1.000000
    3        1.745276   1.000000
    4        3.445745   1.000000
    5        6.833403   0.000000
    6        8.905841   0.000000
    7        8.946486   0.000000
    8        9.778926   0.000000
    9       10.885623   0.000000
   10       12.686765   0.000000
   11       14.421537   0.000000