 running on   48 total cores
 distrk:  each k-point on   12 cores,    4 groups
 distr:  one band on    1 cores,   12 groups
 using from now: INCAR     
 vasp.5.4.4.18Apr17-6-g9f103f2a35 (build Nov 04 2020 14:40:39) complex          
  
 POSCAR found type information on POSCAR  Al Sb
 POSCAR found :  2 types and       2 ions
 scaLAPACK will be used

 ----------------------------------------------------------------------------- 
|                                                                             |
|           W    W    AA    RRRRR   N    N  II  N    N   GGGG   !!!           |
|           W    W   A  A   R    R  NN   N  II  NN   N  G    G  !!!           |
|           W    W  A    A  R    R  N N  N  II  N N  N  G       !!!           |
|           W WW W  AAAAAA  RRRRR   N  N N  II  N  N N  G  GGG   !            |
|           WW  WW  A    A  R   R   N   NN  II  N   NN  G    G                |
|           W    W  A    A  R    R  N    N  II  N    N   GGGG   !!!           |
|                                                                             |
|      For optimal performance we recommend to set                            |
|        NCORE= 4 - approx SQRT( number of cores)                             |
|      NCORE specifies how many cores store one orbital (NPAR=cpu/NCORE).     |
|      This setting can  greatly improve the performance of VASP for DFT.     |
|      The default,   NCORE=1            might be grossly inefficient         |
|      on modern multi-core architectures or massively parallel machines.     |
|      Do your own testing !!!!                                               |
|      Unfortunately you need to use the default for GW and RPA calculations. |
|      (for HF NCORE is supported but not extensively tested yet)             |
|                                                                             |
 ----------------------------------------------------------------------------- 


 ----------------------------------------------------------------------------- 
|                                                                             |
|           W    W    AA    RRRRR   N    N  II  N    N   GGGG   !!!           |
|           W    W   A  A   R    R  NN   N  II  NN   N  G    G  !!!           |
|           W    W  A    A  R    R  N N  N  II  N N  N  G       !!!           |
|           W WW W  AAAAAA  RRRRR   N  N N  II  N  N N  G  GGG   !            |
|           WW  WW  A    A  R   R   N   NN  II  N   NN  G    G                |
|           W    W  A    A  R    R  N    N  II  N    N   GGGG   !!!           |
|                                                                             |
|      You have enabled k-point parallelism (KPAR>1).                         |
|      This developmental code was originally  written by Paul Kent at ORNL,  |
|      and carefully double checked in Vienna.                                |
|      GW as well as linear response parallelism added by Martijn Marsman     |
|      and Georg Kresse.                                                      |
|      Carefully verify results versus KPAR=1.                                |
|      Report problems to Paul Kent and Vienna.                               |
|                                                                             |
 ----------------------------------------------------------------------------- 

 LDA part: xc-table for Pade appr. of Perdew
 POSCAR found type information on POSCAR  Al Sb
 POSCAR found :  2 types and       2 ions
 generate k-points for:   18   18   18
 POSCAR, INCAR and KPOINTS ok, starting setup
 FFT: planning ...
 WAVECAR not read
 entering main loop
       N       E                     dE             d eps       ncg     rms          rms(c)
DAV:   1     0.104582685137E+02    0.10458E+02   -0.33684E+03  4680   0.624E+02
DAV:   2    -0.801122894469E+01   -0.18469E+02   -0.17786E+02  6648   0.578E+01
DAV:   3    -0.827406830310E+01   -0.26284E+00   -0.26284E+00  5976   0.836E+00
DAV:   4    -0.827548039481E+01   -0.14121E-02   -0.14121E-02  8004   0.704E-01
DAV:   5    -0.827548157698E+01   -0.11822E-05   -0.11822E-05  6168   0.172E-02    0.206E+00
RMM:   6    -0.821586392095E+01    0.59618E-01   -0.37956E-02  4680   0.803E-01    0.124E+00
RMM:   7    -0.819785255575E+01    0.18011E-01   -0.46836E-02  4680   0.956E-01    0.222E-01
RMM:   8    -0.819858395988E+01   -0.73140E-03   -0.30288E-03  4680   0.279E-01    0.502E-02
RMM:   9    -0.819899157823E+01   -0.40762E-03   -0.52655E-04  4680   0.116E-01    0.151E-02
RMM:  10    -0.819899870677E+01   -0.71285E-05   -0.43110E-05  4680   0.337E-02    0.476E-03
RMM:  11    -0.819900160465E+01   -0.28979E-05   -0.95450E-06  4680   0.165E-02    0.170E-03
RMM:  12    -0.819900214203E+01   -0.53738E-06   -0.43802E-07  4491   0.392E-03    0.357E-04
RMM:  13    -0.819900231549E+01   -0.17347E-06   -0.63446E-08  3620   0.154E-03    0.812E-05
RMM:  14    -0.819900231967E+01   -0.41787E-08   -0.10340E-08  2932   0.714E-04
   1 F= -.81990023E+01 E0= -.81990023E+01  d E =-.319668E-33
 Found     2 degrees of freedom:
 Adding 6 more for cell shape distortion
 Finite differences POTIM= 0.01000 DOF=   8
 generate k-points for:   18   18   18
 bond charge predicted
       N       E                     dE             d eps       ncg     rms          rms(c)
DAV:   1    -0.819776736222E+01    0.12350E-02   -0.23928E-01 15684   0.172E+00    0.255E-01
RMM:   2    -0.819474505947E+01    0.30223E-02   -0.57873E-03 11520   0.429E-01    0.140E-01
RMM:   3    -0.819345855514E+01    0.12865E-02   -0.18652E-03 11520   0.171E-01    0.341E-02
RMM:   4    -0.819339217904E+01    0.66376E-04   -0.93195E-05 11520   0.476E-02    0.757E-03
RMM:   5    -0.819339169170E+01    0.48734E-06   -0.90249E-06 11520   0.156E-02    0.339E-03
RMM:   6    -0.819339280959E+01   -0.11179E-05   -0.18962E-06 11533   0.775E-03    0.654E-04
RMM:   7    -0.819339290541E+01   -0.95822E-07   -0.17627E-07  9854   0.244E-03
   2 F= -.81933929E+01 E0= -.81933929E+01  d E =-.555545E-31
 Finite differences progress:
  Degree of freedom:   1/  8
  Displacement:        1/  4
  Total:               1/ 32
 generate k-points for:   18   18   18
 bond charge predicted
       N       E                     dE             d eps       ncg     rms          rms(c)
DAV:   1    -0.819842586890E+01   -0.50331E-02   -0.14872E-01 15624   0.137E+00    0.128E-01
RMM:   2    -0.819792741152E+01    0.49846E-03   -0.36721E-03 11520   0.324E-01    0.699E-02
RMM:   3    -0.819762477829E+01    0.30263E-03   -0.53727E-04 11520   0.980E-02    0.168E-02
RMM:   4    -0.819761413558E+01    0.10643E-04   -0.28032E-05 11520   0.277E-02    0.384E-03
RMM:   5    -0.819761483292E+01   -0.69734E-06   -0.23483E-06 11547   0.847E-03    0.184E-03
RMM:   6    -0.819761508513E+01   -0.25220E-06   -0.55626E-07 11513   0.418E-03    0.295E-04
RMM:   7    -0.819761506737E+01    0.17760E-07   -0.40788E-08  7544   0.129E-03
   3 F= -.81976151E+01 E0= -.81976151E+01  d E =-.563579E-30
 Finite differences progress:
  Degree of freedom:   1/  8
  Displacement:        2/  4
  Total:               2/ 32
 generate k-points for:   18   18   18
 bond charge predicted
       N       E                     dE             d eps       ncg     rms          rms(c)
DAV:   1    -0.820198670075E+01   -0.43716E-02   -0.19429E-01 16488   0.156E+00    0.260E-01
RMM:   2    -0.819882393859E+01    0.31628E-02   -0.44984E-03 11520   0.367E-01    0.142E-01
RMM:   3    -0.819754359234E+01    0.12803E-02   -0.18756E-03 11520   0.170E-01    0.334E-02
RMM:   4    -0.819749265874E+01    0.50934E-04   -0.93338E-05 11520   0.468E-02    0.688E-03
RMM:   5    -0.819749521563E+01   -0.25569E-05   -0.75581E-06 11520   0.149E-02    0.307E-03
RMM:   6    -0.819749565999E+01   -0.44436E-06   -0.15018E-06 11554   0.697E-03    0.551E-04
RMM:   7    -0.819749554750E+01    0.11250E-06   -0.14817E-07  9668   0.224E-03    0.407E-04
RMM:   8    -0.819749538984E+01    0.15765E-06   -0.36440E-08  7684   0.124E-03    0.559E-05
RMM:   9    -0.819749541191E+01   -0.22069E-07   -0.90589E-09  6926   0.659E-04
   4 F= -.81974954E+01 E0= -.81974954E+01  d E =-.868013E-19
 Finite differences progress:
  Degree of freedom:   1/  8
  Displacement:        3/  4
  Total:               3/ 32
 generate k-points for:   18   18   18
 bond charge predicted
       N       E                     dE             d eps       ncg     rms          rms(c)
DAV:   1    -0.819391173834E+01    0.35837E-02   -0.16764E-01 15960   0.141E+00    0.128E-01
RMM:   2    -0.819339064649E+01    0.52109E-03   -0.36995E-03 11520   0.336E-01    0.740E-02
RMM:   3    -0.819304744811E+01    0.34320E-03   -0.58291E-04 11520   0.101E-01    0.164E-02
RMM:   4    -0.819303772444E+01    0.97237E-05   -0.22298E-05 11524   0.255E-02    0.525E-03
RMM:   5    -0.819303814308E+01   -0.41864E-06   -0.32309E-06 11520   0.898E-03    0.178E-03
RMM:   6    -0.819303836262E+01   -0.21954E-06   -0.58815E-07 11520   0.426E-03    0.532E-04
RMM:   7    -0.819303833504E+01    0.27579E-07   -0.66537E-08  7763   0.145E-03
   5 F= -.81930383E+01 E0= -.81930383E+01  d E =-.176503E-17
 Finite differences progress:
  Degree of freedom:   1/  8
  Displacement:        4/  4
  Total:               4/ 32
 generate k-points for:   18   18   18
 bond charge predicted
       N       E                     dE             d eps       ncg     rms          rms(c)
DAV:   1    -0.821092755685E+01   -0.17889E-01   -0.65177E-01 16020   0.282E+00    0.464E-01
RMM:   2    -0.819886452374E+01    0.12063E-01   -0.16361E-02 11520   0.685E-01    0.245E-01
RMM:   3    -0.819387561714E+01    0.49889E-02   -0.61451E-03 11520   0.304E-01    0.652E-02
RMM:   4    -0.819340793032E+01    0.46769E-03   -0.39750E-04 11520   0.918E-02    0.115E-02
RMM:   5    -0.819338477479E+01    0.23156E-04   -0.31362E-05 11525   0.293E-02    0.544E-03
RMM:   6    -0.819338831071E+01   -0.35359E-05   -0.62146E-06 11581   0.138E-02    0.108E-03
RMM:   7    -0.819339166127E+01   -0.33506E-05   -0.74848E-07 11888   0.473E-03    0.656E-04
RMM:   8    -0.819339324594E+01   -0.15847E-05   -0.87115E-08  9387   0.170E-03    0.793E-05
RMM:   9    -0.819339317931E+01    0.66638E-07   -0.15578E-08  7389   0.835E-04
   6 F= -.81933932E+01 E0= -.81933932E+01  d E =-.563916E-31
 Finite differences progress:
  Degree of freedom:   2/  8
  Displacement:        1/  4
  Total:               5/ 32
 generate k-points for:   18   18   18
 bond charge predicted
       N       E                     dE             d eps       ncg     rms          rms(c)
DAV:   1    -0.819843116198E+01   -0.50379E-02   -0.17102E-01 16236   0.138E+00    0.127E-01
RMM:   2    -0.819793117064E+01    0.49999E-03   -0.35503E-03 11520   0.325E-01    0.702E-02
RMM:   3    -0.819762516604E+01    0.30600E-03   -0.53105E-04 11520   0.969E-02    0.168E-02
RMM:   4    -0.819761421889E+01    0.10947E-04   -0.26275E-05 11520   0.271E-02    0.422E-03
RMM:   5    -0.819761487010E+01   -0.65120E-06   -0.25703E-06 11524   0.864E-03    0.178E-03
RMM:   6    -0.819761509039E+01   -0.22029E-06   -0.53612E-07 11506   0.414E-03    0.343E-04
RMM:   7    -0.819761507010E+01    0.20289E-07   -0.48355E-08  7557   0.134E-03
   7 F= -.81976151E+01 E0= -.81976151E+01  d E =-.563377E-30
 Finite differences progress:
  Degree of freedom:   2/  8
  Displacement:        2/  4
  Total:               6/ 32
 generate k-points for:   18   18   18
 bond charge predicted
       N       E                     dE             d eps       ncg     rms          rms(c)
DAV:   1    -0.820197381280E+01   -0.43587E-02   -0.20909E-01 16944   0.157E+00    0.259E-01
RMM:   2    -0.819882748495E+01    0.31463E-02   -0.45791E-03 11520   0.373E-01    0.142E-01
RMM:   3    -0.819754383437E+01    0.12837E-02   -0.18789E-03 11520   0.170E-01    0.334E-02
RMM:   4    -0.819749272589E+01    0.51108E-04   -0.92339E-05 11520   0.468E-02    0.702E-03
RMM:   5    -0.819749527919E+01   -0.25533E-05   -0.78834E-06 11520   0.151E-02    0.307E-03
RMM:   6    -0.819749566160E+01   -0.38241E-06   -0.14669E-06 11551   0.693E-03    0.566E-04
RMM:   7    -0.819749555047E+01    0.11113E-06   -0.15381E-07  9780   0.226E-03    0.434E-04
RMM:   8    -0.819749538729E+01    0.16318E-06   -0.37906E-08  7719   0.126E-03    0.570E-05
RMM:   9    -0.819749541045E+01   -0.23158E-07   -0.90147E-09  6920   0.657E-04
   8 F= -.81974954E+01 E0= -.81974954E+01  d E =-.867734E-19
 Finite differences progress:
  Degree of freedom:   2/  8
  Displacement:        3/  4
  Total:               7/ 32
 generate k-points for:   18   18   18
 bond charge predicted
       N       E                     dE             d eps       ncg     rms          rms(c)
DAV:   1    -0.819391068562E+01    0.35847E-02   -0.16327E-01 15792   0.141E+00    0.129E-01
RMM:   2    -0.819338917231E+01    0.52151E-03   -0.37383E-03 11520   0.335E-01    0.739E-02
RMM:   3    -0.819304727828E+01    0.34189E-03   -0.58451E-04 11520   0.102E-01    0.164E-02
RMM:   4    -0.819303763404E+01    0.96442E-05   -0.22382E-05 11520   0.256E-02    0.513E-03
RMM:   5    -0.819303809390E+01   -0.45986E-06   -0.29999E-06 11520   0.877E-03    0.181E-03
RMM:   6    -0.819303835937E+01   -0.26547E-06   -0.61309E-07 11520   0.432E-03    0.523E-04
RMM:   7    -0.819303832961E+01    0.29766E-07   -0.64569E-08  7762   0.144E-03
   9 F= -.81930383E+01 E0= -.81930383E+01  d E =-.186316E-17
 Finite differences progress:
  Degree of freedom:   2/  8
  Displacement:        4/  4
  Total:               8/ 32
 generate k-points for:   18   18   18
 bond charge predicted
       N       E                     dE             d eps       ncg     rms          rms(c)
DAV:   1    -0.820977743298E+01   -0.16739E-01   -0.71288E-01 16284   0.284E+00    0.463E-01
RMM:   2    -0.819817667013E+01    0.11601E-01   -0.16918E-02 11520   0.705E-01    0.245E-01
RMM:   3    -0.819366202895E+01    0.45146E-02   -0.61946E-03 11520   0.305E-01    0.652E-02
RMM:   4    -0.819337190950E+01    0.29012E-03   -0.38891E-04 11520   0.916E-02    0.118E-02
RMM:   5    -0.819338429065E+01   -0.12381E-04   -0.33188E-05 11520   0.298E-02    0.547E-03
RMM:   6    -0.819339204161E+01   -0.77510E-05   -0.60428E-06 11581   0.137E-02    0.112E-03
RMM:   7    -0.819339278077E+01   -0.73915E-06   -0.78477E-07 11831   0.480E-03    0.759E-04
RMM:   8    -0.819339321049E+01   -0.42972E-06   -0.10877E-07  9610   0.182E-03    0.779E-05
RMM:   9    -0.819339314661E+01    0.63883E-07   -0.16757E-08  7407   0.861E-04
  10 F= -.81933931E+01 E0= -.81933931E+01  d E =-.554939E-31
 Finite differences progress:
  Degree of freedom:   3/  8
  Displacement:        1/  4
  Total:               9/ 32
 generate k-points for:   18   18   18
 bond charge predicted
       N       E                     dE             d eps       ncg     rms          rms(c)
DAV:   1    -0.819837097419E+01   -0.49778E-02   -0.15703E-01 13656   0.143E+00    0.128E-01
RMM:   2    -0.819792912469E+01    0.44185E-03   -0.41352E-03 11520   0.346E-01    0.700E-02
RMM:   3    -0.819762399157E+01    0.30513E-03   -0.55678E-04 11520   0.102E-01    0.166E-02
RMM:   4    -0.819761410030E+01    0.98913E-05   -0.28365E-05 11521   0.284E-02    0.398E-03
RMM:   5    -0.819761477292E+01   -0.67262E-06   -0.23676E-06 11534   0.856E-03    0.192E-03
RMM:   6    -0.819761508255E+01   -0.30963E-06   -0.61014E-07 11520   0.429E-03    0.339E-04
RMM:   7    -0.819761506695E+01    0.15608E-07   -0.45394E-08  7519   0.132E-03
  11 F= -.81976151E+01 E0= -.81976151E+01  d E =-.387861E-30
 Finite differences progress:
  Degree of freedom:   3/  8
  Displacement:        2/  4
  Total:              10/ 32
 generate k-points for:   18   18   18
 bond charge predicted
       N       E                     dE             d eps       ncg     rms          rms(c)
DAV:   1    -0.820201228523E+01   -0.43972E-02   -0.17207E-01 15564   0.150E+00    0.260E-01
RMM:   2    -0.819882121489E+01    0.31911E-02   -0.42724E-03 11520   0.350E-01    0.142E-01
RMM:   3    -0.819754319835E+01    0.12780E-02   -0.18664E-03 11520   0.169E-01    0.334E-02
RMM:   4    -0.819749260754E+01    0.50591E-04   -0.95154E-05 11520   0.470E-02    0.656E-03
RMM:   5    -0.819749504586E+01   -0.24383E-05   -0.66264E-06 11524   0.143E-02    0.312E-03
RMM:   6    -0.819749564458E+01   -0.59872E-06   -0.15359E-06 11520   0.697E-03    0.516E-04
RMM:   7    -0.819749555256E+01    0.92018E-07   -0.12762E-07  9203   0.215E-03
  12 F= -.81974956E+01 E0= -.81974956E+01  d E =-.893352E-19
 Finite differences progress:
  Degree of freedom:   3/  8
  Displacement:        3/  4
  Total:              11/ 32
 generate k-points for:   18   18   18
 bond charge predicted
       N       E                     dE             d eps       ncg     rms          rms(c)
DAV:   1    -0.819385187631E+01    0.36438E-02   -0.19514E-01 15048   0.151E+00    0.128E-01
RMM:   2    -0.819339120170E+01    0.46067E-03   -0.42606E-03 11520   0.364E-01    0.742E-02
RMM:   3    -0.819304759450E+01    0.34361E-03   -0.59243E-04 11520   0.104E-01    0.165E-02
RMM:   4    -0.819303777485E+01    0.98197E-05   -0.22946E-05 11521   0.261E-02    0.554E-03
RMM:   5    -0.819303813592E+01   -0.36107E-06   -0.35436E-06 11520   0.934E-03    0.178E-03
RMM:   6    -0.819303836190E+01   -0.22598E-06   -0.62965E-07 11552   0.438E-03    0.578E-04
RMM:   7    -0.819303833692E+01    0.24984E-07   -0.70504E-08  7772   0.148E-03
  13 F= -.81930383E+01 E0= -.81930383E+01  d E =-.246532E-17
 Finite differences progress:
  Degree of freedom:   3/  8
  Displacement:        4/  4
  Total:              12/ 32
 generate k-points for:   18   18   18
 bond charge predicted
       N       E                     dE             d eps       ncg     rms          rms(c)
DAV:   1    -0.820426651333E+01   -0.11228E-01   -0.44271E-01 49320   0.244E+00    0.354E-01
RMM:   2    -0.819806514781E+01    0.62014E-02   -0.14215E-02 37200   0.655E-01    0.199E-01
RMM:   3    -0.819505843489E+01    0.30067E-02   -0.46010E-03 37200   0.264E-01    0.375E-02
RMM:   4    -0.819500311780E+01    0.55317E-04   -0.14452E-04 37200   0.632E-02    0.121E-02
RMM:   5    -0.819500312890E+01   -0.11097E-07   -0.17894E-05 37200   0.217E-02    0.488E-03
RMM:   6    -0.819500483936E+01   -0.17105E-05   -0.40200E-06 37200   0.106E-02    0.121E-03
RMM:   7    -0.819500514088E+01   -0.30152E-06   -0.65647E-07 37203   0.403E-03    0.101E-03
RMM:   8    -0.819500523830E+01   -0.97428E-07   -0.14688E-07 32350   0.195E-03
  14 F= -.81950052E+01 E0= -.81950052E+01  d E =-.905100E-19
 Finite differences progress:
  Degree of freedom:   4/  8
  Displacement:        1/  4
  Total:              13/ 32
 generate k-points for:   18   18   18
 bond charge predicted
       N       E                     dE             d eps       ncg     rms          rms(c)
DAV:   1    -0.819891049392E+01   -0.39054E-02   -0.16925E-01 56100   0.144E+00    0.125E-01
RMM:   2    -0.819836864981E+01    0.54184E-03   -0.46126E-03 37200   0.384E-01    0.670E-02
RMM:   3    -0.819800008294E+01    0.36857E-03   -0.70976E-04 37200   0.108E-01    0.902E-03
RMM:   4    -0.819800238495E+01   -0.23020E-05   -0.25501E-05 37243   0.290E-02    0.276E-03
RMM:   5    -0.819800275338E+01   -0.36844E-06   -0.17257E-06 37259   0.770E-03    0.102E-03
RMM:   6    -0.819800283302E+01   -0.79640E-07   -0.26046E-07 35078   0.287E-03
  15 F= -.81980028E+01 E0= -.81980028E+01  d E =-.180445E-25
 Finite differences progress:
  Degree of freedom:   4/  8
  Displacement:        2/  4
  Total:              14/ 32
 generate k-points for:   18   18   18
 bond charge predicted
       N       E                     dE             d eps       ncg     rms          rms(c)
DAV:   1    -0.820292283846E+01   -0.49201E-02   -0.13057E-01 53256   0.125E+00    0.240E-01
RMM:   2    -0.819956923574E+01    0.33536E-02   -0.44703E-03 37200   0.356E-01    0.137E-01
RMM:   3    -0.819800103125E+01    0.15682E-02   -0.25698E-03 37200   0.185E-01    0.179E-02
RMM:   4    -0.819800080989E+01    0.22136E-06   -0.42073E-05 37206   0.386E-02    0.707E-03
RMM:   5    -0.819800241143E+01   -0.16015E-05   -0.71422E-06 37200   0.135E-02    0.171E-03
RMM:   6    -0.819800286538E+01   -0.45394E-06   -0.94562E-07 37200   0.486E-03    0.107E-03
RMM:   7    -0.819800284183E+01    0.23549E-07   -0.17946E-07 34469   0.209E-03
  16 F= -.81980028E+01 E0= -.81980028E+01  d E =-.184426E-25
 Finite differences progress:
  Degree of freedom:   4/  8
  Displacement:        3/  4
  Total:              15/ 32
 generate k-points for:   18   18   18
 bond charge predicted
       N       E                     dE             d eps       ncg     rms          rms(c)
DAV:   1    -0.819578100261E+01    0.22219E-02   -0.21057E-01 57120   0.162E+00    0.116E-01
RMM:   2    -0.819540917627E+01    0.37183E-03   -0.53176E-03 37200   0.416E-01    0.700E-02
RMM:   3    -0.819500640261E+01    0.40277E-03   -0.74321E-04 37200   0.110E-01    0.959E-03
RMM:   4    -0.819500471792E+01    0.16847E-05   -0.15635E-05 37464   0.248E-02    0.483E-03
RMM:   5    -0.819500514250E+01   -0.42458E-06   -0.26300E-06 37200   0.856E-03    0.869E-04
RMM:   6    -0.819500522346E+01   -0.80959E-07   -0.28347E-07 35989   0.276E-03
  17 F= -.81950052E+01 E0= -.81950052E+01  d E =-.128678E-18
 Finite differences progress:
  Degree of freedom:   4/  8
  Displacement:        4/  4
  Total:              16/ 32
 generate k-points for:   18   18   18
 bond charge predicted
       N       E                     dE             d eps       ncg     rms          rms(c)
DAV:   1    -0.820669186626E+01   -0.11687E-01   -0.44265E-01 54924   0.227E+00    0.298E-01
RMM:   2    -0.820060245018E+01    0.60894E-02   -0.12447E-02 37200   0.613E-01    0.183E-01
RMM:   3    -0.819535524815E+01    0.52472E-02   -0.52356E-03 37200   0.268E-01    0.342E-02
RMM:   4    -0.819513591785E+01    0.21933E-03   -0.20983E-04 37200   0.685E-02    0.128E-02
RMM:   5    -0.819498466903E+01    0.15125E-03   -0.71985E-05 37200   0.342E-02    0.313E-03
RMM:   6    -0.819499996020E+01   -0.15291E-04   -0.41920E-06 37202   0.108E-02    0.975E-04
RMM:   7    -0.819500448657E+01   -0.45264E-05   -0.40475E-07 36872   0.350E-03    0.301E-04
RMM:   8    -0.819500497222E+01   -0.48565E-06   -0.30023E-08 25401   0.115E-03    0.557E-05
RMM:   9    -0.819500520276E+01   -0.23054E-06   -0.66551E-09 23253   0.578E-04    0.280E-05
RMM:  10    -0.819500523641E+01   -0.33655E-07   -0.15897E-09 16244   0.322E-04
  18 F= -.81950052E+01 E0= -.81950052E+01  d E =-.111603E-18
 Finite differences progress:
  Degree of freedom:   5/  8
  Displacement:        1/  4
  Total:              17/ 32
 generate k-points for:   18   18   18
 bond charge predicted
       N       E                     dE             d eps       ncg     rms          rms(c)
DAV:   1    -0.819898322089E+01   -0.39780E-02   -0.15333E-01 57672   0.142E+00    0.125E-01
RMM:   2    -0.819836998129E+01    0.61324E-03   -0.38923E-03 37200   0.351E-01    0.671E-02
RMM:   3    -0.819800015306E+01    0.36983E-03   -0.69837E-04 37200   0.106E-01    0.899E-03
RMM:   4    -0.819800227060E+01   -0.21175E-05   -0.23894E-05 37239   0.280E-02    0.315E-03
RMM:   5    -0.819800271236E+01   -0.44176E-06   -0.18349E-06 37206   0.776E-03    0.962E-04
RMM:   6    -0.819800283578E+01   -0.12342E-06   -0.28659E-07 35774   0.290E-03    0.441E-04
RMM:   7    -0.819800283149E+01    0.42900E-08   -0.43132E-08 24605   0.122E-03
  19 F= -.81980028E+01 E0= -.81980028E+01  d E =-.200154E-25
 Finite differences progress:
  Degree of freedom:   5/  8
  Displacement:        2/  4
  Total:              18/ 32
 generate k-points for:   18   18   18
 bond charge predicted
       N       E                     dE             d eps       ncg     rms          rms(c)
DAV:   1    -0.820294646772E+01   -0.49436E-02   -0.12588E-01 56136   0.125E+00    0.240E-01
RMM:   2    -0.819956745299E+01    0.33790E-02   -0.42270E-03 37200   0.345E-01    0.137E-01
RMM:   3    -0.819800111305E+01    0.15663E-02   -0.25696E-03 37200   0.185E-01    0.179E-02
RMM:   4    -0.819800076661E+01    0.34644E-06   -0.42033E-05 37201   0.386E-02    0.714E-03
RMM:   5    -0.819800240502E+01   -0.16384E-05   -0.71263E-06 37200   0.135E-02    0.172E-03
RMM:   6    -0.819800284710E+01   -0.44208E-06   -0.93516E-07 37200   0.480E-03    0.111E-03
RMM:   7    -0.819800283573E+01    0.11364E-07   -0.19165E-07 34697   0.215E-03
  20 F= -.81980028E+01 E0= -.81980028E+01  d E =-.176571E-25
 Finite differences progress:
  Degree of freedom:   5/  8
  Displacement:        3/  4
  Total:              19/ 32
 generate k-points for:   18   18   18
 bond charge predicted
       N       E                     dE             d eps       ncg     rms          rms(c)
DAV:   1    -0.819579700746E+01    0.22058E-02   -0.20700E-01 56832   0.161E+00    0.116E-01
RMM:   2    -0.819541031017E+01    0.38670E-03   -0.51577E-03 37200   0.408E-01    0.701E-02
RMM:   3    -0.819500635692E+01    0.40395E-03   -0.73543E-04 37200   0.109E-01    0.954E-03
RMM:   4    -0.819500470852E+01    0.16484E-05   -0.15122E-05 37461   0.244E-02    0.483E-03
RMM:   5    -0.819500514596E+01   -0.43744E-06   -0.26147E-06 37200   0.852E-03    0.870E-04
RMM:   6    -0.819500521502E+01   -0.69059E-07   -0.26712E-07 35868   0.270E-03
  21 F= -.81950052E+01 E0= -.81950052E+01  d E =-.133466E-18
 Finite differences progress:
  Degree of freedom:   5/  8
  Displacement:        4/  4
  Total:              20/ 32
 generate k-points for:   18   18   18
 bond charge predicted
       N       E                     dE             d eps       ncg     rms          rms(c)
DAV:   1    -0.820441150050E+01   -0.94064E-02   -0.39057E-01 55332   0.219E+00    0.296E-01
RMM:   2    -0.819914160967E+01    0.52699E-02   -0.11147E-02 37200   0.573E-01    0.182E-01
RMM:   3    -0.819517469464E+01    0.39669E-02   -0.52809E-03 37200   0.269E-01    0.334E-02
RMM:   4    -0.819504976672E+01    0.12493E-03   -0.19283E-04 37200   0.667E-02    0.131E-02
RMM:   5    -0.819500697280E+01    0.42794E-04   -0.73914E-05 37200   0.345E-02    0.303E-03
RMM:   6    -0.819500561900E+01    0.13538E-05   -0.40818E-06 37205   0.106E-02    0.104E-03
RMM:   7    -0.819500532701E+01    0.29199E-06   -0.38644E-07 36749   0.340E-03    0.235E-04
RMM:   8    -0.819500526135E+01    0.65660E-07   -0.25273E-08 25198   0.109E-03
  22 F= -.81950053E+01 E0= -.81950053E+01  d E =-.286684E-19
 Finite differences progress:
  Degree of freedom:   6/  8
  Displacement:        1/  4
  Total:              21/ 32
 generate k-points for:   18   18   18
 bond charge predicted
       N       E                     dE             d eps       ncg     rms          rms(c)
DAV:   1    -0.819901078819E+01   -0.40055E-02   -0.14642E-01 59160   0.143E+00    0.125E-01
RMM:   2    -0.819837011212E+01    0.64068E-03   -0.36119E-03 37200   0.335E-01    0.670E-02
RMM:   3    -0.819800019149E+01    0.36992E-03   -0.69419E-04 37200   0.105E-01    0.898E-03
RMM:   4    -0.819800253429E+01   -0.23428E-05   -0.25124E-05 37202   0.285E-02    0.224E-03
RMM:   5    -0.819800274920E+01   -0.21491E-06   -0.13458E-06 37511   0.715E-03    0.110E-03
RMM:   6    -0.819800282571E+01   -0.76510E-07   -0.24790E-07 34789   0.278E-03
  23 F= -.81980028E+01 E0= -.81980028E+01  d E =-.186013E-25
 Finite differences progress:
  Degree of freedom:   6/  8
  Displacement:        2/  4
  Total:              22/ 32
 generate k-points for:   18   18   18
 bond charge predicted
       N       E                     dE             d eps       ncg     rms          rms(c)
DAV:   1    -0.820296801241E+01   -0.49653E-02   -0.12043E-01 56772   0.123E+00    0.240E-01
RMM:   2    -0.819956648731E+01    0.34015E-02   -0.40274E-03 37200   0.335E-01    0.137E-01
RMM:   3    -0.819800103387E+01    0.15655E-02   -0.25679E-03 37200   0.184E-01    0.179E-02
RMM:   4    -0.819800075798E+01    0.27589E-06   -0.41903E-05 37201   0.385E-02    0.712E-03
RMM:   5    -0.819800241767E+01   -0.16597E-05   -0.71682E-06 37200   0.135E-02    0.172E-03
RMM:   6    -0.819800286466E+01   -0.44700E-06   -0.96563E-07 37200   0.486E-03    0.111E-03
RMM:   7    -0.819800283595E+01    0.28711E-07   -0.18959E-07 34691   0.213E-03
  24 F= -.81980028E+01 E0= -.81980028E+01  d E =-.178019E-25
 Finite differences progress:
  Degree of freedom:   6/  8
  Displacement:        3/  4
  Total:              23/ 32
 generate k-points for:   18   18   18
 bond charge predicted
       N       E                     dE             d eps       ncg     rms          rms(c)
DAV:   1    -0.819579720471E+01    0.22057E-02   -0.20917E-01 57168   0.163E+00    0.116E-01
RMM:   2    -0.819541119486E+01    0.38601E-03   -0.51496E-03 37200   0.409E-01    0.701E-02
RMM:   3    -0.819500663123E+01    0.40456E-03   -0.73854E-04 37200   0.109E-01    0.963E-03
RMM:   4    -0.819500474046E+01    0.18908E-05   -0.15025E-05 37485   0.243E-02    0.485E-03
RMM:   5    -0.819500514121E+01   -0.40075E-06   -0.25868E-06 37200   0.847E-03    0.874E-04
RMM:   6    -0.819500521706E+01   -0.75855E-07   -0.27533E-07 35882   0.271E-03
  25 F= -.81950052E+01 E0= -.81950052E+01  d E =-.126947E-18
 Finite differences progress:
  Degree of freedom:   6/  8
  Displacement:        4/  4
  Total:              24/ 32
 generate k-points for:   18   18   18
 bond charge predicted
       N       E                     dE             d eps       ncg     rms          rms(c)
DAV:   1    -0.820230529454E+01   -0.73002E-02   -0.18658E-01 31356   0.179E+00    0.183E-01
RMM:   2    -0.820007830269E+01    0.22270E-02   -0.56951E-03 20760   0.418E-01    0.122E-01
RMM:   3    -0.819748675470E+01    0.25915E-02   -0.35030E-03 20760   0.224E-01    0.142E-02
RMM:   4    -0.819749328880E+01   -0.65341E-05   -0.98140E-05 20805   0.531E-02    0.712E-03
RMM:   5    -0.819749274016E+01    0.54863E-06   -0.12131E-05 20760   0.178E-02    0.101E-03
RMM:   6    -0.819749282044E+01   -0.80274E-07   -0.98602E-07 21145   0.594E-03
  26 F= -.81974928E+01 E0= -.81974928E+01  d E =-.153066E-57
 Finite differences progress:
  Degree of freedom:   7/  8
  Displacement:        1/  4
  Total:              25/ 32
 generate k-points for:   18   18   18
 bond charge predicted
       N       E                     dE             d eps       ncg     rms          rms(c)
DAV:   1    -0.819848524371E+01   -0.99250E-03   -0.51519E-02 23280   0.107E+00    0.197E-02
RMM:   2    -0.819861542012E+01   -0.13018E-03   -0.12617E-03 20760   0.193E-01    0.118E-02
RMM:   3    -0.819862423769E+01   -0.88176E-05   -0.67627E-05 21848   0.461E-02    0.270E-03
RMM:   4    -0.819862487540E+01   -0.63771E-06   -0.36981E-06 21752   0.104E-02    0.573E-04
RMM:   5    -0.819862489649E+01   -0.21087E-07   -0.20938E-07 17836   0.257E-03
  27 F= -.81986249E+01 E0= -.81986249E+01  d E =-.450637E-19
 Finite differences progress:
  Degree of freedom:   7/  8
  Displacement:        2/  4
  Total:              26/ 32
 generate k-points for:   18   18   18
 bond charge predicted
       N       E                     dE             d eps       ncg     rms          rms(c)
DAV:   1    -0.819853263239E+01    0.92243E-04   -0.22808E-02 24300   0.669E-01    0.369E-02
RMM:   2    -0.819860724001E+01   -0.74608E-04   -0.55869E-04 20760   0.123E-01    0.239E-02
RMM:   3    -0.819862446552E+01   -0.17226E-04   -0.39812E-05 20784   0.391E-02    0.170E-03
RMM:   4    -0.819862483862E+01   -0.37310E-06   -0.36900E-06 22656   0.101E-02    0.109E-03
RMM:   5    -0.819862489071E+01   -0.52094E-07   -0.23483E-07 19675   0.245E-03
  28 F= -.81986249E+01 E0= -.81986249E+01  d E =-.507912E-19
 Finite differences progress:
  Degree of freedom:   7/  8
  Displacement:        3/  4
  Total:              27/ 32
 generate k-points for:   18   18   18
 bond charge predicted
       N       E                     dE             d eps       ncg     rms          rms(c)
DAV:   1    -0.819734767072E+01    0.12772E-02   -0.51541E-02 22320   0.107E+00    0.182E-02
RMM:   2    -0.819748336671E+01   -0.13570E-03   -0.13077E-03 20760   0.196E-01    0.122E-02
RMM:   3    -0.819749165150E+01   -0.82848E-05   -0.68805E-05 21998   0.470E-02    0.562E-03
RMM:   4    -0.819749281037E+01   -0.11589E-05   -0.38031E-06 20873   0.116E-02    0.655E-04
RMM:   5    -0.819749283597E+01   -0.25597E-07   -0.38233E-07 19082   0.341E-03
  29 F= -.81974928E+01 E0= -.81974928E+01  d E =-.160790E-57
 Finite differences progress:
  Degree of freedom:   7/  8
  Displacement:        4/  4
  Total:              28/ 32
 generate k-points for:   18   18   18
 bond charge predicted
       N       E                     dE             d eps       ncg     rms          rms(c)
DAV:   1    -0.819706860855E+01    0.42420E-03   -0.18087E-01 21636   0.190E+00    0.751E-02
RMM:   2    -0.819747829262E+01   -0.40968E-03   -0.42151E-03 20760   0.400E-01    0.476E-02
RMM:   3    -0.819749057822E+01   -0.12286E-04   -0.21384E-04 20771   0.907E-02    0.454E-03
RMM:   4    -0.819749272972E+01   -0.21515E-05   -0.17701E-05 22281   0.257E-02    0.242E-03
RMM:   5    -0.819749283432E+01   -0.10460E-06   -0.14796E-06 21331   0.651E-03    0.491E-04
RMM:   6    -0.819749283889E+01   -0.45699E-08   -0.69914E-08 13918   0.162E-03
  30 F= -.81974928E+01 E0= -.81974928E+01  d E =-.156745E-57
 Finite differences progress:
  Degree of freedom:   8/  8
  Displacement:        1/  4
  Total:              29/ 32
 generate k-points for:   18   18   18
 bond charge predicted
       N       E                     dE             d eps       ncg     rms          rms(c)
DAV:   1    -0.819836546026E+01   -0.87263E-03   -0.16141E-01 21012   0.165E+00    0.305E-02
RMM:   2    -0.819862115782E+01   -0.25570E-03   -0.26361E-03 20760   0.339E-01    0.180E-02
RMM:   3    -0.819862443529E+01   -0.32775E-05   -0.74864E-05 20760   0.549E-02    0.338E-03
RMM:   4    -0.819862486735E+01   -0.43206E-06   -0.49894E-06 21053   0.136E-02    0.653E-04
RMM:   5    -0.819862490311E+01   -0.35758E-07   -0.36427E-07 17688   0.371E-03
  31 F= -.81986249E+01 E0= -.81986249E+01  d E =-.490739E-19
 Finite differences progress:
  Degree of freedom:   8/  8
  Displacement:        2/  4
  Total:              30/ 32
 generate k-points for:   18   18   18
 bond charge predicted
       N       E                     dE             d eps       ncg     rms          rms(c)
DAV:   1    -0.819855485767E+01    0.70010E-04   -0.72894E-02 24324   0.103E+00    0.582E-02
RMM:   2    -0.819863754376E+01   -0.82686E-04   -0.11185E-03 20760   0.208E-01    0.367E-02
RMM:   3    -0.819862457026E+01    0.12974E-04   -0.53405E-05 20760   0.432E-02    0.233E-03
RMM:   4    -0.819862482876E+01   -0.25850E-06   -0.26343E-06 20932   0.988E-03    0.161E-03
RMM:   5    -0.819862490307E+01   -0.74311E-07   -0.35956E-07 20409   0.335E-03
  32 F= -.81986249E+01 E0= -.81986249E+01  d E =-.584320E-19
 Finite differences progress:
  Degree of freedom:   8/  8
  Displacement:        3/  4
  Total:              31/ 32
 generate k-points for:   18   18   18
 bond charge predicted
       N       E                     dE             d eps       ncg     rms          rms(c)
DAV:   1    -0.819723063998E+01    0.13942E-02   -0.16277E-01 22200   0.165E+00    0.286E-02
RMM:   2    -0.819748960075E+01   -0.25896E-03   -0.26457E-03 20760   0.335E-01    0.189E-02
RMM:   3    -0.819749251178E+01   -0.29110E-05   -0.77142E-05 20760   0.552E-02    0.692E-03
RMM:   4    -0.819749282749E+01   -0.31571E-06   -0.58888E-06 20985   0.144E-02    0.109E-03
RMM:   5    -0.819749283670E+01   -0.92142E-08   -0.40649E-07 17793   0.391E-03
  33 F= -.81974928E+01 E0= -.81974928E+01  d E =-.201688E-57
 Finite differences progress:
  Degree of freedom:   8/  8
  Displacement:        4/  4
  Total:              32/ 32
 generate k-points for:   18   18   18
