unknown system                          
           1
     0.000000    3.116817    3.116817
     3.116817    0.000000    3.116817
     3.116817    3.116817    0.000000
   Al   Sb
   1   1
Direct configuration=     1
   0.25000000  0.25000000  0.25000000
   0.00000000  0.00000000  0.00000000
unknown system                          
           1
     0.000000    3.116817    3.116817
     3.179153    0.000000    3.116817
     3.179153    3.116817    0.000000
   Al   Sb
   1   1
Direct configuration=     2
   0.25000000  0.25000000  0.25000000
   0.00000000  0.00000000  0.00000000
unknown system                          
           1
     0.000000    3.116817    3.116817
     3.147985    0.000000    3.116817
     3.147985    3.116817    0.000000
   Al   Sb
   1   1
Direct configuration=     3
   0.25000000  0.25000000  0.25000000
   0.00000000  0.00000000  0.00000000
unknown system                          
           1
     0.000000    3.116817    3.116817
     3.085649    0.000000    3.116817
     3.085649    3.116817    0.000000
   Al   Sb
   1   1
Direct configuration=     4
   0.25000000  0.25000000  0.25000000
   0.00000000  0.00000000  0.00000000
unknown system                          
           1
     0.000000    3.116817    3.116817
     3.054481    0.000000    3.116817
     3.054481    3.116817    0.000000
   Al   Sb
   1   1
Direct configuration=     5
   0.25000000  0.25000000  0.25000000
   0.00000000  0.00000000  0.00000000
unknown system                          
           1
     0.000000    3.179153    3.116817
     3.116817    0.000000    3.116817
     3.116817    3.179153    0.000000
   Al   Sb
   1   1
Direct configuration=     6
   0.25000000  0.25000000  0.25000000
   0.00000000  0.00000000  0.00000000
unknown system                          
           1
     0.000000    3.147985    3.116817
     3.116817    0.000000    3.116817
     3.116817    3.147985    0.000000
   Al   Sb
   1   1
Direct configuration=     7
   0.25000000  0.25000000  0.25000000
   0.00000000  0.00000000  0.00000000
unknown system                          
           1
     0.000000    3.085649    3.116817
     3.116817    0.000000    3.116817
     3.116817    3.085649    0.000000
   Al   Sb
   1   1
Direct configuration=     8
   0.25000000  0.25000000  0.25000000
   0.00000000  0.00000000  0.00000000
unknown system                          
           1
     0.000000    3.054481    3.116817
     3.116817    0.000000    3.116817
     3.116817    3.054481    0.000000
   Al   Sb
   1   1
Direct configuration=     9
   0.25000000  0.25000000  0.25000000
   0.00000000  0.00000000  0.00000000
unknown system                          
           1
     0.000000    3.116817    3.179153
     3.116817    0.000000    3.179153
     3.116817    3.116817    0.000000
   Al   Sb
   1   1
Direct configuration=    10
   0.25000000  0.25000000  0.25000000
   0.00000000  0.00000000  0.00000000
unknown system                          
           1
     0.000000    3.116817    3.147985
     3.116817    0.000000    3.147985
     3.116817    3.116817    0.000000
   Al   Sb
   1   1
Direct configuration=    11
   0.25000000  0.25000000  0.25000000
   0.00000000  0.00000000  0.00000000
unknown system                          
           1
     0.000000    3.116817    3.085649
     3.116817    0.000000    3.085649
     3.116817    3.116817    0.000000
   Al   Sb
   1   1
Direct configuration=    12
   0.25000000  0.25000000  0.25000000
   0.00000000  0.00000000  0.00000000
unknown system                          
           1
     0.000000    3.116817    3.054481
     3.116817    0.000000    3.054481
     3.116817    3.116817    0.000000
   Al   Sb
   1   1
Direct configuration=    13
   0.25000000  0.25000000  0.25000000
   0.00000000  0.00000000  0.00000000
unknown system                          
           1
     0.000000    3.116817    3.116817
     3.116817    0.062336    3.116817
     3.116817    3.179153    0.000000
   Al   Sb
   1   1
Direct configuration=    14
   0.25000000  0.25000000  0.25000000
   0.00000000  0.00000000  0.00000000
unknown system                          
           1
     0.000000    3.116817    3.116817
     3.116817    0.031168    3.116817
     3.116817    3.147985    0.000000
   Al   Sb
   1   1
Direct configuration=    15
   0.25000000  0.25000000  0.25000000
   0.00000000  0.00000000  0.00000000
unknown system                          
           1
     0.000000    3.116817    3.116817
     3.116817   -0.031168    3.116817
     3.116817    3.085649    0.000000
   Al   Sb
   1   1
Direct configuration=    16
   0.25000000  0.25000000  0.25000000
   0.00000000  0.00000000  0.00000000
unknown system                          
           1
     0.000000    3.116817    3.116817
     3.116817   -0.062336    3.116817
     3.116817    3.054481    0.000000
   Al   Sb
   1   1
Direct configuration=    17
   0.25000000  0.25000000  0.25000000
   0.00000000  0.00000000  0.00000000
unknown system                          
           1
     0.000000    3.116817    3.179153
     3.116817    0.000000    3.116817
     3.116817    3.116817    0.062336
   Al   Sb
   1   1
Direct configuration=    18
   0.25000000  0.25000000  0.25000000
   0.00000000  0.00000000  0.00000000
unknown system                          
           1
     0.000000    3.116817    3.147985
     3.116817    0.000000    3.116817
     3.116817    3.116817    0.031168
   Al   Sb
   1   1
Direct configuration=    19
   0.25000000  0.25000000  0.25000000
   0.00000000  0.00000000  0.00000000
unknown system                          
           1
     0.000000    3.116817    3.085649
     3.116817    0.000000    3.116817
     3.116817    3.116817   -0.031168
   Al   Sb
   1   1
Direct configuration=    20
   0.25000000  0.25000000  0.25000000
   0.00000000  0.00000000  0.00000000
unknown system                          
           1
     0.000000    3.116817    3.054481
     3.116817    0.000000    3.116817
     3.116817    3.116817   -0.062336
   Al   Sb
   1   1
Direct configuration=    21
   0.25000000  0.25000000  0.25000000
   0.00000000  0.00000000  0.00000000
unknown system                          
           1
     0.062336    3.116817    3.116817
     3.179153    0.000000    3.116817
     3.116817    3.116817    0.000000
   Al   Sb
   1   1
Direct configuration=    22
   0.25000000  0.25000000  0.25000000
   0.00000000  0.00000000  0.00000000
unknown system                          
           1
     0.031168    3.116817    3.116817
     3.147985    0.000000    3.116817
     3.116817    3.116817    0.000000
   Al   Sb
   1   1
Direct configuration=    23
   0.25000000  0.25000000  0.25000000
   0.00000000  0.00000000  0.00000000
unknown system                          
           1
    -0.031168    3.116817    3.116817
     3.085649    0.000000    3.116817
     3.116817    3.116817    0.000000
   Al   Sb
   1   1
Direct configuration=    24
   0.25000000  0.25000000  0.25000000
   0.00000000  0.00000000  0.00000000
unknown system                          
           1
    -0.062336    3.116817    3.116817
     3.054481    0.000000    3.116817
     3.116817    3.116817    0.000000
   Al   Sb
   1   1
Direct configuration=    25
   0.25000000  0.25000000  0.25000000
   0.00000000  0.00000000  0.00000000
unknown system                          
           1
     0.000000    3.116817    3.116817
     3.116817    0.000000    3.116817
     3.116817    3.116817    0.000000
   Al   Sb
   1   1
Direct configuration=    26
   0.24679160  0.25320840  0.25320840
   0.00000000  0.00000000  0.00000000
unknown system                          
           1
     0.000000    3.116817    3.116817
     3.116817    0.000000    3.116817
     3.116817    3.116817    0.000000
   Al   Sb
   1   1
Direct configuration=    27
   0.24839580  0.25160420  0.25160420
   0.00000000  0.00000000  0.00000000
unknown system                          
           1
     0.000000    3.116817    3.116817
     3.116817    0.000000    3.116817
     3.116817    3.116817    0.000000
   Al   Sb
   1   1
Direct configuration=    28
   0.25160420  0.24839580  0.24839580
   0.00000000  0.00000000  0.00000000
unknown system                          
           1
     0.000000    3.116817    3.116817
     3.116817    0.000000    3.116817
     3.116817    3.116817    0.000000
   Al   Sb
   1   1
Direct configuration=    29
   0.25320840  0.24679160  0.24679160
   0.00000000  0.00000000  0.00000000
unknown system                          
           1
     0.000000    3.116817    3.116817
     3.116817    0.000000    3.116817
     3.116817    3.116817    0.000000
   Al   Sb
   1   1
Direct configuration=    30
   0.25000000  0.25000000  0.25000000
  -0.00320840  0.00320840  0.00320840
unknown system                          
           1
     0.000000    3.116817    3.116817
     3.116817    0.000000    3.116817
     3.116817    3.116817    0.000000
   Al   Sb
   1   1
Direct configuration=    31
   0.25000000  0.25000000  0.25000000
  -0.00160420  0.00160420  0.00160420
unknown system                          
           1
     0.000000    3.116817    3.116817
     3.116817    0.000000    3.116817
     3.116817    3.116817    0.000000
   Al   Sb
   1   1
Direct configuration=    32
   0.25000000  0.25000000  0.25000000
   0.00160420 -0.00160420 -0.00160420
unknown system                          
           1
     0.000000    3.116817    3.116817
     3.116817    0.000000    3.116817
     3.116817    3.116817    0.000000
   Al   Sb
   1   1
Direct configuration=    33
   0.25000000  0.25000000  0.25000000
   0.00320840 -0.00320840 -0.00320840
