 ----------------------------------------------------
    OOO  PPPP  EEEEE N   N M   M PPPP
   O   O P   P E     NN  N MM MM P   P
   O   O PPPP  EEEEE N N N M M M PPPP   -- VERSION
   O   O P     E     N  NN M   M P
    OOO  P     EEEEE N   N M   M P
 ----------------------------------------------------
 running  128 mpi-ranks, with    1 threads/rank
 distrk:  each k-point on   32 cores,    4 groups
 distr:  one band on   16 cores,    2 groups
 vasp.6.3.2 27Jun22 (build Jun 30 2023 15:13:53) complex                         
 POSCAR found type information on POSCAR CuO 
 POSCAR found :  2 types and       2 ions
 Reading from existing POTCAR
 scaLAPACK will be used
 Reading from existing POTCAR
 LDA part: xc-table for Pade appr. of Perdew
 -----------------------------------------------------------------------------
|                                                                             |
|           W    W    AA    RRRRR   N    N  II  N    N   GGGG   !!!           |
|           W    W   A  A   R    R  NN   N  II  NN   N  G    G  !!!           |
|           W    W  A    A  R    R  N N  N  II  N N  N  G       !!!           |
|           W WW W  AAAAAA  RRRRR   N  N N  II  N  N N  G  GGG   !            |
|           WW  WW  A    A  R   R   N   NN  II  N   NN  G    G                |
|           W    W  A    A  R    R  N    N  II  N    N   GGGG   !!!           |
|                                                                             |
|     The requested file  could not be found or opened for reading            |
|     k-point information. Automatic k-point generation is used as a          |
|     fallback, which may lead to unwanted results.                           |
|                                                                             |
 -----------------------------------------------------------------------------

 INCAR ok, starting setup
 POSCAR ok, starting setup
 FFT: planning ... GRIDC
 FFT: planning ... GRID_SOFT
 FFT: planning ... GRID
 WAVECAR not read
 entering main loop
       N       E                     dE             d eps       ncg     rms          rms(c)
DAV:   1     0.954485290730E+02    0.95449E+02   -0.92164E+03 11632   0.174E+03
DAV:   2    -0.799770536246E-01   -0.95529E+02   -0.86395E+02 11144   0.290E+02
DAV:   3    -0.541303514122E+01   -0.53331E+01   -0.52072E+01 12976   0.683E+01
DAV:   4    -0.546558661438E+01   -0.52551E-01   -0.52532E-01 12168   0.662E+00
DAV:   5    -0.546624734604E+01   -0.66073E-03   -0.66062E-03 13688   0.773E-01    0.268E+01
DAV:   6    -0.101078589415E+02   -0.46416E+01   -0.21970E+01 13960   0.135E+02    0.123E+01
DAV:   7    -0.809829175140E+01    0.20096E+01   -0.58588E+00 13240   0.885E+01    0.179E+00
DAV:   8    -0.814344361560E+01   -0.45152E-01   -0.41833E-01 13472   0.822E+00    0.748E-01
DAV:   9    -0.814644406886E+01   -0.30005E-02   -0.12797E-02 15816   0.445E+00    0.523E-01
DAV:  10    -0.815308206938E+01   -0.66380E-02   -0.36396E-03 15304   0.166E+00    0.544E-01
DAV:  11    -0.815340143588E+01   -0.31937E-03   -0.20930E-04 14360   0.160E-01    0.548E-01
DAV:  12    -0.814673891175E+01    0.66625E-02   -0.26281E-03 15264   0.248E+00    0.417E-01
DAV:  13    -0.814324632901E+01    0.34926E-02   -0.16573E-03 16344   0.159E+00    0.340E-01
DAV:  14    -0.813850573074E+01    0.47406E-02   -0.11099E-02 15240   0.460E+00    0.155E-01
DAV:  15    -0.813964746772E+01   -0.11417E-02   -0.29399E-03 17056   0.183E+00    0.215E-01
DAV:  16    -0.813947067586E+01    0.17679E-03   -0.59081E-03 13744   0.308E+00    0.182E-01
DAV:  17    -0.813902547065E+01    0.44521E-03   -0.16745E-03 13544   0.168E+00    0.479E-02
DAV:  18    -0.813906480550E+01   -0.39335E-04   -0.32701E-04 15456   0.678E-01    0.101E-02
DAV:  19    -0.813907483939E+01   -0.10034E-04   -0.16494E-05 13576   0.474E-02    0.631E-03
DAV:  20    -0.813907533332E+01   -0.49393E-06   -0.17446E-06 15136   0.429E-02    0.231E-03
DAV:  21    -0.813907541212E+01   -0.78793E-07   -0.23238E-07 11120   0.191E-02
   1 F= -.81390754E+01 E0= -.81390754E+01  d E =0.000000E+00  mag=    -0.0008
 -----------------------------------------------------------------------------
|                                                                             |
|           W    W    AA    RRRRR   N    N  II  N    N   GGGG   !!!           |
|           W    W   A  A   R    R  NN   N  II  NN   N  G    G  !!!           |
|           W    W  A    A  R    R  N N  N  II  N N  N  G       !!!           |
|           W WW W  AAAAAA  RRRRR   N  N N  II  N  N N  G  GGG   !            |
|           WW  WW  A    A  R   R   N   NN  II  N   NN  G    G                |
|           W    W  A    A  R    R  N    N  II  N    N   GGGG   !!!           |
|                                                                             |
|     Tetrahedron method does not include variations of the Fermi             |
|     occupations, so forces and stress will be inaccurate. We suggest        |
|     using a different smearing scheme ISMEAR = 1 or 2 for metals in         |
|     relaxations.                                                            |
|                                                                             |
 -----------------------------------------------------------------------------

 PROFILE, used timers:     369
