       N       E                     dE             d eps       ncg     rms          rms(c)
DAV:   1     0.108374637755E+03    0.10837E+03   -0.61521E+03 28512   0.650E+02
DAV:   2     0.375913816596E+00   -0.10800E+03   -0.95257E+02 25856   0.189E+02
DAV:   3    -0.691304453153E+01   -0.72890E+01   -0.70786E+01 30880   0.436E+01
DAV:   4    -0.696927378193E+01   -0.56229E-01   -0.56200E-01 28464   0.382E+00
DAV:   5    -0.696936698790E+01   -0.93206E-04   -0.93208E-04 30040   0.152E-01    0.250E+01
DAV:   6    -0.106990336077E+02   -0.37297E+01   -0.23615E+01 28592   0.499E+01    0.205E+01
DAV:   7    -0.919888140840E+01    0.15002E+01   -0.35234E+00 28128   0.311E+01    0.938E+00
DAV:   8    -0.992097055056E+01   -0.72209E+00   -0.60587E-01 27760   0.859E+00    0.735E+00
DAV:   9    -0.100894785612E+02   -0.16851E+00   -0.10223E-01 28312   0.681E+00    0.274E+00
DAV:  10    -0.101150233196E+02   -0.25545E-01   -0.53414E-02 29960   0.342E+00    0.901E-01
DAV:  11    -0.101141944827E+02    0.82884E-03   -0.11116E-02 28208   0.122E+00    0.252E-01
DAV:  12    -0.101148276654E+02   -0.63318E-03   -0.13813E-03 29288   0.312E-01    0.141E-01
DAV:  13    -0.101150950765E+02   -0.26741E-03   -0.29853E-04 29384   0.254E-01    0.862E-02
DAV:  14    -0.101150998544E+02   -0.47778E-05   -0.51148E-05 30720   0.646E-02    0.197E-02
DAV:  15    -0.101151059849E+02   -0.61305E-05   -0.68759E-06 29944   0.423E-02    0.134E-02
DAV:  16    -0.101151063570E+02   -0.37216E-06   -0.80247E-07 31816   0.253E-02    0.505E-03
DAV:  17    -0.101151064845E+02   -0.12745E-06   -0.42529E-07 30664   0.975E-03    0.183E-03
DAV:  18    -0.101151066409E+02   -0.15640E-06   -0.17067E-07 26776   0.308E-03    0.150E-03
DAV:  19    -0.101151065994E+02    0.41460E-07   -0.74755E-09 16488   0.231E-03
   1 F= -.10115107E+02 E0= -.10115107E+02  d E =0.000000E+00  mag=     2.0000
