   3   3   0   0
  0.2044919E+02  0.4426945E-09  0.4426945E-09  0.4426945E-09  0.5000000E-15
  1.000000000000000E-004
  CAR
 unknown system
     15.89317223    -33.53631649  301     12.68158396      1.00000000
    -33.536  0.0000E+00  0.0000E+00
    -33.372  0.0000E+00  0.0000E+00
    -33.207  0.0000E+00  0.0000E+00
    -33.042  0.0000E+00  0.0000E+00
    -32.877  0.0000E+00  0.0000E+00
    -32.712  0.0000E+00  0.0000E+00
    -32.548  0.0000E+00  0.0000E+00
    -32.383  0.0000E+00  0.0000E+00
    -32.218  0.0000E+00  0.0000E+00
    -32.053  0.0000E+00  0.0000E+00
    -31.889  0.0000E+00  0.0000E+00
    -31.724  0.0000E+00  0.0000E+00
    -31.559  0.0000E+00  0.0000E+00
    -31.394  0.0000E+00  0.0000E+00
    -31.230  0.1214E+02  0.2000E+01
    -31.065  0.0000E+00  0.2000E+01
    -30.900  0.0000E+00  0.2000E+01
    -30.735  0.0000E+00  0.2000E+01
    -30.571  0.0000E+00  0.2000E+01
    -30.406  0.0000E+00  0.2000E+01
    -30.241  0.0000E+00  0.2000E+01
    -30.076  0.0000E+00  0.2000E+01
    -29.911  0.0000E+00  0.2000E+01
    -29.747  0.0000E+00  0.2000E+01
    -29.582  0.0000E+00  0.2000E+01
    -29.417  0.0000E+00  0.2000E+01
    -29.252  0.0000E+00  0.2000E+01
    -29.088  0.0000E+00  0.2000E+01
    -28.923  0.0000E+00  0.2000E+01
    -28.758  0.0000E+00  0.2000E+01
    -28.593  0.0000E+00  0.2000E+01
    -28.429  0.0000E+00  0.2000E+01
    -28.264  0.0000E+00  0.2000E+01
    -28.099  0.0000E+00  0.2000E+01
    -27.934  0.0000E+00  0.2000E+01
    -27.770  0.0000E+00  0.2000E+01
    -27.605  0.0000E+00  0.2000E+01
    -27.440  0.0000E+00  0.2000E+01
    -27.275  0.0000E+00  0.2000E+01
    -27.110  0.0000E+00  0.2000E+01
    -26.946  0.0000E+00  0.2000E+01
    -26.781  0.0000E+00  0.2000E+01
    -26.616  0.0000E+00  0.2000E+01
    -26.451  0.0000E+00  0.2000E+01
    -26.287  0.0000E+00  0.2000E+01
    -26.122  0.0000E+00  0.2000E+01
    -25.957  0.0000E+00  0.2000E+01
    -25.792  0.0000E+00  0.2000E+01
    -25.628  0.0000E+00  0.2000E+01
    -25.463  0.0000E+00  0.2000E+01
    -25.298  0.0000E+00  0.2000E+01
    -25.133  0.0000E+00  0.2000E+01
    -24.969  0.0000E+00  0.2000E+01
    -24.804  0.0000E+00  0.2000E+01
    -24.639  0.0000E+00  0.2000E+01
    -24.474  0.0000E+00  0.2000E+01
    -24.309  0.0000E+00  0.2000E+01
    -24.145  0.0000E+00  0.2000E+01
    -23.980  0.0000E+00  0.2000E+01
    -23.815  0.0000E+00  0.2000E+01
    -23.650  0.0000E+00  0.2000E+01
    -23.486  0.0000E+00  0.2000E+01
    -23.321  0.0000E+00  0.2000E+01
    -23.156  0.0000E+00  0.2000E+01
    -22.991  0.0000E+00  0.2000E+01
    -22.827  0.0000E+00  0.2000E+01
    -22.662  0.0000E+00  0.2000E+01
    -22.497  0.0000E+00  0.2000E+01
    -22.332  0.0000E+00  0.2000E+01
    -22.168  0.0000E+00  0.2000E+01
    -22.003  0.0000E+00  0.2000E+01
    -21.838  0.0000E+00  0.2000E+01
    -21.673  0.0000E+00  0.2000E+01
    -21.508  0.0000E+00  0.2000E+01
    -21.344  0.0000E+00  0.2000E+01
    -21.179  0.0000E+00  0.2000E+01
    -21.014  0.0000E+00  0.2000E+01
    -20.849  0.0000E+00  0.2000E+01
    -20.685  0.0000E+00  0.2000E+01
    -20.520  0.0000E+00  0.2000E+01
    -20.355  0.0000E+00  0.2000E+01
    -20.190  0.0000E+00  0.2000E+01
    -20.026  0.0000E+00  0.2000E+01
    -19.861  0.0000E+00  0.2000E+01
    -19.696  0.0000E+00  0.2000E+01
    -19.531  0.0000E+00  0.2000E+01
    -19.367  0.0000E+00  0.2000E+01
    -19.202  0.0000E+00  0.2000E+01
    -19.037  0.0000E+00  0.2000E+01
    -18.872  0.0000E+00  0.2000E+01
    -18.707  0.0000E+00  0.2000E+01
    -18.543  0.0000E+00  0.2000E+01
    -18.378  0.0000E+00  0.2000E+01
    -18.213  0.0000E+00  0.2000E+01
    -18.048  0.0000E+00  0.2000E+01
    -17.884  0.0000E+00  0.2000E+01
    -17.719  0.0000E+00  0.2000E+01
    -17.554  0.0000E+00  0.2000E+01
    -17.389  0.0000E+00  0.2000E+01
    -17.225  0.0000E+00  0.2000E+01
    -17.060  0.0000E+00  0.2000E+01
    -16.895  0.0000E+00  0.2000E+01
    -16.730  0.0000E+00  0.2000E+01
    -16.566  0.0000E+00  0.2000E+01
    -16.401  0.0000E+00  0.2000E+01
    -16.236  0.0000E+00  0.2000E+01
    -16.071  0.0000E+00  0.2000E+01
    -15.906  0.0000E+00  0.2000E+01
    -15.742  0.0000E+00  0.2000E+01
    -15.577  0.0000E+00  0.2000E+01
    -15.412  0.0000E+00  0.2000E+01
    -15.247  0.0000E+00  0.2000E+01
    -15.083  0.0000E+00  0.2000E+01
    -14.918  0.0000E+00  0.2000E+01
    -14.753  0.0000E+00  0.2000E+01
    -14.588  0.0000E+00  0.2000E+01
    -14.424  0.0000E+00  0.2000E+01
    -14.259  0.0000E+00  0.2000E+01
    -14.094  0.0000E+00  0.2000E+01
    -13.929  0.0000E+00  0.2000E+01
    -13.765  0.0000E+00  0.2000E+01
    -13.600  0.0000E+00  0.2000E+01
    -13.435  0.0000E+00  0.2000E+01
    -13.270  0.0000E+00  0.2000E+01
    -13.105  0.0000E+00  0.2000E+01
    -12.941  0.0000E+00  0.2000E+01
    -12.776  0.0000E+00  0.2000E+01
    -12.611  0.0000E+00  0.2000E+01
    -12.446  0.0000E+00  0.2000E+01
    -12.282  0.0000E+00  0.2000E+01
    -12.117  0.0000E+00  0.2000E+01
    -11.952  0.0000E+00  0.2000E+01
    -11.787  0.0000E+00  0.2000E+01
    -11.623  0.0000E+00  0.2000E+01
    -11.458  0.0000E+00  0.2000E+01
    -11.293  0.0000E+00  0.2000E+01
    -11.128  0.0000E+00  0.2000E+01
    -10.964  0.0000E+00  0.2000E+01
    -10.799  0.0000E+00  0.2000E+01
    -10.634  0.9694E+01  0.3597E+01
    -10.469  0.1684E+02  0.1200E+02
    -10.304  0.0000E+00  0.1200E+02
    -10.140  0.0000E+00  0.1200E+02
     -9.975  0.0000E+00  0.1200E+02
     -9.810  0.0000E+00  0.1200E+02
     -9.645  0.0000E+00  0.1200E+02
     -9.481  0.0000E+00  0.1200E+02
     -9.316  0.0000E+00  0.1200E+02
     -9.151  0.0000E+00  0.1200E+02
     -8.986  0.0000E+00  0.1200E+02
     -8.822  0.0000E+00  0.1200E+02
     -8.657  0.0000E+00  0.1200E+02
     -8.492  0.0000E+00  0.1200E+02
     -8.327  0.0000E+00  0.1200E+02
     -8.163  0.0000E+00  0.1200E+02
     -7.998  0.0000E+00  0.1200E+02
     -7.833  0.0000E+00  0.1200E+02
     -7.668  0.0000E+00  0.1200E+02
     -7.503  0.0000E+00  0.1200E+02
     -7.339  0.0000E+00  0.1200E+02
     -7.174  0.1496E+01  0.1225E+02
     -7.009  0.3595E+01  0.1383E+02
     -6.844  0.4862E+01  0.1492E+02
     -6.680  0.6966E+01  0.1748E+02
     -6.515  0.0000E+00  0.1800E+02
     -6.350  0.0000E+00  0.1800E+02
     -6.185  0.0000E+00  0.1800E+02
     -6.021  0.0000E+00  0.1800E+02
     -5.856  0.0000E+00  0.1800E+02
     -5.691  0.0000E+00  0.1800E+02
     -5.526  0.0000E+00  0.1800E+02
     -5.362  0.0000E+00  0.1800E+02
     -5.197  0.0000E+00  0.1800E+02
     -5.032  0.0000E+00  0.1800E+02
     -4.867  0.0000E+00  0.1800E+02
     -4.702  0.0000E+00  0.1800E+02
     -4.538  0.0000E+00  0.1800E+02
     -4.373  0.0000E+00  0.1800E+02
     -4.208  0.0000E+00  0.1800E+02
     -4.043  0.0000E+00  0.1800E+02
     -3.879  0.0000E+00  0.1800E+02
     -3.714  0.0000E+00  0.1800E+02
     -3.549  0.0000E+00  0.1800E+02
     -3.384  0.0000E+00  0.1800E+02
     -3.220  0.0000E+00  0.1800E+02
     -3.055  0.0000E+00  0.1800E+02
     -2.890  0.0000E+00  0.1800E+02
     -2.725  0.0000E+00  0.1800E+02
     -2.561  0.0000E+00  0.1800E+02
     -2.396  0.0000E+00  0.1800E+02
     -2.231  0.0000E+00  0.1800E+02
     -2.066  0.0000E+00  0.1800E+02
     -1.901  0.0000E+00  0.1800E+02
     -1.737  0.0000E+00  0.1800E+02
     -1.572  0.0000E+00  0.1800E+02
     -1.407  0.0000E+00  0.1800E+02
     -1.242  0.0000E+00  0.1800E+02
     -1.078  0.0000E+00  0.1800E+02
     -0.913  0.5525E-02  0.1800E+02
     -0.748  0.3315E-01  0.1801E+02
     -0.583  0.6713E-01  0.1802E+02
     -0.419  0.3078E-01  0.1806E+02
     -0.254  0.2652E+00  0.1810E+02
     -0.089  0.1756E+00  0.1815E+02
      0.076  0.7073E+00  0.1829E+02
      0.241  0.1375E+01  0.1866E+02
      0.405  0.1149E+01  0.1916E+02
      0.570  0.7484E+00  0.1962E+02
      0.735  0.3053E+00  0.1988E+02
      0.900  0.1398E+00  0.1999E+02
      1.064  0.0000E+00  0.2000E+02
      1.229  0.0000E+00  0.2000E+02
      1.394  0.0000E+00  0.2000E+02
      1.559  0.0000E+00  0.2000E+02
      1.723  0.0000E+00  0.2000E+02
      1.888  0.0000E+00  0.2000E+02
      2.053  0.0000E+00  0.2000E+02
      2.218  0.0000E+00  0.2000E+02
      2.382  0.0000E+00  0.2000E+02
      2.547  0.0000E+00  0.2000E+02
      2.712  0.0000E+00  0.2000E+02
      2.877  0.0000E+00  0.2000E+02
      3.042  0.0000E+00  0.2000E+02
      3.206  0.0000E+00  0.2000E+02
      3.371  0.0000E+00  0.2000E+02
      3.536  0.0000E+00  0.2000E+02
      3.701  0.0000E+00  0.2000E+02
      3.865  0.0000E+00  0.2000E+02
      4.030  0.0000E+00  0.2000E+02
      4.195  0.0000E+00  0.2000E+02
      4.360  0.0000E+00  0.2000E+02
      4.524  0.0000E+00  0.2000E+02
      4.689  0.0000E+00  0.2000E+02
      4.854  0.0000E+00  0.2000E+02
      5.019  0.0000E+00  0.2000E+02
      5.183  0.0000E+00  0.2000E+02
      5.348  0.0000E+00  0.2000E+02
      5.513  0.1753E+00  0.2003E+02
      5.678  0.1113E+01  0.2033E+02
      5.843  0.9289E+00  0.2077E+02
      6.007  0.6349E+00  0.2101E+02
      6.172  0.2183E+01  0.2153E+02
      6.337  0.2002E+01  0.2219E+02
      6.502  0.1792E+01  0.2296E+02
      6.666  0.2091E+01  0.2376E+02
      6.831  0.2529E+01  0.2458E+02
      6.996  0.1347E+01  0.2533E+02
      7.161  0.1366E+01  0.2576E+02
      7.325  0.9503E+00  0.2604E+02
      7.490  0.5239E+01  0.2716E+02
      7.655  0.2297E+01  0.2835E+02
      7.820  0.3026E+01  0.2911E+02
      7.984  0.1755E+01  0.2991E+02
      8.149  0.2652E+00  0.3008E+02
      8.314  0.3476E+00  0.3024E+02
      8.479  0.8019E+00  0.3052E+02
      8.644  0.1724E+01  0.3099E+02
      8.808  0.1078E+01  0.3125E+02
      8.973  0.4392E+00  0.3149E+02
      9.138  0.5240E+00  0.3166E+02
      9.303  0.4544E+00  0.3188E+02
      9.467  0.3315E+00  0.3202E+02
      9.632  0.7754E+00  0.3225E+02
      9.797  0.4351E+00  0.3249E+02
      9.962  0.2965E+00  0.3267E+02
     10.126  0.8168E+00  0.3308E+02
     10.291  0.6347E+00  0.3323E+02
     10.456  0.8595E+00  0.3353E+02
     10.621  0.5329E+00  0.3373E+02
     10.785  0.3405E+01  0.3454E+02
     10.950  0.1700E+01  0.3552E+02
     11.115  0.8580E+00  0.3585E+02
     11.280  0.1658E-01  0.3600E+02
     11.445  0.2147E-17  0.3600E+02
     11.609  0.0000E+00  0.3600E+02
     11.774  0.1733E+00  0.3603E+02
     11.939  0.1094E+01  0.3627E+02
     12.104  0.1482E+01  0.3684E+02
     12.268  0.1831E+01  0.3743E+02
     12.433  0.1759E+01  0.3796E+02
     12.598  0.7948E+00  0.3816E+02
     12.763  0.8238E+01  0.4040E+02
     12.927  0.3752E+01  0.4169E+02
     13.092  0.7131E+01  0.4340E+02
     13.257  0.7817E+01  0.4571E+02
     13.422  0.6370E+01  0.4758E+02
     13.586  0.5610E+00  0.4798E+02
     13.751  0.0000E+00  0.4800E+02
     13.916  0.0000E+00  0.4800E+02
     14.081  0.0000E+00  0.4800E+02
     14.246  0.0000E+00  0.4800E+02
     14.410  0.0000E+00  0.4800E+02
     14.575  0.0000E+00  0.4800E+02
     14.740  0.0000E+00  0.4800E+02
     14.905  0.0000E+00  0.4800E+02
     15.069  0.0000E+00  0.4800E+02
     15.234  0.0000E+00  0.4800E+02
     15.399  0.0000E+00  0.4800E+02
     15.564  0.0000E+00  0.4800E+02
     15.728  0.0000E+00  0.4800E+02
     15.893  0.0000E+00  0.4800E+02
