    3    3    1    1
  0.2044919E+02  0.4426945E-09  0.4426945E-09  0.4426945E-09  0.5000000E-15
  1.000000000000000E-004
  CAR
 unknown system
     39     84     24

  0.0000000E+00  0.0000000E+00  0.0000000E+00  0.4551661E-03
    1      -31.289522   1.000000
    2      -10.596133   1.000000
    3      -10.596133   1.000000
    4      -10.553307   1.000000
    5      -10.553307   1.000000
    6      -10.553307   1.000000
    7       -6.811632   1.000000
    8       -6.811632   1.000000
    9       -6.811632   1.000000
   10       -0.944738   1.000000
   11        7.284644   1.000000
   12        7.284644   1.000000
   13        7.284644   1.000000
   14        7.307178   1.000000
   15        7.307178   1.000000
   16       11.201687   1.000000
   17       11.201687   1.000000
   18       11.201687   1.000000
   19       11.501504   1.000000
   20       12.481632   1.000000
   21       12.481632   1.000000
   22       12.481632   1.000000
   23       13.047842   0.000000
   24       13.047846   0.000000

  0.7692308E-01 -0.2210956E-17  0.2802583E-17  0.3641329E-02
    1      -31.288733   1.000000
    2      -10.600258   1.000000
    3      -10.600258   1.000000
    4      -10.554070   1.000000
    5      -10.552847   1.000000
    6      -10.552847   1.000000
    7       -6.846068   1.000000
    8       -6.802011   1.000000
    9       -6.802011   1.000000
   10       -0.833516   1.000000
   11        7.004746   1.000000
   12        7.004746   1.000000
   13        7.151651   1.000000
   14        7.571681   1.000000
   15        7.571681   1.000000
   16       10.581796   1.000000
   17       11.128910   1.000000
   18       11.128910   1.000000
   19       11.764062   1.000000
   20       12.506139   1.000000
   21       12.506139   1.000000
   22       12.622885   1.000000
   23       13.118271   0.000000
   24       13.119192   0.000000

  0.1538462E+00 -0.3088324E-17  0.4271577E-17  0.3641329E-02
    1      -31.286537   1.000000
    2      -10.611560   1.000000
    3      -10.611559   1.000000
    4      -10.556544   1.000000
    5      -10.551624   1.000000
    6      -10.551624   1.000000
    7       -6.934672   1.000000
    8       -6.775462   1.000000
    9       -6.775462   1.000000
   10       -0.528114   1.000000
   11        6.750870   1.000000
   12        6.750870   1.000000
   13        6.803072   1.000000
   14        7.762695   1.000000
   15        7.762695   1.000000
   16        9.789986   1.000000
   17       10.985872   1.000000
   18       10.985872   1.000000
   19       11.750037   1.000000
   20       12.555168   1.000000
   21       12.555168   1.000000
   22       12.941922   0.000000
   23       13.279338   0.000000
   24       13.284365   0.000000

  0.2307692E+00  0.7353161E-18  0.1039563E-17  0.3641329E-02
    1      -31.283449   1.000000
    2      -10.627200   1.000000
    3      -10.627200   1.000000
    4      -10.560921   1.000000
    5      -10.549926   1.000000
    6      -10.549926   1.000000
    7       -7.044713   1.000000
    8       -6.738370   1.000000
    9       -6.738370   1.000000
   10       -0.102735   1.000000
   11        6.356148   1.000000
   12        6.567205   1.000000
   13        6.567205   1.000000
   14        7.807553   1.000000
   15        7.807553   1.000000
   16        9.093947   1.000000
   17       10.890942   1.000000
   18       10.890942   1.000000
   19       11.712212   1.000000
   20       12.611619   1.000000
   21       12.611619   1.000000
   22       13.063228   0.000000
   23       13.145348   0.000000
   24       13.415907   0.000000

  0.3076923E+00 -0.6176648E-17  0.8543154E-17  0.3641329E-02
    1      -31.280173   1.000000
    2      -10.643454   1.000000
    3      -10.643454   1.000000
    4      -10.566748   1.000000
    5      -10.548141   1.000000
    6      -10.548141   1.000000
    7       -7.145287   1.000000
    8       -6.699407   1.000000
    9       -6.699407   1.000000
   10        0.343054   1.000000
   11        5.936439   1.000000
   12        6.468715   1.000000
   13        6.468715   1.000000
   14        7.703152   1.000000
   15        7.703152   1.000000
   16        8.557579   1.000000
   17       10.886592   1.000000
   18       10.886592   1.000000
   19       11.745541   1.000000
   20       12.679285   0.627459
   21       12.679285   0.627458
   22       13.071573   0.000000
   23       13.257993   0.000000
   24       13.413043   0.000000

  0.3846154E+00  0.1635067E-16  0.8328438E-17  0.3641329E-02
    1      -31.277464   1.000000
    2      -10.656660   1.000000
    3      -10.656660   1.000000
    4      -10.572542   1.000000
    5      -10.546663   1.000000
    6      -10.546663   1.000000
    7       -7.217693   1.000000
    8       -6.667438   1.000000
    9       -6.667438   1.000000
   10        0.706096   1.000000
   11        5.635461   1.000000
   12        6.448345   1.000000
   13        6.448345   1.000000
   14        7.524229   1.000000
   15        7.524229   1.000000
   16        8.196371   1.000000
   17       10.933526   1.000000
   18       10.933526   1.000000
   19       11.839353   1.000000
   20       12.759208   0.000000
   21       12.759208   0.000000
   22       13.078506   0.000000
   23       13.316864   0.000000
   24       13.333671   0.000000

  0.4615385E+00  0.7630114E-17 -0.4080355E-17  0.3641329E-02
    1      -31.275932   1.000000
    2      -10.664019   1.000000
    3      -10.664019   1.000000
    4      -10.576210   1.000000
    5      -10.545830   1.000000
    6      -10.545830   1.000000
    7       -7.254599   1.000000
    8       -6.649512   1.000000
    9       -6.649512   1.000000
   10        0.906510   1.000000
   11        5.487945   1.000000
   12        6.467532   1.000000
   13        6.467532   1.000000
   14        7.384302   1.000000
   15        7.384302   1.000000
   16        8.013901   1.000000
   17       10.973528   1.000000
   18       10.973528   1.000000
   19       11.930068   1.000000
   20       12.830135   0.000000
   21       12.830135   0.000000
   22       13.106415   0.000000
   23       13.222326   0.000000
   24       13.222435   0.000000

  0.7692308E-01  0.7692308E-01  0.6732585E-18  0.2730997E-02
    1      -31.288472   1.000000
    2      -10.607302   1.000000
    3      -10.595145   1.000000
    4      -10.554329   1.000000
    5      -10.552719   1.000000
    6      -10.552719   1.000000
    7       -6.829605   1.000000
    8       -6.813172   1.000000
    9       -6.813172   1.000000
   10       -0.798774   1.000000
   11        6.700461   1.000000
   12        7.294640   1.000000
   13        7.294640   1.000000
   14        7.320694   1.000000
   15        7.643262   1.000000
   16       10.598628   1.000000
   17       11.007342   1.000000
   18       11.007342   1.000000
   19       11.864227   1.000000
   20       12.536033   1.000000
   21       12.564370   1.000000
   22       12.564370   1.000000
   23       13.062838   0.000000
   24       13.137509   0.000000

  0.1538462E+00  0.7692308E-01  0.2652247E-17  0.1092399E-01
    1      -31.286758   1.000000
    2      -10.619714   1.000000
    3      -10.598487   1.000000
    4      -10.556213   1.000000
    5      -10.551872   1.000000
    6      -10.551655   1.000000
    7       -6.897412   1.000000
    8       -6.804988   1.000000
    9       -6.784374   1.000000
   10       -0.565659   1.000000
   11        6.368721   1.000000
   12        7.061799   1.000000
   13        7.124962   1.000000
   14        7.543097   1.000000
   15        7.798727   1.000000
   16       10.040276   1.000000
   17       10.852299   1.000000
   18       10.869376   1.000000
   19       11.888147   1.000000
   20       12.527505   1.000000
   21       12.609433   1.000000
   22       12.839661   0.000000
   23       13.071288   0.000000
   24       13.260626   0.000000

  0.2307692E+00  0.7692308E-01  0.2437532E-17  0.1092399E-01
    1      -31.283986   1.000000
    2      -10.634473   1.000000
    3      -10.609406   1.000000
    4      -10.559644   1.000000
    5      -10.550691   1.000000
    6      -10.549860   1.000000
    7       -7.001293   1.000000
    8       -6.779550   1.000000
    9       -6.744003   1.000000
   10       -0.194739   1.000000
   11        6.079781   1.000000
   12        6.795037   1.000000
   13        6.866980   1.000000
   14        7.637431   1.000000
   15        7.911037   1.000000
   16        9.379181   1.000000
   17       10.736575   1.000000
   18       10.770408   1.000000
   19       11.859413   1.000000
   20       12.573843   1.000000
   21       12.642089   1.000000
   22       13.072396   0.000000
   23       13.076615   0.000000
   24       13.384023   0.000000

  0.3076923E+00  0.7692308E-01 -0.3936665E-17  0.1092399E-01
    1      -31.280791   1.000000
    2      -10.648169   1.000000
    3      -10.625024   1.000000
    4      -10.564541   1.000000
    5      -10.549329   1.000000
    6      -10.547906   1.000000
    7       -7.104758   1.000000
    8       -6.742966   1.000000
    9       -6.706001   1.000000
   10        0.221494   1.000000
   11        5.843431   1.000000
   12        6.508555   1.000000
   13        6.735191   1.000000
   14        7.577537   1.000000
   15        7.890138   1.000000
   16        8.801249   1.000000
   17       10.686301   1.000000
   18       10.791727   1.000000
   19       11.847524   1.000000
   20       12.654305   0.999943
   21       12.683389   0.399232
   22       13.081502   0.000000
   23       13.192467   0.000000
   24       13.408490   0.000000

  0.3846154E+00  0.7692308E-01  0.9726407E-17  0.1092399E-01
    1      -31.277911   1.000000
    2      -10.657776   1.000000
    3      -10.641549   1.000000
    4      -10.570005   1.000000
    5      -10.547993   1.000000
    6      -10.546331   1.000000
    7       -7.185433   1.000000
    8       -6.703702   1.000000
    9       -6.678829   1.000000
   10        0.583085   1.000000
   11        5.669143   1.000000
   12        6.370253   1.000000
   13        6.649935   1.000000
   14        7.444413   1.000000
   15        7.751277   1.000000
   16        8.367384   1.000000
   17       10.716767   1.000000
   18       10.863447   1.000000
   19       11.890494   1.000000
   20       12.742678   0.000000
   21       12.744206   0.000000
   22       13.083469   0.000000
   23       13.238530   0.000000
   24       13.370846   0.000000

  0.4615385E+00  0.7692308E-01  0.3352210E-17  0.1092399E-01
    1      -31.275997   1.000000
    2      -10.661324   1.000000
    3      -10.655290   1.000000
    4      -10.574206   1.000000
    5      -10.546950   1.000000
    6      -10.545465   1.000000
    7       -7.232883   1.000000
    8       -6.670564   1.000000
    9       -6.668276   1.000000
   10        0.812566   1.000000
   11        5.574710   1.000000
   12        6.381912   1.000000
   13        6.557481   1.000000
   14        7.373519   1.000000
   15        7.566200   1.000000
   16        8.107346   1.000000
   17       10.770925   1.000000
   18       10.917962   1.000000
   19       11.966390   1.000000
   20       12.816200   0.000000
   21       12.819335   0.000000
   22       13.077109   0.000000
   23       13.210997   0.000000
   24       13.299937   0.000000

 -0.4615385E+00  0.7692308E-01  0.1513011E-16  0.1092399E-01
    1      -31.275486   1.000000
    2      -10.663349   1.000000
    3      -10.658202   1.000000
    4      -10.575345   1.000000
    5      -10.546494   1.000000
    6      -10.545480   1.000000
    7       -7.244413   1.000000
    8       -6.676312   1.000000
    9       -6.650866   1.000000
   10        0.874149   1.000000
   11        5.553074   1.000000
   12        6.427870   1.000000
   13        6.486443   1.000000
   14        7.422822   1.000000
   15        7.447563   1.000000
   16        8.042630   1.000000
   17       10.788719   1.000000
   18       10.925317   1.000000
   19       11.999741   1.000000
   20       12.826992   0.000000
   21       12.865687   0.000000
   22       13.063229   0.000000
   23       13.219738   0.000000
   24       13.235337   0.000000

 -0.3846154E+00  0.7692308E-01 -0.1296507E-16  0.1092399E-01
    1      -31.276498   1.000000
    2      -10.664084   1.000000
    3      -10.649062   1.000000
    4      -10.572874   1.000000
    5      -10.546744   1.000000
    6      -10.546311   1.000000
    7       -7.220021   1.000000
    8       -6.700831   1.000000
    9       -6.648985   1.000000
   10        0.760443   1.000000
   11        5.604813   1.000000
   12        6.311471   1.000000
   13        6.612847   1.000000
   14        7.395303   1.000000
   15        7.627758   1.000000
   16        8.177858   1.000000
   17       10.737622   1.000000
   18       10.896476   1.000000
   19       11.951810   1.000000
   20       12.773345   0.000000
   21       12.819003   0.000000
   22       13.071342   0.000000
   23       13.262009   0.000000
   24       13.284149   0.000000

 -0.3076923E+00  0.7692308E-01 -0.7145186E-17  0.1092399E-01
    1      -31.278799   1.000000
    2      -10.657347   1.000000
    3      -10.635698   1.000000
    4      -10.567918   1.000000
    5      -10.547757   1.000000
    6      -10.547699   1.000000
    7       -7.160817   1.000000
    8       -6.736123   1.000000
    9       -6.665465   1.000000
   10        0.482890   1.000000
   11        5.766301   1.000000
   12        6.264704   1.000000
   13        6.733355   1.000000
   14        7.484247   1.000000
   15        7.827743   1.000000
   16        8.496701   1.000000
   17       10.629456   1.000000
   18       10.870839   1.000000
   19       11.882109   1.000000
   20       12.710476   0.000022
   21       12.727029   0.000000
   22       13.077163   0.000000
   23       13.259720   0.000000
   24       13.339168   0.000000

 -0.2307692E+00  0.7692308E-01  0.8201597E-17  0.1092399E-01
    1      -31.281865   1.000000
    2      -10.644508   1.000000
    3      -10.620881   1.000000
    4      -10.562465   1.000000
    5      -10.549457   1.000000
    6      -10.549164   1.000000
    7       -7.072138   1.000000
    8       -6.773898   1.000000
    9       -6.696802   1.000000
   10        0.091442   1.000000
   11        6.050674   1.000000
   12        6.314992   1.000000
   13        6.890036   1.000000
   14        7.582922   1.000000
   15        7.957188   1.000000
   16        8.979111   1.000000
   17       10.528068   1.000000
   18       10.899386   1.000000
   19       11.851114   1.000000
   20       12.633324   1.000000
   21       12.662333   0.996760
   22       13.074006   0.000000
   23       13.176580   0.000000
   24       13.386229   0.000000

 -0.1538462E+00  0.7692308E-01  0.1436896E-18  0.1092399E-01
    1      -31.284998   1.000000
    2      -10.628300   1.000000
    3      -10.608033   1.000000
    4      -10.558067   1.000000
    5      -10.551049   1.000000
    6      -10.550813   1.000000
    7       -6.969359   1.000000
    8       -6.804371   1.000000
    9       -6.736018   1.000000
   10       -0.323571   1.000000
   11        6.407784   1.000000
   12        6.467006   1.000000
   13        7.113300   1.000000
   14        7.570801   1.000000
   15        7.950715   1.000000
   16        9.588178   1.000000
   17       10.536363   1.000000
   18       11.002515   1.000000
   19       11.867318   1.000000
   20       12.549580   1.000000
   21       12.626141   1.000000
   22       13.032569   0.000000
   23       13.067282   0.000000
   24       13.329598   0.000000

 -0.7692308E-01  0.7692308E-01 -0.4421912E-17  0.5461994E-02
    1      -31.287476   1.000000
    2      -10.612303   1.000000
    3      -10.600473   1.000000
    4      -10.555286   1.000000
    5      -10.552240   1.000000
    6      -10.552180   1.000000
    7       -6.883235   1.000000
    8       -6.815381   1.000000
    9       -6.774073   1.000000
   10       -0.660150   1.000000
   11        6.707355   1.000000
   12        6.767534   1.000000
   13        7.303888   1.000000
   14        7.458759   1.000000
   15        7.805746   1.000000
   16       10.191873   1.000000
   17       10.770057   1.000000
   18       11.117826   1.000000
   19       11.867842   1.000000
   20       12.495158   1.000000
   21       12.581398   1.000000
   22       12.800928   0.000000
   23       13.058602   0.000000
   24       13.201372   0.000000

  0.1538462E+00  0.1538462E+00  0.1346517E-17  0.2730997E-02
    1      -31.285607   1.000000
    2      -10.630205   1.000000
    3      -10.592430   1.000000
    4      -10.557826   1.000000
    5      -10.550972   1.000000
    6      -10.550972   1.000000
    7       -6.878647   1.000000
    8       -6.817674   1.000000
    9       -6.817674   1.000000
   10       -0.428922   1.000000
   11        6.005603   1.000000
   12        7.299519   1.000000
   13        7.299519   1.000000
   14        7.358667   1.000000
   15        7.720415   1.000000
   16       10.021480   1.000000
   17       10.701303   1.000000
   18       10.701303   1.000000
   19       11.856527   1.000000
   20       12.653436   0.999966
   21       12.653436   0.999966
   22       12.795041   0.000000
   23       13.108476   0.000000
   24       13.332258   0.000000

  0.2307692E+00  0.1538462E+00  0.6073386E-17  0.1092399E-01
    1      -31.283352   1.000000
    2      -10.640491   1.000000
    3      -10.595296   1.000000
    4      -10.560578   1.000000
    5      -10.549890   1.000000
    6      -10.549332   1.000000
    7       -6.954898   1.000000
    8       -6.810707   1.000000
    9       -6.788323   1.000000
   10       -0.162445   1.000000
   11        5.736635   1.000000
   12        7.096394   1.000000
   13        7.141760   1.000000
   14        7.479059   1.000000
   15        7.795394   1.000000
   16        9.668364   1.000000
   17       10.538504   1.000000
   18       10.631860   1.000000
   19       11.900376   1.000000
   20       12.623048   1.000000
   21       12.679109   0.636823
   22       12.973739   0.000000
   23       13.126781   0.000000
   24       13.424844   0.000000

  0.3076923E+00  0.1538462E+00  0.3620784E-17  0.1092399E-01
    1      -31.280510   1.000000
    2      -10.648176   1.000000
    3      -10.606158   1.000000
    4      -10.563982   1.000000
    5      -10.549188   1.000000
    6      -10.547215   1.000000
    7       -7.052709   1.000000
    8       -6.785943   1.000000
    9       -6.751216   1.000000
   10        0.154448   1.000000
   11        5.603222   1.000000
   12        6.766988   1.000000
   13        6.997331   1.000000
   14        7.476633   1.000000
   15        7.877840   1.000000
   16        9.188155   1.000000
   17       10.394527   1.000000
   18       10.670691   1.000000
   19       11.970196   1.000000
   20       12.645025   1.000000
   21       12.706577   0.000204
   22       13.092682   0.000000
   23       13.128962   0.000000
   24       13.451697   0.000000

  0.3846154E+00  0.1538462E+00  0.9440665E-17  0.1092399E-01
    1      -31.277735   1.000000
    2      -10.651614   1.000000
    3      -10.621994   1.000000
    4      -10.567750   1.000000
    5      -10.548845   1.000000
    6      -10.545438   1.000000
    7       -7.134637   1.000000
    8       -6.749270   1.000000
    9       -6.728373   1.000000
   10        0.437283   1.000000
   11        5.617104   1.000000
   12        6.510097   1.000000
   13        6.856473   1.000000
   14        7.412996   1.000000
   15        7.859749   1.000000
   16        8.718098   1.000000
   17       10.351075   1.000000
   18       10.757461   1.000000
   19       12.002844   1.000000
   20       12.721150   0.000000
   21       12.751789   0.000000
   22       13.121856   0.000000
   23       13.144429   0.000000
   24       13.422076   0.000000

  0.4615385E+00  0.1538462E+00  0.1090966E-16  0.1092399E-01
    1      -31.275662   1.000000
    2      -10.650282   1.000000
    3      -10.639005   1.000000
    4      -10.570953   1.000000
    5      -10.548667   1.000000
    6      -10.544474   1.000000
    7       -7.186679   1.000000
    8       -6.725197   1.000000
    9       -6.709063   1.000000
   10        0.631034   1.000000
   11        5.726099   1.000000
   12        6.391753   1.000000
   13        6.667226   1.000000
   14        7.420925   1.000000
   15        7.747714   1.000000
   16        8.365331   1.000000
   17       10.368169   1.000000
   18       10.814879   1.000000
   19       12.049008   1.000000
   20       12.786567   0.000000
   21       12.819410   0.000000
   22       13.101839   0.000000
   23       13.170712   0.000000
   24       13.388178   0.000000

 -0.4615385E+00  0.1538462E+00 -0.1471980E-16  0.1092399E-01
    1      -31.274763   1.000000
    2      -10.653449   1.000000
    3      -10.644837   1.000000
    4      -10.572093   1.000000
    5      -10.548616   1.000000
    6      -10.544467   1.000000
    7       -7.204880   1.000000
    8       -6.741274   1.000000
    9       -6.674271   1.000000
   10        0.721729   1.000000
   11        5.800951   1.000000
   12        6.431389   1.000000
   13        6.448828   1.000000
   14        7.540000   1.000000
   15        7.593852   1.000000
   16        8.217883   1.000000
   17       10.374532   1.000000
   18       10.814301   1.000000
   19       12.097278   1.000000
   20       12.792386   0.000000
   21       12.893961   0.000000
   22       13.060066   0.000000
   23       13.216720   0.000000
   24       13.317015   0.000000

 -0.3846154E+00  0.1538462E+00  0.1631336E-16  0.1092399E-01
    1      -31.275239   1.000000
    2      -10.662319   1.000000
    3      -10.636581   1.000000
    4      -10.570376   1.000000
    5      -10.548725   1.000000
    6      -10.545308   1.000000
    7       -7.190350   1.000000
    8       -6.771192   1.000000
    9       -6.652620   1.000000
   10        0.707780   1.000000
   11        5.769906   1.000000
   12        6.263437   1.000000
   13        6.593040   1.000000
   14        7.473070   1.000000
   15        7.728733   1.000000
   16        8.313975   1.000000
   17       10.310199   1.000000
   18       10.778411   1.000000
   19       12.099023   1.000000
   20       12.751989   0.000000
   21       12.906059   0.000000
   22       13.038602   0.000000
   23       13.261357   0.000000
   24       13.280168   0.000000

 -0.3076923E+00  0.1538462E+00  0.6446861E-17  0.1092399E-01
    1      -31.276984   1.000000
    2      -10.663795   1.000000
    3      -10.626870   1.000000
    4      -10.566714   1.000000
    5      -10.549004   1.000000
    6      -10.546747   1.000000
    7       -7.146747   1.000000
    8       -6.805560   1.000000
    9       -6.649054   1.000000
   10        0.574783   1.000000
   11        5.731022   1.000000
   12        6.156384   1.000000
   13        6.807850   1.000000
   14        7.425945   1.000000
   15        7.923285   1.000000
   16        8.609540   1.000000
   17       10.164814   1.000000
   18       10.756633   1.000000
   19       12.059595   1.000000
   20       12.711789   0.000010
   21       12.820950   0.000000
   22       13.068989   0.000000
   23       13.245540   0.000000
   24       13.300914   0.000000

 -0.2307692E+00  0.1538462E+00 -0.5961933E-17  0.1092399E-01
    1      -31.279600   1.000000
    2      -10.657557   1.000000
    3      -10.617335   1.000000
    4      -10.562944   1.000000
    5      -10.549418   1.000000
    6      -10.548414   1.000000
    7       -7.082407   1.000000
    8       -6.831696   1.000000
    9       -6.664600   1.000000
   10        0.319376   1.000000
   11        5.814301   1.000000
   12        6.152250   1.000000
   13        7.038563   1.000000
   14        7.421914   1.000000
   15        8.051088   1.000000
   16        9.030437   1.000000
   17       10.004825   1.000000
   18       10.797551   1.000000
   19       12.014141   1.000000
   20       12.686993   0.222164
   21       12.716088   0.000001
   22       13.083634   0.000000
   23       13.196951   0.000000
   24       13.344544   0.000000

 -0.1538462E+00  0.1538462E+00 -0.6176648E-17  0.5461994E-02
    1      -31.282494   1.000000
    2      -10.644829   1.000000
    3      -10.610265   1.000000
    4      -10.560116   1.000000
    5      -10.550024   1.000000
    6      -10.549943   1.000000
    7       -7.016147   1.000000
    8       -6.833615   1.000000
    9       -6.695953   1.000000
   10       -0.010458   1.000000
   11        6.057382   1.000000
   12        6.258651   1.000000
   13        7.252261   1.000000
   14        7.390950   1.000000
   15        8.060108   1.000000
   16        9.419982   1.000000
   17       10.052345   1.000000
   18       10.905142   1.000000
   19       11.966131   1.000000
   20       12.615602   1.000000
   21       12.666745   0.982070
   22       13.080834   0.000000
   23       13.124628   0.000000
   24       13.363052   0.000000

  0.2307692E+00  0.2307692E+00  0.2019776E-17  0.2730997E-02
    1      -31.281692   1.000000
    2      -10.643573   1.000000
    3      -10.588610   1.000000
    4      -10.563228   1.000000
    5      -10.548149   1.000000
    6      -10.548149   1.000000
    7       -6.948849   1.000000
    8       -6.824643   1.000000
    9       -6.824643   1.000000
   10       -0.032252   1.000000
   11        5.526779   1.000000
   12        7.247623   1.000000
   13        7.247623   1.000000
   14        7.413560   1.000000
   15        7.575373   1.000000
   16        9.650979   1.000000
   17       10.573495   1.000000
   18       10.573495   1.000000
   19       11.824108   1.000000
   20       12.704115   0.000720
   21       12.704115   0.000720
   22       12.927238   0.000000
   23       13.186020   0.000000
   24       13.505752   0.000000

  0.3076923E+00  0.2307692E+00  0.5923050E-17  0.1092399E-01
    1      -31.279390   1.000000
    2      -10.642961   1.000000
    3      -10.591354   1.000000
    4      -10.566138   1.000000
    5      -10.546979   1.000000
    6      -10.546180   1.000000
    7       -7.015365   1.000000
    8       -6.818348   1.000000
    9       -6.808279   1.000000
   10        0.139137   1.000000
   11        5.498094   1.000000
   12        6.998808   1.000000
   13        7.144649   1.000000
   14        7.443154   1.000000
   15        7.632374   1.000000
   16        9.420916   1.000000
   17       10.445910   1.000000
   18       10.624292   1.000000
   19       11.949716   1.000000
   20       12.684049   0.363716
   21       12.726941   0.000000
   22       12.989150   0.000000
   23       13.212802   0.000000
   24       13.534445   0.000000

  0.3846154E+00  0.2307692E+00  0.4804037E-17  0.1092399E-01
    1      -31.276978   1.000000
    2      -10.638853   1.000000
    3      -10.602428   1.000000
    4      -10.568559   1.000000
    5      -10.547033   1.000000
    6      -10.544220   1.000000
    7       -7.087846   1.000000
    8       -6.793522   1.000000
    9       -6.792175   1.000000
   10        0.296822   1.000000
   11        5.652433   1.000000
   12        6.697555   1.000000
   13        6.985425   1.000000
   14        7.446801   1.000000
   15        7.732544   1.000000
   16        9.077386   1.000000
   17       10.237668   1.000000
   18       10.718823   1.000000
   19       12.090361   1.000000
   20       12.694057   0.038866
   21       12.761861   0.000000
   22       13.048665   0.000000
   23       13.205870   0.000000
   24       13.489610   0.000000

  0.4615385E+00  0.2307692E+00  0.6273032E-17  0.1092399E-01
    1      -31.275005   1.000000
    2      -10.632535   1.000000
    3      -10.618732   1.000000
    4      -10.569854   1.000000
    5      -10.548270   1.000000
    6      -10.543091   1.000000
    7       -7.135048   1.000000
    8       -6.797139   1.000000
    9       -6.755959   1.000000
   10        0.416023   1.000000
   11        5.918654   1.000000
   12        6.511240   1.000000
   13        6.766194   1.000000
   14        7.499274   1.000000
   15        7.755001   1.000000
   16        8.713000   1.000000
   17       10.090830   1.000000
   18       10.767421   1.000000
   19       12.147815   1.000000
   20       12.740427   0.000000
   21       12.816784   0.000000
   22       13.107766   0.000000
   23       13.174471   0.000000
   24       13.423835   0.000000

 -0.4615385E+00  0.2307692E+00  0.2046834E-16  0.1092399E-01
    1      -31.273920   1.000000
    2      -10.636473   1.000000
    3      -10.626096   1.000000
    4      -10.569116   1.000000
    5      -10.550151   1.000000
    6      -10.543000   1.000000
    7       -7.149857   1.000000
    8       -6.823067   1.000000
    9       -6.714129   1.000000
   10        0.501759   1.000000
   11        6.143180   1.000000
   12        6.452620   1.000000
   13        6.521657   1.000000
   14        7.623826   1.000000
   15        7.681929   1.000000
   16        8.490328   1.000000
   17        9.986935   1.000000
   18       10.740861   1.000000
   19       12.190427   1.000000
   20       12.738468   0.000000
   21       12.885958   0.000000
   22       13.119177   0.000000
   23       13.196794   0.000000
   24       13.365903   0.000000

 -0.3846154E+00  0.2307692E+00  0.8059545E-17  0.1092399E-01
    1      -31.273971   1.000000
    2      -10.651816   1.000000
    3      -10.621305   1.000000
    4      -10.566181   1.000000
    5      -10.551903   1.000000
    6      -10.543827   1.000000
    7       -7.136224   1.000000
    8       -6.859919   1.000000
    9       -6.677338   1.000000
   10        0.560052   1.000000
   11        6.149193   1.000000
   12        6.303624   1.000000
   13        6.499224   1.000000
   14        7.569737   1.000000
   15        7.793267   1.000000
   16        8.544521   1.000000
   17        9.872376   1.000000
   18       10.676914   1.000000
   19       12.221568   1.000000
   20       12.692364   0.063697
   21       12.947155   0.000000
   22       13.049862   0.000000