 vasp.6.0.8 29Jun18 (build Jun 13 2019 12:54:44) complex

 executed on      IFC18_CrayMPICH date 2021.12.05  14:21:48
 running   64 mpi-ranks, with    1 threads/rank
 distrk:  each k-point on   16 cores,    4 groups
 distr:  one band on NCORES_PER_BAND=   4 cores,    4 groups


--------------------------------------------------------------------------------------------------------


 INCAR:
 POTCAR:    PAW_PBE U 06Sep2000
 POTCAR:    PAW_PBE Bi_d 06Sep2000
 POTCAR:    PAW_PBE Pt 04Feb2005
 POTCAR:    PAW_PBE U 06Sep2000
   VRHFIN =U:  [Xe,5d,4f]
   LEXCH  = PE
   EATOM  =  1405.3058 eV,  103.2871 Ry

   TITEL  = PAW_PBE U 06Sep2000
   LULTRA =        F    use ultrasoft PP ?
   IUNSCR =        1    unscreen: 0-lin 1-nonlin 2-no
   RPACOR =    2.200    partial core radius
   POMASS =  238.029; ZVAL   =   14.000    mass and valenz
   RCORE  =    2.800    outmost cutoff radius
   RWIGS  =    3.000; RWIGS  =    1.588    wigner-seitz radius (au A)
   ENMAX  =  252.502; ENMIN  =  189.376 eV
   RCLOC  =    1.811    cutoff for local pot
   LCOR   =        T    correct aug charges
   LPAW   =        T    paw PP
   EAUG   =  526.410
   DEXC   =    0.000
   RMAX   =    2.863    core radius for proj-oper
   RAUG   =    1.300    factor for augmentation sphere
   RDEP   =    2.950    radius for radial grids
   RDEPT  =    2.270    core radius for aug-charge

   Atomic configuration
   18 entries
     n  l   j            E        occ.
     1  0  0.50   -116038.1941   2.0000
     2  0  0.50    -21694.8835   2.0000
     2  1  1.50    -18009.1553   6.0000
     3  0  0.50     -5481.2929   2.0000
     3  1  1.50     -4458.9283   6.0000
     3  2  2.50     -3575.9978  10.0000
     4  0  0.50     -1400.5351   2.0000
     4  1  1.50     -1066.7807   6.0000
     4  2  2.50      -732.1336  10.0000
     4  3  3.50      -377.4393  14.0000
     5  0  0.50      -314.7366   2.0000
     5  1  1.50      -211.6057   6.0000
     5  2  2.50      -103.2045  10.0000
     6  0  0.50       -50.6026   2.0000
     7  0  0.50        -4.5896   2.0000
     6  1  1.50       -25.2884   6.0000
     6  2  1.50        -3.1039   2.0000
     5  3  2.50        -6.3670   2.0000
   Description
     l       E           TYP  RCUT    TYP  RCUT
     0    -50.6026097     23  2.600
     0     -4.5896371     23  2.600
     1    -25.2883770     23  2.500
     1     27.2116520     23  2.500
     2     -3.1038686     23  2.500
     2      0.8290654     23  2.500
     3     -6.3670133     23  2.800
     3     -7.7275959     23  2.800
  local pseudopotential read in
  partial core-charges read in
  partial kinetic energy density read in
  atomic valenz-charges read in
  non local Contribution for L=           0  read in
    real space projection operators read in
  non local Contribution for L=           0  read in
    real space projection operators read in
  non local Contribution for L=           1  read in
    real space projection operators read in
  non local Contribution for L=           1  read in
    real space projection operators read in
  non local Contribution for L=           2  read in
    real space projection operators read in
  non local Contribution for L=           2  read in
    real space projection operators read in
  non local Contribution for L=           3  read in
    real space projection operators read in
  non local Contribution for L=           3  read in
    real space projection operators read in
    PAW grid and wavefunctions read in

   number of l-projection  operators is LMAX  =           8
   number of lm-projection operators is LMMAX =          32

 POTCAR:    PAW_PBE Bi_d 06Sep2000
   VRHFIN =Bi:
   LEXCH  = PE
   EATOM  =  1959.2045 eV,  143.9975 Ry

   TITEL  = PAW_PBE Bi_d 06Sep2000
   LULTRA =        F    use ultrasoft PP ?
   IUNSCR =        1    unscreen: 0-lin 1-nonlin 2-no
   RPACOR =    2.200    partial core radius
   POMASS =  208.980; ZVAL   =   15.000    mass and valenz
   RCORE  =    2.500    outmost cutoff radius
   RWIGS  =    3.090; RWIGS  =    1.635    wigner-seitz radius (au A)
   ENMAX  =  242.839; ENMIN  =  182.129 eV
   ICORE  =        3    local potential
   LCOR   =        T    correct aug charges
   LPAW   =        T    paw PP
   EAUG   =  442.899
   DEXC   =    0.000
   RMAX   =    2.551    core radius for proj-oper
   RAUG   =    1.300    factor for augmentation sphere
   RDEP   =    2.650    radius for radial grids
   RDEPT  =    2.039    core radius for aug-charge

   Atomic configuration
   16 entries
     n  l   j            E        occ.
     1  0  0.50    -90639.6581   2.0000
     2  0  0.50    -16282.4666   2.0000
     2  1  1.50    -13922.8286   6.0000
     3  0  0.50     -3930.4763   2.0000
     3  1  1.50     -3256.7013   6.0000
     3  2  2.50     -2581.6168  10.0000
     4  0  0.50      -902.2614   2.0000
     4  1  1.50      -681.5915   6.0000
     4  2  2.50      -429.8249  10.0000
     4  3  3.50      -152.6004  14.0000
     5  0  0.50      -157.7156   2.0000
     5  1  1.50       -95.8054   6.0000
     5  2  2.50       -27.0806  10.0000
     6  0  0.50       -14.4732   2.0000
     6  1  1.50        -4.5702   3.0000
     5  3  2.50        -2.7212   0.0000
   Description
     l       E           TYP  RCUT    TYP  RCUT
     2    -27.0805982     23  2.500
     2     -1.3605826     23  2.500
     0    -14.4732271     23  2.500
     0      6.8029130     23  2.500
     1     -4.5701651     23  2.500
     1     13.6058260     23  2.500
     3     -1.3605826      7  2.500
  local pseudopotential read in
  partial core-charges read in
  partial kinetic energy density read in
  atomic valenz-charges read in
  non local Contribution for L=           2  read in
    real space projection operators read in
  non local Contribution for L=           2  read in
    real space projection operators read in
  non local Contribution for L=           0  read in
    real space projection operators read in
  non local Contribution for L=           0  read in
    real space projection operators read in
  non local Contribution for L=           1  read in
    real space projection operators read in
  non local Contribution for L=           1  read in
    real space projection operators read in
    PAW grid and wavefunctions read in

   number of l-projection  operators is LMAX  =           6
   number of lm-projection operators is LMMAX =          18

 POTCAR:    PAW_PBE Pt 04Feb2005
   VRHFIN =Pt: s1d9
   LEXCH  = PE
   EATOM  =   729.1176 eV,   53.5886 Ry

   TITEL  = PAW_PBE Pt 04Feb2005
   LULTRA =        F    use ultrasoft PP ?
   IUNSCR =        1    unscreen: 0-lin 1-nonlin 2-no
   RPACOR =    2.330    partial core radius
   POMASS =  195.080; ZVAL   =   10.000    mass and valenz
   RCORE  =    2.600    outmost cutoff radius
   RWIGS  =    2.750; RWIGS  =    1.455    wigner-seitz radius (au A)
   ENMAX  =  230.283; ENMIN  =  172.712 eV
   ICORE  =        3    local potential
   LCOR   =        T    correct aug charges
   LPAW   =        T    paw PP
   EAUG   =  358.966
   DEXC   =    0.000
   RMAX   =    2.658    core radius for proj-oper
   RAUG   =    1.300    factor for augmentation sphere
   RDEP   =    2.761    radius for radial grids
   RDEPT  =    2.203    core radius for aug-charge

   Atomic configuration
   16 entries
     n  l   j            E        occ.
     1  0  0.50    -78401.1885   2.0000
     2  0  0.50    -13770.7750   2.0000
     2  1  1.50    -11931.0468   6.0000
     3  0  0.50     -3234.7234   2.0000
     3  1  1.50     -2699.2216   6.0000
     3  2  2.50     -2119.5714  10.0000
     4  0  0.50      -695.1528   2.0000
     4  1  1.50      -519.6034   6.0000
     4  2  2.50      -306.6786  10.0000
     4  3  3.50       -70.1041  14.0000
     5  0  0.50      -101.7747   2.0000
     5  1  1.50       -55.9873   6.0000
     5  2  2.50        -6.1423   9.0000
     6  0  0.50        -5.6573   1.0000
     6  1  1.50        -6.8029   0.0000
     5  3  2.50        -1.3606   0.0000
   Description
     l       E           TYP  RCUT    TYP  RCUT
     2     -6.1423404     23  2.500
     2     -7.5029230     23  2.500
     0     -5.6573207     23  2.500
     0      0.7416693     23  2.500
     1     -2.7211652     23  2.600
     1     20.4087390     23  2.600
     3     -1.3605826     23  2.500
  local pseudopotential read in
  partial core-charges read in
  partial kinetic energy density read in
  atomic valenz-charges read in
  non local Contribution for L=           2  read in
    real space projection operators read in
  non local Contribution for L=           2  read in
    real space projection operators read in
  non local Contribution for L=           0  read in
    real space projection operators read in
  non local Contribution for L=           0  read in
    real space projection operators read in
  non local Contribution for L=           1  read in
    real space projection operators read in
  non local Contribution for L=           1  read in
    real space projection operators read in
    PAW grid and wavefunctions read in

   number of l-projection  operators is LMAX  =           6
   number of lm-projection operators is LMMAX =          18

 WARNING: PSMAXN for non-local potential too small
          PSMAXN should be >   13.5545592237991       NTYP=           1

 -----------------------------------------------------------------------------
|                                                                             |
|  ADVICE TO THIS USER RUNNING 'VASP/VAMP'   (HEAR YOUR MASTER'S VOICE ...):  |
|                                                                             |
|      You enforced a specific xc-type in the INCAR file,                     |
|      a different type was found on the POTCAR file                          |
|          I HOPE YOU KNOW, WHAT YOU ARE  DOING                               |
|                                                                             |
 -----------------------------------------------------------------------------

  PAW_PBE U 06Sep2000                   :
 energy of atom  1       EATOM=-1405.3058
 kinetic energy error for atom=    0.0006 (will be added to EATOM!!)
  PAW_PBE Bi_d 06Sep2000                :
 energy of atom  2       EATOM=-1959.2045
 kinetic energy error for atom=    0.0012 (will be added to EATOM!!)
  PAW_PBE Pt 04Feb2005                  :
 energy of atom  3       EATOM= -729.1176
 kinetic energy error for atom=    0.0010 (will be added to EATOM!!)


 POSCAR: U1 Bi1 Pt1
  positions in direct lattice
  No initial velocities read in
 exchange correlation table for  LEXCH =       14
   RHO(1)=    0.500       N(1)  =     2000
   RHO(2)=  100.500       N(2)  =     4000



--------------------------------------------------------------------------------------------------------


 ion  position               nearest neighbor table
   1  0.250  0.250  0.250-   3 2.71   3 2.71   3 2.71   3 2.71   2 3.13   2 3.13   2 3.13   2 3.13
                             2 3.13   2 3.13
   2  0.750  0.750  0.750-   3 2.71   3 2.71   3 2.71   3 2.71   1 3.13   1 3.13   1 3.13   1 3.13
                             1 3.13   1 3.13
   3  0.000  0.000  0.000-   2 2.71   2 2.71   1 2.71   1 2.71   2 2.71   1 2.71   2 2.71   1 2.71


  LATTYP: Found a face centered cubic cell.
 ALAT       =     6.2606459898

  Lattice vectors:

 A1 = (   0.0000000000,   3.1303229949,   3.1303229949)
 A2 = (   3.1303229949,   0.0000000000,   3.1303229949)
 A3 = (   3.1303229949,   3.1303229949,   0.0000000000)


Analysis of symmetry for initial positions (statically):
=====================================================================
 Subroutine PRICEL returns:
 Original cell was already a primitive cell.


 Routine SETGRP: Setting up the symmetry group for a
 face centered cubic supercell.


 Subroutine GETGRP returns: Found 24 space group operations
 (whereof 24 operations were pure point group operations)
 out of a pool of 48 trial point group operations.


The static configuration has the point symmetry T_d .


Analysis of symmetry for dynamics (positions and initial velocities):
=====================================================================
 Subroutine PRICEL returns:
 Original cell was already a primitive cell.


 Routine SETGRP: Setting up the symmetry group for a
 face centered cubic supercell.


 Subroutine GETGRP returns: Found 24 space group operations
 (whereof 24 operations were pure point group operations)
 out of a pool of 48 trial point group operations.


The dynamic configuration has the point symmetry T_d .


 Subroutine INISYM returns: Found 24 space group operations
 (whereof 24 operations are pure point group operations),
 and found     1 'primitive' translations


----------------------------------------------------------------------------------------

                                     Primitive cell

  volume of cell :      61.3476

  direct lattice vectors                    reciprocal lattice vectors
     0.000000000  3.130322995  3.130322995    -0.159727926  0.159727926  0.159727926
     3.130322995  0.000000000  3.130322995     0.159727926 -0.159727926  0.159727926
     3.130322995  3.130322995  0.000000000     0.159727926  0.159727926 -0.159727926

  length of vectors
     4.426945234  4.426945234  4.426945234     0.276656883  0.276656883  0.276656883

  position of ions in fractional coordinates (direct lattice)
     0.250000000  0.250000000  0.250000000
     0.750000000  0.750000000  0.750000000
     0.000000000  0.000000000  0.000000000

  ion indices of the primitive-cell ions
   primitive index   ion index
                 1           1
                 2           2
                 3           3

----------------------------------------------------------------------------------------



 KPOINTS: KPOINTS

Automatic generation of k-mesh.
Space group operators:
 irot       det(A)        alpha          n_x          n_y          n_z        tau_x        tau_y        tau_z
    1     1.000000     0.000000     1.000000     0.000000     0.000000     0.000000     0.000000     0.000000
    2     1.000000   120.000000    -0.577350    -0.577350    -0.577350     0.000000     0.000000     0.000000
    3     1.000000   120.000000     0.577350     0.577350     0.577350     0.000000     0.000000     0.000000
    4    -1.000000    90.000000     0.000000     0.000000    -1.000000     0.000000     0.000000     0.000000
    5    -1.000000   180.000000    -0.000000     0.707107     0.707107     0.000000     0.000000     0.000000
    6    -1.000000    90.000000     0.000000     1.000000     0.000000     0.000000     0.000000     0.000000
    7     1.000000   180.000000     0.000000    -0.000000    -1.000000     0.000000     0.000000     0.000000
    8     1.000000   120.000000    -0.577350     0.577350     0.577350     0.000000     0.000000     0.000000
    9     1.000000   120.000000    -0.577350     0.577350    -0.577350     0.000000     0.000000     0.000000
   10    -1.000000    90.000000     0.000000     0.000000     1.000000     0.000000     0.000000     0.000000
   11    -1.000000    90.000000    -1.000000    -0.000000    -0.000000     0.000000     0.000000     0.000000
   12    -1.000000   180.000000     0.707107     0.000000     0.707107     0.000000     0.000000     0.000000
   13     1.000000   120.000000     0.577350    -0.577350     0.577350     0.000000     0.000000     0.000000
   14     1.000000   120.000000    -0.577350    -0.577350     0.577350     0.000000     0.000000     0.000000
   15     1.000000   180.000000     1.000000     0.000000     0.000000     0.000000     0.000000     0.000000
   16    -1.000000    90.000000     0.000000    -1.000000     0.000000     0.000000     0.000000     0.000000
   17    -1.000000   180.000000     0.707107     0.707107     0.000000     0.000000     0.000000     0.000000
   18    -1.000000    90.000000     1.000000     0.000000    -0.000000     0.000000     0.000000     0.000000
   19     1.000000   120.000000     0.577350    -0.577350    -0.577350     0.000000     0.000000     0.000000
   20     1.000000   180.000000     0.000000    -1.000000    -0.000000     0.000000     0.000000     0.000000
   21     1.000000   120.000000     0.577350     0.577350    -0.577350     0.000000     0.000000     0.000000
   22    -1.000000   180.000000     0.000000    -0.707107     0.707107     0.000000     0.000000     0.000000
   23    -1.000000   180.000000     0.707107    -0.707107    -0.000000     0.000000     0.000000     0.000000
   24    -1.000000   180.000000    -0.707107     0.000000     0.707107     0.000000     0.000000     0.000000

 Subroutine IBZKPT returns following result:
 ===========================================

 Found     84 irreducible k-points:

 Following reciprocal coordinates:
            Coordinates               Weight
  0.000000  0.000000  0.000000      1.000000
  0.076923 -0.000000  0.000000      8.000000
  0.153846 -0.000000  0.000000      8.000000
  0.230769  0.000000  0.000000      8.000000
  0.307692 -0.000000  0.000000      8.000000
  0.384615  0.000000  0.000000      8.000000
  0.461538  0.000000 -0.000000      8.000000
  0.076923  0.076923  0.000000      6.000000
  0.153846  0.076923  0.000000     24.000000
  0.230769  0.076923  0.000000     24.000000
  0.307692  0.076923 -0.000000     24.000000
  0.384615  0.076923  0.000000     24.000000
  0.461538  0.076923  0.000000     24.000000
 -0.461538  0.076923  0.000000     24.000000
 -0.384615  0.076923 -0.000000     24.000000
 -0.307692  0.076923 -0.000000     24.000000
 -0.230769  0.076923  0.000000     24.000000
 -0.153846  0.076923  0.000000     24.000000
 -0.076923  0.076923 -0.000000     12.000000
  0.153846  0.153846  0.000000      6.000000
  0.230769  0.153846  0.000000     24.000000
  0.307692  0.153846  0.000000     24.000000
  0.384615  0.153846  0.000000     24.000000
  0.461538  0.153846  0.000000     24.000000
 -0.461538  0.153846 -0.000000     24.000000
 -0.384615  0.153846  0.000000     24.000000
 -0.307692  0.153846  0.000000     24.000000
 -0.230769  0.153846 -0.000000     24.000000
 -0.153846  0.153846 -0.000000     12.000000
  0.230769  0.230769  0.000000      6.000000
  0.307692  0.230769  0.000000     24.000000
  0.384615  0.230769  0.000000     24.000000
  0.461538  0.230769  0.000000     24.000000
 -0.461538  0.230769  0.000000     24.000000
 -0.384615  0.230769  0.000000     24.000000
 -0.307692  0.230769 -0.000000     24.000000
 -0.230769  0.230769  0.000000     12.000000
  0.307692  0.307692  0.000000      6.000000
  0.384615  0.307692  0.000000     24.000000
  0.461538  0.307692  0.000000     24.000000
 -0.461538  0.307692 -0.000000     24.000000
 -0.384615  0.307692  0.000000     24.000000
 -0.307692  0.307692 -0.000000     12.000000
  0.384615  0.384615  0.000000      6.000000
  0.461538  0.384615  0.000000     24.000000
 -0.461538  0.384615 -0.000000     24.000000
 -0.384615  0.384615 -0.000000     12.000000
  0.461538  0.461538  0.000000      6.000000
 -0.461538  0.461538  0.000000     12.000000
  0.230769  0.153846  0.076923     24.000000
  0.307692  0.153846  0.076923     48.000000
  0.384615  0.153846  0.076923     48.000000
  0.461538  0.153846  0.076923     48.000000
 -0.461538  0.153846  0.076923     48.000000
  0.307692  0.230769  0.076923     24.000000
  0.384615  0.230769  0.076923     48.000000
  0.461538  0.230769  0.076923     48.000000
 -0.461538  0.230769  0.076923     48.000000
 -0.384615  0.230769  0.076923     48.000000
 -0.307692  0.230769  0.076923     48.000000
 -0.230769  0.230769  0.076923     48.000000
 -0.153846  0.230769  0.076923     24.000000
  0.384615  0.307692  0.076923     24.000000
  0.461538  0.307692  0.076923     48.000000
 -0.461538  0.307692  0.076923     48.000000
 -0.384615  0.307692  0.076923     48.000000
 -0.307692  0.307692  0.076923     48.000000
 -0.230769  0.307692  0.076923     24.000000
  0.461538  0.384615  0.076923     24.000000
 -0.461538  0.384615  0.076923     48.000000
 -0.384615  0.384615  0.076923     48.000000
 -0.307692  0.384615  0.076923     24.000000
 -0.461538  0.461538  0.076923     24.000000
 -0.384615  0.461538  0.076923     24.000000
  0.461538  0.307692  0.153846     24.000000
 -0.461538  0.307692  0.153846     48.000000
 -0.384615  0.307692  0.153846     48.000000
 -0.461538  0.384615  0.153846     24.000000
 -0.384615  0.384615  0.153846     48.000000
 -0.307692  0.384615  0.153846     48.000000
 -0.230769  0.384615  0.153846     24.000000
 -0.384615  0.461538  0.153846     24.000000
 -0.307692  0.461538  0.153846     24.000000
 -0.307692  0.461538  0.230769     24.000000

 Following cartesian coordinates:
            Coordinates               Weight
  0.000000  0.000000  0.000000      1.000000
 -0.011593  0.011593  0.011593      8.000000
 -0.023186  0.023186  0.023186      8.000000
 -0.034779  0.034779  0.034779      8.000000
 -0.046372  0.046372  0.046372      8.000000
 -0.057965  0.057965  0.057965      8.000000
 -0.069558  0.069558  0.069558      8.000000
  0.000000 -0.000000  0.023186      6.000000
 -0.011593  0.011593  0.034779     24.000000
 -0.023186  0.023186  0.046372     24.000000
 -0.034779  0.034779  0.057965     24.000000
 -0.046372  0.046372  0.069558     24.000000
 -0.057965  0.057965  0.081151     24.000000
  0.081151 -0.081151 -0.057965     24.000000
  0.069558 -0.069558 -0.046372     24.000000
  0.057965 -0.057965 -0.034779     24.000000
  0.046372 -0.046372 -0.023186     24.000000
  0.034779 -0.034779 -0.011593     24.000000
  0.023186 -0.023186  0.000000     12.000000
  0.000000 -0.000000  0.046372      6.000000
 -0.011593  0.011593  0.057965     24.000000
 -0.023186  0.023186  0.069558     24.000000
 -0.034779  0.034779  0.081151     24.000000
 -0.046372  0.046372  0.092744     24.000000
  0.092744 -0.092744 -0.046372     24.000000
  0.081151 -0.081151 -0.034779     24.000000
  0.069558 -0.069558 -0.023186     24.000000
  0.057965 -0.057965 -0.011593     24.000000
  0.046372 -0.046372  0.000000     12.000000
  0.000000 -0.000000  0.069558      6.000000
 -0.011593  0.011593  0.081151     24.000000
 -0.023186  0.023186  0.092744     24.000000
 -0.034779  0.034779  0.104337     24.000000
  0.104337 -0.104337 -0.034779     24.000000
  0.092744 -0.092744 -0.023186     24.000000
  0.081151 -0.081151 -0.011593     24.000000
  0.069558 -0.069558 -0.000000     12.000000
  0.000000 -0.000000  0.092744      6.000000
 -0.011593  0.011593  0.104337     24.000000
 -0.023186  0.023186  0.115930     24.000000
  0.115930 -0.115930 -0.023186     24.000000
  0.104337 -0.104337 -0.011593     24.000000
  0.092744 -0.092744  0.000000     12.000000
 -0.000000  0.000000  0.115930      6.000000
 -0.011593  0.011593  0.127523     24.000000
  0.127523 -0.127523 -0.011593     24.000000
  0.115930 -0.115930  0.000000     12.000000
 -0.000000  0.000000  0.139116      6.000000
  0.139116 -0.139116 -0.000000     12.000000
  0.000000  0.023186  0.046372     24.000000
 -0.011593  0.034779  0.057965     48.000000
 -0.023186  0.046372  0.069558     48.000000
 -0.034779  0.057965  0.081151     48.000000
  0.104337 -0.081151 -0.057965     48.000000
  0.000000  0.023186  0.069558     24.000000
 -0.011593  0.034779  0.081151     48.000000
 -0.023186  0.046372  0.092744     48.000000
  0.115930 -0.092744 -0.046372     48.000000
  0.104337 -0.081151 -0.034779     48.000000
  0.092744 -0.069558 -0.023186     48.000000
  0.081151 -0.057965 -0.011593     48.000000
  0.069558 -0.046372 -0.000000     24.000000
 -0.000000  0.023186  0.092744     24.000000
 -0.011593  0.034779  0.104337     48.000000
  0.127523 -0.104337 -0.034779     48.000000
  0.115930 -0.092744 -0.023186     48.000000
  0.104337 -0.081151 -0.011593     48.000000
  0.092744 -0.069558 -0.000000     24.000000
  0.000000  0.023186  0.115930     24.000000
  0.139116 -0.115930 -0.023186     48.000000
  0.127523 -0.104337 -0.011593     48.000000
  0.115930 -0.092744  0.000000     24.000000
  0.150709 -0.127523 -0.011593     24.000000
  0.139116 -0.115930 -0.000000     24.000000
 -0.000000  0.046372  0.092744     24.000000
  0.139116 -0.092744 -0.046372     48.000000
  0.127523 -0.081151 -0.034779     48.000000
  0.150709 -0.104337 -0.034779     24.000000
  0.139116 -0.092744 -0.023186     48.000000
  0.127523 -0.081151 -0.011593     48.000000
  0.115930 -0.069558 -0.000000     24.000000
  0.150709 -0.104337 -0.011593     24.000000
  0.139116 -0.092744 -0.000000     24.000000
  0.150709 -0.081151 -0.011593     24.000000



--------------------------------------------------------------------------------------------------------




 Dimension of arrays:
   k-points           NKPTS =     84   k-points in BZ     NKDIM =     84   number of bands    NBANDS=     24
   number of dos      NEDOS =    301   number of ions     NIONS =      3
   non local maximal  LDIM  =      8   non local SUM 2l+1 LMDIM =     32
   total plane-waves  NPLWV =  64000
   max r-space proj   IRMAX =      1   max aug-charges    IRDMAX= 509171
   dimension x,y,z NGX =    40 NGY =   40 NGZ =   40
   dimension x,y,z NGXF=    80 NGYF=   80 NGZF=   80
   support grid    NGXF=   160 NGYF=  160 NGZF=  160
   ions per type =               1   1   1
   NGX,Y,Z   is equivalent  to a cutoff of  15.02, 15.02, 15.02 a.u.
   NGXF,Y,Z  is equivalent  to a cutoff of  30.04, 30.04, 30.04 a.u.

 SYSTEM =  unknown system
 POSCAR =  U1 Bi1 Pt1

 Startparameter for this run:
   NWRITE =      2    write-flag & timer
   PREC   = acc       normal or accurate (medium, high low for compatibility)
   ISTART =      0    job   : 0-new  1-cont  2-samecut
   ICHARG =      2    charge: 1-file 2-atom 10-const
   ISPIN  =      1    spin polarized calculation?
   LNONCOLLINEAR =      F non collinear calculations
   LSORBIT =      F    spin-orbit coupling
   INIWAV =      1    electr: 0-lowe 1-rand  2-diag
   LASPH  =      F    aspherical Exc in radial PAW
   METAGGA=      F    non-selfconsistent MetaGGA calc.

 Electronic Relaxation 1
   ENCUT  =  700.0 eV  51.45 Ry    7.17 a.u.   9.55  9.55  9.55*2*pi/ulx,y,z
   ENINI  =  700.0     initial cutoff
   ENAUG  =  526.4 eV  augmentation charge cutoff
   NELM   =     60;   NELMIN=  5; NELMDL= -5     # of ELM steps
   EDIFF  = 0.1E-06   stopping-criterion for ELM
   LREAL  =      F    real-space projection
   NLSPLINE    = F    spline interpolate recip. space projectors
   LCOMPAT=      F    compatible to vasp.4.4
   GGA_COMPAT  = T    GGA compatible to vasp.4.4-vasp.4.6
   LMAXPAW     = -100 max onsite density
   LMAXMIX     =    2 max onsite mixed and CHGCAR
   VOSKOWN=      0    Vosko Wilk Nusair interpolation
   ROPT   =    0.00000   0.00000   0.00000
 Ionic relaxation
   EDIFFG = 0.1E-05   stopping-criterion for IOM
   NSW    =      0    number of steps for IOM
   NBLOCK =      1;   KBLOCK =      1    inner block; outer block
   IBRION =     -1    ionic relax: 0-MD 1-quasi-New 2-CG
   NFREE  =      0    steps in history (QN), initial steepest desc. (CG)
   ISIF   =      3    stress and relaxation
   IWAVPR =     10    prediction:  0-non 1-charg 2-wave 3-comb
   ISYM   =      2    0-nonsym 1-usesym 2-fastsym
   LCORR  =      T    Harris-Foulkes like correction to forces

   POTIM  = 0.5000    time-step for ionic-motion
   TEIN   =    0.0    initial temperature
   TEBEG  =    0.0;   TEEND  =   0.0 temperature during run
   SMASS  =  -3.00    Nose mass-parameter (am)
   estimated Nose-frequenzy (Omega)   =  0.10E-29 period in steps = 0.13E+47 mass=  -0.448E-27a.u.
   SCALEE = 1.0000    scale energy and forces
   NPACO  =    256;   APACO  = 16.0  distance and # of slots for P.C.
   PSTRESS=    0.0 pullay stress

  Mass of Ions in am
   POMASS = 238.03208.98195.08
  Ionic Valenz
   ZVAL   =  14.00 15.00 10.00
  Atomic Wigner-Seitz radii
   RWIGS  =  -1.00 -1.00 -1.00
  virtual crystal weights
   VCA    =   1.00  1.00  1.00
   NELECT =      39.0000    total number of electrons
   NUPDOWN=      -1.0000    fix difference up-down

 DOS related values:
   EMIN   =  10.00;   EMAX   =-10.00  energy-range for DOS
   EFERMI =   0.00
   ISMEAR =     0;   SIGMA  =   0.01  broadening in eV -4-tet -1-fermi 0-gaus

 Electronic relaxation 2 (details)
   IALGO  =     38    algorithm
   LDIAG  =      T    sub-space diagonalisation (order eigenvalues)
   LSUBROT=      F    optimize rotation matrix (better conditioning)
   TURBO    =      0    0=normal 1=particle mesh
   IRESTART =      0    0=no restart 2=restart with 2 vectors
   NREBOOT  =      0    no. of reboots
   NMIN     =      0    reboot dimension
   EREF     =   0.00    reference energy to select bands
   IMIX   =      4    mixing-type and parameters
     AMIX     =   0.40;   BMIX     =  1.00
     AMIX_MAG =   1.60;   BMIX_MAG =  1.00
     AMIN     =   0.10
     WC   =   100.;   INIMIX=   1;  MIXPRE=   1;  MAXMIX= -45

 Intra band minimization:
   WEIMIN = 0.0000     energy-eigenvalue tresh-hold
   EBREAK =  0.10E-08  absolut break condition
   DEPER  =   0.30     relativ break condition

   TIME   =   0.40     timestep for ELM

  volume/ion in A,a.u.               =      20.45       138.00
  Fermi-wavevector in a.u.,A,eV,Ry     =   1.407658  2.660088 26.959966  1.981502
  Thomas-Fermi vector in A             =   2.529895

 Write flags
   LWAVE        =      F    write WAVECAR
   LDOWNSAMPLE  =      F    k-point downsampling of WAVECAR
   LCHARG       =      F    write CHGCAR
   LVTOT        =      F    write LOCPOT, total local potential
   LVHAR        =      F    write LOCPOT, Hartree potential only
   LELF         =      F    write electronic localiz. function (ELF)
   LORBIT       =      0    0 simple, 1 ext, 2 COOP (PROOUT), +10 PAW based schemes


 Dipole corrections
   LMONO  =      F    monopole corrections only (constant potential shift)
   LDIPOL =      F    correct potential (dipole corrections)
   IDIPOL =      0    1-x, 2-y, 3-z, 4-all directions
   EPSILON=  1.0000000 bulk dielectric constant

 Exchange correlation treatment:
   GGA     =    PS    GGA type
   LEXCH   =    14    internal setting for exchange type
   VOSKOWN=      0    Vosko Wilk Nusair interpolation
   LHFCALC =     F    Hartree Fock is set to
   LHFONE  =     F    Hartree Fock one center treatment
   AEXX    =    0.0000 exact exchange contribution

 Linear response parameters
   LEPSILON=     F    determine dielectric tensor
   LRPA    =     F    only Hartree local field effects (RPA)
   LNABLA  =     F    use nabla operator in PAW spheres
   LVEL    =     F    velocity operator in full k-point grid
   LINTERFAST=   F  fast interpolation
   KINTER  =     0    interpolate to denser k-point grid
   CSHIFT  =0.1000    complex shift for real part using Kramers Kronig
   OMEGAMAX=  -1.0    maximum frequency
   DEG_THRESHOLD= 0.2000000E-02 threshold for treating states as degnerate
   RTIME   =   -0.100 relaxation time in fs
  (WPLASMAI=    0.000 imaginary part of plasma frequency in eV, 0.658/RTIME)
   DFIELD  = 0.0000000 0.0000000 0.0000000 field for delta impulse in time

 Orbital magnetization related:
   ORBITALMAG=     F  switch on orbital magnetization
   LCHIMAG   =     F  perturbation theory with respect to B field
   DQ        =  0.001000  dq finite difference perturbation B field
   LLRAUG    =     F  two centre corrections for induced B field



--------------------------------------------------------------------------------------------------------


 Static calculation
 charge density and potential will be updated during run
 non-spin polarized calculation
 Variant of blocked Davidson
 Davidson routine will perform the subspace rotation
 perform sub-space diagonalisation
    after iterative eigenvector-optimisation
 modified Broyden-mixing scheme, WC =      100.0
 initial mixing is a Kerker type mixing with AMIX =  0.4000 and BMIX =      1.0000
 Hartree-type preconditioning will be used
 using additional bands            4
 reciprocal scheme for non local part
 use partial core corrections
 calculate Harris-corrections to forces
   (improved forces if not selfconsistent)
 use gradient corrections
 use of overlap-Matrix (Vanderbilt PP)
 Gauss-broadening in eV      SIGMA  =   0.01


--------------------------------------------------------------------------------------------------------


  energy-cutoff  :      700.00
  volume of cell :       61.35
      direct lattice vectors                 reciprocal lattice vectors
     0.000000000  3.130322995  3.130322995    -0.159727926  0.159727926  0.159727926
     3.130322995  0.000000000  3.130322995     0.159727926 -0.159727926  0.159727926
     3.130322995  3.130322995  0.000000000     0.159727926  0.159727926 -0.159727926

  length of vectors
     4.426945234  4.426945234  4.426945234     0.276656883  0.276656883  0.276656883



 k-points in units of 2pi/SCALE and weight: KPOINTS
   0.00000000  0.00000000  0.00000000       0.000
  -0.01159304  0.01159304  0.01159304       0.004
  -0.02318608  0.02318608  0.02318608       0.004
  -0.03477911  0.03477911  0.03477911       0.004
  -0.04637215  0.04637215  0.04637215       0.004
  -0.05796519  0.05796519  0.05796519       0.004
  -0.06955823  0.06955823  0.06955823       0.004
   0.00000000 -0.00000000  0.02318608       0.003
  -0.01159304  0.01159304  0.03477911       0.011
  -0.02318608  0.02318608  0.04637215       0.011
  -0.03477911  0.03477911  0.05796519       0.011
  -0.04637215  0.04637215  0.06955823       0.011
  -0.05796519  0.05796519  0.08115127       0.011
   0.08115127 -0.08115127 -0.05796519       0.011
   0.06955823 -0.06955823 -0.04637215       0.011
   0.05796519 -0.05796519 -0.03477911       0.011
   0.04637215 -0.04637215 -0.02318608       0.011
   0.03477911 -0.03477911 -0.01159304       0.011
   0.02318608 -0.02318608  0.00000000       0.005
   0.00000000 -0.00000000  0.04637215       0.003
  -0.01159304  0.01159304  0.05796519       0.011
  -0.02318608  0.02318608  0.06955823       0.011
  -0.03477911  0.03477911  0.08115127       0.011
  -0.04637215  0.04637215  0.09274430       0.011
   0.09274430 -0.09274430 -0.04637215       0.011
   0.08115127 -0.08115127 -0.03477911       0.011
   0.06955823 -0.06955823 -0.02318608       0.011
   0.05796519 -0.05796519 -0.01159304       0.011
   0.04637215 -0.04637215  0.00000000       0.005
   0.00000000 -0.00000000  0.06955823       0.003
  -0.01159304  0.01159304  0.08115127       0.011
  -0.02318608  0.02318608  0.09274430       0.011
  -0.03477911  0.03477911  0.10433734       0.011
   0.10433734 -0.10433734 -0.03477911       0.011
   0.09274430 -0.09274430 -0.02318608       0.011
   0.08115127 -0.08115127 -0.01159304       0.011
   0.06955823 -0.06955823 -0.00000000       0.005
   0.00000000 -0.00000000  0.09274430       0.003
  -0.01159304  0.01159304  0.10433734       0.011
  -0.02318608  0.02318608  0.11593038       0.011
   0.11593038 -0.11593038 -0.02318608       0.011
   0.10433734 -0.10433734 -0.01159304       0.011
   0.09274430 -0.09274430  0.00000000       0.005
  -0.00000000  0.00000000  0.11593038       0.003
  -0.01159304  0.01159304  0.12752342       0.011
   0.12752342 -0.12752342 -0.01159304       0.011
   0.11593038 -0.11593038  0.00000000       0.005
  -0.00000000  0.00000000  0.13911646       0.003
   0.13911646 -0.13911646 -0.00000000       0.005
   0.00000000  0.02318608  0.04637215       0.011
  -0.01159304  0.03477911  0.05796519       0.022
  -0.02318608  0.04637215  0.06955823       0.022
  -0.03477911  0.05796519  0.08115127       0.022
   0.10433734 -0.08115127 -0.05796519       0.022
   0.00000000  0.02318608  0.06955823       0.011
  -0.01159304  0.03477911  0.08115127       0.022
  -0.02318608  0.04637215  0.09274430       0.022
   0.11593038 -0.09274430 -0.04637215       0.022
   0.10433734 -0.08115127 -0.03477911       0.022
   0.09274430 -0.06955823 -0.02318608       0.022
   0.08115127 -0.05796519 -0.01159304       0.022
   0.06955823 -0.04637215 -0.00000000       0.011
  -0.00000000  0.02318608  0.09274430       0.011
  -0.01159304  0.03477911  0.10433734       0.022
   0.12752342 -0.10433734 -0.03477911       0.022
   0.11593038 -0.09274430 -0.02318608       0.022
   0.10433734 -0.08115127 -0.01159304       0.022
   0.09274430 -0.06955823 -0.00000000       0.011
   0.00000000  0.02318608  0.11593038       0.011
   0.13911646 -0.11593038 -0.02318608       0.022
   0.12752342 -0.10433734 -0.01159304       0.022
   0.11593038 -0.09274430  0.00000000       0.011
   0.15070950 -0.12752342 -0.01159304       0.011
   0.13911646 -0.11593038 -0.00000000       0.011
  -0.00000000  0.04637215  0.09274430       0.011
   0.13911646 -0.09274430 -0.04637215       0.022
   0.12752342 -0.08115127 -0.03477911       0.022
   0.15070950 -0.10433734 -0.03477911       0.011
   0.13911646 -0.09274430 -0.02318608       0.022
   0.12752342 -0.08115127 -0.01159304       0.022
   0.11593038 -0.06955823 -0.00000000       0.011
   0.15070950 -0.10433734 -0.01159304       0.011
   0.13911646 -0.09274430 -0.00000000       0.011
   0.15070950 -0.08115127 -0.01159304       0.011

 k-points in reciprocal lattice and weights: KPOINTS
   0.00000000  0.00000000  0.00000000       0.000
   0.07692308 -0.00000000  0.00000000       0.004
   0.15384615 -0.00000000  0.00000000       0.004
   0.23076923  0.00000000  0.00000000       0.004
   0.30769231 -0.00000000  0.00000000       0.004
   0.38461538  0.00000000  0.00000000       0.004
   0.46153846  0.00000000 -0.00000000       0.004
   0.07692308  0.07692308  0.00000000       0.003
   0.15384615  0.07692308  0.00000000       0.011
   0.23076923  0.07692308  0.00000000       0.011
   0.30769231  0.07692308 -0.00000000       0.011
   0.38461538  0.07692308  0.00000000       0.011
   0.46153846  0.07692308  0.00000000       0.011
  -0.46153846  0.07692308  0.00000000       0.011
  -0.38461538  0.07692308 -0.00000000       0.011
  -0.30769231  0.07692308 -0.00000000       0.011
  -0.23076923  0.07692308  0.00000000       0.011
  -0.15384615  0.07692308  0.00000000       0.011
  -0.07692308  0.07692308 -0.00000000       0.005
   0.15384615  0.15384615  0.00000000       0.003
   0.23076923  0.15384615  0.00000000       0.011
   0.30769231  0.15384615  0.00000000       0.011
   0.38461538  0.15384615  0.00000000       0.011
   0.46153846  0.15384615  0.00000000       0.011
  -0.46153846  0.15384615 -0.00000000       0.011
  -0.38461538  0.15384615  0.00000000       0.011
  -0.30769231  0.15384615  0.00000000       0.011
  -0.23076923  0.15384615 -0.00000000       0.011
  -0.15384615  0.15384615 -0.00000000       0.005
   0.23076923  0.23076923  0.00000000       0.003
   0.30769231  0.23076923  0.00000000       0.011
   0.38461538  0.23076923  0.00000000       0.011
   0.46153846  0.23076923  0.00000000       0.011
  -0.46153846  0.23076923  0.00000000       0.011
  -0.38461538  0.23076923  0.00000000       0.011
  -0.30769231  0.23076923 -0.00000000       0.011
  -0.23076923  0.23076923  0.00000000       0.005
   0.30769231  0.30769231  0.00000000       0.003
   0.38461538  0.30769231  0.00000000       0.011
   0.46153846  0.30769231  0.00000000       0.011
  -0.46153846  0.30769231 -0.00000000       0.011
  -0.38461538  0.30769231  0.00000000       0.011
  -0.30769231  0.30769231 -0.00000000       0.005
   0.38461538  0.38461538  0.00000000       0.003
   0.46153846  0.38461538  0.00000000       0.011
  -0.46153846  0.38461538 -0.00000000       0.011
  -0.38461538  0.38461538 -0.00000000       0.005
   0.46153846  0.46153846  0.00000000       0.003
  -0.46153846  0.46153846  0.00000000       0.005
   0.23076923  0.15384615  0.07692308       0.011
   0.30769231  0.15384615  0.07692308       0.022
   0.38461538  0.15384615  0.07692308       0.022
   0.46153846  0.15384615  0.07692308       0.022
  -0.46153846  0.15384615  0.07692308       0.022
   0.30769231  0.23076923  0.07692308       0.011
   0.38461538  0.23076923  0.07692308       0.022
   0.46153846  0.23076923  0.07692308       0.022
  -0.46153846  0.23076923  0.07692308       0.022
  -0.38461538  0.23076923  0.07692308       0.022
  -0.30769231  0.23076923  0.07692308       0.022
  -0.23076923  0.23076923  0.07692308       0.022
  -0.15384615  0.23076923  0.07692308       0.011
   0.38461538  0.30769231  0.07692308       0.011
   0.46153846  0.30769231  0.07692308       0.022
  -0.46153846  0.30769231  0.07692308       0.022
  -0.38461538  0.30769231  0.07692308       0.022
  -0.30769231  0.30769231  0.07692308       0.022
  -0.23076923  0.30769231  0.07692308       0.011
   0.46153846  0.38461538  0.07692308       0.011
  -0.46153846  0.38461538  0.07692308       0.022
  -0.38461538  0.38461538  0.07692308       0.022
  -0.30769231  0.38461538  0.07692308       0.011
  -0.46153846  0.46153846  0.07692308       0.011
  -0.38461538  0.46153846  0.07692308       0.011
   0.46153846  0.30769231  0.15384615       0.011
  -0.46153846  0.30769231  0.15384615       0.022
  -0.38461538  0.30769231  0.15384615       0.022
  -0.46153846  0.38461538  0.15384615       0.011
  -0.38461538  0.38461538  0.15384615       0.022
  -0.30769231  0.38461538  0.15384615       0.022
  -0.23076923  0.38461538  0.15384615       0.011
  -0.38461538  0.46153846  0.15384615       0.011
  -0.30769231  0.46153846  0.15384615       0.011
  -0.30769231  0.46153846  0.23076923       0.011

 position of ions in fractional coordinates (direct lattice)
   0.25000000  0.25000000  0.25000000
   0.75000000  0.75000000  0.75000000
   0.00000000  0.00000000  0.00000000

 position of ions in cartesian coordinates  (Angst):
   1.56516150  1.56516150  1.56516150
   4.69548449  4.69548449  4.69548449
   0.00000000  0.00000000  0.00000000



--------------------------------------------------------------------------------------------------------


 k-point  1 :   0.0000 0.0000 0.0000  plane waves:    2637
 k-point  2 :   0.0769-0.0000 0.0000  plane waves:    2634
 k-point  3 :   0.1538-0.0000 0.0000  plane waves:    2610
 k-point  4 :   0.2308 0.0000 0.0000  plane waves:    2599
 k-point  5 :   0.3077-0.0000 0.0000  plane waves:    2578
 k-point  6 :   0.3846 0.0000 0.0000  plane waves:    2584
 k-point  7 :   0.4615 0.0000-0.0000  plane waves:    2566
 k-point  8 :   0.0769 0.0769 0.0000  plane waves:    2625
 k-point  9 :   0.1538 0.0769 0.0000  plane waves:    2608
 k-point 10 :   0.2308 0.0769 0.0000  plane waves:    2593
 k-point 11 :   0.3077 0.0769-0.0000  plane waves:    2581
 k-point 12 :   0.3846 0.0769 0.0000  plane waves:    2573
 k-point 13 :   0.4615 0.0769 0.0000  plane waves:    2570
 k-point 14 :  -0.4615 0.0769 0.0000  plane waves:    2568
 k-point 15 :  -0.3846 0.0769-0.0000  plane waves:    2576
 k-point 16 :  -0.3077 0.0769-0.0000  plane waves:    2590
 k-point 17 :  -0.2308 0.0769 0.0000  plane waves:    2590
 k-point 18 :  -0.1538 0.0769 0.0000  plane waves:    2604
 k-point 19 :  -0.0769 0.0769-0.0000  plane waves:    2619
 k-point 20 :   0.1538 0.1538 0.0000  plane waves:    2593
 k-point 21 :   0.2308 0.1538 0.0000  plane waves:    2598
 k-point 22 :   0.3077 0.1538 0.0000  plane waves:    2583
 k-point 23 :   0.3846 0.1538 0.0000  plane waves:    2561
 k-point 24 :   0.4615 0.1538 0.0000  plane waves:    2576
 k-point 25 :  -0.4615 0.1538-0.0000  plane waves:    2585
 k-point 26 :  -0.3846 0.1538 0.0000  plane waves:    2576
 k-point 27 :  -0.3077 0.1538 0.0000  plane waves:    2582
 k-point 28 :  -0.2308 0.1538-0.0000  plane waves:    2586
 k-point 29 :  -0.1538 0.1538-0.0000  plane waves:    2603
 k-point 30 :   0.2308 0.2308 0.0000  plane waves:    2597
 k-point 31 :   0.3077 0.2308 0.0000  plane waves:    2588
 k-point 32 :   0.3846 0.2308 0.0000  plane waves:    2576
 k-point 33 :   0.4615 0.2308 0.0000  plane waves:    2581
 k-point 34 :  -0.4615 0.2308 0.0000  plane waves:    2572
 k-point 35 :  -0.3846 0.2308 0.0000  plane waves:    2572
 k-point 36 :  -0.3077 0.2308-0.0000  plane waves:    2581
 k-point 37 :  -0.2308 0.2308 0.0000  plane waves:    2572
 k-point 38 :   0.3077 0.3077 0.0000  plane waves:    2586
 k-point 39 :   0.3846 0.3077 0.0000  plane waves:    2580
 k-point 40 :   0.4615 0.3077 0.0000  plane waves:    2575
 k-point 41 :  -0.4615 0.3077-0.0000  plane waves:    2578
 k-point 42 :  -0.3846 0.3077 0.0000  plane waves:    2578
 k-point 43 :  -0.3077 0.3077-0.0000  plane waves:    2582
 k-point 44 :   0.3846 0.3846 0.0000  plane waves:    2570
 k-point 45 :   0.4615 0.3846 0.0000  plane waves:    2572
 k-point 46 :  -0.4615 0.3846-0.0000  plane waves:    2571
 k-point 47 :  -0.3846 0.3846-0.0000  plane waves:    2586
 k-point 48 :   0.4615 0.4615 0.0000  plane waves:    2570
 k-point 49 :  -0.4615 0.4615 0.0000  plane waves:    2550
 k-point 50 :   0.2308 0.1538 0.0769  plane waves:    2600
 k-point 51 :   0.3077 0.1538 0.0769  plane waves:    2587
 k-point 52 :   0.3846 0.1538 0.0769  plane waves:    2584
 k-point 53 :   0.4615 0.1538 0.0769  plane waves:    2578
 k-point 54 :  -0.4615 0.1538 0.0769  plane waves:    2572
 k-point 55 :   0.3077 0.2308 0.0769  plane waves:    2592
 k-point 56 :   0.3846 0.2308 0.0769  plane waves:    2583
 k-point 57 :   0.4615 0.2308 0.0769  plane waves:    2581
 k-point 58 :  -0.4615 0.2308 0.0769  plane waves:    2581
 k-point 59 :  -0.3846 0.2308 0.0769  plane waves:    2582
 k-point 60 :  -0.3077 0.2308 0.0769  plane waves:    2574
 k-point 61 :  -0.2308 0.2308 0.0769  plane waves:    2583
 k-point 62 :  -0.1538 0.2308 0.0769  plane waves:    2580
 k-point 63 :   0.3846 0.3077 0.0769  plane waves:    2574
 k-point 64 :   0.4615 0.3077 0.0769  plane waves:    2574
 k-point 65 :  -0.4615 0.3077 0.0769  plane waves:    2572
 k-point 66 :  -0.3846 0.3077 0.0769  plane waves:    2581
 k-point 67 :  -0.3077 0.3077 0.0769  plane waves:    2583
 k-point 68 :  -0.2308 0.3077 0.0769  plane waves:    2584
 k-point 69 :   0.4615 0.3846 0.0769  plane waves:    2566
 k-point 70 :  -0.4615 0.3846 0.0769  plane waves:    2581
 k-point 71 :  -0.3846 0.3846 0.0769  plane waves:    2586
 k-point 72 :  -0.3077 0.3846 0.0769  plane waves:    2582
 k-point 73 :  -0.4615 0.4615 0.0769  plane waves:    2564
 k-point 74 :  -0.3846 0.4615 0.0769  plane waves:    2572
 k-point 75 :   0.4615 0.3077 0.1538  plane waves:    2577
 k-point 76 :  -0.4615 0.3077 0.1538  plane waves:    2575
 k-point 77 :  -0.3846 0.3077 0.1538  plane waves:    2577
 k-point 78 :  -0.4615 0.3846 0.1538  plane waves:    2581
 k-point 79 :  -0.3846 0.3846 0.1538  plane waves:    2580
 k-point 80 :  -0.3077 0.3846 0.1538  plane waves:    2569
 k-point 81 :  -0.2308 0.3846 0.1538  plane waves:    2584
 k-point 82 :  -0.3846 0.4615 0.1538  plane waves:    2573
 k-point 83 :  -0.3077 0.4615 0.1538  plane waves:    2569
 k-point 84 :  -0.3077 0.4615 0.2308  plane waves:    2574

 maximum and minimum number of plane-waves per node :       671      632

 maximum number of plane-waves:      2637
 maximum index in each direction:
   IXMAX=   10   IYMAX=    9   IZMAX=    9
   IXMIN=  -10   IYMIN=  -10   IZMIN=   -9


 parallel 3D FFT for wavefunctions:
    minimum data exchange during FFTs selected (reduces bandwidth)
 parallel 3D FFT for charge:
    minimum data exchange during FFTs selected (reduces bandwidth)


 total amount of memory used by VASP MPI-rank0    86754. kBytes
=======================================================================

   base      :      30000. kBytes
   nonl-proj :      43126. kBytes
   fftplans  :       5203. kBytes
   grid      :       2732. kBytes
   one-center:         49. kBytes
   wavefun   :       5644. kBytes

     INWAV:  cpu time    0.0002: real time    0.0011
 Broyden mixing: mesh for mixing (old mesh)
   NGX = 19   NGY = 19   NGZ = 19
  (NGX  = 80   NGY  = 80   NGZ  = 80)
  gives a total of   6859 points

 initial charge density was supplied:
 charge density of overlapping atoms calculated
 number of electron      39.0000000 magnetization
 keeping initial charge density in first step


--------------------------------------------------------------------------------------------------------


 Maximum index for augmentation-charges        30891 (set IRDMAX)


--------------------------------------------------------------------------------------------------------


 First call to EWALD:  gamma=   0.449
 Maximum number of real-space cells 3x 3x 3
 Maximum number of reciprocal cells 3x 3x 3

    FEWALD:  cpu time    0.0053: real time    0.0068


--------------------------------------- Iteration      1(   1)  ---------------------------------------


    POTLOK:  cpu time    0.0499: real time    0.1209
    SETDIJ:  cpu time    0.1043: real time    0.1044
     EDDAV:  cpu time    1.3899: real time    1.4246
       DOS:  cpu time    0.0042: real time    0.0049
    --------------------------------------------
      LOOP:  cpu time    1.5486: real time    1.6568

 eigenvalue-minimisations  :  4032
 total energy-change (2. order) : 0.4403596E+03  (-0.2280658E+04)
 number of electron      39.0000000 magnetization
 augmentation part       39.0000000 magnetization

 Free energy of the ion-electron system (eV)
  ---------------------------------------------------
  alpha Z        PSCENC =       256.32281089
  Ewald energy   TEWEN  =     -3808.33216227
  -Hartree energ DENC   =      -697.45941637
  -exchange      EXHF   =         0.00000000
  -V(xc)+E(xc)   XCENC  =        92.67336766
  PAW double counting   =      3513.29252893    -3436.88002192
  entropy T*S    EENTRO =        -0.00013409
  eigenvalues    EBANDS =       425.39058137
  atomic energy  EATOM  =      4095.35208632
  Solvation  Ediel_sol  =         0.00000000
  ---------------------------------------------------
  free energy    TOTEN  =       440.35964052 eV

  energy without entropy =      440.35977461  energy(sigma->0) =      440.35970757


--------------------------------------------------------------------------------------------------------




--------------------------------------- Iteration      1(   2)  ---------------------------------------


     EDDAV:  cpu time    1.4394: real time    1.4936
       DOS:  cpu time    0.0030: real time    0.0035
    --------------------------------------------
      LOOP:  cpu time    1.4423: real time    1.4974

 eigenvalue-minimisations  :  4200
 total energy-change (2. order) :-0.4069147E+03  (-0.3977511E+03)
 number of electron      39.0000000 magnetization
 augmentation part       39.0000000 magnetization

 Free energy of the ion-electron system (eV)
  ---------------------------------------------------
  alpha Z        PSCENC =       256.32281089
  Ewald energy   TEWEN  =     -3808.33216227
  -Hartree energ DENC   =      -697.45941637
  -exchange      EXHF   =         0.00000000
  -V(xc)+E(xc)   XCENC  =        92.67336766
  PAW double counting   =      3513.29252893    -3436.88002192
  entropy T*S    EENTRO =        -0.00030001
  eigenvalues    EBANDS =        18.47603722
  atomic energy  EATOM  =      4095.35208632
  Solvation  Ediel_sol  =         0.00000000
  ---------------------------------------------------
  free energy    TOTEN  =        33.44493045 eV

  energy without entropy =       33.44523046  energy(sigma->0) =       33.44508045


--------------------------------------------------------------------------------------------------------




--------------------------------------- Iteration      1(   3)  ---------------------------------------


     EDDAV:  cpu time    1.6144: real time    1.6499
       DOS:  cpu time    0.0032: real time    0.0036
    --------------------------------------------
      LOOP:  cpu time    1.6176: real time    1.6540

 eigenvalue-minimisations  :  4872
 total energy-change (2. order) :-0.5268760E+02  (-0.5149474E+02)
 number of electron      39.0000000 magnetization
 augmentation part       39.0000000 magnetization

 Free energy of the ion-electron system (eV)
  ---------------------------------------------------
  alpha Z        PSCENC =       256.32281089
  Ewald energy   TEWEN  =     -3808.33216227
  -Hartree energ DENC   =      -697.45941637
  -exchange      EXHF   =         0.00000000
  -V(xc)+E(xc)   XCENC  =        92.67336766
  PAW double counting   =      3513.29252893    -3436.88002192
  entropy T*S    EENTRO =        -0.00040322
  eigenvalues    EBANDS =       -34.21146379
  atomic energy  EATOM  =      4095.35208632
  Solvation  Ediel_sol  =         0.00000000
  ---------------------------------------------------
  free energy    TOTEN  =       -19.24267377 eV

  energy without entropy =      -19.24227055  energy(sigma->0) =      -19.24247216


--------------------------------------------------------------------------------------------------------




--------------------------------------- Iteration      1(   4)  ---------------------------------------


     EDDAV:  cpu time    2.2399: real time    2.2699
       DOS:  cpu time    0.0031: real time    0.0035
    --------------------------------------------
      LOOP:  cpu time    2.2431: real time    2.2730

 eigenvalue-minimisations  :  7336
 total energy-change (2. order) :-0.5928928E+01  (-0.5902737E+01)
 number of electron      39.0000000 magnetization
 augmentation part       39.0000000 magnetization

 Free energy of the ion-electron system (eV)
  ---------------------------------------------------
  alpha Z        PSCENC =       256.32281089
  Ewald energy   TEWEN  =     -3808.33216227
  -Hartree energ DENC   =      -697.45941637
  -exchange      EXHF   =         0.00000000
  -V(xc)+E(xc)   XCENC  =        92.67336766
  PAW double counting   =      3513.29252893    -3436.88002192
  entropy T*S    EENTRO =        -0.00081034
  eigenvalues    EBANDS =       -40.13998455
  atomic energy  EATOM  =      4095.35208632
  Solvation  Ediel_sol  =         0.00000000
  ---------------------------------------------------
  free energy    TOTEN  =       -25.17160165 eV

  energy without entropy =      -25.17079131  energy(sigma->0) =      -25.17119648


--------------------------------------------------------------------------------------------------------




--------------------------------------- Iteration      1(   5)  ---------------------------------------


     EDDAV:  cpu time    1.8266: real time    1.8596
       DOS:  cpu time    0.0030: real time    0.0034
    CHARGE:  cpu time    0.3416: real time    0.3419
    MIXING:  cpu time    0.0095: real time    0.0101
    --------------------------------------------
      LOOP:  cpu time    2.1808: real time    2.2178

 eigenvalue-minimisations  :  5400
 total energy-change (2. order) :-0.1784626E+00  (-0.1783288E+00)
 number of electron      39.0000000 magnetization
 augmentation part        8.5625787 magnetization

 Broyden mixing:
  rms(total) = 0.17821E+01    rms(broyden)= 0.17821E+01
  rms(prec ) = 0.44598E+01
  weight for this iteration     100.00

 Free energy of the ion-electron system (eV)
  ---------------------------------------------------
  alpha Z        PSCENC =       256.32281089
  Ewald energy   TEWEN  =     -3808.33216227
  -Hartree energ DENC   =      -697.45941637
  -exchange      EXHF   =         0.00000000
  -V(xc)+E(xc)   XCENC  =        92.67336766
  PAW double counting   =      3513.29252893    -3436.88002192
  entropy T*S    EENTRO =        -0.00076934
  eigenvalues    EBANDS =       -40.31848818
  atomic energy  EATOM  =      4095.35208632
  Solvation  Ediel_sol  =         0.00000000
  ---------------------------------------------------
  free energy    TOTEN  =       -25.35006428 eV

  energy without entropy =      -25.34929494  energy(sigma->0) =      -25.34967961


--------------------------------------------------------------------------------------------------------




--------------------------------------- Iteration      1(   6)  ---------------------------------------


    POTLOK:  cpu time    0.0471: real time    0.0691
    SETDIJ:  cpu time    0.1109: real time    0.1111
     EDDAV:  cpu time    1.8964: real time    1.8968
       DOS:  cpu time    0.0032: real time    0.0043
    CHARGE:  cpu time    0.3090: real time    0.3093
    MIXING:  cpu time    0.0040: real time    0.0042
    --------------------------------------------
      LOOP:  cpu time    2.3706: real time    2.3913

 eigenvalue-minimisations  :  6176
 total energy-change (2. order) :-0.4257527E+01  (-0.1510716E+02)
 number of electron      39.0000000 magnetization
 augmentation part        7.0622044 magnetization

 Broyden mixing:
  rms(total) = 0.23317E+01    rms(broyden)= 0.23317E+01
  rms(prec ) = 0.55453E+01
  weight for this iteration     100.00

 eigenvalues of (default mixing * dielectric matrix)
  average eigenvalue GAMMA=   0.3393
  0.3393

 Free energy of the ion-electron system (eV)
  ---------------------------------------------------
  alpha Z        PSCENC =       256.32281089
  Ewald energy   TEWEN  =     -3808.33216227
  -Hartree energ DENC   =      -699.41583306
  -exchange      EXHF   =         0.00000000
  -V(xc)+E(xc)   XCENC  =        93.01508065
  PAW double counting   =      4018.44556737    -3944.01124427
  entropy T*S    EENTRO =        -0.00016863
  eigenvalues    EBANDS =       -40.98372810
  atomic energy  EATOM  =      4095.35208632
  Solvation  Ediel_sol  =         0.00000000
  ---------------------------------------------------
  free energy    TOTEN  =       -29.60759110 eV

  energy without entropy =      -29.60742248  energy(sigma->0) =      -29.60750679


--------------------------------------------------------------------------------------------------------




--------------------------------------- Iteration      1(   7)  ---------------------------------------


    POTLOK:  cpu time    0.0686: real time    0.1298
    SETDIJ:  cpu time    0.0971: real time    0.0973
     EDDAV:  cpu time    1.8188: real time    1.8191
       DOS:  cpu time    0.0031: real time    0.0040
    CHARGE:  cpu time    0.2881: real time    0.2882
    MIXING:  cpu time    0.0038: real time    0.0042
    --------------------------------------------
      LOOP:  cpu time    2.2793: real time    2.3425

 eigenvalue-minimisations  :  5824
 total energy-change (2. order) : 0.6359093E+01  (-0.2407845E+01)
 number of electron      39.0000000 magnetization
 augmentation part        7.6400806 magnetization

 Broyden mixing:
  rms(total) = 0.91977E+00    rms(broyden)= 0.91976E+00
  rms(prec ) = 0.21229E+01
  weight for this iteration     100.00

 eigenvalues of (default mixing * dielectric matrix)
  average eigenvalue GAMMA=   0.8601
  1.0433  0.6769

 Free energy of the ion-electron system (eV)
  ---------------------------------------------------
  alpha Z        PSCENC =       256.32281089
  Ewald energy   TEWEN  =     -3808.33216227
  -Hartree energ DENC   =      -688.25989482
  -exchange      EXHF   =         0.00000000
  -V(xc)+E(xc)   XCENC  =        92.46292541
  PAW double counting   =      4195.08969826    -4124.95595581
  entropy T*S    EENTRO =        -0.00076557
  eigenvalues    EBANDS =       -40.92724080
  atomic energy  EATOM  =      4095.35208632
  Solvation  Ediel_sol  =         0.00000000
  ---------------------------------------------------
  free energy    TOTEN  =       -23.24849840 eV

  energy without entropy =      -23.24773283  energy(sigma->0) =      -23.24811561


--------------------------------------------------------------------------------------------------------




--------------------------------------- Iteration      1(   8)  ---------------------------------------


    POTLOK:  cpu time    0.0420: real time    0.0692
    SETDIJ:  cpu time    0.0947: real time    0.0949
     EDDAV:  cpu time    1.8790: real time    1.8795
       DOS:  cpu time    0.0033: real time    0.0035
    CHARGE:  cpu time    0.2897: real time    0.2899
    MIXING:  cpu time    0.0037: real time    0.0038
    --------------------------------------------
      LOOP:  cpu time    2.3124: real time    2.3413

 eigenvalue-minimisations  :  5992
 total energy-change (2. order) :-0.5004511E-01  (-0.1792611E+01)
 number of electron      39.0000000 magnetization
 augmentation part        8.4460938 magnetization

 Broyden mixing:
  rms(total) = 0.62055E+00    rms(broyden)= 0.62055E+00
  rms(prec ) = 0.20827E+01
  weight for this iteration     100.00

 eigenvalues of (default mixing * dielectric matrix)
  average eigenvalue GAMMA=   1.0695
  2.0165  0.5960  0.5960

 Free energy of the ion-electron system (eV)
  ---------------------------------------------------
  alpha Z        PSCENC =       256.32281089
  Ewald energy   TEWEN  =     -3808.33216227
  -Hartree energ DENC   =      -678.23640924
  -exchange      EXHF   =         0.00000000
  -V(xc)+E(xc)   XCENC  =        92.05019253
  PAW double counting   =      4463.73376055    -4397.99161076
  entropy T*S    EENTRO =        -0.00132978
  eigenvalues    EBANDS =       -46.19588174
  atomic energy  EATOM  =      4095.35208632
  Solvation  Ediel_sol  =         0.00000000
  ---------------------------------------------------
  free energy    TOTEN  =       -23.29854350 eV

  energy without entropy =      -23.29721372  energy(sigma->0) =      -23.29787861


--------------------------------------------------------------------------------------------------------




--------------------------------------- Iteration      1(   9)  ---------------------------------------


    POTLOK:  cpu time    0.0543: real time    0.0810
    SETDIJ:  cpu time    0.0955: real time    0.0957
     EDDAV:  cpu time    1.8908: real time    1.8911
       DOS:  cpu time    0.0030: real time    0.0038
    CHARGE:  cpu time    0.2893: real time    0.2896
    MIXING:  cpu time    0.0039: real time    0.0041
    --------------------------------------------
      LOOP:  cpu time    2.3368: real time    2.3648

 eigenvalue-minimisations  :  6144
 total energy-change (2. order) : 0.5438921E+00  (-0.5479671E+00)
 number of electron      39.0000000 magnetization
 augmentation part        7.8711901 magnetization

 Broyden mixing:
  rms(total) = 0.97909E-01    rms(broyden)= 0.97908E-01
  rms(prec ) = 0.17822E+00
  weight for this iteration     100.00

 eigenvalues of (default mixing * dielectric matrix)
  average eigenvalue GAMMA=   1.0384
  2.2850  0.5924  0.5924  0.6838

 Free energy of the ion-electron system (eV)
  ---------------------------------------------------
  alpha Z        PSCENC =       256.32281089
  Ewald energy   TEWEN  =     -3808.33216227
  -Hartree energ DENC   =      -679.86121725
  -exchange      EXHF   =         0.00000000
  -V(xc)+E(xc)   XCENC  =        92.16938560
  PAW double counting   =      4677.03881572    -4612.76956820
  entropy T*S    EENTRO =        -0.00139041
  eigenvalues    EBANDS =       -42.67341176
  atomic energy  EATOM  =      4095.35208632
  Solvation  Ediel_sol  =         0.00000000
  ---------------------------------------------------
  free energy    TOTEN  =       -22.75465136 eV

  energy without entropy =      -22.75326095  energy(sigma->0) =      -22.75395615


--------------------------------------------------------------------------------------------------------




--------------------------------------- Iteration      1(  10)  ---------------------------------------


    POTLOK:  cpu time    0.0647: real time    0.1200
    SETDIJ:  cpu time    0.0967: real time    0.0969
     EDDAV:  cpu time    1.8557: real time    1.8560
       DOS:  cpu time    0.0032: real time    0.0040
    CHARGE:  cpu time    0.2878: real time    0.2879
    MIXING:  cpu time    0.0041: real time    0.0042
    --------------------------------------------
      LOOP:  cpu time    2.3122: real time    2.3715

 eigenvalue-minimisations  :  5952
 total energy-change (2. order) :-0.7513638E-02  (-0.1579324E-01)
 number of electron      39.0000000 magnetization
 augmentation part        7.8840900 magnetization

 Broyden mixing:
  rms(total) = 0.46381E-01    rms(broyden)= 0.46381E-01
  rms(prec ) = 0.12602E+00
  weight for this iteration     100.00

 eigenvalues of (default mixing * dielectric matrix)
  average eigenvalue GAMMA=   0.9975
  1.9988  0.5862  0.5862  0.9081  0.9081

 Free energy of the ion-electron system (eV)
  ---------------------------------------------------
  alpha Z        PSCENC =       256.32281089
  Ewald energy   TEWEN  =     -3808.33216227
  -Hartree energ DENC   =      -678.75327194
  -exchange      EXHF   =         0.00000000
  -V(xc)+E(xc)   XCENC  =        92.13093322
  PAW double counting   =      4739.07754779    -4675.35026721
  entropy T*S    EENTRO =        -0.00146499
  eigenvalues    EBANDS =       -43.20837680
  atomic energy  EATOM  =      4095.35208632
  Solvation  Ediel_sol  =         0.00000000
  ---------------------------------------------------
  free energy    TOTEN  =       -22.76216500 eV

  energy without entropy =      -22.76070001  energy(sigma->0) =      -22.76143251


--------------------------------------------------------------------------------------------------------




--------------------------------------- Iteration      1(  11)  ---------------------------------------


    POTLOK:  cpu time    0.0569: real time    0.0855
    SETDIJ:  cpu time    0.0944: real time    0.0945
     EDDAV:  cpu time    2.0172: real time    2.0175
       DOS:  cpu time    0.0032: real time    0.0071
    CHARGE:  cpu time    0.2882: real time    0.2890
    MIXING:  cpu time    0.0045: real time    0.0046
    --------------------------------------------
      LOOP:  cpu time    2.4644: real time    2.5030

 eigenvalue-minimisations  :  6672
 total energy-change (2. order) : 0.1770751E-02  (-0.5463918E-02)
 number of electron      39.0000000 magnetization
 augmentation part        7.9301091 magnetization

 Broyden mixing:
  rms(total) = 0.37378E-01    rms(broyden)= 0.37378E-01
  rms(prec ) = 0.96735E-01
  weight for this iteration     100.00

 eigenvalues of (default mixing * dielectric matrix)
  average eigenvalue GAMMA=   1.2842
  2.6321  2.3414  0.5824  0.5824  0.8393  0.7276

 Free energy of the ion-electron system (eV)
  ---------------------------------------------------
  alpha Z        PSCENC =       256.32281089
  Ewald energy   TEWEN  =     -3808.33216227
  -Hartree energ DENC   =      -678.55729193
  -exchange      EXHF   =         0.00000000
  -V(xc)+E(xc)   XCENC  =        92.11409427
  PAW double counting   =      4736.06166380    -4672.31671604
  entropy T*S    EENTRO =        -0.00151639
  eigenvalues    EBANDS =       -43.40336290
  atomic energy  EATOM  =      4095.35208632
  Solvation  Ediel_sol  =         0.00000000
  ---------------------------------------------------
  free energy    TOTEN  =       -22.76039425 eV

  energy without entropy =      -22.75887786  energy(sigma->0) =      -22.75963605


--------------------------------------------------------------------------------------------------------




--------------------------------------- Iteration      1(  12)  ---------------------------------------


    POTLOK:  cpu time    0.0600: real time    0.1126
    SETDIJ:  cpu time    0.0952: real time    0.0954
     EDDAV:  cpu time    1.9971: real time    1.9974
       DOS:  cpu time    0.0033: real time    0.0037
    CHARGE:  cpu time    0.2870: real time    0.2876
    MIXING:  cpu time    0.0043: real time    0.0044
    --------------------------------------------
      LOOP:  cpu time    2.4469: real time    2.4945

 eigenvalue-minimisations  :  6520
 total energy-change (2. order) : 0.8435032E-03  (-0.5747407E-03)
 number of electron      39.0000000 magnetization
 augmentation part        7.9170181 magnetization

 Broyden mixing:
  rms(total) = 0.64850E-02    rms(broyden)= 0.64849E-02
  rms(prec ) = 0.19450E-01
  weight for this iteration     100.00

 eigenvalues of (default mixing * dielectric matrix)
  average eigenvalue GAMMA=   1.2216
  2.6908  2.0189  0.5856  0.5856  0.9838  0.9838  0.7028

 Free energy of the ion-electron system (eV)
  ---------------------------------------------------
  alpha Z        PSCENC =       256.32281089
  Ewald energy   TEWEN  =     -3808.33216227
  -Hartree energ DENC   =      -678.68730653
  -exchange      EXHF   =         0.00000000
  -V(xc)+E(xc)   XCENC  =        92.11504690
  PAW double counting   =      4758.03845232    -4694.23744833
  entropy T*S    EENTRO =        -0.00154252
  eigenvalues    EBANDS =       -43.32948753
  atomic energy  EATOM  =      4095.35208632
  Solvation  Ediel_sol  =         0.00000000
  ---------------------------------------------------
  free energy    TOTEN  =       -22.75955074 eV

  energy without entropy =      -22.75800823  energy(sigma->0) =      -22.75877949


--------------------------------------------------------------------------------------------------------




--------------------------------------- Iteration      1(  13)  ---------------------------------------


    POTLOK:  cpu time    0.0708: real time    0.0994
    SETDIJ:  cpu time    0.0966: real time    0.0967
     EDDAV:  cpu time    2.0558: real time    2.0561
       DOS:  cpu time    0.0032: real time    0.0050
    CHARGE:  cpu time    0.2895: real time    0.2897
    MIXING:  cpu time    0.0044: real time    0.0045
    --------------------------------------------
      LOOP:  cpu time    2.5202: real time    2.5505

 eigenvalue-minimisations  :  6784
 total energy-change (2. order) :-0.7929503E-05  (-0.1876057E-03)
 number of electron      39.0000000 magnetization
 augmentation part        7.9082571 magnetization

 Broyden mixing:
  rms(total) = 0.61590E-02    rms(broyden)= 0.61590E-02
  rms(prec ) = 0.20188E-01
  weight for this iteration     100.00

 eigenvalues of (default mixing * dielectric matrix)
  average eigenvalue GAMMA=   1.2124
  2.6002  1.8536  0.5860  0.5860  1.3353  1.1283  0.8713  0.7387

 Free energy of the ion-electron system (eV)
  ---------------------------------------------------
  alpha Z        PSCENC =       256.32281089
  Ewald energy   TEWEN  =     -3808.33216227
  -Hartree energ DENC   =      -678.71063203
  -exchange      EXHF   =         0.00000000
  -V(xc)+E(xc)   XCENC  =        92.11708804
  PAW double counting   =      4758.95462625    -4695.13263266
  entropy T*S    EENTRO =        -0.00153968
  eigenvalues    EBANDS =       -43.32920353
  atomic energy  EATOM  =      4095.35208632
  Solvation  Ediel_sol  =         0.00000000
  ---------------------------------------------------
  free energy    TOTEN  =       -22.75955867 eV

  energy without entropy =      -22.75801900  energy(sigma->0) =      -22.75878884


--------------------------------------------------------------------------------------------------------




--------------------------------------- Iteration      1(  14)  ---------------------------------------


    POTLOK:  cpu time    0.0931: real time    0.1521
    SETDIJ:  cpu time    0.0961: real time    0.0962
     EDDAV:  cpu time    1.8259: real time    1.8261
       DOS:  cpu time    0.0033: real time    0.0043
    CHARGE:  cpu time    0.2864: real time    0.2865
    MIXING:  cpu time    0.0046: real time    0.0047
    --------------------------------------------
      LOOP:  cpu time    2.3094: real time    2.3700

 eigenvalue-minimisations  :  5864
 total energy-change (2. order) : 0.5360604E-04  (-0.6661900E-04)
 number of electron      39.0000000 magnetization
 augmentation part        7.9132618 magnetization

 Broyden mixing:
  rms(total) = 0.13011E-02    rms(broyden)= 0.13011E-02
  rms(prec ) = 0.36198E-02
  weight for this iteration     100.00

 eigenvalues of (default mixing * dielectric matrix)
  average eigenvalue GAMMA=   1.2916
  2.6598  2.1045  1.5300  1.5300  0.5860  0.5860  0.9525  0.9525  0.7230

 Free energy of the ion-electron system (eV)
  ---------------------------------------------------
  alpha Z        PSCENC =       256.32281089
  Ewald energy   TEWEN  =     -3808.33216227
  -Hartree energ DENC   =      -678.66042014
  -exchange      EXHF   =         0.00000000
  -V(xc)+E(xc)   XCENC  =        92.11487321
  PAW double counting   =      4758.61695105    -4694.78756614
  entropy T*S    EENTRO =        -0.00154256
  eigenvalues    EBANDS =       -43.38453543
  atomic energy  EATOM  =      4095.35208632
  Solvation  Ediel_sol  =         0.00000000
  ---------------------------------------------------
  free energy    TOTEN  =       -22.75950507 eV

  energy without entropy =      -22.75796251  energy(sigma->0) =      -22.75873379


--------------------------------------------------------------------------------------------------------




--------------------------------------- Iteration      1(  15)  ---------------------------------------


    POTLOK:  cpu time    0.0845: real time    0.1210
    SETDIJ:  cpu time    0.0950: real time    0.0952
     EDDAV:  cpu time    1.9527: real time    1.9530
       DOS:  cpu time    0.0031: real time    0.0036
    CHARGE:  cpu time    0.2893: real time    0.2894
    MIXING:  cpu time    0.0063: real time    0.0064
    --------------------------------------------
      LOOP:  cpu time    2.4310: real time    2.4690

 eigenvalue-minimisations  :  6376
 total energy-change (2. order) : 0.8447023E-07  (-0.4529770E-05)
 number of electron      39.0000000 magnetization
 augmentation part        7.9121540 magnetization

 Broyden mixing:
  rms(total) = 0.67099E-03    rms(broyden)= 0.67095E-03
  rms(prec ) = 0.20023E-02
  weight for this iteration     100.00

 eigenvalues of (default mixing * dielectric matrix)
  average eigenvalue GAMMA=   1.3104
  2.6578  2.3380  1.8571  1.4194  0.5860  0.5860  1.0036  1.0036  0.9271  0.7251

 Free energy of the ion-electron system (eV)
  ---------------------------------------------------
  alpha Z        PSCENC =       256.32281089
  Ewald energy   TEWEN  =     -3808.33216227
  -Hartree energ DENC   =      -678.67404108
  -exchange      EXHF   =         0.00000000
  -V(xc)+E(xc)   XCENC  =        92.11546105
  PAW double counting   =      4758.72581335    -4694.89235026
  entropy T*S    EENTRO =        -0.00154230
  eigenvalues    EBANDS =       -43.37558068
  atomic energy  EATOM  =      4095.35208632
  Solvation  Ediel_sol  =         0.00000000
  ---------------------------------------------------
  free energy    TOTEN  =       -22.75950498 eV

  energy without entropy =      -22.75796268  energy(sigma->0) =      -22.75873383


--------------------------------------------------------------------------------------------------------




--------------------------------------- Iteration      1(  16)  ---------------------------------------


    POTLOK:  cpu time    0.0652: real time    0.1355
    SETDIJ:  cpu time    0.0915: real time    0.0916
     EDDAV:  cpu time    1.9112: real time    1.9120
       DOS:  cpu time    0.0032: real time    0.0037
    CHARGE:  cpu time    0.2873: real time    0.2874
    MIXING:  cpu time    0.0053: real time    0.0061
    --------------------------------------------
      LOOP:  cpu time    2.3637: real time    2.4362

 eigenvalue-minimisations  :  6128
 total energy-change (2. order) : 0.5882684E-06  (-0.2807931E-06)
 number of electron      39.0000000 magnetization
 augmentation part        7.9124729 magnetization

 Broyden mixing:
  rms(total) = 0.18925E-03    rms(broyden)= 0.18913E-03
  rms(prec ) = 0.60402E-03
  weight for this iteration     100.00

 eigenvalues of (default mixing * dielectric matrix)
  average eigenvalue GAMMA=   1.3322
  2.6980  2.4006  2.0908  0.5860  0.5860  1.3372  1.3372  0.7235  1.0300  0.9325
  0.9325

 Free energy of the ion-electron system (eV)
  ---------------------------------------------------
  alpha Z        PSCENC =       256.32281089
  Ewald energy   TEWEN  =     -3808.33216227
  -Hartree energ DENC   =      -678.67117305
  -exchange      EXHF   =         0.00000000
  -V(xc)+E(xc)   XCENC  =        92.11541345
  PAW double counting   =      4758.56759186    -4694.73334642
  entropy T*S    EENTRO =        -0.00154245
  eigenvalues    EBANDS =       -43.37918272
  atomic energy  EATOM  =      4095.35208632
  Solvation  Ediel_sol  =         0.00000000
  ---------------------------------------------------
  free energy    TOTEN  =       -22.75950439 eV

  energy without entropy =      -22.75796194  energy(sigma->0) =      -22.75873317


--------------------------------------------------------------------------------------------------------




--------------------------------------- Iteration      1(  17)  ---------------------------------------


    POTLOK:  cpu time    0.0486: real time    0.0692
    SETDIJ:  cpu time    0.0956: real time    0.0960
     EDDAV:  cpu time    1.4259: real time    1.4261
       DOS:  cpu time    0.0031: real time    0.0046
    --------------------------------------------
      LOOP:  cpu time    1.5731: real time    1.5945

 eigenvalue-minimisations  :  4088
 total energy-change (2. order) : 0.7271501E-07  (-0.3215721E-07)
 number of electron      39.0000000 magnetization
 augmentation part        7.9124729 magnetization

 Free energy of the ion-electron system (eV)
  ---------------------------------------------------
  alpha Z        PSCENC =       256.32281089
  Ewald energy   TEWEN  =     -3808.33216227
  -Hartree energ DENC   =      -678.67101603
  -exchange      EXHF   =         0.00000000
  -V(xc)+E(xc)   XCENC  =        92.11542338
  PAW double counting   =      4758.55149219    -4694.71768325
  entropy T*S    EENTRO =        -0.00154249
  eigenvalues    EBANDS =       -43.37891307
  atomic energy  EATOM  =      4095.35208632
  Solvation  Ediel_sol  =         0.00000000
  ---------------------------------------------------
  free energy    TOTEN  =       -22.75950432 eV

  energy without entropy =      -22.75796184  energy(sigma->0) =      -22.75873308


--------------------------------------------------------------------------------------------------------




 average (electrostatic) potential at core
  the test charge radii are     1.2087  1.0856  1.2059
  (the norm of the test charge is              1.0000)
       1 -80.7392       2 -98.3217       3 -62.5296



 E-fermi :  12.6816     XC(G=0): -12.4547     alpha+bet :-19.0993


 k-point     1 :       0.0000    0.0000    0.0000
  band No.  band energies     occupation
      1     -31.2895      2.00000
      2     -10.5961      2.00000
      3     -10.5961      2.00000
      4     -10.5533      2.00000
      5     -10.5533      2.00000
      6     -10.5533      2.00000
      7      -6.8116      2.00000
      8      -6.8116      2.00000
      9      -6.8116      2.00000
     10      -0.9447      2.00000
     11       7.2846      2.00000
     12       7.2846      2.00000
     13       7.2846      2.00000
     14       7.3072      2.00000
     15       7.3072      2.00000
     16      11.2017      2.00000
     17      11.2017      2.00000
     18      11.2017      2.00000
     19      11.5015      2.00000
     20      12.4816      2.00000
     21      12.4816      2.00000
     22      12.4816      2.00000
     23      13.0478      0.00000
     24      13.0478      0.00000

 k-point     2 :       0.0769   -0.0000    0.0000
  band No.  band energies     occupation
      1     -31.2887      2.00000
      2     -10.6003      2.00000
      3     -10.6003      2.00000
      4     -10.5541      2.00000
      5     -10.5528      2.00000
      6     -10.5528      2.00000
      7      -6.8461      2.00000
      8      -6.8020      2.00000
      9      -6.8020      2.00000
     10      -0.8335      2.00000
     11       7.0047      2.00000
     12       7.0047      2.00000
     13       7.1517      2.00000
     14       7.5717      2.00000
     15       7.5717      2.00000
     16      10.5818      2.00000
     17      11.1289      2.00000
     18      11.1289      2.00000
     19      11.7641      2.00000
     20      12.5061      2.00000
     21      12.5061      2.00000
     22      12.6229      2.00000
     23      13.1183      0.00000
     24      13.1192      0.00000

 k-point     3 :       0.1538   -0.0000    0.0000
  band No.  band energies     occupation
      1     -31.2865      2.00000
      2     -10.6116      2.00000
      3     -10.6116      2.00000
      4     -10.5565      2.00000
      5     -10.5516      2.00000
      6     -10.5516      2.00000
      7      -6.9347      2.00000
      8      -6.7755      2.00000
[...]
  212              fftbas_plan_mpi                       0.061145                     12   6
  213                dfftw_execute                         0.025802                   36   7
  214                map_backward                          0.004728                   12   7
  215                  map_gather                            0.000712                  6   8
  216                  m_alltoallv_z                         0.002614                  6   8
  217                  map_scatter                           0.001117                  6   8
  218                map_forward                           0.027564                   12   7
  219                  map_gather                            0.015531                  6   8
  220                  m_alltoallv_z                         0.005322                  6   8
  221                  map_scatter                           0.006412                  6   8
  222            M_sumb_d                              0.004961                        6   5
  223          M_sumb_d                              0.000024                          1   4
  224        setdij_                               1.604229                           20   3
  225          fft3d_mpi                             0.220873                         40   4
  226            fftbas_plan_mpi                       0.203720                       40   5
  227              dfftw_execute                         0.087016                    120   6
  228              map_backward                          0.012694                     40   6
  229                map_gather                            0.002595                   20   7
  230                m_alltoallv_z                         0.005373                   20   7
  231                map_scatter                           0.003747                   20   7
  232              map_forward                           0.093374                     40   6
  233                map_gather                            0.051244                   20   7
  234                m_alltoallv_z                         0.018362                   20   7
  235                map_scatter                           0.022772                   20   7
  236          M_sumb_d                              0.019918                         20   4
  237        set_dd_magatom                        0.000003                            1   3
  238        set_dd_paw                            0.017465                            1   3
  239          set_rsgf_all                          0.000004                          1   4
  240          M_sumb_d                              0.017290                          8   4
  241        strkin                                0.000620                            1   3
  242          M_sumb_d                              0.000072                          1   4
  243        strelo                                0.003056                            1   3
  244          M_sumb_d                              0.000126                          2   4
  245        strenl                                0.902641                            1   3
  246          spher                                 0.669052                         19   4
  247          phase                                 0.010812                        189   4
  248          proj1                                 0.199518                       1134   4
  249            crexp_mul_wave                        0.028246                     3402   5
  250            M_sumb_d                              0.055462                     1134   5
  251          M_sumb_d                              0.002917                          1   4
  252        M_sumb_d                              0.000252                            6   3
  253        fft3d_mpi                             0.015037                           11   3
  254          fftbas_plan_mpi                       0.014045                         11   4
  255            dfftw_execute                         0.004871                       33   5
  256            map_forward                           0.002825                       10   5
  257              map_gather                            0.000572                      5   6
  258              m_alltoallv_z                         0.001291                      5   6
  259              map_scatter                           0.000732                      5   6
  260            map_backward                          0.003725                       12   5
  261              map_gather                            0.000817                      6   6
  262              m_alltoallv_z                         0.001516                      6   6
  263              map_scatter                           0.001107                      6   6
  264        ggaall_grid                           0.001482                            1   3
  265        forhar                                0.006091                            2   3
  266          M_sumb_d                              0.000298                          2   4
  267        strehar                               0.002738                            1   3
  268          M_sumb_d                              0.000338                          1   4
  269        chggra                                0.005855                            1   3
  270          fft3d_mpi                             0.004192                          3   4
  271            fftbas_plan_mpi                       0.003916                        3   5
  272              dfftw_execute                         0.001399                      9   6
  273              map_backward                          0.000619                      2   6
  274                map_gather                            0.000123                    1   7
  275                m_alltoallv_z                         0.000254                    1   7
  276                map_scatter                           0.000189                    1   7
  277              map_forward                           0.001061                      4   6
  278                map_gather                            0.000208                    2   7
  279                m_alltoallv_z                         0.000514                    2   7
  280                map_scatter                           0.000247                    2   7
  281          M_sumb_d                              0.000126                          3   4
  282        brmix                                 0.005317                            1   3
  283          M_sumb_d                              0.000260                          6   4
  284          brpre                                 0.000050                          1   4
  285          setg0                                 0.001378                          1   4
  286          broyd                                 0.002548                          1   4
  287            M_sumb_d                              0.000703                       19   5
  288            brget                                 0.000321                       69   5
  289            brsav                                 0.000122                       17   5
  290          M_bcast_z                             0.000131                          1   4
  291          M_bcast_d                             0.000068                          1   4
  292        M_bcast_d                             0.000393                            2   3
  293      potlok                                0.026973                              1   2
  294        fft3d_mpi                             0.018336                           13   3
  295          fftbas_plan_mpi                       0.017153                         13   4
  296            dfftw_execute                         0.005849                       39   5
  297            map_forward                           0.004203                       14   5
  298              map_gather                            0.000863                      8   6
  299              m_alltoallv_z                         0.001933                      8   6
  300              map_scatter                           0.001040                      8   6
  301            map_backward                          0.004026                       12   5
  302              map_gather                            0.000830                      6   6
  303              m_alltoallv_z                         0.001751                      6   6
  304              map_scatter                           0.001154                      6   6
  305        ggaall_grid                           0.001556                            1   3
  306        M_sumb_d                              0.000253                            6   3
  307        M_bcast_d                             0.000107                            1   3
  308      potlok_metagga                        0.000004                              1   2
  309      set_dd_magatom                        0.000003                              1   2
  310      set_dd_paw                            0.000472                              1   2
  311        set_rsgf_all                          0.000004                            1   3
  312        M_sumb_d                              0.000273                            8   3
  313      densta                                0.002485                              1   2
  314        M_sumb_d                              0.000926                           42   3
  315      lprj_proall                           0.000008                              1   2

 Flat profile
 ============

             routine name                   CPU           calls
 ---------------------------------------------------------------
 total_time                             13.096192           1
 eddav                                   5.731194          17
 dfftw_execute                           5.318900       54942
 fftbas_plan_mpi                         3.666275       18316
 setdij_                                 2.928382          41
 M_sumb_d                                2.926399       50582
 set_charge                              2.376643          13
 m_alltoallv_z                           2.005898       18341
 elmin                                   1.984095           1
 pdssyex_zheevx                          1.573560         357
 M_alltoall_d                            1.298553       60760
 orth1                                   0.944979       12447
 proj1                                   0.899578        7402
 vhamil                                  0.836568        8284
 gemm                                    0.797613       24852
 spher                                   0.740317          20
 fftwav_mpi                              0.710746        9725
 M_bcast_z                               0.709198        6695
 map_forward                             0.708034       19744
 map_gather                              0.646691       18341
 map_scatter                             0.604351       18341
 vnlac0                                  0.547901        8284
 redis_pw                                0.502873       23466
 redis_proj                              0.454849       29629
 hamiltmu                                0.448094        4142
 w1_copy                                 0.329268       24852
 map_backward                            0.297014       16884
 fft3d_mpi                               0.287707       18314
 work_mul_crexp                          0.257952       24852
 fftext_mpi                              0.252884        8284
 crpa_reader                             0.226934           1
 crexp_mul_wave                          0.201030       22206
 eccp                                    0.192349        2142
 overl                                   0.163514       14447
 kinhamil                                0.161656        8284
 M_bcast_d                               0.135142        4176
 overl1                                  0.102607        8284
 potlok                                  0.092112          14
 pw_charge                               0.091440        1441
 apply_precond                           0.077951        6142
 setup_precond                           0.070689        2142
 w1_projall                              0.066684        3071
 force_and_stress                        0.060597           1
 lincom                                  0.058911         378
 fornl                                   0.040401           1
 soft_charge                             0.035833          13
 truncate_high_frequency_w1              0.035532       10426
 phase                                   0.033658         589
 densta                                  0.028298          18
 ggaall_grid                             0.022989          15
 strenl                                  0.020341           1
 brmix                                   0.018426          13
 setg0                                   0.015528          14
 broyd                                   0.010323          13
 forhar                                  0.005793           2
 depsum                                  0.005712          13
 strelo                                  0.002930           1
 set_dd_paw                              0.002926          15
 forloc                                  0.002909           1
 strehar                                 0.002400           1
 brget                                   0.002279         501
 orthch                                  0.002069           1
 choleski                                0.001760          21
 brgrid                                  0.001659           1
 chggra                                  0.001537           1
 proj                                    0.001440          21
 brsav                                   0.001168         145
 brpre                                   0.000903          13
 strkin                                  0.000548           1
 fordep                                  0.000116           1
 set_dd_magatom                          0.000077          15
 vectorpot                               0.000076          14
 potlok_metagga                          0.000069          14
 set_rsgf_all                            0.000066          15
 set_kineden                             0.000043          12
 rotate_active_occupied_orbital          0.000015           1
 lprj_proall                             0.000008           1
 redis_pw_over_bands                     0.000003           1
 ---------------------------------------------------------------
  summed up times    55.8821580410004

 Accumulative profile
 ====================

             routine name                   CPU           calls
 ---------------------------------------------------------------
 total_time                             55.882158           1
 elmin                                  38.141927           1
 eddav                                  30.923726          17
 fft3d_mpi                              13.506101       18314
 fftbas_plan_mpi                        13.247163       18316
 hamiltmu                                9.527760        4142
 fftwav_mpi                              7.666621        9725
 kinhamil                                6.014774        8284
 fftext_mpi                              5.853117        8284
 dfftw_execute                           5.318900       54942
 set_charge                              3.817109          13
 force_and_stress                        3.458962           1
 setdij_                                 3.454671          41
 M_sumb_d                                2.926399       50582
 map_forward                             2.485265       19744
 vnlac0                                  2.125718        8284
 m_alltoallv_z                           2.005898       18341
 map_backward                            1.776723       16884
 pdssyex_zheevx                          1.573560         357
 proj1                                   1.563652        7402
 w1_projall                              1.408176        3071
 M_alltoall_d                            1.298553       60760
 redis_pw                                1.217994       23466
 soft_charge                             1.215559          13
 redis_proj                              1.038281       29629
 orth1                                   0.944979       12447
 strenl                                  0.902641           1
 vhamil                                  0.836568        8284
 gemm                                    0.797613       24852
 spher                                   0.740317          20
 M_bcast_z                               0.709198        6695
 map_gather                              0.646691       18341
 map_scatter                             0.604351       18341
 fordep                                  0.487114           1
 potlok                                  0.367937          14
 w1_copy                                 0.329268       24852
 eccp                                    0.315756        2142
 work_mul_crexp                          0.257952       24852
 crpa_reader                             0.226934           1
 crexp_mul_wave                          0.201030       22206
 set_dd_paw                              0.173569          15
 overl                                   0.163514       14447
 M_bcast_d                               0.135142        4176
 setup_precond                           0.121010        2142
 overl1                                  0.102607        8284
 pw_charge                               0.091440        1441
 apply_precond                           0.077951        6142
 brmix                                   0.062000          13
 lincom                                  0.058911         378
 fornl                                   0.054512           1
 densta                                  0.043185          18
 truncate_high_frequency_w1              0.035532       10426
 phase                                   0.033658         589
 orthch                                  0.027102           1
 proj                                    0.024081          21
 ggaall_grid                             0.022989          15
 broyd                                   0.019406          13
 setg0                                   0.015528          14
 depsum                                  0.009371          13
 forhar                                  0.006091           2
 chggra                                  0.005855           1
 forloc                                  0.003220           1
 strelo                                  0.003056           1
 strehar                                 0.002738           1
 brget                                   0.002279         501
 choleski                                0.001760          21
 brgrid                                  0.001659           1
 brsav                                   0.001168         145
 brpre                                   0.000903          13
 strkin                                  0.000620           1
 set_dd_magatom                          0.000077          15
 vectorpot                               0.000076          14
 potlok_metagga                          0.000069          14
 set_rsgf_all                            0.000066          15
 set_kineden                             0.000043          12
 rotate_active_occupied_orbital          0.000015           1
 lprj_proall                             0.000008           1
 redis_pw_over_bands                     0.000003           1
 ---------------------------------------------------------------

Profiling took   1.434753  1.744362  0.005970  0.004488 seconds
Profiling took   1.389889 seconds
