 ----------------------------------------------------
    OOO  PPPP  EEEEE N   N M   M PPPP
   O   O P   P E     NN  N MM MM P   P
   O   O PPPP  EEEEE N N N M M M PPPP   -- VERSION
   O   O P     E     N  NN M   M P
    OOO  P     EEEEE N   N M   M P
 ----------------------------------------------------
 running   64 mpi-ranks, with    1 threads/rank
 distrk:  each k-point on   16 cores,    4 groups
 distr:  one band on    4 cores,    4 groups
 using from now: INCAR
 vasp.6.0.8 29Jun18 (build Jun 13 2019 12:54:44) complex

 POSCAR found type information on POSCAR  U  Bi Pt
 POSCAR found :  3 types and       3 ions
 scaLAPACK will be used
 WARNING: PSMAXN for non-local potential too small

 -----------------------------------------------------------------------------
|                                                                             |
|  ADVICE TO THIS USER RUNNING 'VASP/VAMP'   (HEAR YOUR MASTER'S VOICE ...):  |
|                                                                             |
|      You enforced a specific xc-type in the INCAR file,                     |
|      a different type was found on the POTCAR file                          |
|          I HOPE YOU KNOW, WHAT YOU ARE  DOING                               |
|                                                                             |
 -----------------------------------------------------------------------------

 LDA part: xc-table for Pade appr. of Perdew
 POSCAR, INCAR and KPOINTS ok, starting setup
 FFT: planning ...
 WAVECAR not read
 entering main loop
       N       E                     dE             d eps       ncg     rms          rms(c)
 ELPA: falling back to scaLAPACK
 ELPA: falling back to scaLAPACK
 ELPA: falling back to scaLAPACK
 ELPA: falling back to scaLAPACK
DAV:   1     0.440359640523E+03    0.44036E+03   -0.22807E+04  4032   0.244E+03
DAV:   2     0.334449304471E+02   -0.40691E+03   -0.39775E+03  4200   0.518E+02
DAV:   3    -0.192426737701E+02   -0.52688E+02   -0.51495E+02  4872   0.187E+02
DAV:   4    -0.251716016506E+02   -0.59289E+01   -0.59027E+01  7336   0.491E+01
DAV:   5    -0.253500642757E+02   -0.17846E+00   -0.17833E+00  5400   0.755E+00    0.178E+01
DAV:   6    -0.296075911033E+02   -0.42575E+01   -0.15107E+02  6176   0.886E+01    0.233E+01
DAV:   7    -0.232484983972E+02    0.63591E+01   -0.24078E+01  5824   0.293E+01    0.920E+00
DAV:   8    -0.232985435046E+02   -0.50045E-01   -0.17926E+01  5992   0.214E+01    0.621E+00
DAV:   9    -0.227546513598E+02    0.54389E+00   -0.54797E+00  6144   0.150E+01    0.979E-01
DAV:  10    -0.227621649980E+02   -0.75136E-02   -0.15793E-01  5952   0.234E+00    0.464E-01
DAV:  11    -0.227603942473E+02    0.17708E-02   -0.54639E-02  6672   0.148E+00    0.374E-01
DAV:  12    -0.227595507441E+02    0.84350E-03   -0.57474E-03  6520   0.524E-01    0.648E-02
DAV:  13    -0.227595586736E+02   -0.79295E-05   -0.18761E-03  6784   0.259E-01    0.616E-02
DAV:  14    -0.227595050675E+02    0.53606E-04   -0.66619E-04  5864   0.152E-01    0.130E-02
DAV:  15    -0.227595049830E+02    0.84470E-07   -0.45298E-05  6376   0.442E-02    0.671E-03
DAV:  16    -0.227595043948E+02    0.58827E-06   -0.28079E-06  6128   0.113E-02    0.189E-03
DAV:  17    -0.227595043221E+02    0.72715E-07   -0.32157E-07  4088   0.333E-03
   1 F= -.22759504E+02 E0= -.22758733E+02  d E =-.154249E-02
