   2   2   0   0
  0.2485574E+02  0.4127217E-09  0.4127217E-09  0.4127217E-09  0.0000000E+00
   1.0000000000000000E-004
  CAR 
 unknown system                          
     20.19680074    -24.36393340  301     -1.28339723      1.00000000
    -24.364  0.0000E+00  0.0000E+00
    -24.215  0.0000E+00  0.0000E+00
    -24.067  0.0000E+00  0.0000E+00
    -23.918  0.0000E+00  0.0000E+00
    -23.770  0.0000E+00  0.0000E+00
    -23.621  0.0000E+00  0.0000E+00
    -23.473  0.0000E+00  0.0000E+00
    -23.324  0.0000E+00  0.0000E+00
    -23.176  0.0000E+00  0.0000E+00
    -23.027  0.0000E+00  0.0000E+00
    -22.879  0.0000E+00  0.0000E+00
    -22.730  0.0000E+00  0.0000E+00
    -22.582  0.0000E+00  0.0000E+00
    -22.433  0.0000E+00  0.0000E+00
    -22.284  0.4039E+02  0.6000E+01
    -22.136  0.0000E+00  0.6000E+01
    -21.987  0.0000E+00  0.6000E+01
    -21.839  0.0000E+00  0.6000E+01
    -21.690  0.0000E+00  0.6000E+01
    -21.542  0.0000E+00  0.6000E+01
    -21.393  0.0000E+00  0.6000E+01
    -21.245  0.0000E+00  0.6000E+01
    -21.096  0.0000E+00  0.6000E+01
    -20.948  0.0000E+00  0.6000E+01
    -20.799  0.0000E+00  0.6000E+01
    -20.651  0.0000E+00  0.6000E+01
    -20.502  0.0000E+00  0.6000E+01
    -20.353  0.0000E+00  0.6000E+01
    -20.205  0.0000E+00  0.6000E+01
    -20.056  0.0000E+00  0.6000E+01
    -19.908  0.0000E+00  0.6000E+01
    -19.759  0.0000E+00  0.6000E+01
    -19.611  0.0000E+00  0.6000E+01
    -19.462  0.0000E+00  0.6000E+01
    -19.314  0.0000E+00  0.6000E+01
    -19.165  0.0000E+00  0.6000E+01
    -19.017  0.0000E+00  0.6000E+01
    -18.868  0.0000E+00  0.6000E+01
    -18.720  0.0000E+00  0.6000E+01
    -18.571  0.0000E+00  0.6000E+01
    -18.423  0.0000E+00  0.6000E+01
    -18.274  0.0000E+00  0.6000E+01
    -18.125  0.0000E+00  0.6000E+01
    -17.977  0.0000E+00  0.6000E+01
    -17.828  0.0000E+00  0.6000E+01
    -17.680  0.0000E+00  0.6000E+01
    -17.531  0.0000E+00  0.6000E+01
    -17.383  0.0000E+00  0.6000E+01
    -17.234  0.0000E+00  0.6000E+01
    -17.086  0.0000E+00  0.6000E+01
    -16.937  0.0000E+00  0.6000E+01
    -16.789  0.0000E+00  0.6000E+01
    -16.640  0.0000E+00  0.6000E+01
    -16.492  0.0000E+00  0.6000E+01
    -16.343  0.0000E+00  0.6000E+01
    -16.194  0.0000E+00  0.6000E+01
    -16.046  0.0000E+00  0.6000E+01
    -15.897  0.0000E+00  0.6000E+01
    -15.749  0.0000E+00  0.6000E+01
    -15.600  0.0000E+00  0.6000E+01
    -15.452  0.0000E+00  0.6000E+01
    -15.303  0.0000E+00  0.6000E+01
    -15.155  0.0000E+00  0.6000E+01
    -15.006  0.0000E+00  0.6000E+01
    -14.858  0.0000E+00  0.6000E+01
    -14.709  0.0000E+00  0.6000E+01
    -14.561  0.0000E+00  0.6000E+01
    -14.412  0.0000E+00  0.6000E+01
    -14.264  0.0000E+00  0.6000E+01
    -14.115  0.0000E+00  0.6000E+01
    -13.966  0.0000E+00  0.6000E+01
    -13.818  0.0000E+00  0.6000E+01
    -13.669  0.1601E+01  0.6052E+01
    -13.521  0.9366E+01  0.6571E+01
    -13.372  0.8586E+01  0.8000E+01
    -13.224  0.0000E+00  0.8000E+01
    -13.075  0.0000E+00  0.8000E+01
    -12.927  0.0000E+00  0.8000E+01
    -12.778  0.0000E+00  0.8000E+01
    -12.630  0.0000E+00  0.8000E+01
    -12.481  0.0000E+00  0.8000E+01
    -12.333  0.0000E+00  0.8000E+01
    -12.184  0.0000E+00  0.8000E+01
    -12.035  0.0000E+00  0.8000E+01
    -11.887  0.0000E+00  0.8000E+01
    -11.738  0.0000E+00  0.8000E+01
    -11.590  0.0000E+00  0.8000E+01
    -11.441  0.0000E+00  0.8000E+01
    -11.293  0.0000E+00  0.8000E+01
    -11.144  0.0000E+00  0.8000E+01
    -10.996  0.0000E+00  0.8000E+01
    -10.847  0.0000E+00  0.8000E+01
    -10.699  0.0000E+00  0.8000E+01
    -10.550  0.0000E+00  0.8000E+01
    -10.402  0.0000E+00  0.8000E+01
    -10.253  0.0000E+00  0.8000E+01
    -10.104  0.0000E+00  0.8000E+01
     -9.956  0.0000E+00  0.8000E+01
     -9.807  0.0000E+00  0.8000E+01
     -9.659  0.0000E+00  0.8000E+01
     -9.510  0.0000E+00  0.8000E+01
     -9.362  0.0000E+00  0.8000E+01
     -9.213  0.0000E+00  0.8000E+01
     -9.065  0.0000E+00  0.8000E+01
     -8.916  0.0000E+00  0.8000E+01
     -8.768  0.0000E+00  0.8000E+01
     -8.619  0.0000E+00  0.8000E+01
     -8.471  0.0000E+00  0.8000E+01
     -8.322  0.0000E+00  0.8000E+01
     -8.174  0.0000E+00  0.8000E+01
     -8.025  0.0000E+00  0.8000E+01
     -7.876  0.0000E+00  0.8000E+01
     -7.728  0.0000E+00  0.8000E+01
     -7.579  0.0000E+00  0.8000E+01
     -7.431  0.0000E+00  0.8000E+01
     -7.282  0.0000E+00  0.8000E+01
     -7.134  0.0000E+00  0.8000E+01
     -6.985  0.0000E+00  0.8000E+01
     -6.837  0.0000E+00  0.8000E+01
     -6.688  0.0000E+00  0.8000E+01
     -6.540  0.0000E+00  0.8000E+01
     -6.391  0.0000E+00  0.8000E+01
     -6.243  0.0000E+00  0.8000E+01
     -6.094  0.0000E+00  0.8000E+01
     -5.945  0.0000E+00  0.8000E+01
     -5.797  0.0000E+00  0.8000E+01
     -5.648  0.0000E+00  0.8000E+01
     -5.500  0.0000E+00  0.8000E+01
     -5.351  0.0000E+00  0.8000E+01
     -5.203  0.0000E+00  0.8000E+01
     -5.054  0.0000E+00  0.8000E+01
     -4.906  0.0000E+00  0.8000E+01
     -4.757  0.0000E+00  0.8000E+01
     -4.609  0.0000E+00  0.8000E+01
     -4.460  0.0000E+00  0.8000E+01
     -4.312  0.0000E+00  0.8000E+01
     -4.163  0.0000E+00  0.8000E+01
     -4.015  0.0000E+00  0.8000E+01
     -3.866  0.0000E+00  0.8000E+01
     -3.717  0.0000E+00  0.8000E+01
     -3.569  0.0000E+00  0.8000E+01
     -3.420  0.0000E+00  0.8000E+01
     -3.272  0.0000E+00  0.8000E+01
     -3.123  0.0000E+00  0.8000E+01
     -2.975  0.0000E+00  0.8000E+01
     -2.826  0.1036E+01  0.8045E+01
     -2.678  0.2457E+01  0.8264E+01
     -2.529  0.9058E+01  0.9042E+01
     -2.381  0.2079E+01  0.9631E+01
     -2.232  0.1395E+01  0.9796E+01
     -2.084  0.3053E+01  0.1014E+02
     -1.935  0.3096E+01  0.1056E+02
     -1.786  0.6669E+01  0.1115E+02
     -1.638  0.8713E+01  0.1219E+02
     -1.489  0.9371E+01  0.1335E+02
     -1.341  0.3592E+01  0.1393E+02
     -1.192  0.7354E-01  0.1400E+02
     -1.044  0.0000E+00  0.1400E+02
     -0.895  0.0000E+00  0.1400E+02
     -0.747  0.0000E+00  0.1400E+02
     -0.598  0.0000E+00  0.1400E+02
     -0.450  0.0000E+00  0.1400E+02
     -0.301  0.0000E+00  0.1400E+02
     -0.153  0.0000E+00  0.1400E+02
     -0.004  0.0000E+00  0.1400E+02
      0.144  0.0000E+00  0.1400E+02
      0.293  0.0000E+00  0.1400E+02
      0.442  0.0000E+00  0.1400E+02
      0.590  0.0000E+00  0.1400E+02
      0.739  0.0000E+00  0.1400E+02
      0.887  0.0000E+00  0.1400E+02
      1.036  0.0000E+00  0.1400E+02
      1.184  0.0000E+00  0.1400E+02
      1.333  0.0000E+00  0.1400E+02
      1.481  0.0000E+00  0.1400E+02
      1.630  0.0000E+00  0.1400E+02
      1.778  0.0000E+00  0.1400E+02
      1.927  0.0000E+00  0.1400E+02
      2.075  0.0000E+00  0.1400E+02
      2.224  0.0000E+00  0.1400E+02
      2.373  0.0000E+00  0.1400E+02
      2.521  0.0000E+00  0.1400E+02
      2.670  0.0000E+00  0.1400E+02
      2.818  0.0000E+00  0.1400E+02
      2.967  0.0000E+00  0.1400E+02
      3.115  0.0000E+00  0.1400E+02
      3.264  0.0000E+00  0.1400E+02
      3.412  0.0000E+00  0.1400E+02
      3.561  0.1544E-01  0.1400E+02
      3.709  0.4464E-01  0.1401E+02
      3.858  0.6504E-01  0.1401E+02
      4.006  0.8610E-01  0.1403E+02
      4.155  0.1034E+00  0.1404E+02
      4.303  0.1240E+00  0.1406E+02
      4.452  0.1458E+00  0.1408E+02
      4.601  0.1694E+00  0.1410E+02
      4.749  0.1958E+00  0.1413E+02
      4.898  0.2253E+00  0.1416E+02
      5.046  0.2581E+00  0.1419E+02
      5.195  0.2994E+00  0.1423E+02
      5.343  0.3502E+00  0.1428E+02
      5.492  0.4114E+00  0.1434E+02
      5.640  0.5053E+00  0.1441E+02
      5.789  0.6679E+00  0.1449E+02
      5.937  0.8351E+00  0.1461E+02
      6.086  0.1302E+01  0.1477E+02
      6.234  0.1201E+01  0.1495E+02
      6.383  0.1180E+01  0.1513E+02
      6.532  0.1168E+01  0.1530E+02
      6.680  0.1102E+01  0.1547E+02
      6.829  0.1036E+01  0.1563E+02
      6.977  0.1218E+01  0.1579E+02
      7.126  0.1324E+01  0.1599E+02
      7.274  0.5945E+00  0.1613E+02
      7.423  0.8231E+00  0.1624E+02
      7.571  0.2740E+01  0.1644E+02
      7.720  0.1839E+01  0.1681E+02
      7.868  0.1511E+01  0.1705E+02
      8.017  0.1597E+01  0.1727E+02
      8.165  0.2309E+01  0.1753E+02
      8.314  0.2921E+01  0.1791E+02
      8.462  0.2428E+01  0.1829E+02
      8.611  0.2533E+01  0.1870E+02
      8.760  0.1896E+01  0.1901E+02
      8.908  0.1386E+01  0.1925E+02
      9.057  0.1117E+01  0.1944E+02
      9.205  0.8642E+00  0.1958E+02
      9.354  0.6504E+00  0.1970E+02
      9.502  0.6726E+00  0.1978E+02
      9.651  0.9096E+00  0.1991E+02
      9.799  0.1452E+01  0.2007E+02
      9.948  0.1760E+01  0.2035E+02
     10.096  0.2217E+01  0.2064E+02
     10.245  0.2648E+01  0.2103E+02
     10.393  0.1486E+01  0.2133E+02
     10.542  0.1050E+01  0.2151E+02
     10.691  0.1102E+01  0.2167E+02
     10.839  0.1045E+01  0.2183E+02
     10.988  0.9051E+00  0.2197E+02
     11.136  0.8607E+00  0.2210E+02
     11.285  0.8102E+00  0.2223E+02
     11.433  0.7334E+00  0.2234E+02
     11.582  0.8022E+00  0.2245E+02
     11.730  0.1081E+01  0.2260E+02
     11.879  0.1325E+01  0.2277E+02
     12.027  0.1654E+01  0.2300E+02
     12.176  0.1789E+01  0.2326E+02
     12.324  0.1853E+01  0.2353E+02
     12.473  0.1564E+01  0.2379E+02
     12.621  0.1117E+01  0.2399E+02
     12.770  0.8286E+00  0.2412E+02
     12.919  0.9295E+00  0.2425E+02
     13.067  0.9389E+00  0.2439E+02
     13.216  0.9469E+00  0.2453E+02
     13.364  0.9519E+00  0.2467E+02
     13.513  0.1174E+01  0.2483E+02
     13.661  0.1851E+01  0.2508E+02
     13.810  0.1938E+01  0.2535E+02
     13.958  0.2149E+01  0.2565E+02
     14.107  0.1576E+01  0.2588E+02
     14.255  0.1665E+01  0.2612E+02
     14.404  0.9636E+00  0.2634E+02
     14.552  0.7845E+00  0.2646E+02
     14.701  0.1296E+01  0.2660E+02
     14.850  0.2701E+01  0.2691E+02
     14.998  0.3239E+01  0.2734E+02
     15.147  0.1933E+01  0.2771E+02
     15.295  0.1616E+01  0.2797E+02
     15.444  0.1733E+01  0.2821E+02
     15.592  0.1985E+01  0.2850E+02
     15.741  0.2057E+01  0.2880E+02
     15.889  0.2102E+01  0.2910E+02
     16.038  0.2173E+01  0.2942E+02
     16.186  0.2086E+01  0.2973E+02
     16.335  0.2057E+01  0.3005E+02
     16.483  0.1912E+01  0.3034E+02
     16.632  0.1412E+01  0.3058E+02
     16.780  0.1667E+01  0.3080E+02
     16.929  0.2409E+01  0.3112E+02
     17.078  0.2338E+01  0.3147E+02
     17.226  0.1471E+01  0.3177E+02
     17.375  0.6231E+00  0.3191E+02
     17.523  0.1709E+00  0.3197E+02
     17.672  0.8420E-01  0.3199E+02
     17.820  0.4228E-01  0.3200E+02
     17.969  0.1409E-01  0.3200E+02
     18.117  0.1002E-02  0.3200E+02
     18.266  0.0000E+00  0.3200E+02
     18.414  0.0000E+00  0.3200E+02
     18.563  0.0000E+00  0.3200E+02
     18.711  0.0000E+00  0.3200E+02
     18.860  0.0000E+00  0.3200E+02
     19.009  0.0000E+00  0.3200E+02
     19.157  0.0000E+00  0.3200E+02
     19.306  0.0000E+00  0.3200E+02
     19.454  0.0000E+00  0.3200E+02
     19.603  0.0000E+00  0.3200E+02
     19.751  0.0000E+00  0.3200E+02
     19.900  0.0000E+00  0.3200E+02
     20.048  0.0000E+00  0.3200E+02
     20.197  0.0000E+00  0.3200E+02
