   3   3   0   0
  0.2678162E+02  0.4843482E-09  0.4843482E-09  0.4843482E-09  0.1000000E-16
  1.000000000000000E-004
  CAR
 unknown system
     12.69585227    -33.68723945  301      8.48487686      1.00000000
    -33.687  0.0000E+00  0.0000E+00
    -33.533  0.0000E+00  0.0000E+00
    -33.378  0.0000E+00  0.0000E+00
    -33.223  0.0000E+00  0.0000E+00
    -33.069  0.0000E+00  0.0000E+00
    -32.914  0.0000E+00  0.0000E+00
    -32.760  0.0000E+00  0.0000E+00
    -32.605  0.0000E+00  0.0000E+00
    -32.450  0.0000E+00  0.0000E+00
    -32.296  0.0000E+00  0.0000E+00
    -32.141  0.0000E+00  0.0000E+00
    -31.987  0.0000E+00  0.0000E+00
    -31.832  0.0000E+00  0.0000E+00
    -31.677  0.0000E+00  0.0000E+00
    -31.523  0.1772E+00  0.2740E-01
    -31.368  0.0000E+00  0.2740E-01
    -31.213  0.0000E+00  0.2740E-01
    -31.059  0.0000E+00  0.2740E-01
    -30.904  0.0000E+00  0.2740E-01
    -30.750  0.0000E+00  0.2740E-01
    -30.595  0.0000E+00  0.2740E-01
    -30.440  0.0000E+00  0.2740E-01
    -30.286  0.0000E+00  0.2740E-01
    -30.131  0.0000E+00  0.2740E-01
    -29.977  0.0000E+00  0.2740E-01
    -29.822  0.0000E+00  0.2740E-01
    -29.667  0.0000E+00  0.2740E-01
    -29.513  0.0000E+00  0.2740E-01
    -29.358  0.0000E+00  0.2740E-01
    -29.204  0.0000E+00  0.2740E-01
    -29.049  0.0000E+00  0.2740E-01
    -28.894  0.0000E+00  0.2740E-01
    -28.740  0.0000E+00  0.2740E-01
    -28.585  0.0000E+00  0.2740E-01
    -28.430  0.0000E+00  0.2740E-01
    -28.276  0.0000E+00  0.2740E-01
    -28.121  0.0000E+00  0.2740E-01
    -27.967  0.0000E+00  0.2740E-01
    -27.812  0.0000E+00  0.2740E-01
    -27.657  0.0000E+00  0.2740E-01
    -27.503  0.0000E+00  0.2740E-01
    -27.348  0.0000E+00  0.2740E-01
    -27.194  0.0000E+00  0.2740E-01
    -27.039  0.0000E+00  0.2740E-01
    -26.884  0.0000E+00  0.2740E-01
    -26.730  0.0000E+00  0.2740E-01
    -26.575  0.0000E+00  0.2740E-01
    -26.421  0.0000E+00  0.2740E-01
    -26.266  0.0000E+00  0.2740E-01
    -26.111  0.0000E+00  0.2740E-01
    -25.957  0.0000E+00  0.2740E-01
    -25.802  0.0000E+00  0.2740E-01
    -25.648  0.0000E+00  0.2740E-01
    -25.493  0.0000E+00  0.2740E-01
    -25.338  0.0000E+00  0.2740E-01
    -25.184  0.0000E+00  0.2740E-01
    -25.029  0.0000E+00  0.2740E-01
    -24.874  0.0000E+00  0.2740E-01
    -24.720  0.0000E+00  0.2740E-01
    -24.565  0.0000E+00  0.2740E-01
    -24.411  0.0000E+00  0.2740E-01
    -24.256  0.0000E+00  0.2740E-01
    -24.101  0.0000E+00  0.2740E-01
    -23.947  0.0000E+00  0.2740E-01
    -23.792  0.0000E+00  0.2740E-01
    -23.638  0.0000E+00  0.2740E-01
    -23.483  0.0000E+00  0.2740E-01
    -23.328  0.0000E+00  0.2740E-01
    -23.174  0.0000E+00  0.2740E-01
    -23.019  0.0000E+00  0.2740E-01
    -22.865  0.0000E+00  0.2740E-01
    -22.710  0.0000E+00  0.2740E-01
    -22.555  0.0000E+00  0.2740E-01
    -22.401  0.0000E+00  0.2740E-01
    -22.246  0.0000E+00  0.2740E-01
    -22.091  0.0000E+00  0.2740E-01
    -21.937  0.0000E+00  0.2740E-01
    -21.782  0.0000E+00  0.2740E-01
    -21.628  0.0000E+00  0.2740E-01
    -21.473  0.0000E+00  0.2740E-01
    -21.318  0.0000E+00  0.2740E-01
    -21.164  0.0000E+00  0.2740E-01
    -21.009  0.0000E+00  0.2740E-01
    -20.855  0.0000E+00  0.2740E-01
    -20.700  0.0000E+00  0.2740E-01
    -20.545  0.0000E+00  0.2740E-01
    -20.391  0.0000E+00  0.2740E-01
    -20.236  0.0000E+00  0.2740E-01
    -20.082  0.0000E+00  0.2740E-01
    -19.927  0.0000E+00  0.2740E-01
    -19.772  0.0000E+00  0.2740E-01
    -19.618  0.0000E+00  0.2740E-01
    -19.463  0.0000E+00  0.2740E-01
    -19.308  0.0000E+00  0.2740E-01
    -19.154  0.0000E+00  0.2740E-01
    -18.999  0.0000E+00  0.2740E-01
    -18.845  0.0000E+00  0.2740E-01
    -18.690  0.0000E+00  0.2740E-01
    -18.535  0.0000E+00  0.2740E-01
    -18.381  0.0000E+00  0.2740E-01
    -18.226  0.0000E+00  0.2740E-01
    -18.072  0.0000E+00  0.2740E-01
    -17.917  0.0000E+00  0.2740E-01
    -17.762  0.0000E+00  0.2740E-01
    -17.608  0.0000E+00  0.2740E-01
    -17.453  0.0000E+00  0.2740E-01
    -17.299  0.0000E+00  0.2740E-01
    -17.144  0.0000E+00  0.2740E-01
    -16.989  0.0000E+00  0.2740E-01
    -16.835  0.0000E+00  0.2740E-01
    -16.680  0.0000E+00  0.2740E-01
    -16.525  0.0000E+00  0.2740E-01
    -16.371  0.0000E+00  0.2740E-01
    -16.216  0.0000E+00  0.2740E-01
    -16.062  0.0000E+00  0.2740E-01
    -15.907  0.0000E+00  0.2740E-01
    -15.752  0.0000E+00  0.2740E-01
    -15.598  0.0000E+00  0.2740E-01
    -15.443  0.0000E+00  0.2740E-01
    -15.289  0.0000E+00  0.2740E-01
    -15.134  0.0000E+00  0.2740E-01
    -14.979  0.0000E+00  0.2740E-01
    -14.825  0.0000E+00  0.2740E-01
    -14.670  0.0000E+00  0.2740E-01
    -14.516  0.1865E-03  0.2743E-01
    -14.361  0.0000E+00  0.1644E+00
    -14.206  0.0000E+00  0.1644E+00
    -14.052  0.0000E+00  0.1644E+00
    -13.897  0.0000E+00  0.1644E+00
    -13.743  0.0000E+00  0.1644E+00
    -13.588  0.0000E+00  0.1644E+00
    -13.433  0.0000E+00  0.1644E+00
    -13.279  0.0000E+00  0.1644E+00
    -13.124  0.0000E+00  0.1644E+00
    -12.969  0.0000E+00  0.1644E+00
    -12.815  0.0000E+00  0.1644E+00
    -12.660  0.0000E+00  0.1644E+00
    -12.506  0.0000E+00  0.1644E+00
    -12.351  0.0000E+00  0.1644E+00
    -12.196  0.0000E+00  0.1644E+00
    -12.042  0.0000E+00  0.1644E+00
    -11.887  0.0000E+00  0.1644E+00
    -11.733  0.0000E+00  0.1644E+00
    -11.578  0.0000E+00  0.1644E+00
    -11.423  0.0000E+00  0.1644E+00
    -11.269  0.0000E+00  0.1644E+00
    -11.114  0.0000E+00  0.1644E+00
    -10.960  0.0000E+00  0.1644E+00
    -10.805  0.0000E+00  0.1644E+00
    -10.650  0.0000E+00  0.1644E+00
    -10.496  0.0000E+00  0.1644E+00
    -10.341  0.0000E+00  0.1644E+00
    -10.186  0.0000E+00  0.1644E+00
    -10.032  0.0000E+00  0.1644E+00
     -9.877  0.0000E+00  0.1644E+00
     -9.723  0.1103E+00  0.1818E+00
     -9.568  0.2102E+00  0.2253E+00
     -9.413  0.0000E+00  0.2466E+00
     -9.259  0.0000E+00  0.2466E+00
     -9.104  0.0000E+00  0.2466E+00
     -8.950  0.0000E+00  0.2466E+00
     -8.795  0.0000E+00  0.2466E+00
     -8.640  0.0000E+00  0.2466E+00
     -8.486  0.0000E+00  0.2466E+00
     -8.331  0.0000E+00  0.2466E+00
     -8.177  0.0000E+00  0.2466E+00
     -8.022  0.0000E+00  0.2466E+00
     -7.867  0.0000E+00  0.2466E+00
     -7.713  0.0000E+00  0.2466E+00
     -7.558  0.0000E+00  0.2466E+00
     -7.403  0.0000E+00  0.2466E+00
     -7.249  0.0000E+00  0.2466E+00
     -7.094  0.0000E+00  0.2466E+00
     -6.940  0.0000E+00  0.2466E+00
     -6.785  0.0000E+00  0.2466E+00
     -6.630  0.0000E+00  0.2466E+00
     -6.476  0.0000E+00  0.2466E+00
     -6.321  0.0000E+00  0.2466E+00
     -6.167  0.0000E+00  0.2466E+00
     -6.012  0.0000E+00  0.2466E+00
     -5.857  0.0000E+00  0.2466E+00
     -5.703  0.0000E+00  0.2466E+00
     -5.548  0.0000E+00  0.2466E+00
     -5.394  0.0000E+00  0.2466E+00
     -5.239  0.0000E+00  0.2466E+00
     -5.084  0.0000E+00  0.2466E+00
     -4.930  0.0000E+00  0.2466E+00
     -4.775  0.0000E+00  0.2466E+00
     -4.621  0.0000E+00  0.2466E+00
     -4.466  0.0000E+00  0.2466E+00
     -4.311  0.0000E+00  0.2466E+00
     -4.157  0.0000E+00  0.2466E+00
     -4.002  0.0000E+00  0.2466E+00
     -3.847  0.0000E+00  0.2466E+00
     -3.693  0.4982E-03  0.2467E+00
     -3.538  0.2809E-02  0.2472E+00
     -3.384  0.3871E-02  0.2480E+00
     -3.229  0.2079E-02  0.2489E+00
     -3.074  0.1815E-01  0.2529E+00
     -2.920  0.4187E-01  0.2650E+00
     -2.765  0.1380E-01  0.2729E+00
     -2.611  0.0000E+00  0.2740E+00
     -2.456  0.0000E+00  0.2740E+00
     -2.301  0.0000E+00  0.2740E+00
     -2.147  0.0000E+00  0.2740E+00
     -1.992  0.0000E+00  0.2740E+00
     -1.838  0.0000E+00  0.2740E+00
     -1.683  0.0000E+00  0.2740E+00
     -1.528  0.0000E+00  0.2740E+00
     -1.374  0.0000E+00  0.2740E+00
     -1.219  0.0000E+00  0.2740E+00
     -1.064  0.0000E+00  0.2740E+00
     -0.910  0.0000E+00  0.2740E+00
     -0.755  0.0000E+00  0.2740E+00
     -0.601  0.0000E+00  0.2740E+00
     -0.446  0.0000E+00  0.2740E+00
     -0.291  0.0000E+00  0.2740E+00
     -0.137  0.0000E+00  0.2740E+00
      0.018  0.0000E+00  0.2740E+00
      0.172  0.0000E+00  0.2740E+00
      0.327  0.0000E+00  0.2740E+00
      0.482  0.0000E+00  0.2740E+00
      0.636  0.0000E+00  0.2740E+00
      0.791  0.0000E+00  0.2740E+00
      0.945  0.0000E+00  0.2740E+00
      1.100  0.0000E+00  0.2740E+00
      1.255  0.0000E+00  0.2740E+00
      1.409  0.0000E+00  0.2740E+00
      1.564  0.0000E+00  0.2740E+00
      1.719  0.0000E+00  0.2740E+00
      1.873  0.0000E+00  0.2740E+00
      2.028  0.0000E+00  0.2740E+00
      2.182  0.0000E+00  0.2740E+00
      2.337  0.0000E+00  0.2740E+00
      2.492  0.1824E-02  0.2743E+00
      2.646  0.6468E-02  0.2757E+00
      2.801  0.3100E-01  0.2823E+00
      2.955  0.1945E-01  0.2886E+00
      3.110  0.1929E-01  0.2925E+00
      3.265  0.9714E-02  0.2950E+00
      3.419  0.7443E-02  0.2978E+00
      3.574  0.5819E-01  0.3088E+00
      3.728  0.3796E-01  0.3234E+00
      3.883  0.4258E-01  0.3354E+00
      4.038  0.4155E-01  0.3464E+00
      4.192  0.2226E-01  0.3550E+00
      4.347  0.4343E-02  0.3571E+00
      4.502  0.3187E-01  0.3628E+00
      4.656  0.7275E-01  0.3885E+00
      4.811  0.7830E-01  0.4107E+00
      4.965  0.2644E-01  0.4186E+00
      5.120  0.2047E-01  0.4265E+00
      5.275  0.1575E-01  0.4324E+00
      5.429  0.1310E-01  0.4357E+00
      5.584  0.1256E-01  0.4387E+00
      5.738  0.1082E-01  0.4409E+00
      5.893  0.1048E-02  0.4445E+00
      6.048  0.8854E-02  0.4476E+00
      6.202  0.1211E-01  0.4528E+00
      6.357  0.7463E-02  0.4553E+00
      6.511  0.6865E-02  0.4598E+00
      6.666  0.8923E-02  0.4619E+00
      6.821  0.7074E-01  0.4800E+00
      6.975  0.2070E-01  0.4901E+00
      7.130  0.1530E-03  0.4922E+00
      7.284  0.1666E-03  0.4928E+00
      7.439  0.2420E-03  0.4932E+00
      7.594  0.1177E-03  0.4932E+00
      7.748  0.5315E-04  0.4933E+00
      7.903  0.1131E-02  0.4935E+00
      8.058  0.2519E-03  0.4938E+00
      8.212  0.1074E-01  0.4966E+00
      8.367  0.1685E-01  0.5001E+00
      8.521  0.2616E-01  0.5081E+00
      8.676  0.2002E-01  0.5151E+00
      8.831  0.1766E-01  0.5203E+00
      8.985  0.1003E-01  0.5226E+00
      9.140  0.3872E-02  0.5248E+00
      9.294  0.9011E-02  0.5266E+00
      9.449  0.1487E-01  0.5315E+00
      9.604  0.3835E-01  0.5406E+00
      9.758  0.3645E-01  0.5506E+00
      9.913  0.1811E-01  0.5578E+00
     10.067  0.3737E-01  0.5668E+00
     10.222  0.5678E-01  0.5862E+00
     10.377  0.1390E+00  0.6188E+00
     10.531  0.5670E-01  0.6404E+00
     10.686  0.0000E+00  0.6575E+00
     10.841  0.0000E+00  0.6575E+00
     10.995  0.0000E+00  0.6575E+00
     11.150  0.0000E+00  0.6575E+00
     11.304  0.0000E+00  0.6575E+00
     11.459  0.0000E+00  0.6575E+00
     11.614  0.0000E+00  0.6575E+00
     11.768  0.0000E+00  0.6575E+00
     11.923  0.0000E+00  0.6575E+00
     12.077  0.0000E+00  0.6575E+00
     12.232  0.0000E+00  0.6575E+00
     12.387  0.0000E+00  0.6575E+00
     12.541  0.0000E+00  0.6575E+00
     12.696  0.0000E+00  0.6575E+00
