       N       E                     dE             d eps       ncg     rms          rms(c)
DAV:   1     0.233967062793E+03    0.23397E+03   -0.23144E+04  4032   0.202E+03
DAV:   2    -0.844197321607E+01   -0.24241E+03   -0.24183E+03  5112   0.260E+02
DAV:   3    -0.225706752030E+02   -0.14129E+02   -0.13935E+02  5592   0.747E+01
DAV:   4    -0.229389711632E+02   -0.36830E+00   -0.36641E+00  6888   0.109E+01
DAV:   5    -0.229443627289E+02   -0.53916E-02   -0.53915E-02  5688   0.820E-01    0.330E+01
DAV:   6    -0.220519086459E+02    0.89245E+00   -0.18945E+00  7344   0.805E+00    0.223E+01
DAV:   7    -0.219147457751E+02    0.13716E+00   -0.20317E+00  8064   0.800E+00    0.439E+00
DAV:   8    -0.218851909444E+02    0.29555E-01   -0.11998E+00  7296   0.468E+00    0.172E+00
DAV:   9    -0.218513900475E+02    0.33801E-01   -0.19552E-01  4392   0.207E+00    0.363E-01
DAV:  10    -0.218499821110E+02    0.14079E-02   -0.35267E-02  7992   0.818E-01    0.364E-01
DAV:  11    -0.218498029214E+02    0.17919E-03   -0.17590E-03  5088   0.210E-01    0.547E-02
DAV:  12    -0.218497981587E+02    0.47627E-05   -0.77227E-05  5784   0.640E-02    0.162E-02
DAV:  13    -0.218497946967E+02    0.34620E-05   -0.12364E-05  7104   0.197E-02    0.485E-03
DAV:  14    -0.218497945812E+02    0.11542E-06   -0.29390E-06  5976   0.805E-03    0.448E-03
DAV:  15    -0.218497945181E+02    0.63167E-07   -0.63090E-08  4440   0.166E-03
   1 F= -.21849795E+02 E0= -.21849682E+02  d E =-.224779E-03
 Found     3 degrees of freedom:
 Adding 6 more for cell shape distortion
       N       E                     dE             d eps       ncg     rms          rms(c)
DAV:   1    -0.220540837593E+02   -0.20429E+00   -0.75367E+00  9456   0.251E+01    0.252E+00
DAV:   2    -0.218790274037E+02    0.17506E+00   -0.75697E-01 13680   0.712E+00    0.120E+00
DAV:   3    -0.218450524371E+02    0.33975E-01   -0.19805E-01 18432   0.297E+00    0.107E+00
DAV:   4    -0.218368888345E+02    0.81636E-02   -0.38773E-02 12192   0.140E+00    0.557E-01
DAV:   5    -0.218368328625E+02    0.55972E-04   -0.49800E-03 16944   0.465E-01    0.889E-02
DAV:   6    -0.218367688882E+02    0.63974E-04   -0.94314E-04 14904   0.213E-01    0.489E-02
DAV:   7    -0.218367793412E+02   -0.10453E-04   -0.46865E-05 14304   0.521E-02    0.184E-02
DAV:   8    -0.218367797168E+02   -0.37559E-06   -0.11005E-05 14376   0.237E-02    0.624E-03
DAV:   9    -0.218367797754E+02   -0.58672E-07   -0.30917E-07 14304   0.415E-03
   2 F= -.21836780E+02 E0= -.21836701E+02  d E =-.158427E-03
       N       E                     dE             d eps       ncg     rms          rms(c)
DAV:   1    -0.218961987591E+02   -0.59419E-01   -0.36190E+00  9864   0.160E+01    0.126E+00
DAV:   2    -0.218572096929E+02    0.38989E-01   -0.23555E-01 15840   0.391E+00    0.593E-01
DAV:   3    -0.218486726237E+02    0.85371E-02   -0.49513E-02 18360   0.147E+00    0.497E-01
DAV:   4    -0.218466074416E+02    0.20652E-02   -0.10032E-02 12480   0.760E-01    0.264E-01
DAV:   5    -0.218466466271E+02   -0.39186E-04   -0.11859E-03 16440   0.222E-01    0.405E-02
DAV:   6    -0.218466335044E+02    0.13123E-04   -0.20598E-04 15024   0.103E-01    0.252E-02
DAV:   7    -0.218466380373E+02   -0.45329E-05   -0.89329E-06 13800   0.229E-02    0.104E-02
DAV:   8    -0.218466392860E+02   -0.12486E-05   -0.27534E-06 14664   0.116E-02    0.302E-03
DAV:   9    -0.218466392541E+02    0.31883E-07   -0.69028E-08 13968   0.189E-03
   3 F= -.21846639E+02 E0= -.21846550E+02  d E =-.177628E-03
       N       E                     dE             d eps       ncg     rms          rms(c)
DAV:   1    -0.220716126962E+02   -0.22497E+00   -0.62874E+00 11712   0.231E+01    0.264E+00
DAV:   2    -0.218904851384E+02    0.18113E+00   -0.85409E-01 14232   0.719E+00    0.121E+00
DAV:   3    -0.218547034392E+02    0.35782E-01   -0.21053E-01 18240   0.301E+00    0.102E+00
DAV:   4    -0.218458176268E+02    0.88858E-02   -0.39406E-02 14904   0.151E+00    0.559E-01
DAV:   5    -0.218458360492E+02   -0.18422E-04   -0.38817E-03 14280   0.394E-01    0.690E-02
DAV:   6    -0.218458280290E+02    0.80202E-05   -0.48961E-04 16368   0.165E-01    0.387E-02
DAV:   7    -0.218458372724E+02   -0.92434E-05   -0.16242E-05 12600   0.300E-02    0.193E-02
DAV:   8    -0.218458408380E+02   -0.35656E-05   -0.89868E-06 16008   0.218E-02    0.695E-03
DAV:   9    -0.218458406974E+02    0.14058E-06   -0.21447E-07 13344   0.339E-03    0.470E-03
DAV:  10    -0.218458407211E+02   -0.23739E-07   -0.37732E-08 15960   0.147E-03
   4 F= -.21845841E+02 E0= -.21845743E+02  d E =-.195211E-03
       N       E                     dE             d eps       ncg     rms          rms(c)
DAV:   1    -0.218854979957E+02   -0.39657E-01   -0.42221E+00  9408   0.165E+01    0.135E+00
DAV:   2    -0.218459871389E+02    0.39511E-01   -0.25330E-01 17136   0.410E+00    0.620E-01
DAV:   3    -0.218363211869E+02    0.96660E-02   -0.50683E-02 17976   0.150E+00    0.504E-01
DAV:   4    -0.218339671815E+02    0.23540E-02   -0.11220E-02 14736   0.832E-01    0.274E-01
DAV:   5    -0.218340029818E+02   -0.35800E-04   -0.11060E-03 14016   0.229E-01    0.495E-02
DAV:   6    -0.218339869546E+02    0.16027E-04   -0.22892E-04 15576   0.118E-01    0.214E-02
DAV:   7    -0.218339909309E+02   -0.39764E-05   -0.87122E-06 13800   0.221E-02    0.944E-03
DAV:   8    -0.218339920318E+02   -0.11008E-05   -0.25553E-06 15024   0.113E-02    0.302E-03
DAV:   9    -0.218339919606E+02    0.71169E-07   -0.79150E-08 14568   0.202E-03
   5 F= -.21833992E+02 E0= -.21833918E+02  d E =-.148409E-03
       N       E                     dE             d eps       ncg     rms          rms(c)
DAV:   1    -0.224921746870E+02   -0.65818E+00   -0.21354E+01 11832   0.462E+01    0.454E+00
DAV:   2    -0.219239411521E+02    0.56823E+00   -0.27468E+00 12576   0.131E+01    0.206E+00
DAV:   3    -0.218460315772E+02    0.77910E-01   -0.61446E-01 18432   0.538E+00    0.208E+00
DAV:   4    -0.218289398528E+02    0.17092E-01   -0.98918E-02 11352   0.225E+00    0.115E+00
DAV:   5    -0.218332340335E+02   -0.42942E-02   -0.20416E-02 18384   0.966E-01    0.161E-01
DAV:   6    -0.218350549251E+02   -0.18209E-02   -0.24340E-03 15048   0.317E-01    0.768E-02
DAV:   7    -0.218359887575E+02   -0.93383E-03   -0.29433E-04 14640   0.124E-01    0.237E-02
DAV:   8    -0.218366730220E+02   -0.68426E-03   -0.97665E-05 15312   0.686E-02    0.150E-02
DAV:   9    -0.218366672129E+02    0.58091E-05   -0.33018E-06 13128   0.144E-02    0.783E-03
DAV:  10    -0.218367677355E+02   -0.10052E-03   -0.18819E-06 15888   0.665E-03    0.415E-03
DAV:  11    -0.218367719262E+02   -0.41907E-05   -0.76815E-08 12384   0.195E-03    0.232E-03
DAV:  12    -0.218367787328E+02   -0.68066E-05   -0.53622E-08 17112   0.116E-03    0.614E-04
DAV:  13    -0.218367796236E+02   -0.89081E-06   -0.42080E-09 10512   0.361E-04    0.296E-04
DAV:  14    -0.218367797043E+02   -0.80644E-07   -0.63108E-10 15864   0.134E-04
   6 F= -.21836780E+02 E0= -.21836700E+02  d E =-.158442E-03
       N       E                     dE             d eps       ncg     rms          rms(c)
DAV:   1    -0.218960050834E+02   -0.59225E-01   -0.36142E+00  9768   0.160E+01    0.125E+00
DAV:   2    -0.218572595349E+02    0.38746E-01   -0.23736E-01 17016   0.390E+00    0.589E-01
DAV:   3    -0.218487153392E+02    0.85442E-02   -0.49514E-02 18192   0.146E+00    0.514E-01
DAV:   4    -0.218466120366E+02    0.21033E-02   -0.10038E-02 12024   0.754E-01    0.274E-01
DAV:   5    -0.218466421283E+02   -0.30092E-04   -0.11708E-03 16608   0.219E-01    0.430E-02
DAV:   6    -0.218466339025E+02    0.82258E-05   -0.17423E-04 14592   0.965E-02    0.236E-02
DAV:   7    -0.218466381036E+02   -0.42011E-05   -0.80647E-06 14256   0.214E-02    0.103E-02
DAV:   8    -0.218466393122E+02   -0.12086E-05   -0.27937E-06 14256   0.115E-02    0.303E-03
DAV:   9    -0.218466392538E+02    0.58425E-07   -0.77674E-08 14376   0.199E-03
   7 F= -.21846639E+02 E0= -.21846550E+02  d E =-.177627E-03
       N       E                     dE             d eps       ncg     rms          rms(c)
DAV:   1    -0.220722744083E+02   -0.22564E+00   -0.62938E+00 12048   0.231E+01    0.265E+00
DAV:   2    -0.218907619261E+02    0.18151E+00   -0.86264E-01 15240   0.717E+00    0.121E+00
DAV:   3    -0.218549210098E+02    0.35841E-01   -0.21562E-01 18288   0.300E+00    0.103E+00
DAV:   4    -0.218458129103E+02    0.91081E-02   -0.40001E-02 14520   0.152E+00    0.562E-01
DAV:   5    -0.218458315821E+02   -0.18672E-04   -0.41018E-03 14952   0.402E-01    0.665E-02
DAV:   6    -0.218458278565E+02    0.37256E-05   -0.41744E-04 15432   0.154E-01    0.384E-02
DAV:   7    -0.218458375109E+02   -0.96543E-05   -0.17379E-05 13344   0.301E-02    0.185E-02
DAV:   8    -0.218458408633E+02   -0.33525E-05   -0.86764E-06 15168   0.217E-02    0.733E-03
DAV:   9    -0.218458407007E+02    0.16269E-06   -0.25058E-07 13536   0.370E-03    0.492E-03
DAV:  10    -0.218458407290E+02   -0.28339E-07   -0.45184E-08 15912   0.158E-03
   8 F= -.21845841E+02 E0= -.21845743E+02  d E =-.195208E-03
       N       E                     dE             d eps       ncg     rms          rms(c)
DAV:   1    -0.218857102669E+02   -0.39870E-01   -0.42172E+00  9408   0.165E+01    0.136E+00
DAV:   2    -0.218459693863E+02    0.39741E-01   -0.25171E-01 17736   0.407E+00    0.623E-01
DAV:   3    -0.218363292459E+02    0.96401E-02   -0.50685E-02 18024   0.149E+00    0.495E-01
DAV:   4    -0.218339598997E+02    0.23693E-02   -0.11382E-02 14016   0.841E-01    0.268E-01
DAV:   5    -0.218340009649E+02   -0.41065E-04   -0.11558E-03 14640   0.234E-01    0.508E-02
DAV:   6    -0.218339863525E+02    0.14612E-04   -0.21483E-04 15024   0.114E-01    0.223E-02
DAV:   7    -0.218339910224E+02   -0.46699E-05   -0.98327E-06 14448   0.235E-02    0.845E-03
DAV:   8    -0.218339920330E+02   -0.10106E-05   -0.21046E-06 14544   0.110E-02    0.288E-03
DAV:   9    -0.218339919619E+02    0.71118E-07   -0.74502E-08 14808   0.199E-03
   9 F= -.21833992E+02 E0= -.21833918E+02  d E =-.148409E-03
       N       E                     dE             d eps       ncg     rms          rms(c)
DAV:   1    -0.225215182572E+02   -0.68753E+00   -0.21309E+01 10776   0.462E+01    0.454E+00
DAV:   2    -0.219504725148E+02    0.57105E+00   -0.27131E+00 12360   0.131E+01    0.206E+00
DAV:   3    -0.218620741533E+02    0.88398E-01   -0.60069E-01 18384   0.537E+00    0.202E+00
DAV:   4    -0.218396541718E+02    0.22420E-01   -0.95397E-02 11232   0.226E+00    0.111E+00
DAV:   5    -0.218371201845E+02    0.25340E-02   -0.19648E-02 18432   0.933E-01    0.187E-01
DAV:   6    -0.218368248901E+02    0.29529E-03   -0.28603E-03 15840   0.339E-01    0.777E-02
DAV:   7    -0.218367835685E+02    0.41322E-04   -0.28759E-04 14808   0.124E-01    0.257E-02
DAV:   8    -0.218367775857E+02    0.59828E-05   -0.89717E-05 15240   0.632E-02    0.141E-02
DAV:   9    -0.218367783401E+02   -0.75433E-06   -0.31968E-06 13320   0.140E-02    0.670E-03
DAV:  10    -0.218367798007E+02   -0.14606E-05   -0.20200E-06 15456   0.719E-03    0.398E-03
DAV:  11    -0.218367796921E+02    0.10860E-06   -0.76793E-08 12984   0.198E-03    0.199E-03
DAV:  12    -0.218367797402E+02   -0.48127E-07   -0.51042E-08 17688   0.109E-03
  10 F= -.21836780E+02 E0= -.21836701E+02  d E =-.158451E-03
       N       E                     dE             d eps       ncg     rms          rms(c)
DAV:   1    -0.218953955322E+02   -0.58616E-01   -0.40514E+00  9480   0.168E+01    0.126E+00
DAV:   2    -0.218574383461E+02    0.37957E-01   -0.25021E-01 16536   0.399E+00    0.603E-01
DAV:   3    -0.218487739280E+02    0.86644E-02   -0.51841E-02 17784   0.146E+00    0.501E-01
DAV:   4    -0.218466120948E+02    0.21618E-02   -0.10718E-02 14280   0.789E-01    0.273E-01
DAV:   5    -0.218466499225E+02   -0.37828E-04   -0.11857E-03 15240   0.221E-01    0.386E-02
DAV:   6    -0.218466330177E+02    0.16905E-04   -0.22179E-04 15480   0.109E-01    0.248E-02
DAV:   7    -0.218466379732E+02   -0.49554E-05   -0.88939E-06 13368   0.219E-02    0.123E-02
DAV:   8    -0.218466392818E+02   -0.13087E-05   -0.34437E-06 15192   0.124E-02    0.270E-03
DAV:   9    -0.218466392624E+02    0.19391E-07   -0.85829E-08 13968   0.203E-03
  11 F= -.21846639E+02 E0= -.21846550E+02  d E =-.177628E-03
       N       E                     dE             d eps       ncg     rms          rms(c)
DAV:   1    -0.220731151051E+02   -0.22648E+00   -0.59611E+00 11208   0.227E+01    0.264E+00
DAV:   2    -0.218904836392E+02    0.18263E+00   -0.85603E-01 14472   0.715E+00    0.121E+00
DAV:   3    -0.218547560558E+02    0.35728E-01   -0.21385E-01 18096   0.301E+00    0.103E+00
DAV:   4    -0.218458379028E+02    0.89182E-02   -0.39678E-02 15888   0.151E+00    0.567E-01
DAV:   5    -0.218458350207E+02    0.28821E-05   -0.36878E-03 13752   0.386E-01    0.664E-02
DAV:   6    -0.218458283971E+02    0.66235E-05   -0.48766E-04 16608   0.163E-01    0.373E-02
DAV:   7    -0.218458370932E+02   -0.86961E-05   -0.15014E-05 12288   0.285E-02    0.194E-02
DAV:   8    -0.218458408264E+02   -0.37332E-05   -0.91001E-06 16440   0.219E-02    0.699E-03
DAV:   9    -0.218458406963E+02    0.13015E-06   -0.20291E-07 12984   0.330E-03    0.467E-03
DAV:  10    -0.218458407225E+02   -0.26187E-07   -0.37283E-08 15648   0.147E-03
  12 F= -.21845841E+02 E0= -.21845743E+02  d E =-.195212E-03
       N       E                     dE             d eps       ncg     rms          rms(c)
DAV:   1    -0.218833379866E+02   -0.37497E-01   -0.47816E+00  9408   0.175E+01    0.135E+00
DAV:   2    -0.218460437563E+02    0.37294E-01   -0.26789E-01 17016   0.431E+00    0.617E-01
DAV:   3    -0.218363114582E+02    0.97323E-02   -0.49933E-02 18120   0.150E+00    0.507E-01
DAV:   4    -0.218339635575E+02    0.23479E-02   -0.11124E-02 14064   0.829E-01    0.276E-01
DAV:   5    -0.218340015732E+02   -0.38016E-04   -0.11359E-03 14760   0.231E-01    0.537E-02
DAV:   6    -0.218339870985E+02    0.14475E-04   -0.21469E-04 15336   0.116E-01    0.211E-02
DAV:   7    -0.218339910473E+02   -0.39488E-05   -0.94024E-06 13824   0.228E-02    0.850E-03
DAV:   8    -0.218339920685E+02   -0.10212E-05   -0.21952E-06 14808   0.110E-02    0.301E-03
DAV:   9    -0.218339919614E+02    0.10712E-06   -0.92527E-08 14712   0.219E-03    0.170E-03
DAV:  10    -0.218339919717E+02   -0.10313E-07   -0.11243E-08 13560   0.838E-04
  13 F= -.21833992E+02 E0= -.21833918E+02  d E =-.148411E-03
       N       E                     dE             d eps       ncg     rms          rms(c)
DAV:   1    -0.221340408825E+02   -0.30005E+00   -0.99433E+00 36288   0.283E+01    0.297E+00
DAV:   2    -0.219033419617E+02    0.23070E+00   -0.90807E-01 38592   0.758E+00    0.135E+00
DAV:   3    -0.218577924358E+02    0.45550E-01   -0.24505E-01 56472   0.335E+00    0.112E+00
DAV:   4    -0.218475863552E+02    0.10206E-01   -0.46404E-02 45240   0.151E+00    0.577E-01
DAV:   5    -0.218472506937E+02    0.33566E-03   -0.55218E-03 43248   0.571E-01    0.813E-02
DAV:   6    -0.218471859376E+02    0.64756E-04   -0.90714E-04 48432   0.197E-01    0.482E-02
DAV:   7    -0.218471978216E+02   -0.11884E-04   -0.47529E-05 41016   0.541E-02    0.107E-02
DAV:   8    -0.218471974696E+02    0.35201E-06   -0.78057E-06 46344   0.266E-02    0.661E-03
DAV:   9    -0.218471974574E+02    0.12239E-07   -0.33140E-07 41328   0.487E-03
  14 F= -.21847197E+02 E0= -.21847112E+02  d E =-.171625E-03
       N       E                     dE             d eps       ncg     rms          rms(c)
DAV:   1    -0.218577647417E+02   -0.10567E-01   -0.23267E+00 28920   0.121E+01    0.570E-01
DAV:   2    -0.218525619769E+02    0.52028E-02   -0.73374E-02 47256   0.209E+00    0.316E-01
DAV:   3    -0.218492023292E+02    0.33596E-02   -0.10151E-02 50496   0.685E-01    0.715E-02
DAV:   4    -0.218491497121E+02    0.52617E-04   -0.52999E-04 36504   0.174E-01    0.333E-02
DAV:   5    -0.218491400907E+02    0.96214E-05   -0.66191E-05 52176   0.632E-02    0.149E-02
DAV:   6    -0.218491390335E+02    0.10571E-05   -0.10296E-05 36264   0.213E-02    0.762E-03
DAV:   7    -0.218491389116E+02    0.12192E-06   -0.10497E-06 51648   0.729E-03    0.180E-03
DAV:   8    -0.218491389037E+02    0.78762E-08   -0.41855E-08 35112   0.138E-03
  15 F= -.21849139E+02 E0= -.21849025E+02  d E =-.228394E-03
       N       E                     dE             d eps       ncg     rms          rms(c)
DAV:   1    -0.219029282645E+02   -0.53789E-01   -0.15242E+00 34248   0.861E+00    0.131E+00
DAV:   2    -0.218634813710E+02    0.39447E-01   -0.88290E-02 37032   0.232E+00    0.594E-01
DAV:   3    -0.218495345661E+02    0.13947E-01   -0.43118E-02 56904   0.125E+00    0.187E-01
DAV:   4    -0.218491799146E+02    0.35465E-03   -0.24185E-03 34152   0.340E-01    0.573E-02
DAV:   5    -0.218491406805E+02    0.39234E-04   -0.25883E-04 55344   0.135E-01    0.274E-02
DAV:   6    -0.218491390294E+02    0.16512E-05   -0.16723E-05 39648   0.294E-02    0.880E-03
DAV:   7    -0.218491389376E+02    0.91747E-07   -0.20427E-06 51936   0.112E-02    0.189E-03
DAV:   8    -0.218491388929E+02    0.44737E-07   -0.32333E-07 35784   0.355E-03
  16 F= -.21849139E+02 E0= -.21849025E+02  d E =-.228380E-03
       N       E                     dE             d eps       ncg     rms          rms(c)
DAV:   1    -0.218546685569E+02   -0.55296E-02   -0.27275E+00 28800   0.119E+01    0.784E-01
DAV:   2    -0.218510010146E+02    0.36675E-02   -0.77814E-02 50784   0.222E+00    0.298E-01
DAV:   3    -0.218474849278E+02    0.35161E-02   -0.73127E-03 53784   0.586E-01    0.121E-01
DAV:   4    -0.218472068057E+02    0.27812E-03   -0.70631E-04 36936   0.230E-01    0.449E-02
DAV:   5    -0.218471978400E+02    0.89658E-05   -0.79322E-05 50664   0.700E-02    0.169E-02
DAV:   6    -0.218471973970E+02    0.44300E-06   -0.40994E-06 37248   0.146E-02    0.405E-03
DAV:   7    -0.218471973864E+02    0.10629E-07   -0.36540E-07 51264   0.385E-03
  17 F= -.21847197E+02 E0= -.21847112E+02  d E =-.171589E-03
       N       E                     dE             d eps       ncg     rms          rms(c)
DAV:   1    -0.219334766379E+02   -0.86279E-01   -0.53376E+00 33072   0.162E+01    0.166E+00
DAV:   2    -0.218773097294E+02    0.56167E-01   -0.20165E-01 47808   0.361E+00    0.808E-01
DAV:   3    -0.218476519507E+02    0.29658E-01   -0.75574E-02 54816   0.172E+00    0.268E-01
DAV:   4    -0.218466415843E+02    0.10104E-02   -0.76349E-03 43872   0.636E-01    0.101E-01
DAV:   5    -0.218470167178E+02   -0.37513E-03   -0.15716E-03 54600   0.267E-01    0.452E-02
DAV:   6    -0.218471654415E+02   -0.14872E-03   -0.26374E-04 39768   0.988E-02    0.250E-02
DAV:   7    -0.218472212194E+02   -0.55778E-04   -0.78147E-05 50184   0.554E-02    0.108E-02
DAV:   8    -0.218472181654E+02    0.30541E-05   -0.10349E-05 36552   0.179E-02    0.347E-03
DAV:   9    -0.218472047053E+02    0.13460E-04   -0.15295E-06 50064   0.745E-03    0.802E-04
DAV:  10    -0.218471999387E+02    0.47665E-05   -0.47014E-07 36696   0.341E-03    0.438E-04
DAV:  11    -0.218471979047E+02    0.20340E-05   -0.38205E-08 48648   0.133E-03    0.123E-04
DAV:  12    -0.218471974160E+02    0.48872E-06   -0.26336E-09 35328   0.282E-04    0.856E-05
DAV:  13    -0.218471974034E+02    0.12660E-07   -0.17896E-10 45768   0.941E-05
  18 F= -.21847197E+02 E0= -.21847112E+02  d E =-.171607E-03
       N       E                     dE             d eps       ncg     rms          rms(c)
DAV:   1    -0.218578689490E+02   -0.10672E-01   -0.23224E+00 29496   0.120E+01    0.573E-01
DAV:   2    -0.218525904592E+02    0.52785E-02   -0.72561E-02 50280   0.212E+00    0.315E-01
DAV:   3    -0.218492056544E+02    0.33848E-02   -0.99456E-03 47568   0.678E-01    0.758E-02
DAV:   4    -0.218491561648E+02    0.49490E-04   -0.67978E-04 39504   0.187E-01    0.384E-02
DAV:   5    -0.218491409675E+02    0.15197E-04   -0.98970E-05 48576   0.699E-02    0.181E-02
DAV:   6    -0.218491390119E+02    0.19556E-05   -0.10727E-05 38832   0.279E-02    0.795E-03
DAV:   7    -0.218491389200E+02    0.91894E-07   -0.89086E-07 48624   0.746E-03
  19 F= -.21849139E+02 E0= -.21849025E+02  d E =-.228388E-03
       N       E                     dE             d eps       ncg     rms          rms(c)
DAV:   1    -0.219029549303E+02   -0.53816E-01   -0.15214E+00 33984   0.863E+00    0.131E+00
DAV:   2    -0.218635026321E+02    0.39452E-01   -0.87888E-02 37584   0.232E+00    0.594E-01
DAV:   3    -0.218495397394E+02    0.13963E-01   -0.43220E-02 56952   0.125E+00    0.186E-01
DAV:   4    -0.218491911572E+02    0.34858E-03   -0.25271E-03 33480   0.345E-01    0.639E-02
DAV:   5    -0.218491444202E+02    0.46737E-04   -0.33174E-04 56088   0.136E-01    0.326E-02
DAV:   6    -0.218491395218E+02    0.48983E-05   -0.32091E-05 32832   0.421E-02    0.181E-02
DAV:   7    -0.218491389190E+02    0.60286E-06   -0.51091E-06 55368   0.169E-02    0.278E-03
DAV:   8    -0.218491388960E+02    0.22991E-07   -0.17270E-07 32784   0.293E-03
  20 F= -.21849139E+02 E0= -.21849025E+02  d E =-.228390E-03
       N       E                     dE             d eps       ncg     rms          rms(c)
DAV:   1    -0.218547609841E+02   -0.56221E-02   -0.27304E+00 28560   0.119E+01    0.779E-01
DAV:   2    -0.218510202295E+02    0.37408E-02   -0.76796E-02 51768   0.221E+00    0.297E-01
DAV:   3    -0.218474840758E+02    0.35362E-02   -0.74740E-03 53712   0.590E-01    0.122E-01
DAV:   4    -0.218472203769E+02    0.26370E-03   -0.89146E-04 42432   0.238E-01    0.516E-02
DAV:   5    -0.218472000883E+02    0.20289E-04   -0.15853E-04 45888   0.840E-02    0.268E-02
DAV:   6    -0.218471975553E+02    0.25331E-05   -0.11292E-05 40896   0.305E-02    0.111E-02
DAV:   7    -0.218471973899E+02    0.16538E-06   -0.13272E-06 46560   0.864E-03    0.240E-03
DAV:   8    -0.218471973807E+02    0.91864E-08   -0.95489E-08 42432   0.212E-03
  21 F= -.21847197E+02 E0= -.21847112E+02  d E =-.171615E-03
       N       E                     dE             d eps       ncg     rms          rms(c)
DAV:   1    -0.219511375197E+02   -0.10394E+00   -0.51496E+00 32880   0.162E+01    0.165E+00
DAV:   2    -0.218882738743E+02    0.62864E-01   -0.19732E-01 50304   0.358E+00    0.806E-01
DAV:   3    -0.218512086984E+02    0.37065E-01   -0.76381E-02 54312   0.173E+00    0.261E-01
DAV:   4    -0.218479832412E+02    0.32255E-02   -0.77211E-03 43272   0.627E-01    0.888E-02
DAV:   5    -0.218473872355E+02    0.59601E-03   -0.15307E-03 55008   0.259E-01    0.386E-02
DAV:   6    -0.218472455219E+02    0.14171E-03   -0.29923E-04 40704   0.107E-01    0.160E-02
DAV:   7    -0.218472045318E+02    0.40990E-04   -0.83563E-05 49368   0.579E-02    0.618E-03
DAV:   8    -0.218471993920E+02    0.51398E-05   -0.91249E-06 37440   0.177E-02    0.326E-03
DAV:   9    -0.218471974925E+02    0.18996E-05   -0.32894E-06 49104   0.903E-03    0.786E-04
DAV:  10    -0.218471972995E+02    0.19300E-06   -0.41718E-07 37416   0.347E-03    0.375E-04
DAV:  11    -0.218471973732E+02   -0.73715E-07   -0.41941E-08 48072   0.132E-03
  22 F= -.21847197E+02 E0= -.21847112E+02  d E =-.171608E-03
       N       E                     dE             d eps       ncg     rms          rms(c)
DAV:   1    -0.218575867415E+02   -0.10389E-01   -0.23746E+00 29208   0.122E+01    0.573E-01
DAV:   2    -0.218525960954E+02    0.49906E-02   -0.75686E-02 53280   0.218E+00    0.315E-01
DAV:   3    -0.218492032983E+02    0.33928E-02   -0.95710E-03 49008   0.666E-01    0.738E-02
DAV:   4    -0.218491503429E+02    0.52955E-04   -0.58000E-04 38712   0.181E-01    0.340E-02
DAV:   5    -0.218491404868E+02    0.98561E-05   -0.74743E-05 49248   0.634E-02    0.168E-02
DAV:   6    -0.218491390096E+02    0.14772E-05   -0.11102E-05 38640   0.240E-02    0.784E-03
DAV:   7    -0.218491389116E+02    0.97920E-07   -0.90704E-07 49104   0.725E-03
  23 F= -.21849139E+02 E0= -.21849025E+02  d E =-.228394E-03
       N       E                     dE             d eps       ncg     rms          rms(c)
DAV:   1    -0.219030896330E+02   -0.53951E-01   -0.14786E+00 34464   0.850E+00    0.131E+00
DAV:   2    -0.218635234123E+02    0.39566E-01   -0.87012E-02 40080   0.228E+00    0.593E-01
DAV:   3    -0.218495202548E+02    0.14003E-01   -0.42568E-02 56784   0.124E+00    0.182E-01
DAV:   4    -0.218491755381E+02    0.34472E-03   -0.23702E-03 32280   0.340E-01    0.565E-02
DAV:   5    -0.218491407011E+02    0.34837E-04   -0.25580E-04 55248   0.134E-01    0.268E-02
DAV:   6    -0.218491390846E+02    0.16165E-05   -0.17239E-05 39408   0.295E-02    0.935E-03
DAV:   7    -0.218491389412E+02    0.14338E-06   -0.25434E-06 51072   0.115E-02    0.217E-03
DAV:   8    -0.218491388947E+02    0.46565E-07   -0.32253E-07 35208   0.418E-03
  24 F= -.21849139E+02 E0= -.21849025E+02  d E =-.228382E-03
       N       E                     dE             d eps       ncg     rms          rms(c)
DAV:   1    -0.218545768123E+02   -0.54379E-02   -0.27982E+00 28560   0.120E+01    0.779E-01
DAV:   2    -0.218510243027E+02    0.35525E-02   -0.78476E-02 53400   0.224E+00    0.298E-01
DAV:   3    -0.218474795124E+02    0.35448E-02   -0.73385E-03 54168   0.588E-01    0.121E-01
DAV:   4    -0.218472080823E+02    0.27143E-03   -0.70620E-04 35976   0.228E-01    0.453E-02
DAV:   5    -0.218471983926E+02    0.96896E-05   -0.91420E-05 52680   0.726E-02    0.194E-02
DAV:   6    -0.218471976143E+02    0.77834E-06   -0.83746E-06 37632   0.192E-02    0.101E-02
DAV:   7    -0.218471973799E+02    0.23438E-06   -0.15965E-06 50208   0.833E-03    0.167E-03
DAV:   8    -0.218471973810E+02   -0.11091E-08   -0.42348E-08 35400   0.143E-03
  25 F= -.21847197E+02 E0= -.21847112E+02  d E =-.171614E-03
       N       E                     dE             d eps       ncg     rms          rms(c)
DAV:   1    -0.218928474834E+02   -0.45650E-01   -0.32413E+00 16464   0.130E+01    0.111E+00
DAV:   2    -0.218714879957E+02    0.21359E-01   -0.13731E-01 32640   0.298E+00    0.582E-01
DAV:   3    -0.218512346608E+02    0.20253E-01   -0.31129E-02 25512   0.110E+00    0.196E-01
DAV:   4    -0.218485039304E+02    0.27307E-02   -0.11845E-02 32832   0.698E-01    0.594E-02
DAV:   5    -0.218484623259E+02    0.41604E-04   -0.60168E-04 17448   0.165E-01    0.338E-02
DAV:   6    -0.218484138050E+02    0.48521E-04   -0.19101E-04 32256   0.709E-02    0.732E-03
DAV:   7    -0.218484050567E+02    0.87483E-05   -0.18365E-05 17328   0.235E-02    0.376E-03
DAV:   8    -0.218483993755E+02    0.56813E-05   -0.10714E-05 32208   0.165E-02    0.179E-03
DAV:   9    -0.218483980763E+02    0.12992E-05   -0.76862E-07 17616   0.486E-03    0.470E-04
DAV:  10    -0.218483977193E+02    0.35698E-06   -0.87356E-08 31704   0.170E-03    0.270E-04
DAV:  11    -0.218483976897E+02    0.29560E-07   -0.24464E-09 17064   0.319E-04
  26 F= -.21848398E+02 E0= -.21848292E+02  d E =-.211443E-03
       N       E                     dE             d eps       ncg     rms          rms(c)
DAV:   1    -0.218473311363E+02    0.10666E-02   -0.11504E+00 16464   0.407E+00    0.170E-01
DAV:   2    -0.218494832387E+02   -0.21521E-02   -0.23416E-02 20256   0.891E-01    0.106E-01
DAV:   3    -0.218494511754E+02    0.32063E-04   -0.10849E-03 31200   0.165E-01    0.383E-02
DAV:   4    -0.218494485311E+02    0.26443E-05   -0.56310E-05 18888   0.387E-02    0.241E-02
DAV:   5    -0.218494467268E+02    0.18044E-05   -0.69558E-06 31032   0.148E-02    0.149E-02
DAV:   6    -0.218494464507E+02    0.27603E-06   -0.27918E-06 19584   0.809E-03    0.345E-03
DAV:   7    -0.218494464958E+02   -0.45042E-07   -0.18246E-07 30360   0.265E-03
  27 F= -.21849446E+02 E0= -.21849337E+02  d E =-.219107E-03
       N       E                     dE             d eps       ncg     rms          rms(c)
DAV:   1    -0.218494989281E+02   -0.52477E-04   -0.58534E-01 17856   0.289E+00    0.377E-01
DAV:   2    -0.218495988029E+02   -0.99875E-04   -0.14895E-02 20880   0.702E-01    0.212E-01
DAV:   3    -0.218494417382E+02    0.15706E-03   -0.13783E-03 29808   0.168E-01    0.913E-02
DAV:   4    -0.218494445502E+02   -0.28120E-05   -0.11998E-04 20712   0.553E-02    0.333E-02
DAV:   5    -0.218494455778E+02   -0.10276E-05   -0.34137E-05 28848   0.266E-02    0.164E-02
DAV:   6    -0.218494464854E+02   -0.90765E-06   -0.14460E-06 21288   0.664E-03    0.291E-03
DAV:   7    -0.218494464961E+02   -0.10700E-07   -0.24623E-07 29784   0.240E-03
  28 F= -.21849446E+02 E0= -.21849337E+02  d E =-.219094E-03
       N       E                     dE             d eps       ncg     rms          rms(c)
DAV:   1    -0.218465135074E+02    0.29330E-02   -0.11068E+00 16464   0.398E+00    0.265E-01
DAV:   2    -0.218483418073E+02   -0.18283E-02   -0.23688E-02 19464   0.895E-01    0.115E-01
DAV:   3    -0.218483948813E+02   -0.53074E-04   -0.10050E-03 30000   0.132E-01    0.692E-02
DAV:   4    -0.218483963935E+02   -0.15123E-05   -0.31514E-05 19656   0.254E-02    0.220E-02
DAV:   5    -0.218483976226E+02   -0.12291E-05   -0.63089E-06 30288   0.981E-03    0.459E-03
DAV:   6    -0.218483976764E+02   -0.53838E-07   -0.55582E-07 22560   0.355E-03
  29 F= -.21848398E+02 E0= -.21848292E+02  d E =-.211429E-03
       N       E                     dE             d eps       ncg     rms          rms(c)
DAV:   1    -0.218415607054E+02    0.68369E-02   -0.38906E+00 16464   0.102E+01    0.361E-01
DAV:   2    -0.218486822649E+02   -0.71216E-02   -0.85348E-02 17712   0.227E+00    0.208E-01
DAV:   3    -0.218486984056E+02   -0.16141E-04   -0.44244E-03 32160   0.446E-01    0.855E-02
DAV:   4    -0.218486979593E+02    0.44626E-06   -0.16666E-04 18480   0.760E-02    0.438E-02
DAV:   5    -0.218486980203E+02   -0.60971E-07   -0.46233E-05 31296   0.365E-02    0.175E-02
DAV:   6    -0.218486985915E+02   -0.57126E-06   -0.28680E-06 18672   0.985E-03    0.464E-03
DAV:   7    -0.218486986858E+02   -0.94272E-07   -0.63540E-07 31440   0.486E-03
  30 F= -.21848699E+02 E0= -.21848595E+02  d E =-.208215E-03
       N       E                     dE             d eps       ncg     rms          rms(c)
DAV:   1    -0.218465487439E+02    0.21498E-02   -0.31117E+00 16464   0.729E+00    0.448E-02
DAV:   2    -0.218494212148E+02   -0.28725E-02   -0.28885E-02 16536   0.108E+00    0.236E-02
DAV:   3    -0.218495232247E+02   -0.10201E-03   -0.10685E-03 32616   0.196E-01    0.138E-02
DAV:   4    -0.218495219645E+02    0.12602E-05   -0.53062E-06 16848   0.208E-02    0.721E-03
DAV:   5    -0.218495218610E+02    0.10357E-06   -0.14217E-06 32640   0.914E-03    0.130E-03
DAV:   6    -0.218495218087E+02    0.52264E-07   -0.15395E-07 17496   0.347E-03
  31 F= -.21849522E+02 E0= -.21849412E+02  d E =-.218696E-03
       N       E                     dE             d eps       ncg     rms          rms(c)
DAV:   1    -0.218479452086E+02    0.15767E-02   -0.16994E+00 17856   0.531E+00    0.922E-02
DAV:   2    -0.218494814739E+02   -0.15363E-02   -0.15908E-02 17640   0.803E-01    0.431E-02
DAV:   3    -0.218495225893E+02   -0.41115E-04   -0.60157E-04 32616   0.154E-01    0.161E-02
DAV:   4    -0.218495217606E+02    0.82869E-06   -0.65202E-06 18024   0.197E-02    0.559E-03
DAV:   5    -0.218495217869E+02   -0.26317E-07   -0.79736E-07 32208   0.610E-03
  32 F= -.21849522E+02 E0= -.21849412E+02  d E =-.218788E-03
       N       E                     dE             d eps       ncg     rms          rms(c)
DAV:   1    -0.218456802147E+02    0.38415E-02   -0.31135E+00 16464   0.727E+00    0.639E-02
DAV:   2    -0.218485993227E+02   -0.29191E-02   -0.29421E-02 16608   0.109E+00    0.233E-02
DAV:   3    -0.218487005482E+02   -0.10123E-03   -0.10610E-03 32352   0.199E-01    0.181E-02
DAV:   4    -0.218486987325E+02    0.18157E-05   -0.95607E-06 17016   0.247E-02    0.983E-03
DAV:   5    -0.218486989025E+02   -0.16998E-06   -0.42760E-06 32448   0.137E-02    0.230E-03
DAV:   6    -0.218486986879E+02    0.21459E-06   -0.53627E-07 19008   0.687E-03    0.821E-04
DAV:   7    -0.218486986890E+02   -0.11041E-08   -0.36523E-08 31392   0.134E-03
  33 F= -.21848699E+02 E0= -.21848595E+02  d E =-.208212E-03
       N       E                     dE             d eps       ncg     rms          rms(c)
DAV:   1    -0.218424523054E+02    0.62464E-02   -0.51171E+00 16464   0.112E+01    0.333E-01
DAV:   2    -0.218488703993E+02   -0.64181E-02   -0.66759E-02 17856   0.188E+00    0.180E-01
DAV:   3    -0.218488197074E+02    0.50692E-04   -0.26549E-03 31608   0.345E-01    0.113E-01
DAV:   4    -0.218487230309E+02    0.96676E-04   -0.51487E-04 18384   0.119E-01    0.190E-02
DAV:   5    -0.218487169506E+02    0.60804E-05   -0.40134E-05 31440   0.357E-02    0.115E-02
DAV:   6    -0.218487141681E+02    0.27825E-05   -0.10555E-05 18096   0.161E-02    0.503E-03
DAV:   7    -0.218487140661E+02    0.10202E-06   -0.15935E-06 31536   0.594E-03    0.155E-03
DAV:   8    -0.218487140864E+02   -0.20331E-07   -0.13814E-07 18888   0.243E-03
  34 F= -.21848714E+02 E0= -.21848606E+02  d E =-.216218E-03
       N       E                     dE             d eps       ncg     rms          rms(c)
DAV:   1    -0.218471928331E+02    0.15212E-02   -0.24081E+00 16464   0.525E+00    0.138E-01
DAV:   2    -0.218494675899E+02   -0.22748E-02   -0.24622E-02 16656   0.749E-01    0.960E-02
DAV:   3    -0.218495285092E+02   -0.60919E-04   -0.96136E-04 32736   0.140E-01    0.466E-02
DAV:   4    -0.218495247054E+02    0.38038E-05   -0.42779E-05 16968   0.298E-02    0.150E-02
DAV:   5    -0.218495244805E+02    0.22495E-06   -0.55812E-06 32616   0.126E-02    0.468E-03
DAV:   6    -0.218495244930E+02   -0.12517E-07   -0.28734E-07 18192   0.313E-03
  35 F= -.21849524E+02 E0= -.21849413E+02  d E =-.222262E-03
       N       E                     dE             d eps       ncg     rms          rms(c)
DAV:   1    -0.218486009158E+02    0.92356E-03   -0.13235E+00 17832   0.386E+00    0.299E-01
DAV:   2    -0.218497000031E+02   -0.10991E-02   -0.13335E-02 18360   0.587E-01    0.163E-01
DAV:   3    -0.218495465277E+02    0.15348E-03   -0.83044E-04 31248   0.131E-01    0.692E-02
DAV:   4    -0.218495305192E+02    0.16009E-04   -0.13895E-04 19152   0.539E-02    0.142E-02
DAV:   5    -0.218495264567E+02    0.40625E-05   -0.15779E-05 30504   0.198E-02    0.874E-03
DAV:   6    -0.218495244897E+02    0.19670E-05   -0.11604E-05 19992   0.135E-02    0.302E-03
DAV:   7    -0.218495244891E+02    0.61755E-09   -0.31513E-07 30888   0.322E-03
  36 F= -.21849524E+02 E0= -.21849413E+02  d E =-.222323E-03
       N       E                     dE             d eps       ncg     rms          rms(c)
DAV:   1    -0.218463397914E+02    0.31847E-02   -0.24161E+00 16464   0.525E+00    0.184E-01
DAV:   2    -0.218487793066E+02   -0.24395E-02   -0.25214E-02 18000   0.760E-01    0.815E-02
DAV:   3    -0.218487708844E+02    0.84222E-05   -0.88056E-04 31368   0.128E-01    0.618E-02
DAV:   4    -0.218487168938E+02    0.53991E-04   -0.27805E-04 17832   0.652E-02    0.123E-02
DAV:   5    -0.218487148136E+02    0.20802E-05   -0.86145E-06 31872   0.147E-02    0.600E-03
DAV:   6    -0.218487141090E+02    0.70451E-06   -0.29872E-06 18576   0.657E-03    0.189E-03
DAV:   7    -0.218487140939E+02    0.15163E-07   -0.38534E-07 32064   0.271E-03
  37 F= -.21848714E+02 E0= -.21848606E+02  d E =-.216231E-03
