<?xml version="1.0" encoding="ISO-8859-1"?>
<modeling>
 <generator>
  <i name="program" type="string">vasp </i>
  <i name="version" type="string">6.0.8  </i>
  <i name="subversion" type="string">29Jun18 (build Jun 13 2019 12:54:44) complex                          parallel </i>
  <i name="platform" type="string">IFC18_CrayMPICH </i>
  <i name="date" type="string">2021 11 12 </i>
  <i name="time" type="string">21:19:19 </i>
 </generator>
 <incar>
  <i type="int" name="KPAR">     8</i>
  <i type="int" name="ISTART">     0</i>
  <i type="string" name="PREC"> ACC</i>
  <i type="string" name="ALGO"> Normal</i>
  <i type="logical" name="ADDGRID"> T  </i>
  <i type="int" name="ISPIN">     1</i>
  <i type="int" name="NELMIN">     5</i>
  <i type="int" name="IBRION">     6</i>
  <i type="int" name="NFREE">     4</i>
  <i name="EDIFF">      0.00000010</i>
  <i name="EDIFFG">     -0.01000000</i>
  <i type="int" name="NSW">    60</i>
  <i type="int" name="ISIF">     3</i>
  <i name="SYMPREC">      0.00000001</i>
  <i name="ENCUT">    700.00000000</i>
  <i name="POTIM">      0.01000000</i>
  <i type="logical" name="LREAL"> F  </i>
  <i type="int" name="ISMEAR">     0</i>
  <i name="SIGMA">      0.01000000</i>
  <i type="logical" name="LWAVE"> F  </i>
  <i type="logical" name="LCHARG"> F  </i>
  <i type="logical" name="LVTOT"> F  </i>
  <i type="string" name="ALGO"> Normal</i>
  <i type="string" name="GGA"> PS</i>
  <i name="EDIFF">      0.00000010</i>
  <i type="int" name="ISPIN">     1</i>
 </incar>
 <structure name="primitive_cell" >
  <crystal>
   <varray name="basis" >
    <v>       0.00000000       3.42485900       3.42485900 </v>
    <v>       3.42485900       0.00000000       3.42485900 </v>
    <v>       3.42485900       3.42485900       0.00000000 </v>
   </varray>
   <i name="volume">     80.34485755 </i>
   <varray name="rec_basis" >
    <v>      -0.14599141       0.14599141       0.14599141 </v>
    <v>       0.14599141      -0.14599141       0.14599141 </v>
    <v>       0.14599141       0.14599141      -0.14599141 </v>
   </varray>
  </crystal>
  <varray name="positions" >
   <v>       0.25000000       0.25000000       0.25000000 </v>
   <v>       0.75000000       0.75000000       0.75000000 </v>
   <v>       0.00000000       0.00000000       0.00000000 </v>
  </varray>
 </structure>
 <varray name="primitive_index" >
  <v type="int" >        1 </v>
  <v type="int" >        2 </v>
  <v type="int" >        3 </v>
 </varray>
 <kpoints>
  <generation param="Gamma">
   <v type="int" name="divisions">      13       13       13 </v>
   <v name="usershift">      0.00000000       0.00000000       0.00000000 </v>
   <v name="genvec1">      0.07692308       0.00000000      -0.00000000 </v>
   <v name="genvec2">      0.00000000       0.07692308       0.00000000 </v>
   <v name="genvec3">     -0.00000000      -0.00000000       0.07692308 </v>
   <v name="shift">      0.00000000       0.00000000       0.00000000 </v>
  </generation>
  <varray name="kpointlist" >
   <v>       0.00000000       0.00000000       0.00000000 </v>
   <v>       0.07692308       0.00000000      -0.00000000 </v>
   <v>       0.15384615      -0.00000000       0.00000000 </v>
   <v>       0.23076923      -0.00000000       0.00000000 </v>
   <v>       0.30769231      -0.00000000       0.00000000 </v>
   <v>       0.38461538       0.00000000      -0.00000000 </v>
   <v>       0.46153846       0.00000000      -0.00000000 </v>
   <v>       0.07692308       0.07692308       0.00000000 </v>
   <v>       0.15384615       0.07692308       0.00000000 </v>
   <v>       0.23076923       0.07692308       0.00000000 </v>
   <v>       0.30769231       0.07692308       0.00000000 </v>
   <v>       0.38461538       0.07692308      -0.00000000 </v>
   <v>       0.46153846       0.07692308       0.00000000 </v>
   <v>      -0.46153846       0.07692308      -0.00000000 </v>
   <v>      -0.38461538       0.07692308      -0.00000000 </v>
   <v>      -0.30769231       0.07692308       0.00000000 </v>
   <v>      -0.23076923       0.07692308       0.00000000 </v>
   <v>      -0.15384615       0.07692308      -0.00000000 </v>
   <v>      -0.07692308       0.07692308       0.00000000 </v>
   <v>       0.15384615       0.15384615       0.00000000 </v>
   <v>       0.23076923       0.15384615       0.00000000 </v>
   <v>       0.30769231       0.15384615       0.00000000 </v>
   <v>       0.38461538       0.15384615       0.00000000 </v>
   <v>       0.46153846       0.15384615       0.00000000 </v>
   <v>      -0.46153846       0.15384615       0.00000000 </v>
   <v>      -0.38461538       0.15384615      -0.00000000 </v>
   <v>      -0.30769231       0.15384615       0.00000000 </v>
   <v>      -0.23076923       0.15384615       0.00000000 </v>
   <v>      -0.15384615       0.15384615      -0.00000000 </v>
   <v>       0.23076923       0.23076923       0.00000000 </v>
   <v>       0.30769231       0.23076923       0.00000000 </v>
   <v>       0.38461538       0.23076923       0.00000000 </v>
   <v>       0.46153846       0.23076923       0.00000000 </v>
   <v>      -0.46153846       0.23076923       0.00000000 </v>
   <v>      -0.38461538       0.23076923      -0.00000000 </v>
   <v>      -0.30769231       0.23076923      -0.00000000 </v>
   <v>      -0.23076923       0.23076923      -0.00000000 </v>
   <v>       0.30769231       0.30769231       0.00000000 </v>
   <v>       0.38461538       0.30769231       0.00000000 </v>
   <v>       0.46153846       0.30769231       0.00000000 </v>
   <v>      -0.46153846       0.30769231      -0.00000000 </v>
   <v>      -0.38461538       0.30769231       0.00000000 </v>
   <v>      -0.30769231       0.30769231      -0.00000000 </v>
   <v>       0.38461538       0.38461538       0.00000000 </v>
   <v>       0.46153846       0.38461538       0.00000000 </v>
   <v>      -0.46153846       0.38461538      -0.00000000 </v>
   <v>      -0.38461538       0.38461538       0.00000000 </v>
   <v>       0.46153846       0.46153846       0.00000000 </v>
   <v>      -0.46153846       0.46153846       0.00000000 </v>
   <v>       0.23076923       0.15384615       0.07692308 </v>
   <v>       0.30769231       0.15384615       0.07692308 </v>
   <v>       0.38461538       0.15384615       0.07692308 </v>
   <v>       0.46153846       0.15384615       0.07692308 </v>
   <v>      -0.46153846       0.15384615       0.07692308 </v>
   <v>       0.30769231       0.23076923       0.07692308 </v>
   <v>       0.38461538       0.23076923       0.07692308 </v>
   <v>       0.46153846       0.23076923       0.07692308 </v>
   <v>      -0.46153846       0.23076923       0.07692308 </v>
   <v>      -0.38461538       0.23076923       0.07692308 </v>
   <v>      -0.30769231       0.23076923       0.07692308 </v>
   <v>      -0.23076923       0.23076923       0.07692308 </v>
   <v>      -0.15384615       0.23076923       0.07692308 </v>
   <v>       0.38461538       0.30769231       0.07692308 </v>
   <v>       0.46153846       0.30769231       0.07692308 </v>
   <v>      -0.46153846       0.30769231       0.07692308 </v>
   <v>      -0.38461538       0.30769231       0.07692308 </v>
   <v>      -0.30769231       0.30769231       0.07692308 </v>
   <v>      -0.23076923       0.30769231       0.07692308 </v>
   <v>       0.46153846       0.38461538       0.07692308 </v>
   <v>      -0.46153846       0.38461538       0.07692308 </v>
   <v>      -0.38461538       0.38461538       0.07692308 </v>
   <v>      -0.30769231       0.38461538       0.07692308 </v>
   <v>      -0.46153846       0.46153846       0.07692308 </v>
   <v>      -0.38461538       0.46153846       0.07692308 </v>
   <v>       0.46153846       0.30769231       0.15384615 </v>
   <v>      -0.46153846       0.30769231       0.15384615 </v>
   <v>      -0.38461538       0.30769231       0.15384615 </v>
   <v>      -0.46153846       0.38461538       0.15384615 </v>
   <v>      -0.38461538       0.38461538       0.15384615 </v>
   <v>      -0.30769231       0.38461538       0.15384615 </v>
   <v>      -0.23076923       0.38461538       0.15384615 </v>
   <v>      -0.38461538       0.46153846       0.15384615 </v>
   <v>      -0.30769231       0.46153846       0.15384615 </v>
   <v>      -0.30769231       0.46153846       0.23076923 </v>
  </varray>
  <varray name="weights" >
   <v>       0.00045517 </v>
   <v>       0.00364133 </v>
   <v>       0.00364133 </v>
   <v>       0.00364133 </v>
   <v>       0.00364133 </v>
   <v>       0.00364133 </v>
   <v>       0.00364133 </v>
   <v>       0.00273100 </v>
   <v>       0.01092399 </v>
   <v>       0.01092399 </v>
   <v>       0.01092399 </v>
   <v>       0.01092399 </v>
   <v>       0.01092399 </v>
   <v>       0.01092399 </v>
   <v>       0.01092399 </v>
   <v>       0.01092399 </v>
   <v>       0.01092399 </v>
   <v>       0.01092399 </v>
   <v>       0.00546199 </v>
   <v>       0.00273100 </v>
   <v>       0.01092399 </v>
   <v>       0.01092399 </v>
   <v>       0.01092399 </v>
   <v>       0.01092399 </v>
   <v>       0.01092399 </v>
   <v>       0.01092399 </v>
   <v>       0.01092399 </v>
   <v>       0.01092399 </v>
   <v>       0.00546199 </v>
   <v>       0.00273100 </v>
   <v>       0.01092399 </v>
   <v>       0.01092399 </v>
   <v>       0.01092399 </v>
   <v>       0.01092399 </v>
   <v>       0.01092399 </v>
   <v>       0.01092399 </v>
   <v>       0.00546199 </v>
   <v>       0.00273100 </v>
   <v>       0.01092399 </v>
   <v>       0.01092399 </v>
   <v>       0.01092399 </v>
   <v>       0.01092399 </v>
   <v>       0.00546199 </v>
   <v>       0.00273100 </v>
   <v>       0.01092399 </v>
   <v>       0.01092399 </v>
   <v>       0.00546199 </v>
   <v>       0.00273100 </v>
   <v>       0.00546199 </v>
   <v>       0.01092399 </v>
   <v>       0.02184797 </v>
   <v>       0.02184797 </v>
   <v>       0.02184797 </v>
   <v>       0.02184797 </v>
   <v>       0.01092399 </v>
   <v>       0.02184797 </v>
   <v>       0.02184797 </v>
   <v>       0.02184797 </v>
   <v>       0.02184797 </v>
   <v>       0.02184797 </v>
   <v>       0.02184797 </v>
   <v>       0.01092399 </v>
   <v>       0.01092399 </v>
   <v>       0.02184797 </v>
   <v>       0.02184797 </v>
   <v>       0.02184797 </v>
   <v>       0.02184797 </v>
   <v>       0.01092399 </v>
   <v>       0.01092399 </v>
   <v>       0.02184797 </v>
   <v>       0.02184797 </v>
   <v>       0.01092399 </v>
   <v>       0.01092399 </v>
   <v>       0.01092399 </v>
   <v>       0.01092399 </v>
   <v>       0.02184797 </v>
   <v>       0.02184797 </v>
   <v>       0.01092399 </v>
   <v>       0.02184797 </v>
   <v>       0.02184797 </v>
   <v>       0.01092399 </v>
   <v>       0.01092399 </v>
   <v>       0.01092399 </v>
   <v>       0.01092399 </v>
  </varray>
 </kpoints>
 <parameters>
  <separator name="general" >
   <i type="string" name="SYSTEM">unknown system</i>
   <i type="logical" name="LCOMPAT"> F  </i>
  </separator>
  <separator name="electronic" >
   <i type="string" name="PREC">acc</i>
   <i name="ENMAX">    700.00000000</i>
   <i name="ENAUG">    535.43100000</i>
   <i name="EDIFF">      0.00000010</i>
   <i type="int" name="IALGO">    38</i>
   <i type="int" name="IWAVPR">    11</i>
   <i type="int" name="NBANDS">    24</i>
   <i type="int" name="NBANDSLOW">    -1</i>
   <i type="int" name="NBANDSHIGH">    -1</i>
   <i name="NELECT">     37.00000000</i>
   <i type="int" name="TURBO">     0</i>
   <i type="int" name="IRESTART">     0</i>
   <i type="int" name="NREBOOT">     0</i>
   <i type="int" name="NMIN">     0</i>
   <i name="EREF">      0.00000000</i>
   <separator name="electronic smearing" >
    <i type="int" name="ISMEAR">     0</i>
    <i name="SIGMA">      0.01000000</i>
    <i name="KSPACING">      0.50000000</i>
    <i type="logical" name="KGAMMA"> T  </i>
    <i type="logical" name="KBLOWUP"> T  </i>
   </separator>
   <separator name="electronic projectors" >
    <i type="logical" name="LREAL"> F  </i>
    <v name="ROPT">      0.00000000      0.00000000      0.00000000</v>
    <i type="int" name="LMAXPAW">  -100</i>
    <i type="int" name="LMAXMIX">     2</i>
    <i type="logical" name="NLSPLINE"> F  </i>
   </separator>
   <separator name="electronic startup" >
    <i type="int" name="ISTART">     0</i>
    <i type="int" name="ICHARG">     2</i>
    <i type="int" name="INIWAV">     1</i>
   </separator>
   <separator name="electronic spin" >
    <i type="int" name="ISPIN">     1</i>
    <i type="logical" name="LNONCOLLINEAR"> F  </i>
    <v name="MAGMOM">      1.00000000      1.00000000      1.00000000</v>
    <i name="NUPDOWN">     -1.00000000</i>
    <i type="logical" name="LSORBIT"> F  </i>
    <v name="SAXIS">      0.00000000      0.00000000      1.00000000</v>
    <i type="logical" name="LSPIRAL"> F  </i>
    <v name="QSPIRAL">      0.00000000      0.00000000      0.00000000</v>
    <i type="logical" name="LZEROZ"> F  </i>
   </separator>
   <separator name="electronic exchange-correlation" >
    <i type="logical" name="LASPH"> F  </i>
    <i type="logical" name="LMETAGGA"> F  </i>
   </separator>
   <separator name="electronic convergence" >
    <i type="int" name="NELM">    60</i>
    <i type="int" name="NELMDL">    -5</i>
    <i type="int" name="NELMIN">     5</i>
    <i name="ENINI">    700.00000000</i>
    <separator name="electronic convergence detail" >
     <i type="logical" name="LDIAG"> T  </i>
     <i type="logical" name="LSUBROT"> F  </i>
     <i name="WEIMIN">      0.00100000</i>
     <i name="EBREAK">      0.00000000</i>
     <i name="DEPER">      0.30000000</i>
     <i type="int" name="NRMM">     4</i>
     <i name="TIME">      0.40000000</i>
    </separator>
   </separator>
   <separator name="electronic mixer" >
    <i name="AMIX">      0.40000000</i>
    <i name="BMIX">      1.00000000</i>
    <i name="AMIN">      0.10000000</i>
    <i name="AMIX_MAG">      1.60000000</i>
    <i name="BMIX_MAG">      1.00000000</i>
    <separator name="electronic mixer details" >
     <i type="int" name="IMIX">     4</i>
     <i type="logical" name="MIXFIRST"> F  </i>
     <i type="int" name="MAXMIX">   -45</i>
     <i name="WC">    100.00000000</i>
     <i type="int" name="INIMIX">     1</i>
     <i type="int" name="MIXPRE">     1</i>
     <i type="int" name="MREMOVE">     5</i>
    </separator>
   </separator>
   <separator name="electronic dipolcorrection" >
    <i type="logical" name="LDIPOL"> F  </i>
    <i type="logical" name="LMONO"> F  </i>
    <i type="int" name="IDIPOL">     0</i>
    <i name="EPSILON">      1.00000000</i>
    <v name="DIPOL">   -100.00000000   -100.00000000   -100.00000000</v>
    <i name="EFIELD">      0.00000000</i>
   </separator>
  </separator>
  <separator name="grids" >
   <i type="int" name="NGX">    42</i>
   <i type="int" name="NGY">    42</i>
   <i type="int" name="NGZ">    42</i>
   <i type="int" name="NGXF">    84</i>
   <i type="int" name="NGYF">    84</i>
   <i type="int" name="NGZF">    84</i>
   <i type="logical" name="ADDGRID"> T  </i>
  </separator>
  <separator name="ionic" >
   <i type="int" name="NSW">    73</i>
   <i type="int" name="IBRION">     6</i>
   <i type="int" name="MDALGO">     0</i>
   <i type="int" name="ISIF">     3</i>
   <i name="PSTRESS">      0.00000000</i>
   <i name="EDIFFG">     -0.01000000</i>
   <i type="int" name="NFREE">     4</i>
   <i name="POTIM">      0.01000000</i>
   <i name="SMASS">     -3.00000000</i>
   <i name="SCALEE">      1.00000000</i>
  </separator>
  <separator name="ionic md" >
   <i name="TEBEG">      0.00010000</i>
   <i name="TEEND">      0.00010000</i>
   <i type="int" name="NBLOCK">     1</i>
   <i type="int" name="KBLOCK">    73</i>
   <i type="int" name="NPACO">   256</i>
   <i name="APACO">     16.00000000</i>
  </separator>
  <separator name="symmetry" >
   <i type="int" name="ISYM">     2</i>
   <i name="SYMPREC">      0.00000001</i>
  </separator>
  <separator name="dos" >
   <i type="int" name="LORBIT">     0</i>
   <v name="RWIGS">     -1.00000000     -1.00000000     -1.00000000</v>
   <i type="int" name="NEDOS">   301</i>
   <i name="EMIN">     10.00000000</i>
   <i name="EMAX">    -10.00000000</i>
   <i name="EFERMI">      0.00000000</i>
  </separator>
  <separator name="writing" >
   <i type="int" name="NWRITE">     2</i>
   <i type="logical" name="LWAVE"> F  </i>
   <i type="logical" name="LDOWNSAMPLE"> F  </i>
   <i type="logical" name="LCHARG"> F  </i>
   <i type="logical" name="LPARD"> F  </i>
   <i type="logical" name="LVTOT"> F  </i>
   <i type="logical" name="LVHAR"> F  </i>
   <i type="logical" name="LELF"> F  </i>
   <i type="logical" name="LOPTICS"> F  </i>
   <v name="STM">      0.00000000      0.00000000      0.00000000      0.00000000      0.00000000      0.00000000      0.00000000</v>
  </separator>
  <separator name="performance" >
   <i type="int" name="NPAR">    24</i>
   <i type="int" name="NSIM">     4</i>
   <i type="int" name="NBLK">    -1</i>
   <i type="logical" name="LPLANE"> T  </i>
   <i type="logical" name="LSCALAPACK"> T  </i>
   <i type="logical" name="LSCAAWARE"> F  </i>
   <i type="logical" name="LSCALU"> F  </i>
   <i type="logical" name="LASYNC"> F  </i>
   <i type="logical" name="LORBITALREAL"> F  </i>
  </separator>
  <separator name="miscellaneous" >
   <i type="int" name="IDIOT">     3</i>
   <i type="int" name="PHON_NSTRUCT">    -1</i>
   <i type="logical" name="LMUSIC"> F  </i>
   <v name="POMASS">    232.03900000    208.98000000    195.08000000</v>
   <v name="DARWINR">      0.00000000      0.00000000      0.00000000</v>
   <v name="DARWINV">      1.00000000      1.00000000      1.00000000</v>
   <i type="logical" name="LCORR"> T  </i>
  </separator>
  <i type="logical" name="GGA_COMPAT"> T  </i>
  <i type="logical" name="LBERRY"> F  </i>
  <i type="int" name="ICORELEVEL">     0</i>
  <i type="logical" name="LDAU"> F  </i>
  <i type="int" name="I_CONSTRAINED_M">     0</i>
  <separator name="electronic exchange-correlation" >
   <i type="string" name="GGA">PS</i>
   <i type="int" name="VOSKOWN">     0</i>
   <i type="logical" name="LHFCALC"> F  </i>
   <i type="string" name="PRECFOCK"></i>
   <i type="logical" name="LSYMGRAD"> F  </i>
   <i type="logical" name="LHFONE"> F  </i>
   <i type="logical" name="LRHFCALC"> F  </i>
   <i type="logical" name="LTHOMAS"> F  </i>
   <i type="logical" name="LMODELHF"> F  </i>
   <i type="logical" name="LFOCKACE"> F  </i>
   <i name="ENCUT4O">     -1.00000000</i>
   <i type="int" name="EXXOEP">     0</i>
   <i type="int" name="FOURORBIT">     0</i>
   <i name="AEXX">      0.00000000</i>
   <i name="HFALPHA">      0.00000000</i>
   <i name="MCALPHA">      0.00000000</i>
   <i name="ALDAX">      1.00000000</i>
   <i name="AGGAX">      1.00000000</i>
   <i name="ALDAC">      1.00000000</i>
   <i name="AGGAC">      1.00000000</i>
   <i type="int" name="NKREDX">     1</i>
   <i type="int" name="NKREDY">     1</i>
   <i type="int" name="NKREDZ">     1</i>
   <i type="logical" name="SHIFTRED"> F  </i>
   <i type="logical" name="ODDONLY"> F  </i>
   <i type="logical" name="EVENONLY"> F  </i>
   <i type="int" name="LMAXFOCK">     0</i>
   <i type="int" name="NMAXFOCKAE">     0</i>
   <i type="logical" name="LFOCKAEDFT"> F  </i>
   <i name="HFSCREEN">      0.00000000</i>
   <i name="HFSCREENC">      0.00000000</i>
   <i type="int" name="NBANDSGWLOW">     0</i>
  </separator>
  <separator name="vdW DFT" >
   <i type="logical" name="LUSE_VDW"> F  </i>
   <i name="Zab_VDW">     -0.84910000</i>
   <i name="PARAM1">      0.12340000</i>
   <i name="PARAM2">      1.00000000</i>
   <i name="PARAM3">      0.00000000</i>
  </separator>
  <separator name="model GW" >
   <i type="int" name="MODEL_GW">     0</i>
   <i name="MODEL_EPS0">     16.06897151</i>
   <i name="MODEL_ALPHA">      1.00000000</i>
  </separator>
  <separator name="linear response parameters" >
   <i type="logical" name="LEPSILON"> F  </i>
   <i type="logical" name="LRPA"> F  </i>
   <i type="logical" name="LNABLA"> F  </i>
   <i type="logical" name="LVEL"> F  </i>
   <i type="int" name="KINTER">     0</i>
   <i name="CSHIFT">      0.10000000</i>
   <i name="OMEGAMAX">     -1.00000000</i>
   <i name="DEG_THRESHOLD">      0.00200000</i>
   <i name="RTIME">     -0.10000000</i>
   <i name="WPLASMAI">      0.00000000</i>
   <v name="DFIELD">      0.00000000      0.00000000      0.00000000</v>
   <v name="WPLASMA">      0.00000000      0.00000000      0.00000000      0.00000000      0.00000000      0.00000000      0.00000000      0.00000000      0.00000000</v>
  </separator>
  <separator name="orbital magnetization" >
   <i type="logical" name="NUCIND"> F  </i>
   <v name="MAGPOS">      0.00000000      0.00000000      0.00000000</v>
   <i type="logical" name="LNICSALL"> T  </i>
   <i type="logical" name="ORBITALMAG"> F  </i>
   <i type="logical" name="LMAGBLOCH"> F  </i>
   <i type="logical" name="LCHIMAG"> F  </i>
   <i type="logical" name="LGAUGE"> T  </i>
   <i type="int" name="MAGATOM">     0</i>
   <v name="MAGDIPOL">      0.00000000      0.00000000      0.00000000</v>
   <v name="AVECCONST">      0.00000000      0.00000000      0.00000000</v>
  </separator>
  <separator name="response functions" >
   <i type="logical" name="LFINITE_TEMPERATURE"> F  </i>
   <i type="logical" name="LADDER"> F  </i>
   <i type="logical" name="LRPAFORCE"> F  </i>
   <i type="logical" name="LFXC"> F  </i>
   <i type="logical" name="LHARTREE"> T  </i>
   <i type="int" name="IBSE">     0</i>
   <v type="int" name="KPOINT">    -1     0     0     0</v>
   <i type="logical" name="LTCTC"> F  </i>
   <i type="logical" name="LTCTE"> F  </i>
   <i type="logical" name="LTETE"> F  </i>
   <i type="logical" name="LTRIPLET"> F  </i>
   <i type="logical" name="LFXCEPS"> F  </i>
   <i type="logical" name="LFXHEG"> F  </i>
   <i type="int" name="NATURALO">     2</i>
   <i type="logical" name="L2ORDER"> F  </i>
   <i type="logical" name="LDMP1"> F  </i>
   <i type="logical" name="LMP2LT"> F  </i>
   <i type="logical" name="LSMP2LT"> F  </i>
   <i type="logical" name="LUSEW"> F  </i>
   <i name="ENCUTGW">     -2.00000000</i>
   <i name="ENCUTGWSOFT">     -2.00000000</i>
   <i name="ENCUTLF">     -1.00000000</i>
   <i type="int" name="LMAXMP2">    -1</i>
   <i name="SCISSOR">      0.00000000</i>
   <i type="int" name="NOMEGA">     0</i>
   <i type="int" name="NOMEGAR">     0</i>
   <i type="int" name="NBANDSGW">    -1</i>
   <i type="int" name="NBANDSO">    -1</i>
   <i type="int" name="NBANDSV">    -1</i>
   <i type="int" name="NELM">     1</i>
   <i type="int" name="NELMHF">     1</i>
   <i type="int" name="DIM">     3</i>
   <i type="int" name="IESPILON">     4</i>
   <i type="int" name="ANTIRES">     0</i>
   <i name="OMEGAMAX">    -30.00000000</i>
   <i name="OMEGAMIN">    -30.00000000</i>
   <i name="OMEGATL">   -200.00000000</i>
   <i type="int" name="OMEGAGRID">   145</i>
   <i name="CSHIFT">     -0.10000000</i>
   <i type="logical" name="LSELFENERGY"> F  </i>
   <i type="logical" name="LSPECTRAL"> F  </i>
   <i type="logical" name="LSPECTRALGW"> F  </i>
   <i type="logical" name="LSINGLES"> F  </i>
   <i type="logical" name="LFERMIGW"> F  </i>
   <i type="logical" name="ODDONLYGW"> F  </i>
   <i type="logical" name="EVENONLYGW"> F  </i>
   <i type="int" name="NKREDLFX">     1</i>
   <i type="int" name="NKREDLFY">     1</i>
   <i type="int" name="NKREDLFZ">     1</i>
   <i type="int" name="MAXMEM">  2800</i>
   <i type="int" name="TELESCOPE">     0</i>
   <i type="int" name="NTAUPAR">     1</i>
   <i type="int" name="NOMEGAPAR">    -1</i>
   <i name="LAMBDA">      1.00000000</i>
  </separator>
  <separator name="External order field" >
   <i name="OFIELD_KAPPA">      0.00000000</i>
   <v name="OFIELD_K">      0.00000000      0.00000000      0.00000000</v>
   <i name="OFIELD_Q6_NEAR">      0.00000000</i>
   <i name="OFIELD_Q6_FAR">      0.00000000</i>
   <i name="OFIELD_A">      0.00000000</i>
  </separator>
 </parameters>
 <atominfo>
  <atoms>       3 </atoms>
  <types>       3 </types>
  <array name="atoms" >
   <dimension dim="1">ion</dimension>
   <field type="string">element</field>
   <field type="int">atomtype</field>
   <set>
    <rc><c>Th</c><c>   1</c></rc>
    <rc><c>Bi</c><c>   2</c></rc>
    <rc><c>Pt</c><c>   3</c></rc>
   </set>
  </array>
  <array name="atomtypes" >
   <dimension dim="1">type</dimension>
   <field type="int">atomspertype</field>
   <field type="string">element</field>
   <field>mass</field>
   <field>valence</field>
   <field type="string">pseudopotential</field>
   <set>
    <rc><c>   1</c><c>Th</c><c>    232.03900000</c><c>     12.00000000</c><c>  PAW_PBE Th 07Sep2000                  </c></rc>
    <rc><c>   1</c><c>Bi</c><c>    208.98000000</c><c>     15.00000000</c><c>  PAW_PBE Bi_d 06Sep2000                </c></rc>
    <rc><c>   1</c><c>Pt</c><c>    195.08000000</c><c>     10.00000000</c><c>  PAW_PBE Pt 04Feb2005                  </c></rc>
   </set>
  </array>
 </atominfo>
 <structure name="initialpos" >
  <crystal>
   <varray name="basis" >
    <v>       0.00000000       3.42485900       3.42485900 </v>
    <v>       3.42485900       0.00000000       3.42485900 </v>
    <v>       3.42485900       3.42485900       0.00000000 </v>
   </varray>
   <i name="volume">     80.34485755 </i>
   <varray name="rec_basis" >
    <v>      -0.14599141       0.14599141       0.14599141 </v>
    <v>       0.14599141      -0.14599141       0.14599141 </v>
    <v>       0.14599141       0.14599141      -0.14599141 </v>
   </varray>
  </crystal>
  <varray name="positions" >
   <v>       0.25000000       0.25000000       0.25000000 </v>
   <v>       0.75000000       0.75000000       0.75000000 </v>
   <v>       0.00000000       0.00000000       0.00000000 </v>
  </varray>
 </structure>
 <calculation>
  <scstep>
   <time name="dav">    0.44    0.49</time>
   <time name="total">    0.57    0.66</time>
   <energy>
    <i name="alphaZ">    213.84769982 </i>
    <i name="ewald">  -3127.77265529 </i>
    <i name="hartreedc">   -756.48664056 </i>
    <i name="XCdc">     68.30107805 </i>
    <i name="pawpsdc">   3147.30828992 </i>
    <i name="pawaedc">  -3070.62761383 </i>
    <i name="eentropy">     -0.00031993 </i>
    <i name="bandstr">     84.72380198 </i>
    <i name="atom">   3674.67342263 </i>
    <i name="e_fr_energy">    233.96706279 </i>
    <i name="e_wo_entrp">    233.96738272 </i>
    <i name="e_0_energy">    233.96722276 </i>
   </energy>
  </scstep>
  <scstep>
   <time name="dav">    0.56    0.57</time>
   <time name="total">    0.56    0.58</time>
   <energy>
    <i name="e_fr_energy">     -8.44197322 </i>
    <i name="e_wo_entrp">     -8.44183878 </i>
    <i name="e_0_energy">     -8.44190600 </i>
   </energy>
  </scstep>
  <scstep>
   <time name="dav">    0.67    0.68</time>
   <time name="total">    0.67    0.69</time>
   <energy>
    <i name="e_fr_energy">    -22.57067520 </i>
    <i name="e_wo_entrp">    -22.57037816 </i>
    <i name="e_0_energy">    -22.57052668 </i>
   </energy>
  </scstep>
  <scstep>
   <time name="dav">    0.81    0.82</time>
   <time name="total">    0.81    0.82</time>
   <energy>
    <i name="e_fr_energy">    -22.93897116 </i>
    <i name="e_wo_entrp">    -22.93889902 </i>
    <i name="e_0_energy">    -22.93893509 </i>
   </energy>
  </scstep>
  <scstep>
   <time name="dav">    0.68    0.69</time>
   <time name="total">    0.89    0.90</time>
   <energy>
    <i name="e_fr_energy">    -22.94436273 </i>
    <i name="e_wo_entrp">    -22.94429008 </i>
    <i name="e_0_energy">    -22.94432640 </i>
   </energy>
  </scstep>
  <scstep>
   <time name="dav">    0.80    0.80</time>
   <time name="total">    1.07    1.07</time>
   <energy>
    <i name="e_fr_energy">    -22.05190865 </i>
    <i name="e_wo_entrp">    -22.05174345 </i>
    <i name="e_0_energy">    -22.05182605 </i>
   </energy>
  </scstep>
  <scstep>
   <time name="dav">    0.90    0.90</time>
   <time name="total">    1.16    1.17</time>
   <energy>
    <i name="e_fr_energy">    -21.91474578 </i>
    <i name="e_wo_entrp">    -21.91427052 </i>
    <i name="e_0_energy">    -21.91450815 </i>
   </energy>
  </scstep>
  <scstep>
   <time name="dav">    0.82    0.82</time>
   <time name="total">    1.08    1.10</time>
   <energy>
    <i name="e_fr_energy">    -21.88519094 </i>
    <i name="e_wo_entrp">    -21.88506429 </i>
    <i name="e_0_energy">    -21.88512762 </i>
   </energy>
  </scstep>
  <scstep>
   <time name="dav">    0.49    0.49</time>
   <time name="total">    0.75    0.77</time>
   <energy>
    <i name="e_fr_energy">    -21.85139005 </i>
    <i name="e_wo_entrp">    -21.85111443 </i>
    <i name="e_0_energy">    -21.85125224 </i>
   </energy>
  </scstep>
  <scstep>
   <time name="dav">    0.89    0.89</time>
   <time name="total">    1.14    1.16</time>
   <energy>
    <i name="e_fr_energy">    -21.84998211 </i>
    <i name="e_wo_entrp">    -21.84977413 </i>
    <i name="e_0_energy">    -21.84987812 </i>
   </energy>
  </scstep>
  <scstep>
   <time name="dav">    0.56    0.56</time>
   <time name="total">    0.82    0.84</time>
   <energy>
    <i name="e_fr_energy">    -21.84980292 </i>
    <i name="e_wo_entrp">    -21.84957138 </i>
    <i name="e_0_energy">    -21.84968715 </i>
   </energy>
  </scstep>
  <scstep>
   <time name="dav">    0.68    0.68</time>
   <time name="total">    0.93    0.96</time>
   <energy>
    <i name="e_fr_energy">    -21.84979816 </i>
    <i name="e_wo_entrp">    -21.84957008 </i>
    <i name="e_0_energy">    -21.84968412 </i>
   </energy>
  </scstep>
  <scstep>
   <time name="dav">    0.88    0.89</time>
   <time name="total">    1.14    1.15</time>
   <energy>
    <i name="e_fr_energy">    -21.84979470 </i>
    <i name="e_wo_entrp">    -21.84956887 </i>
    <i name="e_0_energy">    -21.84968179 </i>
   </energy>
  </scstep>
  <scstep>
   <time name="dav">    0.69    0.69</time>
   <time name="total">    0.95    0.97</time>
   <energy>
    <i name="e_fr_energy">    -21.84979458 </i>
    <i name="e_wo_entrp">    -21.84956975 </i>
    <i name="e_0_energy">    -21.84968216 </i>
   </energy>
  </scstep>
  <scstep>
   <time name="dav">    0.59    0.59</time>
   <time name="total">    0.68    0.69</time>
   <energy>
    <i name="alphaZ">    213.84769982 </i>
    <i name="ewald">  -3127.77265529 </i>
    <i name="hartreedc">   -730.71400625 </i>
    <i name="XCdc">     67.63412635 </i>
    <i name="pawpsdc">   3911.00192275 </i>
    <i name="pawaedc">  -3843.26992786 </i>
    <i name="eentropy">     -0.00022478 </i>
    <i name="bandstr">   -187.25015188 </i>
    <i name="atom">   3674.67342263 </i>
    <i name="e_fr_energy">    -21.84979452 </i>
    <i name="e_wo_entrp">    -21.84956974 </i>
    <i name="e_0_energy">    -21.84968213 </i>
   </energy>
  </scstep>
  <structure>
   <crystal>
    <varray name="basis" >
     <v>       0.00000000       3.42485900       3.42485900 </v>
     <v>       3.42485900       0.00000000       3.42485900 </v>
     <v>       3.42485900       3.42485900       0.00000000 </v>
    </varray>
    <i name="volume">     80.34485755 </i>
    <varray name="rec_basis" >
     <v>      -0.14599141       0.14599141       0.14599141 </v>
     <v>       0.14599141      -0.14599141       0.14599141 </v>
     <v>       0.14599141       0.14599141      -0.14599141 </v>
    </varray>
   </crystal>
   <varray name="positions" >
    <v>       0.25000000       0.25000000       0.25000000 </v>
    <v>       0.75000000       0.75000000       0.75000000 </v>
    <v>       0.00000000       0.00000000       0.00000000 </v>
   </varray>
  </structure>
  <varray name="forces" >
   <v>       0.00000000       0.00000000       0.00000000 </v>
   <v>       0.00000000       0.00000000       0.00000000 </v>
   <v>      -0.00000000      -0.00000000      -0.00000000 </v>
  </varray>
  <varray name="stress" >
   <v>       0.61985242       0.00000000       0.00000000 </v>
   <v>      -0.00000000       0.61985242       0.00000000 </v>
   <v>      -0.00000000       0.00000000       0.61985242 </v>
  </varray>
  <energy>
   <i name="e_fr_energy">    -21.84979452 </i>
   <i name="e_wo_entrp">    -21.84968213 </i>
   <i name="e_0_energy">     -0.00022478 </i>
  </energy>
  <kpoints>
   <generation param="Gamma">
    <v type="int" name="divisions">      13       13       13 </v>
    <v name="usershift">      0.00000000       0.00000000       0.00000000 </v>
    <v name="genvec1">      0.07692308      -0.00000000      -0.00000000 </v>
    <v name="genvec2">      0.00000000       0.07692308       0.00000000 </v>
    <v name="genvec3">     -0.00000000       0.00000000       0.07692308 </v>
    <v name="shift">      0.00000000       0.00000000       0.00000000 </v>
   </generation>
   <varray name="kpointlist" >
    <v>       0.00000000       0.00000000       0.00000000 </v>
    <v>       0.07692308      -0.00000000       0.00000000 </v>
    <v>       0.15384615       0.00000000       0.00000000 </v>
    <v>       0.23076923      -0.00000000       0.00000000 </v>
    <v>       0.30769231       0.00000000       0.00000000 </v>
    <v>       0.38461538      -0.00000000      -0.00000000 </v>
    <v>       0.46153846      -0.00000000      -0.00000000 </v>
    <v>       0.07692308       0.07692308      -0.00000000 </v>
    <v>       0.15384615       0.07692308      -0.00000000 </v>
    <v>       0.23076923       0.07692308       0.00000000 </v>
    <v>       0.30769231       0.07692308      -0.00000000 </v>
    <v>       0.38461538       0.07692308      -0.00000000 </v>
    <v>       0.46153846       0.07692308      -0.00000000 </v>
    <v>      -0.46153846       0.07692308      -0.00000000 </v>
    <v>      -0.38461538       0.07692308       0.00000000 </v>
    <v>      -0.30769231       0.07692308      -0.00000000 </v>
    <v>      -0.23076923       0.07692308      -0.00000000 </v>
    <v>      -0.15384615       0.07692308      -0.00000000 </v>
    <v>      -0.07692308       0.07692308      -0.00000000 </v>
    <v>       0.15384615       0.15384615       0.00000000 </v>
    <v>       0.23076923       0.15384615      -0.00000000 </v>
    <v>       0.30769231       0.15384615      -0.00000000 </v>
    <v>       0.38461538       0.15384615      -0.00000000 </v>
    <v>       0.46153846       0.15384615       0.00000000 </v>
    <v>      -0.46153846       0.15384615      -0.00000000 </v>
    <v>      -0.38461538       0.15384615      -0.00000000 </v>
    <v>      -0.30769231       0.15384615      -0.00000000 </v>
    <v>      -0.23076923       0.15384615       0.00000000 </v>
    <v>      -0.15384615       0.15384615      -0.00000000 </v>
    <v>       0.23076923       0.23076923      -0.00000000 </v>
    <v>       0.30769231       0.23076923      -0.00000000 </v>
    <v>       0.38461538       0.23076923      -0.00000000 </v>
    <v>       0.46153846       0.23076923      -0.00000000 </v>
    <v>      -0.46153846       0.23076923       0.00000000 </v>
    <v>      -0.38461538       0.23076923       0.00000000 </v>
    <v>      -0.30769231       0.23076923      -0.00000000 </v>
    <v>      -0.23076923       0.23076923      -0.00000000 </v>
    <v>       0.30769231       0.30769231       0.00000000 </v>
    <v>       0.38461538       0.30769231      -0.00000000 </v>
    <v>       0.46153846       0.30769231      -0.00000000 </v>
    <v>      -0.46153846       0.30769231      -0.00000000 </v>
    <v>      -0.38461538       0.30769231       0.00000000 </v>
    <v>      -0.30769231       0.30769231      -0.00000000 </v>
    <v>       0.38461538       0.38461538      -0.00000000 </v>
    <v>       0.46153846       0.38461538      -0.00000000 </v>
    <v>      -0.46153846       0.38461538       0.00000000 </v>
    <v>      -0.38461538       0.38461538       0.00000000 </v>
    <v>       0.46153846       0.46153846      -0.00000000 </v>
    <v>      -0.46153846       0.46153846       0.00000000 </v>
    <v>      -0.00000000       0.07692308       0.07692308 </v>
    <v>       0.15384615       0.07692308       0.07692308 </v>
    <v>       0.23076923       0.07692308       0.07692308 </v>
    <v>       0.30769231       0.07692308       0.07692308 </v>
    <v>       0.38461538       0.07692308       0.07692308 </v>
    <v>       0.46153846       0.07692308       0.07692308 </v>
    <v>      -0.46153846       0.07692308       0.07692308 </v>
    <v>      -0.38461538       0.07692308       0.07692308 </v>
    <v>      -0.30769231       0.07692308       0.07692308 </v>
    <v>      -0.23076923       0.07692308       0.07692308 </v>
    <v>      -0.15384615       0.07692308       0.07692308 </v>
    <v>      -0.07692308       0.07692308       0.07692308 </v>
    <v>       0.23076923       0.15384615       0.07692308 </v>
    <v>       0.30769231       0.15384615       0.07692308 </v>
    <v>       0.38461538       0.15384615       0.07692308 </v>
    <v>       0.46153846       0.15384615       0.07692308 </v>
    <v>      -0.46153846       0.15384615       0.07692308 </v>
    <v>      -0.38461538       0.15384615       0.07692308 </v>
    <v>      -0.30769231       0.15384615       0.07692308 </v>
    <v>      -0.23076923       0.15384615       0.07692308 </v>
    <v>      -0.15384615       0.15384615       0.07692308 </v>
    <v>      -0.07692308       0.15384615       0.07692308 </v>
    <v>       0.15384615       0.23076923       0.07692308 </v>
    <v>       0.30769231       0.23076923       0.07692308 </v>
    <v>       0.38461538       0.23076923       0.07692308 </v>
    <v>       0.46153846       0.23076923       0.07692308 </v>
    <v>      -0.46153846       0.23076923       0.07692308 </v>
    <v>      -0.38461538       0.23076923       0.07692308 </v>
    <v>      -0.30769231       0.23076923       0.07692308 </v>
    <v>      -0.23076923       0.23076923       0.07692308 </v>
    <v>      -0.15384615       0.23076923       0.07692308 </v>
    <v>       0.15384615       0.30769231       0.07692308 </v>
    <v>       0.23076923       0.30769231       0.07692308 </v>
    <v>       0.38461538       0.30769231       0.07692308 </v>
    <v>       0.46153846       0.30769231       0.07692308 </v>
    <v>      -0.46153846       0.30769231       0.07692308 </v>
    <v>      -0.38461538       0.30769231       0.07692308 </v>
    <v>      -0.30769231       0.30769231       0.07692308 </v>
    <v>      -0.23076923       0.30769231       0.07692308 </v>
    <v>       0.15384615       0.38461538       0.07692308 </v>
    <v>       0.23076923       0.38461538       0.07692308 </v>
    <v>       0.30769231       0.38461538       0.07692308 </v>
    <v>       0.46153846       0.38461538       0.07692308 </v>
    <v>      -0.46153846       0.38461538       0.07692308 </v>
    <v>      -0.38461538       0.38461538       0.07692308 </v>
    <v>      -0.30769231       0.38461538       0.07692308 </v>
    <v>       0.15384615       0.46153846       0.07692308 </v>
    <v>       0.23076923       0.46153846       0.07692308 </v>
    <v>       0.30769231       0.46153846       0.07692308 </v>
    <v>       0.38461538       0.46153846       0.07692308 </v>
    <v>      -0.46153846       0.46153846       0.07692308 </v>
    <v>      -0.38461538       0.46153846       0.07692308 </v>
    <v>       0.15384615      -0.46153846       0.07692308 </v>
    <v>       0.23076923      -0.46153846       0.07692308 </v>
    <v>       0.30769231      -0.46153846       0.07692308 </v>
    <v>       0.38461538      -0.46153846       0.07692308 </v>
    <v>       0.46153846      -0.46153846       0.07692308 </v>
    <v>       0.23076923      -0.38461538       0.07692308 </v>
    <v>       0.30769231      -0.38461538       0.07692308 </v>
    <v>       0.38461538      -0.38461538       0.07692308 </v>
    <v>       0.46153846      -0.38461538       0.07692308 </v>
    <v>       0.23076923      -0.30769231       0.07692308 </v>
    <v>       0.30769231      -0.30769231       0.07692308 </v>
    <v>       0.38461538      -0.30769231       0.07692308 </v>
    <v>       0.23076923      -0.23076923       0.07692308 </v>
    <v>       0.30769231      -0.23076923       0.07692308 </v>
    <v>       0.23076923      -0.15384615       0.07692308 </v>
    <v>      -0.00000000       0.15384615       0.15384615 </v>
    <v>       0.30769231       0.15384615       0.15384615 </v>
    <v>       0.38461538       0.15384615       0.15384615 </v>
    <v>       0.46153846       0.15384615       0.15384615 </v>
    <v>      -0.46153846       0.15384615       0.15384615 </v>
    <v>      -0.38461538       0.15384615       0.15384615 </v>
    <v>      -0.30769231       0.15384615       0.15384615 </v>
    <v>      -0.23076923       0.15384615       0.15384615 </v>
    <v>      -0.15384615       0.15384615       0.15384615 </v>
    <v>      -0.07692308       0.15384615       0.15384615 </v>
    <v>       0.38461538       0.23076923       0.15384615 </v>
    <v>       0.46153846       0.23076923       0.15384615 </v>
    <v>      -0.46153846       0.23076923       0.15384615 </v>
    <v>      -0.38461538       0.23076923       0.15384615 </v>
    <v>      -0.30769231       0.23076923       0.15384615 </v>
    <v>      -0.23076923       0.23076923       0.15384615 </v>
    <v>      -0.15384615       0.23076923       0.15384615 </v>
    <v>      -0.07692308       0.23076923       0.15384615 </v>
    <v>       0.46153846       0.30769231       0.15384615 </v>
    <v>      -0.46153846       0.30769231       0.15384615 </v>
    <v>      -0.38461538       0.30769231       0.15384615 </v>
    <v>      -0.30769231       0.30769231       0.15384615 </v>
    <v>      -0.23076923       0.30769231       0.15384615 </v>
    <v>      -0.15384615       0.30769231       0.15384615 </v>
    <v>      -0.46153846       0.38461538       0.15384615 </v>
    <v>      -0.38461538       0.38461538       0.15384615 </v>
    <v>      -0.30769231       0.38461538       0.15384615 </v>
    <v>      -0.23076923       0.38461538       0.15384615 </v>
    <v>       0.30769231       0.46153846       0.15384615 </v>
    <v>      -0.38461538       0.46153846       0.15384615 </v>
    <v>      -0.30769231       0.46153846       0.15384615 </v>
    <v>       0.30769231      -0.46153846       0.15384615 </v>
    <v>       0.38461538      -0.46153846       0.15384615 </v>
    <v>       0.30769231      -0.38461538       0.15384615 </v>
    <v>       0.38461538      -0.38461538       0.15384615 </v>
    <v>       0.46153846      -0.38461538       0.15384615 </v>
    <v>       0.38461538      -0.30769231       0.15384615 </v>
    <v>       0.46153846      -0.30769231       0.15384615 </v>
    <v>       0.38461538      -0.23076923       0.15384615 </v>
    <v>      -0.00000000       0.23076923       0.23076923 </v>
    <v>       0.46153846       0.23076923       0.23076923 </v>
    <v>      -0.46153846       0.23076923       0.23076923 </v>
    <v>      -0.38461538       0.23076923       0.23076923 </v>
    <v>      -0.30769231       0.23076923       0.23076923 </v>
    <v>      -0.23076923       0.23076923       0.23076923 </v>
    <v>      -0.15384615       0.23076923       0.23076923 </v>
    <v>      -0.07692308       0.23076923       0.23076923 </v>
    <v>      -0.46153846       0.30769231       0.23076923 </v>
    <v>      -0.38461538       0.30769231       0.23076923 </v>
    <v>      -0.30769231       0.30769231       0.23076923 </v>
    <v>      -0.23076923       0.30769231       0.23076923 </v>
    <v>      -0.15384615       0.30769231       0.23076923 </v>
    <v>      -0.07692308       0.30769231       0.23076923 </v>
    <v>      -0.38461538       0.38461538       0.23076923 </v>
    <v>      -0.30769231       0.38461538       0.23076923 </v>
    <v>      -0.23076923       0.38461538       0.23076923 </v>
    <v>      -0.15384615       0.38461538       0.23076923 </v>
    <v>      -0.30769231       0.46153846       0.23076923 </v>
    <v>      -0.23076923       0.46153846       0.23076923 </v>
    <v>       0.46153846      -0.30769231       0.23076923 </v>
    <v>      -0.00000000       0.30769231       0.30769231 </v>
    <v>      -0.38461538       0.30769231       0.30769231 </v>
    <v>      -0.30769231       0.30769231       0.30769231 </v>
    <v>      -0.23076923       0.30769231       0.30769231 </v>
    <v>      -0.15384615       0.30769231       0.30769231 </v>
    <v>      -0.07692308       0.30769231       0.30769231 </v>
    <v>      -0.30769231       0.38461538       0.30769231 </v>
    <v>      -0.23076923       0.38461538       0.30769231 </v>
    <v>      -0.15384615       0.38461538       0.30769231 </v>
    <v>      -0.07692308       0.38461538       0.30769231 </v>
    <v>      -0.23076923       0.46153846       0.30769231 </v>
    <v>      -0.15384615       0.46153846       0.30769231 </v>
    <v>      -0.00000000       0.38461538       0.38461538 </v>
    <v>      -0.23076923       0.38461538       0.38461538 </v>
    <v>      -0.15384615       0.38461538       0.38461538 </v>
    <v>      -0.07692308       0.38461538       0.38461538 </v>
    <v>      -0.15384615       0.46153846       0.38461538 </v>
    <v>      -0.07692308       0.46153846       0.38461538 </v>
    <v>      -0.00000000       0.46153846       0.46153846 </v>
    <v>      -0.07692308       0.46153846       0.46153846 </v>
   </varray>
   <varray name="weights" >
    <v>       0.00045517 </v>
    <v>       0.00364133 </v>
    <v>       0.00364133 </v>
    <v>       0.00364133 </v>
    <v>       0.00364133 </v>
    <v>       0.00364133 </v>
    <v>       0.00364133 </v>
    <v>       0.00182066 </v>
    <v>       0.00728266 </v>
    <v>       0.00728266 </v>
    <v>       0.00728266 </v>
    <v>       0.00728266 </v>
    <v>       0.00728266 </v>
    <v>       0.00728266 </v>
    <v>       0.00728266 </v>
    <v>       0.00728266 </v>
    <v>       0.00728266 </v>
    <v>       0.00728266 </v>
    <v>       0.00364133 </v>
    <v>       0.00182066 </v>
    <v>       0.00728266 </v>
    <v>       0.00728266 </v>
    <v>       0.00728266 </v>
    <v>       0.00728266 </v>
    <v>       0.00728266 </v>
    <v>       0.00728266 </v>
    <v>       0.00728266 </v>
    <v>       0.00728266 </v>
    <v>       0.00364133 </v>
    <v>       0.00182066 </v>
    <v>       0.00728266 </v>
    <v>       0.00728266 </v>
    <v>       0.00728266 </v>
    <v>       0.00728266 </v>
    <v>       0.00728266 </v>
    <v>       0.00728266 </v>
    <v>       0.00364133 </v>
    <v>       0.00182066 </v>
    <v>       0.00728266 </v>
    <v>       0.00728266 </v>
    <v>       0.00728266 </v>
    <v>       0.00728266 </v>
    <v>       0.00364133 </v>
    <v>       0.00182066 </v>
    <v>       0.00728266 </v>
    <v>       0.00728266 </v>
    <v>       0.00364133 </v>
    <v>       0.00182066 </v>
    <v>       0.00364133 </v>
    <v>       0.00091033 </v>
    <v>       0.00182066 </v>
    <v>       0.00364133 </v>
    <v>       0.00364133 </v>
    <v>       0.00364133 </v>
    <v>       0.00364133 </v>
    <v>       0.00364133 </v>
    <v>       0.00364133 </v>
    <v>       0.00364133 </v>
    <v>       0.00364133 </v>
    <v>       0.00364133 </v>
    <v>       0.00364133 </v>
    <v>       0.00364133 </v>
    <v>       0.00728266 </v>
    <v>       0.00728266 </v>
    <v>       0.00728266 </v>
    <v>       0.00728266 </v>
    <v>       0.00728266 </v>
    <v>       0.00728266 </v>
    <v>       0.00728266 </v>
    <v>       0.00728266 </v>
    <v>       0.00364133 </v>
    <v>       0.00364133 </v>
    <v>       0.00364133 </v>
    <v>       0.00728266 </v>
    <v>       0.00728266 </v>
    <v>       0.00728266 </v>
    <v>       0.00728266 </v>
    <v>       0.00728266 </v>
    <v>       0.00728266 </v>
    <v>       0.00364133 </v>
    <v>       0.00728266 </v>
    <v>       0.00364133 </v>
    <v>       0.00364133 </v>
    <v>       0.00728266 </v>
    <v>       0.00728266 </v>
    <v>       0.00728266 </v>
    <v>       0.00728266 </v>
    <v>       0.00364133 </v>
    <v>       0.00728266 </v>
    <v>       0.00728266 </v>
    <v>       0.00364133 </v>
    <v>       0.00364133 </v>
    <v>       0.00728266 </v>
    <v>       0.00728266 </v>
    <v>       0.00364133 </v>
    <v>       0.00728266 </v>
    <v>       0.00728266 </v>
    <v>       0.00728266 </v>
    <v>       0.00364133 </v>
    <v>       0.00364133 </v>
    <v>       0.00364133 </v>
    <v>       0.00728266 </v>
    <v>       0.00728266 </v>
    <v>       0.00728266 </v>
    <v>       0.00728266 </v>
    <v>       0.00364133 </v>
    <v>       0.00728266 </v>
    <v>       0.00728266 </v>
    <v>       0.00728266 </v>
    <v>       0.00364133 </v>
    <v>       0.00728266 </v>
    <v>       0.00728266 </v>
    <v>       0.00364133 </v>
    <v>       0.00728266 </v>
    <v>       0.00364133 </v>
    <v>       0.00364133 </v>
    <v>       0.00091033 </v>
    <v>       0.00182066 </v>
    <v>       0.00364133 </v>
    <v>       0.00364133 </v>
    <v>       0.00364133 </v>
    <v>       0.00364133 </v>
    <v>       0.00364133 </v>
    <v>       0.00364133 </v>
    <v>       0.00364133 </v>
    <v>       0.00364133 </v>
    <v>       0.00364133 </v>
    <v>       0.00728266 </v>
    <v>       0.00728266 </v>
    <v>       0.00728266 </v>
    <v>       0.00728266 </v>
    <v>       0.00728266 </v>
    <v>       0.00728266 </v>
    <v>       0.00364133 </v>
    <v>       0.00364133 </v>
    <v>       0.00728266 </v>
    <v>       0.00728266 </v>
    <v>       0.00728266 </v>
    <v>       0.00728266 </v>
    <v>       0.00364133 </v>
    <v>       0.00364133 </v>
    <v>       0.00728266 </v>
    <v>       0.00728266 </v>
    <v>       0.00364133 </v>
    <v>       0.00364133 </v>
    <v>       0.00364133 </v>
    <v>       0.00364133 </v>
    <v>       0.00728266 </v>
    <v>       0.00364133 </v>
    <v>       0.00728266 </v>
    <v>       0.00728266 </v>
    <v>       0.00364133 </v>
    <v>       0.00728266 </v>
    <v>       0.00364133 </v>
    <v>       0.00364133 </v>
    <v>       0.00091033 </v>
    <v>       0.00182066 </v>
    <v>       0.00364133 </v>
    <v>       0.00364133 </v>
    <v>       0.00364133 </v>
    <v>       0.00364133 </v>
    <v>       0.00364133 </v>
    <v>       0.00364133 </v>
    <v>       0.00364133 </v>
    <v>       0.00728266 </v>
    <v>       0.00728266 </v>
    <v>       0.00728266 </v>
    <v>       0.00728266 </v>
    <v>       0.00364133 </v>
    <v>       0.00364133 </v>
    <v>       0.00728266 </v>
    <v>       0.00728266 </v>
    <v>       0.00364133 </v>
    <v>       0.00364133 </v>
    <v>       0.00364133 </v>
    <v>       0.00364133 </v>
    <v>       0.00091033 </v>
    <v>       0.00182066 </v>
    <v>       0.00364133 </v>
    <v>       0.00364133 </v>
    <v>       0.00364133 </v>
    <v>       0.00364133 </v>
    <v>       0.00364133 </v>
    <v>       0.00728266 </v>
    <v>       0.00728266 </v>
    <v>       0.00364133 </v>
    <v>       0.00364133 </v>
    <v>       0.00364133 </v>
    <v>       0.00091033 </v>
    <v>       0.00182066 </v>
    <v>       0.00364133 </v>
    <v>       0.00364133 </v>
    <v>       0.00364133 </v>
    <v>       0.00364133 </v>
    <v>       0.00091033 </v>
    <v>       0.00182066 </v>
   </varray>
  </kpoints>
  <time name="totalsc">   22.49   23.27</time>
 </calculation>
 <calculation>
  <scstep>
   <time name="dav">    0.96    0.96</time>
   <time name="total">    1.34    1.44</time>
   <energy>
    <i name="alphaZ">    209.65460766 </i>
    <i name="ewald">  -3107.10702973 </i>
    <i name="hartreedc">   -725.86818379 </i>
    <i name="XCdc">     66.92245516 </i>
    <i name="pawpsdc">   3911.01996642 </i>
    <i name="pawaedc">  -3843.28765441 </i>
    <i name="eentropy">     -0.00029675 </i>
    <i name="bandstr">   -208.06137096 </i>
    <i name="atom">   3674.67342263 </i>
    <i name="e_fr_energy">    -22.05408376 </i>
    <i name="e_wo_entrp">    -22.05378701 </i>
    <i name="e_0_energy">    -22.05393539 </i>
   </energy>
  </scstep>
  <scstep>
   <time name="dav">    1.51    1.51</time>
   <time name="total">    1.84    1.86</time>
   <energy>
    <i name="e_fr_energy">    -21.87902740 </i>
    <i name="e_wo_entrp">    -21.87878945 </i>
    <i name="e_0_energy">    -21.87890843 </i>
   </energy>
  </scstep>
  <scstep>
   <time name="dav">    1.99    1.99</time>
   <time name="total">    2.29    2.32</time>
   <energy>
    <i name="e_fr_energy">    -21.84505244 </i>
    <i name="e_wo_entrp">    -21.84487774 </i>
    <i name="e_0_energy">    -21.84496509 </i>
   </energy>
  </scstep>
  <scstep>
   <time name="dav">    1.38    1.38</time>
   <time name="total">    1.69    1.71</time>
   <energy>
    <i name="e_fr_energy">    -21.83688883 </i>
    <i name="e_wo_entrp">    -21.83673487 </i>
    <i name="e_0_energy">    -21.83681185 </i>
   </energy>
  </scstep>
  <scstep>
   <time name="dav">    1.85    1.85</time>
   <time name="total">    2.15    2.16</time>
   <energy>
    <i name="e_fr_energy">    -21.83683286 </i>
    <i name="e_wo_entrp">    -21.83667411 </i>
    <i name="e_0_energy">    -21.83675349 </i>
   </energy>
  </scstep>
  <scstep>
   <time name="dav">    1.65    1.65</time>
   <time name="total">    1.94    1.95</time>
   <energy>
    <i name="e_fr_energy">    -21.83676889 </i>
    <i name="e_wo_entrp">    -21.83661000 </i>
    <i name="e_0_energy">    -21.83668945 </i>
   </energy>
  </scstep>
  <scstep>
   <time name="dav">    1.63    1.64</time>
   <time name="total">    1.92    1.93</time>
   <energy>
    <i name="e_fr_energy">    -21.83677934 </i>
    <i name="e_wo_entrp">    -21.83662092 </i>
    <i name="e_0_energy">    -21.83670013 </i>
   </energy>
  </scstep>
  <scstep>
   <time name="dav">    1.69    1.69</time>
   <time name="total">    1.97    1.99</time>
   <energy>
    <i name="e_fr_energy">    -21.83677972 </i>
    <i name="e_wo_entrp">    -21.83662129 </i>
    <i name="e_0_energy">    -21.83670050 </i>
   </energy>
  </scstep>
  <scstep>
   <time name="dav">    1.63    1.63</time>
   <time name="total">    1.74    1.95</time>
   <energy>
    <i name="alphaZ">    209.65460766 </i>
    <i name="ewald">  -3107.10702973 </i>
    <i name="hartreedc">   -739.79992710 </i>
    <i name="XCdc">     67.42262002 </i>
    <i name="pawpsdc">   3864.33663854 </i>
    <i name="pawaedc">  -3796.35051778 </i>
    <i name="eentropy">     -0.00015843 </i>
    <i name="bandstr">   -194.66643560 </i>
    <i name="atom">   3674.67342263 </i>
    <i name="e_fr_energy">    -21.83677978 </i>
    <i name="e_wo_entrp">    -21.83662135 </i>
    <i name="e_0_energy">    -21.83670056 </i>
   </energy>
  </scstep>
  <structure>
   <crystal>
    <varray name="basis" >
     <v>       0.00000000       3.42485900       3.42485900 </v>
     <v>       3.49335618       0.00000000       3.42485900 </v>
     <v>       3.49335618       3.42485900       0.00000000 </v>
    </varray>
    <i name="volume">     81.95175470 </i>
    <varray name="rec_basis" >
     <v>      -0.14312883       0.14599141       0.14599141 </v>
     <v>       0.14312883      -0.14599141       0.14599141 </v>
     <v>       0.14312883       0.14599141      -0.14599141 </v>
    </varray>
   </crystal>
   <varray name="positions" >
    <v>       0.25000000       0.25000000       0.25000000 </v>
    <v>       0.75000000       0.75000000       0.75000000 </v>
    <v>       0.00000000       0.00000000       0.00000000 </v>
   </varray>
  </structure>
  <varray name="forces" >
   <v>      -0.00000000      -0.00000000      -0.00000000 </v>
   <v>      -0.00000000      -0.00000000      -0.00000000 </v>
   <v>       0.00000000       0.00000000       0.00000000 </v>
  </varray>
  <varray name="stress" >
   <v>     -26.11478191      -0.00000000       0.00000000 </v>
   <v>       0.00000000     -16.03817760       0.00000000 </v>
   <v>       0.00000000       0.00000000     -16.03817760 </v>
  </varray>
  <energy>
   <i name="e_fr_energy">    -21.83677978 </i>
   <i name="e_wo_entrp">    -21.83670056 </i>
   <i name="e_0_energy">     -0.00015843 </i>
  </energy>
  <kpoints>
   <generation param="Gamma">
    <v type="int" name="divisions">      13       13       13 </v>
    <v name="usershift">      0.00000000       0.00000000       0.00000000 </v>
    <v name="genvec1">      0.07692308       0.00000000      -0.00000000 </v>
    <v name="genvec2">      0.00000000       0.07692308       0.00000000 </v>
    <v name="genvec3">     -0.00000000      -0.00000000       0.07692308 </v>
    <v name="shift">      0.00000000       0.00000000       0.00000000 </v>
   </generation>
   <varray name="kpointlist" >
    <v>       0.00000000       0.00000000       0.00000000 </v>
    <v>       0.07692308       0.00000000       0.00000000 </v>
    <v>       0.15384615       0.00000000      -0.00000000 </v>
    <v>       0.23076923       0.00000000       0.00000000 </v>
    <v>       0.30769231       0.00000000      -0.00000000 </v>
    <v>       0.38461538       0.00000000       0.00000000 </v>
    <v>       0.46153846       0.00000000       0.00000000 </v>
    <v>       0.07692308       0.07692308       0.00000000 </v>
    <v>       0.15384615       0.07692308      -0.00000000 </v>
    <v>       0.23076923       0.07692308      -0.00000000 </v>
    <v>       0.30769231       0.07692308       0.00000000 </v>
    <v>       0.38461538       0.07692308       0.00000000 </v>
    <v>       0.46153846       0.07692308       0.00000000 </v>
    <v>      -0.46153846       0.07692308      -0.00000000 </v>
    <v>      -0.38461538       0.07692308      -0.00000000 </v>
    <v>      -0.30769231       0.07692308      -0.00000000 </v>
    <v>      -0.23076923       0.07692308       0.00000000 </v>
    <v>      -0.15384615       0.07692308      -0.00000000 </v>
    <v>      -0.07692308       0.07692308      -0.00000000 </v>
    <v>       0.15384615       0.15384615       0.00000000 </v>
    <v>       0.23076923       0.15384615      -0.00000000 </v>
    <v>       0.30769231       0.15384615      -0.00000000 </v>
    <v>       0.38461538       0.15384615       0.00000000 </v>
    <v>       0.46153846       0.15384615       0.00000000 </v>
    <v>      -0.46153846       0.15384615      -0.00000000 </v>
    <v>      -0.38461538       0.15384615      -0.00000000 </v>
    <v>      -0.30769231       0.15384615      -0.00000000 </v>
    <v>      -0.23076923       0.15384615       0.00000000 </v>
    <v>      -0.15384615       0.15384615      -0.00000000 </v>
    <v>       0.23076923       0.23076923      -0.00000000 </v>
    <v>       0.30769231       0.23076923       0.00000000 </v>
    <v>       0.38461538       0.23076923       0.00000000 </v>
    <v>       0.46153846       0.23076923       0.00000000 </v>
    <v>      -0.46153846       0.23076923      -0.00000000 </v>
    <v>      -0.38461538       0.23076923      -0.00000000 </v>
    <v>      -0.30769231       0.23076923      -0.00000000 </v>
    <v>      -0.23076923       0.23076923      -0.00000000 </v>
    <v>       0.30769231       0.30769231       0.00000000 </v>
    <v>       0.38461538       0.30769231      -0.00000000 </v>
    <v>       0.46153846       0.30769231       0.00000000 </v>
    <v>      -0.46153846       0.30769231      -0.00000000 </v>
    <v>      -0.38461538       0.30769231      -0.00000000 </v>
    <v>      -0.30769231       0.30769231      -0.00000000 </v>
    <v>       0.38461538       0.38461538       0.00000000 </v>
    <v>       0.46153846       0.38461538       0.00000000 </v>
    <v>      -0.46153846       0.38461538      -0.00000000 </v>
    <v>      -0.38461538       0.38461538       0.00000000 </v>
    <v>       0.46153846       0.46153846       0.00000000 </v>
    <v>      -0.46153846       0.46153846      -0.00000000 </v>
    <v>       0.00000000       0.07692308       0.07692308 </v>
    <v>       0.15384615       0.07692308       0.07692308 </v>
    <v>       0.23076923       0.07692308       0.07692308 </v>
    <v>       0.30769231       0.07692308       0.07692308 </v>
    <v>       0.38461538       0.07692308       0.07692308 </v>
    <v>       0.46153846       0.07692308       0.07692308 </v>
    <v>      -0.46153846       0.07692308       0.07692308 </v>
    <v>      -0.38461538       0.07692308       0.07692308 </v>
    <v>      -0.30769231       0.07692308       0.07692308 </v>
    <v>      -0.23076923       0.07692308       0.07692308 </v>
    <v>      -0.15384615       0.07692308       0.07692308 </v>
    <v>      -0.07692308       0.07692308       0.07692308 </v>
    <v>       0.23076923       0.15384615       0.07692308 </v>
    <v>       0.30769231       0.15384615       0.07692308 </v>
    <v>       0.38461538       0.15384615       0.07692308 </v>
    <v>       0.46153846       0.15384615       0.07692308 </v>
    <v>      -0.46153846       0.15384615       0.07692308 </v>
    <v>      -0.38461538       0.15384615       0.07692308 </v>
    <v>      -0.30769231       0.15384615       0.07692308 </v>
    <v>      -0.23076923       0.15384615       0.07692308 </v>
    <v>      -0.15384615       0.15384615       0.07692308 </v>
    <v>      -0.07692308       0.15384615       0.07692308 </v>
    <v>       0.15384615       0.23076923       0.07692308 </v>
    <v>       0.30769231       0.23076923       0.07692308 </v>
    <v>       0.38461538       0.23076923       0.07692308 </v>
    <v>       0.46153846       0.23076923       0.07692308 </v>
    <v>      -0.46153846       0.23076923       0.07692308 </v>
    <v>      -0.38461538       0.23076923       0.07692308 </v>
    <v>      -0.30769231       0.23076923       0.07692308 </v>
    <v>      -0.23076923       0.23076923       0.07692308 </v>
    <v>      -0.15384615       0.23076923       0.07692308 </v>
    <v>       0.15384615       0.30769231       0.07692308 </v>
    <v>       0.23076923       0.30769231       0.07692308 </v>
    <v>       0.38461538       0.30769231       0.07692308 </v>
    <v>       0.46153846       0.30769231       0.07692308 </v>
    <v>      -0.46153846       0.30769231       0.07692308 </v>
    <v>      -0.38461538       0.30769231       0.07692308 </v>
    <v>      -0.30769231       0.30769231       0.07692308 </v>
    <v>      -0.23076923       0.30769231       0.07692308 </v>
    <v>       0.15384615       0.38461538       0.07692308 </v>
    <v>       0.23076923       0.38461538       0.07692308 </v>
    <v>       0.30769231       0.38461538       0.07692308 </v>
    <v>       0.46153846       0.38461538       0.07692308 </v>
    <v>      -0.46153846       0.38461538       0.07692308 </v>
    <v>      -0.38461538       0.38461538       0.07692308 </v>
    <v>      -0.30769231       0.38461538       0.07692308 </v>
    <v>       0.15384615       0.46153846       0.07692308 </v>
    <v>       0.23076923       0.46153846       0.07692308 </v>
    <v>       0.30769231       0.46153846       0.07692308 </v>
    <v>       0.38461538       0.46153846       0.07692308 </v>
    <v>      -0.46153846       0.46153846       0.07692308 </v>
    <v>      -0.38461538       0.46153846       0.07692308 </v>
    <v>       0.15384615      -0.46153846       0.07692308 </v>
    <v>       0.23076923      -0.46153846       0.07692308 </v>
    <v>       0.30769231      -0.46153846       0.07692308 </v>
    <v>       0.38461538      -0.46153846       0.07692308 </v>
    <v>       0.46153846      -0.46153846       0.07692308 </v>
    <v>       0.23076923      -0.38461538       0.07692308 </v>
    <v>       0.30769231      -0.38461538       0.07692308 </v>
    <v>       0.38461538      -0.38461538       0.07692308 </v>
    <v>       0.46153846      -0.38461538       0.07692308 </v>
    <v>       0.23076923      -0.30769231       0.07692308 </v>
    <v>       0.30769231      -0.30769231       0.07692308 </v>
    <v>       0.38461538      -0.30769231       0.07692308 </v>
    <v>       0.23076923      -0.23076923       0.07692308 </v>
    <v>       0.30769231      -0.23076923       0.07692308 </v>
    <v>       0.23076923      -0.15384615       0.07692308 </v>
    <v>       0.00000000       0.15384615       0.15384615 </v>
    <v>       0.30769231       0.15384615       0.15384615 </v>
    <v>       0.38461538       0.15384615       0.15384615 </v>
    <v>       0.46153846       0.15384615       0.15384615 </v>
    <v>      -0.46153846       0.15384615       0.15384615 </v>
    <v>      -0.38461538       0.15384615       0.15384615 </v>
    <v>      -0.30769231       0.15384615       0.15384615 </v>
    <v>      -0.23076923       0.15384615       0.15384615 </v>
    <v>      -0.15384615       0.15384615       0.15384615 </v>
    <v>      -0.07692308       0.15384615       0.15384615 </v>
    <v>       0.38461538       0.23076923       0.15384615 </v>
    <v>       0.46153846       0.23076923       0.15384615 </v>
    <v>      -0.46153846       0.23076923       0.15384615 </v>
    <v>      -0.38461538       0.23076923       0.15384615 </v>
    <v>      -0.30769231       0.23076923       0.15384615 </v>
    <v>      -0.23076923       0.23076923       0.15384615 </v>
    <v>      -0.15384615       0.23076923       0.15384615 </v>
    <v>      -0.07692308       0.23076923       0.15384615 </v>
    <v>       0.46153846       0.30769231       0.15384615 </v>
    <v>      -0.46153846       0.30769231       0.15384615 </v>
    <v>      -0.38461538       0.30769231       0.15384615 </v>
    <v>      -0.30769231       0.30769231       0.15384615 </v>
    <v>      -0.23076923       0.30769231       0.15384615 </v>
    <v>      -0.15384615       0.30769231       0.15384615 </v>
    <v>      -0.46153846       0.38461538       0.15384615 </v>
    <v>      -0.38461538       0.38461538       0.15384615 </v>
    <v>      -0.30769231       0.38461538       0.15384615 </v>
    <v>      -0.23076923       0.38461538       0.15384615 </v>
    <v>       0.30769231       0.46153846       0.15384615 </v>
    <v>      -0.38461538       0.46153846       0.15384615 </v>
    <v>      -0.30769231       0.46153846       0.15384615 </v>
    <v>       0.30769231      -0.46153846       0.15384615 </v>
    <v>       0.38461538      -0.46153846       0.15384615 </v>
    <v>       0.30769231      -0.38461538       0.15384615 </v>
    <v>       0.38461538      -0.38461538       0.15384615 </v>
    <v>       0.46153846      -0.38461538       0.15384615 </v>
    <v>       0.38461538      -0.30769231       0.15384615 </v>
    <v>       0.46153846      -0.30769231       0.15384615 </v>
    <v>       0.38461538      -0.23076923       0.15384615 </v>
    <v>       0.00000000       0.23076923       0.23076923 </v>
    <v>       0.46153846       0.23076923       0.23076923 </v>
    <v>      -0.46153846       0.23076923       0.23076923 </v>
    <v>      -0.38461538       0.23076923       0.23076923 </v>
    <v>      -0.30769231       0.23076923       0.23076923 </v>
    <v>      -0.23076923       0.23076923       0.23076923 </v>
    <v>      -0.15384615       0.23076923       0.23076923 </v>
    <v>      -0.07692308       0.23076923       0.23076923 </v>
    <v>      -0.46153846       0.30769231       0.23076923 </v>
    <v>      -0.38461538       0.30769231       0.23076923 </v>
    <v>      -0.30769231       0.30769231       0.23076923 </v>
    <v>      -0.23076923       0.30769231       0.23076923 </v>
    <v>      -0.15384615       0.30769231       0.23076923 </v>
    <v>      -0.07692308       0.30769231       0.23076923 </v>
    <v>      -0.38461538       0.38461538       0.23076923 </v>
    <v>      -0.30769231       0.38461538       0.23076923 </v>
    <v>      -0.23076923       0.38461538       0.23076923 </v>
    <v>      -0.15384615       0.38461538       0.23076923 </v>
    <v>      -0.30769231       0.46153846       0.23076923 </v>
    <v>      -0.23076923       0.46153846       0.23076923 </v>
    <v>       0.46153846      -0.30769231       0.23076923 </v>
    <v>       0.00000000       0.30769231       0.30769231 </v>
    <v>      -0.38461538       0.30769231       0.30769231 </v>
    <v>      -0.30769231       0.30769231       0.30769231 </v>
    <v>      -0.23076923       0.30769231       0.30769231 </v>
    <v>      -0.15384615       0.30769231       0.30769231 </v>
    <v>      -0.07692308       0.30769231       0.30769231 </v>
    <v>      -0.30769231       0.38461538       0.30769231 </v>
    <v>      -0.23076923       0.38461538       0.30769231 </v>
    <v>      -0.15384615       0.38461538       0.30769231 </v>
    <v>      -0.07692308       0.38461538       0.30769231 </v>
    <v>      -0.23076923       0.46153846       0.30769231 </v>
    <v>      -0.15384615       0.46153846       0.30769231 </v>
    <v>       0.00000000       0.38461538       0.38461538 </v>
    <v>      -0.23076923       0.38461538       0.38461538 </v>
    <v>      -0.15384615       0.38461538       0.38461538 </v>
    <v>      -0.07692308       0.38461538       0.38461538 </v>
    <v>      -0.15384615       0.46153846       0.38461538 </v>
    <v>      -0.07692308       0.46153846       0.38461538 </v>
    <v>       0.00000000       0.46153846       0.46153846 </v>
    <v>      -0.07692308       0.46153846       0.46153846 </v>
   </varray>
   <varray name="weights" >
    <v>       0.00045517 </v>
    <v>       0.00364133 </v>
    <v>       0.00364133 </v>
    <v>       0.00364133 </v>
    <v>       0.00364133 </v>
    <v>       0.00364133 </v>
    <v>       0.00364133 </v>
    <v>       0.00182066 </v>
    <v>       0.00728266 </v>
    <v>       0.00728266 </v>
    <v>       0.00728266 </v>
    <v>       0.00728266 </v>
    <v>       0.00728266 </v>
    <v>       0.00728266 </v>
    <v>       0.00728266 </v>
    <v>       0.00728266 </v>
    <v>       0.00728266 </v>
    <v>       0.00728266 </v>
    <v>       0.00364133 </v>
    <v>       0.00182066 </v>
    <v>       0.00728266 </v>
    <v>       0.00728266 </v>
    <v>       0.00728266 </v>
    <v>       0.00728266 </v>
    <v>       0.00728266 </v>
    <v>       0.00728266 </v>
    <v>       0.00728266 </v>
    <v>       0.00728266 </v>
    <v>       0.00364133 </v>
    <v>       0.00182066 </v>
    <v>       0.00728266 </v>
    <v>       0.00728266 </v>
    <v>       0.00728266 </v>
    <v>       0.00728266 </v>
    <v>       0.00728266 </v>
    <v>       0.00728266 </v>
    <v>       0.00364133 </v>
    <v>       0.00182066 </v>
    <v>       0.00728266 </v>
    <v>       0.00728266 </v>
    <v>       0.00728266 </v>
    <v>       0.00728266 </v>
    <v>       0.00364133 </v>
    <v>       0.00182066 </v>
    <v>       0.00728266 </v>
    <v>       0.00728266 </v>
    <v>       0.00364133 </v>
    <v>       0.00182066 </v>
    <v>       0.00364133 </v>
    <v>       0.00091033 </v>
    <v>       0.00182066 </v>
    <v>       0.00364133 </v>
    <v>       0.00364133 </v>
    <v>       0.00364133 </v>
    <v>       0.00364133 </v>
    <v>       0.00364133 </v>
    <v>       0.00364133 </v>
    <v>       0.00364133 </v>
    <v>       0.00364133 </v>
    <v>       0.00364133 </v>
    <v>       0.00364133 </v>
    <v>       0.00364133 </v>
    <v>       0.00728266 </v>
    <v>       0.00728266 </v>
    <v>       0.00728266 </v>
    <v>       0.00728266 </v>
    <v>       0.00728266 </v>
    <v>       0.00728266 </v>
    <v>       0.00728266 </v>
    <v>       0.00728266 </v>
    <v>       0.00364133 </v>
    <v>       0.00364133 </v>
    <v>       0.00364133 </v>
    <v>       0.00728266 </v>
    <v>       0.00728266 </v>
    <v>       0.00728266 </v>
    <v>       0.00728266 </v>
    <v>       0.00728266 </v>
    <v>       0.00728266 </v>
    <v>       0.00364133 </v>
    <v>       0.00728266 </v>
    <v>       0.00364133 </v>
    <v>       0.00364133 </v>
    <v>       0.00728266 </v>
    <v>       0.00728266 </v>
    <v>       0.00728266 </v>
    <v>       0.00728266 </v>
    <v>       0.00364133 </v>
    <v>       0.00728266 </v>
    <v>       0.00728266 </v>
    <v>       0.00364133 </v>
    <v>       0.00364133 </v>
    <v>       0.00728266 </v>
    <v>       0.00728266 </v>
    <v>       0.00364133 </v>
    <v>       0.00728266 </v>
    <v>       0.00728266 </v>
    <v>       0.00728266 </v>
    <v>       0.00364133 </v>
    <v>       0.00364133 </v>
    <v>       0.00364133 </v>
    <v>       0.00728266 </v>
    <v>       0.00728266 </v>
    <v>       0.00728266 </v>
    <v>       0.00728266 </v>
    <v>       0.00364133 </v>
    <v>       0.00728266 </v>
    <v>       0.00728266 </v>
    <v>       0.00728266 </v>
    <v>       0.00364133 </v>
    <v>       0.00728266 </v>
    <v>       0.00728266 </v>
    <v>       0.00364133 </v>
    <v>       0.00728266 </v>
    <v>       0.00364133 </v>
    <v>       0.00364133 </v>
    <v>       0.00091033 </v>
    <v>       0.00182066 </v>
    <v>       0.00364133 </v>
    <v>       0.00364133 </v>
    <v>       0.00364133 </v>
    <v>       0.00364133 </v>
    <v>       0.00364133 </v>
    <v>       0.00364133 </v>
    <v>       0.00364133 </v>
    <v>       0.00364133 </v>
    <v>       0.00364133 </v>
    <v>       0.00728266 </v>
    <v>       0.00728266 </v>
    <v>       0.00728266 </v>
    <v>       0.00728266 </v>
    <v>       0.00728266 </v>
    <v>       0.00728266 </v>
    <v>       0.00364133 </v>
    <v>       0.00364133 </v>
    <v>       0.00728266 </v>
    <v>       0.00728266 </v>
    <v>       0.00728266 </v>
    <v>       0.00728266 </v>
    <v>       0.00364133 </v>
    <v>       0.00364133 </v>
    <v>       0.00728266 </v>
    <v>       0.00728266 </v>
    <v>       0.00364133 </v>
    <v>       0.00364133 </v>
    <v>       0.00364133 </v>
    <v>       0.00364133 </v>
    <v>       0.00728266 </v>
    <v>       0.00364133 </v>
    <v>       0.00728266 </v>
    <v>       0.00728266 </v>
    <v>       0.00364133 </v>
    <v>       0.00728266 </v>
    <v>       0.00364133 </v>
    <v>       0.00364133 </v>
    <v>       0.00091033 </v>
    <v>       0.00182066 </v>
    <v>       0.00364133 </v>
    <v>       0.00364133 </v>
    <v>       0.00364133 </v>
    <v>       0.00364133 </v>
    <v>       0.00364133 </v>
    <v>       0.00364133 </v>
    <v>       0.00364133 </v>
    <v>       0.00728266 </v>
    <v>       0.00728266 </v>
    <v>       0.00728266 </v>
    <v>       0.00728266 </v>
    <v>       0.00364133 </v>
    <v>       0.00364133 </v>
    <v>       0.00728266 </v>
    <v>       0.00728266 </v>
    <v>       0.00364133 </v>
    <v>       0.00364133 </v>
    <v>       0.00364133 </v>
    <v>       0.00364133 </v>
    <v>       0.00091033 </v>
    <v>       0.00182066 </v>
    <v>       0.00364133 </v>
    <v>       0.00364133 </v>
    <v>       0.00364133 </v>
    <v>       0.00364133 </v>
    <v>       0.00364133 </v>
    <v>       0.00728266 </v>
    <v>       0.00728266 </v>
    <v>       0.00364133 </v>
    <v>       0.00364133 </v>
    <v>       0.00364133 </v>
    <v>       0.00091033 </v>
    <v>       0.00182066 </v>
    <v>       0.00364133 </v>
    <v>       0.00364133 </v>
    <v>       0.00364133 </v>
    <v>       0.00364133 </v>
    <v>       0.00091033 </v>
    <v>       0.00182066 </v>
   </varray>
  </kpoints>
  <time name="totalsc">   32.06   35.04</time>
 </calculation>
 <calculation>
  <scstep>
   <time name="dav">    1.05    1.05</time>
   <time name="total">    1.45    1.47</time>
   <energy>
    <i name="alphaZ">    211.73039586 </i>
    <i name="ewald">  -3117.39340868 </i>
    <i name="hartreedc">   -742.18701610 </i>
    <i name="XCdc">     67.77952239 </i>
    <i name="pawpsdc">   3864.24237775 </i>
    <i name="pawaedc">  -3796.25695128 </i>
    <i name="eentropy">     -0.00018503 </i>
    <i name="bandstr">   -184.48435629 </i>
    <i name="atom">   3674.67342263 </i>
    <i name="e_fr_energy">    -21.89619876 </i>
    <i name="e_wo_entrp">    -21.89601373 </i>
    <i name="e_0_energy">    -21.89610625 </i>
   </energy>
  </scstep>
  <scstep>
   <time name="dav">    1.76    1.76</time>
   <time name="total">    2.06    2.07</time>
   <energy>
    <i name="e_fr_energy">    -21.85720969 </i>
    <i name="e_wo_entrp">    -21.85703686 </i>
    <i name="e_0_energy">    -21.85712327 </i>
   </energy>
  </scstep>
  <scstep>
   <time name="dav">    1.99    1.99</time>
   <time name="total">    2.29    2.30</time>
   <energy>
    <i name="e_fr_energy">    -21.84867262 </i>
    <i name="e_wo_entrp">    -21.84850919 </i>
    <i name="e_0_energy">    -21.84859091 </i>
   </energy>
  </scstep>
  <scstep>
   <time name="dav">    1.45    1.45</time>
   <time name="total">    1.74    1.75</time>
   <energy>
    <i name="e_fr_energy">    -21.84660744 </i>
    <i name="e_wo_entrp">    -21.84643323 </i>
    <i name="e_0_energy">    -21.84652034 </i>
   </energy>
  </scstep>
  <scstep>
   <time name="dav">    1.83    1.83</time>
   <time name="total">    2.15    2.17</time>
   <energy>
    <i name="e_fr_energy">    -21.84664663 </i>
    <i name="e_wo_entrp">    -21.84646936 </i>
    <i name="e_0_energy">    -21.84655800 </i>
   </energy>
  </scstep>
  <scstep>
   <time name="dav">    1.70    1.70</time>
   <time name="total">    2.00    2.01</time>
   <energy>
    <i name="e_fr_energy">    -21.84663350 </i>
    <i name="e_wo_entrp">    -21.84645573 </i>
    <i name="e_0_energy">    -21.84654461 </i>
   </energy>
  </scstep>
  <scstep>
   <time name="dav">    1.56    1.56</time>
   <time name="total">    1.89    1.91</time>
   <energy>
    <i name="e_fr_energy">    -21.84663804 </i>
    <i name="e_wo_entrp">    -21.84646047 </i>
    <i name="e_0_energy">    -21.84654925 </i>
   </energy>
  </scstep>
  <scstep>
   <time name="dav">    1.66    1.66</time>
   <time name="total">    1.94    1.96</time>
   <energy>
    <i name="e_fr_energy">    -21.84663929 </i>
    <i name="e_wo_entrp">    -21.84646166 </i>
    <i name="e_0_energy">    -21.84655047 </i>
   </energy>
  </scstep>
  <scstep>
   <time name="dav">    1.66    1.66</time>
   <time name="total">    1.76    1.78</time>
   <energy>
    <i name="alphaZ">    211.73039586 </i>
    <i name="ewald">  -3117.39340868 </i>
    <i name="hartreedc">   -735.24615071 </i>
    <i name="XCdc">     67.52679844 </i>
    <i name="pawpsdc">   3887.01576568 </i>
    <i name="pawaedc">  -3819.15304884 </i>
    <i name="eentropy">     -0.00017763 </i>
    <i name="bandstr">   -191.00023600 </i>
    <i name="atom">   3674.67342263 </i>
    <i name="e_fr_energy">    -21.84663925 </i>
    <i name="e_wo_entrp">    -21.84646163 </i>
    <i name="e_0_energy">    -21.84655044 </i>
   </energy>
  </scstep>
  <structure>
   <crystal>
    <varray name="basis" >
     <v>       0.00000000       3.42485900       3.42485900 </v>
     <v>       3.45910759       0.00000000       3.42485900 </v>
     <v>       3.45910759       3.42485900       0.00000000 </v>
    </varray>
    <i name="volume">     81.14830613 </i>
    <varray name="rec_basis" >
     <v>      -0.14454595       0.14599141       0.14599141 </v>
     <v>       0.14454595      -0.14599141       0.14599141 </v>
     <v>       0.14454595       0.14599141      -0.14599141 </v>
    </varray>
   </crystal>
   <varray name="positions" >
    <v>       0.25000000       0.25000000       0.25000000 </v>
    <v>       0.75000000       0.75000000       0.75000000 </v>
    <v>       0.00000000       0.00000000       0.00000000 </v>
   </varray>
  </structure>
  <varray name="forces" >
   <v>      -0.00000000      -0.00000000      -0.00000000 </v>
   <v>      -0.00000000      -0.00000000      -0.00000000 </v>
   <v>       0.00000000       0.00000000       0.00000000 </v>
  </varray>
  <varray name="stress" >
   <v>     -13.17050367       0.00000000       0.00000000 </v>
   <v>       0.00000000      -7.89404404       0.00000000 </v>
   <v>       0.00000000       0.00000000      -7.89404404 </v>
  </varray>
  <energy>
   <i name="e_fr_energy">    -21.84663925 </i>
   <i name="e_wo_entrp">    -21.84655044 </i>
   <i name="e_0_energy">     -0.00017763 </i>
  </energy>
  <kpoints>
   <generation param="Gamma">
    <v type="int" name="divisions">      13       13       13 </v>
[...]
       <r>    8.9099    0.0000 </r>
       <r>    9.3705    0.0000 </r>
       <r>   10.1481    0.0000 </r>
       <r>   10.2519    0.0000 </r>
       <r>   10.3694    0.0000 </r>
       <r>   10.5222    0.0000 </r>
      </set>
      <set comment="kpoint 81">
       <r>  -31.5724    1.0000 </r>
       <r>  -14.4919    1.0000 </r>
       <r>  -14.4833    1.0000 </r>
       <r>  -14.4525    1.0000 </r>
       <r>  -14.4505    1.0000 </r>
       <r>  -14.4460    1.0000 </r>
       <r>   -9.7182    1.0000 </r>
       <r>   -9.6502    1.0000 </r>
       <r>   -9.5675    1.0000 </r>
       <r>   -2.9321    1.0000 </r>
       <r>    3.2010    1.0000 </r>
       <r>    3.5151    1.0000 </r>
       <r>    3.9286    1.0000 </r>
       <r>    4.5786    1.0000 </r>
       <r>    4.7708    1.0000 </r>
       <r>    5.1440    1.0000 </r>
       <r>    5.5148    1.0000 </r>
       <r>    6.8284    1.0000 </r>
       <r>    8.9302    0.0000 </r>
       <r>    9.3631    0.0000 </r>
       <r>   10.1267    0.0000 </r>
       <r>   10.2563    0.0000 </r>
       <r>   10.3833    0.0000 </r>
       <r>   10.5211    0.0000 </r>
      </set>
      <set comment="kpoint 82">
       <r>  -31.5721    1.0000 </r>
       <r>  -14.4870    1.0000 </r>
       <r>  -14.4802    1.0000 </r>
       <r>  -14.4550    1.0000 </r>
       <r>  -14.4482    1.0000 </r>
       <r>  -14.4453    1.0000 </r>
       <r>   -9.7247    1.0000 </r>
       <r>   -9.6311    1.0000 </r>
       <r>   -9.5989    1.0000 </r>
       <r>   -3.0338    1.0000 </r>
       <r>    3.5102    1.0000 </r>
       <r>    3.6180    1.0000 </r>
       <r>    4.0575    1.0000 </r>
       <r>    4.5162    1.0000 </r>
       <r>    4.7733    1.0000 </r>
       <r>    4.8560    1.0000 </r>
       <r>    5.7277    1.0000 </r>
       <r>    6.9771    1.0000 </r>
       <r>    8.6167    0.0000 </r>
       <r>    9.6915    0.0000 </r>
       <r>   10.0572    0.0000 </r>
       <r>   10.1750    0.0000 </r>
       <r>   10.3009    0.0000 </r>
       <r>   10.5309    0.0000 </r>
      </set>
      <set comment="kpoint 83">
       <r>  -31.5720    1.0000 </r>
       <r>  -14.4890    1.0000 </r>
       <r>  -14.4802    1.0000 </r>
       <r>  -14.4538    1.0000 </r>
       <r>  -14.4494    1.0000 </r>
       <r>  -14.4454    1.0000 </r>
       <r>   -9.7114    1.0000 </r>
       <r>   -9.6499    1.0000 </r>
       <r>   -9.5934    1.0000 </r>
       <r>   -3.0012    1.0000 </r>
       <r>    3.5009    1.0000 </r>
       <r>    3.5959    1.0000 </r>
       <r>    4.0161    1.0000 </r>
       <r>    4.5536    1.0000 </r>
       <r>    4.7947    1.0000 </r>
       <r>    4.9305    1.0000 </r>
       <r>    5.4368    1.0000 </r>
       <r>    6.9675    1.0000 </r>
       <r>    8.7912    0.0000 </r>
       <r>    9.5381    0.0000 </r>
       <r>   10.1077    0.0000 </r>
       <r>   10.1756    0.0000 </r>
       <r>   10.3432    0.0000 </r>
       <r>   10.5351    0.0000 </r>
      </set>
      <set comment="kpoint 84">
       <r>  -31.5720    1.0000 </r>
       <r>  -14.4902    1.0000 </r>
       <r>  -14.4802    1.0000 </r>
       <r>  -14.4530    1.0000 </r>
       <r>  -14.4506    1.0000 </r>
       <r>  -14.4452    1.0000 </r>
       <r>   -9.7029    1.0000 </r>
       <r>   -9.6542    1.0000 </r>
       <r>   -9.5960    1.0000 </r>
       <r>   -2.9830    1.0000 </r>
       <r>    3.4658    1.0000 </r>
       <r>    3.5627    1.0000 </r>
       <r>    4.0340    1.0000 </r>
       <r>    4.5750    1.0000 </r>
       <r>    4.8342    1.0000 </r>
       <r>    5.0189    1.0000 </r>
       <r>    5.2207    1.0000 </r>
       <r>    6.9897    1.0000 </r>
       <r>    9.0114    0.0000 </r>
       <r>    9.3290    0.0000 </r>
       <r>   10.0889    0.0000 </r>
       <r>   10.1744    0.0000 </r>
       <r>   10.3726    0.0000 </r>
       <r>   10.5122    0.0000 </r>
      </set>
     </set>
    </set>
   </array>
  </eigenvalues>
  <separator name="orbital magnetization" >
   <v name="MAGDIPOLOUT">      0.00000000      0.00000000      0.00000000</v>
  </separator>
  <dos>
   <i name="efermi">      8.48487686 </i>
   <total>
    <array>
     <dimension dim="1">gridpoints</dimension>
     <dimension dim="2">spin</dimension>
     <field>energy</field>
     <field>total</field>
     <field>integrated</field>
     <set>
      <set comment="spin 1">
       <r>   -33.6872     0.0000     0.0000 </r>
       <r>   -33.5326     0.0000     0.0000 </r>
       <r>   -33.3780     0.0000     0.0000 </r>
       <r>   -33.2234     0.0000     0.0000 </r>
       <r>   -33.0688     0.0000     0.0000 </r>
       <r>   -32.9142     0.0000     0.0000 </r>
       <r>   -32.7596     0.0000     0.0000 </r>
       <r>   -32.6050     0.0000     0.0000 </r>
       <r>   -32.4504     0.0000     0.0000 </r>
       <r>   -32.2957     0.0000     0.0000 </r>
       <r>   -32.1411     0.0000     0.0000 </r>
       <r>   -31.9865     0.0000     0.0000 </r>
       <r>   -31.8319     0.0000     0.0000 </r>
       <r>   -31.6773     0.0000     0.0000 </r>
       <r>   -31.5227    12.9357     2.0000 </r>
       <r>   -31.3681     0.0000     2.0000 </r>
       <r>   -31.2135     0.0000     2.0000 </r>
       <r>   -31.0589     0.0000     2.0000 </r>
       <r>   -30.9043     0.0000     2.0000 </r>
       <r>   -30.7496     0.0000     2.0000 </r>
       <r>   -30.5950     0.0000     2.0000 </r>
       <r>   -30.4404     0.0000     2.0000 </r>
       <r>   -30.2858     0.0000     2.0000 </r>
       <r>   -30.1312     0.0000     2.0000 </r>
       <r>   -29.9766     0.0000     2.0000 </r>
       <r>   -29.8220     0.0000     2.0000 </r>
       <r>   -29.6674     0.0000     2.0000 </r>
       <r>   -29.5128     0.0000     2.0000 </r>
       <r>   -29.3582     0.0000     2.0000 </r>
       <r>   -29.2035     0.0000     2.0000 </r>
       <r>   -29.0489     0.0000     2.0000 </r>
       <r>   -28.8943     0.0000     2.0000 </r>
       <r>   -28.7397     0.0000     2.0000 </r>
       <r>   -28.5851     0.0000     2.0000 </r>
       <r>   -28.4305     0.0000     2.0000 </r>
       <r>   -28.2759     0.0000     2.0000 </r>
       <r>   -28.1213     0.0000     2.0000 </r>
       <r>   -27.9667     0.0000     2.0000 </r>
       <r>   -27.8120     0.0000     2.0000 </r>
       <r>   -27.6574     0.0000     2.0000 </r>
       <r>   -27.5028     0.0000     2.0000 </r>
       <r>   -27.3482     0.0000     2.0000 </r>
       <r>   -27.1936     0.0000     2.0000 </r>
       <r>   -27.0390     0.0000     2.0000 </r>
       <r>   -26.8844     0.0000     2.0000 </r>
       <r>   -26.7298     0.0000     2.0000 </r>
       <r>   -26.5752     0.0000     2.0000 </r>
       <r>   -26.4206     0.0000     2.0000 </r>
       <r>   -26.2659     0.0000     2.0000 </r>
       <r>   -26.1113     0.0000     2.0000 </r>
       <r>   -25.9567     0.0000     2.0000 </r>
       <r>   -25.8021     0.0000     2.0000 </r>
       <r>   -25.6475     0.0000     2.0000 </r>
       <r>   -25.4929     0.0000     2.0000 </r>
       <r>   -25.3383     0.0000     2.0000 </r>
       <r>   -25.1837     0.0000     2.0000 </r>
       <r>   -25.0291     0.0000     2.0000 </r>
       <r>   -24.8745     0.0000     2.0000 </r>
       <r>   -24.7198     0.0000     2.0000 </r>
       <r>   -24.5652     0.0000     2.0000 </r>
       <r>   -24.4106     0.0000     2.0000 </r>
       <r>   -24.2560     0.0000     2.0000 </r>
       <r>   -24.1014     0.0000     2.0000 </r>
       <r>   -23.9468     0.0000     2.0000 </r>
       <r>   -23.7922     0.0000     2.0000 </r>
       <r>   -23.6376     0.0000     2.0000 </r>
       <r>   -23.4830     0.0000     2.0000 </r>
       <r>   -23.3283     0.0000     2.0000 </r>
       <r>   -23.1737     0.0000     2.0000 </r>
       <r>   -23.0191     0.0000     2.0000 </r>
       <r>   -22.8645     0.0000     2.0000 </r>
       <r>   -22.7099     0.0000     2.0000 </r>
       <r>   -22.5553     0.0000     2.0000 </r>
       <r>   -22.4007     0.0000     2.0000 </r>
       <r>   -22.2461     0.0000     2.0000 </r>
       <r>   -22.0915     0.0000     2.0000 </r>
       <r>   -21.9369     0.0000     2.0000 </r>
       <r>   -21.7822     0.0000     2.0000 </r>
       <r>   -21.6276     0.0000     2.0000 </r>
       <r>   -21.4730     0.0000     2.0000 </r>
       <r>   -21.3184     0.0000     2.0000 </r>
       <r>   -21.1638     0.0000     2.0000 </r>
       <r>   -21.0092     0.0000     2.0000 </r>
       <r>   -20.8546     0.0000     2.0000 </r>
       <r>   -20.7000     0.0000     2.0000 </r>
       <r>   -20.5454     0.0000     2.0000 </r>
       <r>   -20.3908     0.0000     2.0000 </r>
       <r>   -20.2361     0.0000     2.0000 </r>
       <r>   -20.0815     0.0000     2.0000 </r>
       <r>   -19.9269     0.0000     2.0000 </r>
       <r>   -19.7723     0.0000     2.0000 </r>
       <r>   -19.6177     0.0000     2.0000 </r>
       <r>   -19.4631     0.0000     2.0000 </r>
       <r>   -19.3085     0.0000     2.0000 </r>
       <r>   -19.1539     0.0000     2.0000 </r>
       <r>   -18.9993     0.0000     2.0000 </r>
       <r>   -18.8447     0.0000     2.0000 </r>
       <r>   -18.6900     0.0000     2.0000 </r>
       <r>   -18.5354     0.0000     2.0000 </r>
       <r>   -18.3808     0.0000     2.0000 </r>
       <r>   -18.2262     0.0000     2.0000 </r>
       <r>   -18.0716     0.0000     2.0000 </r>
       <r>   -17.9170     0.0000     2.0000 </r>
       <r>   -17.7624     0.0000     2.0000 </r>
       <r>   -17.6078     0.0000     2.0000 </r>
       <r>   -17.4532     0.0000     2.0000 </r>
       <r>   -17.2985     0.0000     2.0000 </r>
       <r>   -17.1439     0.0000     2.0000 </r>
       <r>   -16.9893     0.0000     2.0000 </r>
       <r>   -16.8347     0.0000     2.0000 </r>
       <r>   -16.6801     0.0000     2.0000 </r>
       <r>   -16.5255     0.0000     2.0000 </r>
       <r>   -16.3709     0.0000     2.0000 </r>
       <r>   -16.2163     0.0000     2.0000 </r>
       <r>   -16.0617     0.0000     2.0000 </r>
       <r>   -15.9071     0.0000     2.0000 </r>
       <r>   -15.7524     0.0000     2.0000 </r>
       <r>   -15.5978     0.0000     2.0000 </r>
       <r>   -15.4432     0.0000     2.0000 </r>
       <r>   -15.2886     0.0000     2.0000 </r>
       <r>   -15.1340     0.0000     2.0000 </r>
       <r>   -14.9794     0.0000     2.0000 </r>
       <r>   -14.8248     0.0000     2.0000 </r>
       <r>   -14.6702     0.0000     2.0000 </r>
       <r>   -14.5156     0.0136     2.0021 </r>
       <r>   -14.3610     0.0000    12.0000 </r>
       <r>   -14.2063     0.0000    12.0000 </r>
       <r>   -14.0517     0.0000    12.0000 </r>
       <r>   -13.8971     0.0000    12.0000 </r>
       <r>   -13.7425     0.0000    12.0000 </r>
       <r>   -13.5879     0.0000    12.0000 </r>
       <r>   -13.4333     0.0000    12.0000 </r>
       <r>   -13.2787     0.0000    12.0000 </r>
       <r>   -13.1241     0.0000    12.0000 </r>
       <r>   -12.9695     0.0000    12.0000 </r>
       <r>   -12.8148     0.0000    12.0000 </r>
       <r>   -12.6602     0.0000    12.0000 </r>
       <r>   -12.5056     0.0000    12.0000 </r>
       <r>   -12.3510     0.0000    12.0000 </r>
       <r>   -12.1964     0.0000    12.0000 </r>
       <r>   -12.0418     0.0000    12.0000 </r>
       <r>   -11.8872     0.0000    12.0000 </r>
       <r>   -11.7326     0.0000    12.0000 </r>
       <r>   -11.5780     0.0000    12.0000 </r>
       <r>   -11.4234     0.0000    12.0000 </r>
       <r>   -11.2687     0.0000    12.0000 </r>
       <r>   -11.1141     0.0000    12.0000 </r>
       <r>   -10.9595     0.0000    12.0000 </r>
       <r>   -10.8049     0.0000    12.0000 </r>
       <r>   -10.6503     0.0000    12.0000 </r>
       <r>   -10.4957     0.0000    12.0000 </r>
       <r>   -10.3411     0.0000    12.0000 </r>
       <r>   -10.1865     0.0000    12.0000 </r>
       <r>   -10.0319     0.0000    12.0000 </r>
       <r>    -9.8773     0.0000    12.0000 </r>
       <r>    -9.7226     8.0514    13.2740 </r>
       <r>    -9.5680    15.3418    16.4439 </r>
       <r>    -9.4134     0.0000    18.0000 </r>
       <r>    -9.2588     0.0000    18.0000 </r>
       <r>    -9.1042     0.0000    18.0000 </r>
       <r>    -8.9496     0.0000    18.0000 </r>
       <r>    -8.7950     0.0000    18.0000 </r>
       <r>    -8.6404     0.0000    18.0000 </r>
       <r>    -8.4858     0.0000    18.0000 </r>
       <r>    -8.3311     0.0000    18.0000 </r>
       <r>    -8.1765     0.0000    18.0000 </r>
       <r>    -8.0219     0.0000    18.0000 </r>
       <r>    -7.8673     0.0000    18.0000 </r>
       <r>    -7.7127     0.0000    18.0000 </r>
       <r>    -7.5581     0.0000    18.0000 </r>
       <r>    -7.4035     0.0000    18.0000 </r>
       <r>    -7.2489     0.0000    18.0000 </r>
       <r>    -7.0943     0.0000    18.0000 </r>
       <r>    -6.9397     0.0000    18.0000 </r>
       <r>    -6.7850     0.0000    18.0000 </r>
       <r>    -6.6304     0.0000    18.0000 </r>
       <r>    -6.4758     0.0000    18.0000 </r>
       <r>    -6.3212     0.0000    18.0000 </r>
       <r>    -6.1666     0.0000    18.0000 </r>
       <r>    -6.0120     0.0000    18.0000 </r>
       <r>    -5.8574     0.0000    18.0000 </r>
       <r>    -5.7028     0.0000    18.0000 </r>
       <r>    -5.5482     0.0000    18.0000 </r>
       <r>    -5.3936     0.0000    18.0000 </r>
       <r>    -5.2389     0.0000    18.0000 </r>
       <r>    -5.0843     0.0000    18.0000 </r>
       <r>    -4.9297     0.0000    18.0000 </r>
       <r>    -4.7751     0.0000    18.0000 </r>
       <r>    -4.6205     0.0000    18.0000 </r>
       <r>    -4.4659     0.0000    18.0000 </r>
       <r>    -4.3113     0.0000    18.0000 </r>
       <r>    -4.1567     0.0000    18.0000 </r>
       <r>    -4.0021     0.0000    18.0000 </r>
       <r>    -3.8475     0.0000    18.0000 </r>
       <r>    -3.6928     0.0364    18.0056 </r>
       <r>    -3.5382     0.2051    18.0454 </r>
       <r>    -3.3836     0.2826    18.1029 </r>
       <r>    -3.2290     0.1518    18.1700 </r>
       <r>    -3.0744     1.3250    18.4625 </r>
       <r>    -2.9198     3.0563    19.3437 </r>
       <r>    -2.7652     1.0072    19.9227 </r>
       <r>    -2.6106     0.0000    20.0000 </r>
       <r>    -2.4560     0.0000    20.0000 </r>
       <r>    -2.3013     0.0000    20.0000 </r>
       <r>    -2.1467     0.0000    20.0000 </r>
       <r>    -1.9921     0.0000    20.0000 </r>
       <r>    -1.8375     0.0000    20.0000 </r>
       <r>    -1.6829     0.0000    20.0000 </r>
       <r>    -1.5283     0.0000    20.0000 </r>
       <r>    -1.3737     0.0000    20.0000 </r>
       <r>    -1.2191     0.0000    20.0000 </r>
       <r>    -1.0645     0.0000    20.0000 </r>
       <r>    -0.9099     0.0000    20.0000 </r>
       <r>    -0.7552     0.0000    20.0000 </r>
       <r>    -0.6006     0.0000    20.0000 </r>
       <r>    -0.4460     0.0000    20.0000 </r>
       <r>    -0.2914     0.0000    20.0000 </r>
       <r>    -0.1368     0.0000    20.0000 </r>
       <r>     0.0178     0.0000    20.0000 </r>
       <r>     0.1724     0.0000    20.0000 </r>
       <r>     0.3270     0.0000    20.0000 </r>
       <r>     0.4816     0.0000    20.0000 </r>
       <r>     0.6362     0.0000    20.0000 </r>
       <r>     0.7909     0.0000    20.0000 </r>
       <r>     0.9455     0.0000    20.0000 </r>
       <r>     1.1001     0.0000    20.0000 </r>
       <r>     1.2547     0.0000    20.0000 </r>
       <r>     1.4093     0.0000    20.0000 </r>
       <r>     1.5639     0.0000    20.0000 </r>
       <r>     1.7185     0.0000    20.0000 </r>
       <r>     1.8731     0.0000    20.0000 </r>
       <r>     2.0277     0.0000    20.0000 </r>
       <r>     2.1824     0.0000    20.0000 </r>
       <r>     2.3370     0.0000    20.0000 </r>
       <r>     2.4916     0.1331    20.0206 </r>
       <r>     2.6462     0.4721    20.1240 </r>
       <r>     2.8008     2.2633    20.6048 </r>
       <r>     2.9554     1.4198    21.0643 </r>
       <r>     3.1100     1.4079    21.3538 </r>
       <r>     3.2646     0.7091    21.5352 </r>
       <r>     3.4192     0.5433    21.7408 </r>
       <r>     3.5738     4.2482    22.5430 </r>
       <r>     3.7285     2.7710    23.6091 </r>
       <r>     3.8831     3.1083    24.4860 </r>
       <r>     4.0377     3.0331    25.2864 </r>
       <r>     4.1923     1.6251    25.9153 </r>
       <r>     4.3469     0.3170    26.0709 </r>
       <r>     4.5015     2.3267    26.4817 </r>
       <r>     4.6561     5.3108    28.3578 </r>
       <r>     4.8107     5.7162    29.9844 </r>
       <r>     4.9653     1.9303    30.5588 </r>
       <r>     5.1199     1.4945    31.1323 </r>
       <r>     5.2746     1.1494    31.5651 </r>
       <r>     5.4292     0.9561    31.8046 </r>
       <r>     5.5838     0.9166    32.0225 </r>
       <r>     5.7384     0.7897    32.1886 </r>
       <r>     5.8930     0.0765    32.4515 </r>
       <r>     6.0476     0.6464    32.6762 </r>
       <r>     6.2022     0.8841    33.0516 </r>
       <r>     6.3568     0.5448    33.2340 </r>
       <r>     6.5114     0.5011    33.5622 </r>
       <r>     6.6661     0.6514    33.7166 </r>
       <r>     6.8207     5.1639    35.0378 </r>
       <r>     6.9753     1.5114    35.7767 </r>
       <r>     7.1299     0.0112    35.9271 </r>
       <r>     7.2845     0.0122    35.9746 </r>
       <r>     7.4391     0.0177    36.0009 </r>
       <r>     7.5937     0.0086    36.0022 </r>
       <r>     7.7483     0.0039    36.0088 </r>
       <r>     7.9029     0.0826    36.0282 </r>
       <r>     8.0575     0.0184    36.0493 </r>
       <r>     8.2122     0.7840    36.2514 </r>
       <r>     8.3668     1.2302    36.5079 </r>
       <r>     8.5214     1.9095    37.0936 </r>
       <r>     8.6760     1.4616    37.6033 </r>
       <r>     8.8306     1.2894    37.9827 </r>
       <r>     8.9852     0.7318    38.1487 </r>
       <r>     9.1398     0.2826    38.3068 </r>
       <r>     9.2944     0.6578    38.4413 </r>
       <r>     9.4490     1.0855    38.7969 </r>
       <r>     9.6036     2.7996    39.4661 </r>
       <r>     9.7583     2.6606    40.1974 </r>
       <r>     9.9129     1.3217    40.7223 </r>
       <r>    10.0675     2.7283    41.3768 </r>
       <r>    10.2221     4.1449    42.7920 </r>
       <r>    10.3767    10.1466    45.1691 </r>
       <r>    10.5313     4.1388    46.7473 </r>
       <r>    10.6859     0.0000    48.0000 </r>
       <r>    10.8405     0.0000    48.0000 </r>
       <r>    10.9951     0.0000    48.0000 </r>
       <r>    11.1497     0.0000    48.0000 </r>
       <r>    11.3044     0.0000    48.0000 </r>
       <r>    11.4590     0.0000    48.0000 </r>
       <r>    11.6136     0.0000    48.0000 </r>
       <r>    11.7682     0.0000    48.0000 </r>
       <r>    11.9228     0.0000    48.0000 </r>
       <r>    12.0774     0.0000    48.0000 </r>
       <r>    12.2320     0.0000    48.0000 </r>
       <r>    12.3866     0.0000    48.0000 </r>
       <r>    12.5412     0.0000    48.0000 </r>
       <r>    12.6959     0.0000    48.0000 </r>
      </set>
     </set>
    </array>
   </total>
  </dos>
 </calculation>
 <structure name="finalpos" >
  <crystal>
   <varray name="basis" >
    <v>       0.00000000       3.42485900       3.42485900 </v>
    <v>       3.42485900       0.00000000       3.42485900 </v>
    <v>       3.42485900       3.42485900       0.00000000 </v>
   </varray>
   <i name="volume">     80.34485755 </i>
   <varray name="rec_basis" >
    <v>      -0.14599141       0.14599141       0.14599141 </v>
    <v>       0.14599141      -0.14599141       0.14599141 </v>
    <v>       0.14599141       0.14599141      -0.14599141 </v>
   </varray>
  </crystal>
  <varray name="positions" >
   <v>       0.25000000       0.25000000       0.25000000 </v>
   <v>       0.75000000       0.75000000       0.75000000 </v>
   <v>       0.00291983      -0.00291983      -0.00291983 </v>
  </varray>
 </structure>
</modeling>
