       N       E                     dE             d eps       ncg     rms          rms(c)
DAV:   1     0.107613391265E+03    0.10761E+03   -0.62252E+03 28352   0.642E+02
DAV:   2     0.380788432337E+00   -0.10723E+03   -0.94537E+02 25792   0.186E+02
DAV:   3    -0.703324130116E+01   -0.74140E+01   -0.71960E+01 30856   0.435E+01
DAV:   4    -0.709342678080E+01   -0.60185E-01   -0.60143E-01 28848   0.393E+00
DAV:   5    -0.709353669342E+01   -0.10991E-03   -0.10989E-03 29904   0.164E-01    0.233E+01
DAV:   6    -0.113576870328E+02   -0.42642E+01   -0.27560E+01 28568   0.532E+01    0.226E+01
DAV:   7    -0.889955328523E+01    0.24581E+01   -0.49364E+00 28472   0.333E+01    0.911E+00
DAV:   8    -0.991138620905E+01   -0.10118E+01   -0.70966E-01 27800   0.905E+00    0.661E+00
DAV:   9    -0.101077827157E+02   -0.19640E+00   -0.11477E-01 28232   0.753E+00    0.269E+00
DAV:  10    -0.101372698617E+02   -0.29487E-01   -0.54543E-02 29400   0.442E+00    0.661E-01
DAV:  11    -0.101372223164E+02    0.47545E-04   -0.16251E-02 28216   0.940E-01    0.341E-01
DAV:  12    -0.101377344398E+02   -0.51212E-03   -0.98809E-04 30328   0.325E-01    0.149E-01
DAV:  13    -0.101378729400E+02   -0.13850E-03   -0.26983E-04 29880   0.209E-01    0.776E-02
DAV:  14    -0.101378765893E+02   -0.36492E-05   -0.53048E-05 30344   0.752E-02    0.334E-02
DAV:  15    -0.101378849900E+02   -0.84007E-05   -0.67547E-06 29712   0.439E-02    0.217E-02
DAV:  16    -0.101378875315E+02   -0.25415E-05   -0.19871E-06 30768   0.515E-02    0.699E-03
DAV:  17    -0.101378877277E+02   -0.19624E-06   -0.79103E-07 30456   0.129E-02    0.275E-03
DAV:  18    -0.101378879810E+02   -0.25330E-06   -0.24803E-07 31552   0.784E-03    0.249E-03
DAV:  19    -0.101378879638E+02    0.17190E-07   -0.12293E-07 25240   0.425E-03
   1 F= -.10137888E+02 E0= -.10137888E+02  d E =0.000000E+00  mag=     2.0000
