   3   3   0   0
  0.2678162E+02  0.4843482E-09  0.4843482E-09  0.4843482E-09  0.5000000E-15
  1.000000000000000E-004
  CAR
 unknown system
     12.72626686    -33.68852257  301      8.48733957      1.00000000
    -33.689  0.0000E+00  0.0000E+00
    -33.534  0.0000E+00  0.0000E+00
    -33.379  0.0000E+00  0.0000E+00
    -33.224  0.0000E+00  0.0000E+00
    -33.070  0.0000E+00  0.0000E+00
    -32.915  0.0000E+00  0.0000E+00
    -32.760  0.0000E+00  0.0000E+00
    -32.606  0.0000E+00  0.0000E+00
    -32.451  0.0000E+00  0.0000E+00
    -32.296  0.0000E+00  0.0000E+00
    -32.141  0.0000E+00  0.0000E+00
    -31.987  0.0000E+00  0.0000E+00
    -31.832  0.0000E+00  0.0000E+00
    -31.677  0.0000E+00  0.0000E+00
    -31.522  0.1293E+02  0.2000E+01
    -31.368  0.0000E+00  0.2000E+01
    -31.213  0.0000E+00  0.2000E+01
    -31.058  0.0000E+00  0.2000E+01
    -30.904  0.0000E+00  0.2000E+01
    -30.749  0.0000E+00  0.2000E+01
    -30.594  0.0000E+00  0.2000E+01
    -30.439  0.0000E+00  0.2000E+01
    -30.285  0.0000E+00  0.2000E+01
    -30.130  0.0000E+00  0.2000E+01
    -29.975  0.0000E+00  0.2000E+01
    -29.821  0.0000E+00  0.2000E+01
    -29.666  0.0000E+00  0.2000E+01
    -29.511  0.0000E+00  0.2000E+01
    -29.356  0.0000E+00  0.2000E+01
    -29.202  0.0000E+00  0.2000E+01
    -29.047  0.0000E+00  0.2000E+01
    -28.892  0.0000E+00  0.2000E+01
    -28.738  0.0000E+00  0.2000E+01
    -28.583  0.0000E+00  0.2000E+01
    -28.428  0.0000E+00  0.2000E+01
    -28.273  0.0000E+00  0.2000E+01
    -28.119  0.0000E+00  0.2000E+01
    -27.964  0.0000E+00  0.2000E+01
    -27.809  0.0000E+00  0.2000E+01
    -27.655  0.0000E+00  0.2000E+01
    -27.500  0.0000E+00  0.2000E+01
    -27.345  0.0000E+00  0.2000E+01
    -27.190  0.0000E+00  0.2000E+01
    -27.036  0.0000E+00  0.2000E+01
    -26.881  0.0000E+00  0.2000E+01
    -26.726  0.0000E+00  0.2000E+01
    -26.572  0.0000E+00  0.2000E+01
    -26.417  0.0000E+00  0.2000E+01
    -26.262  0.0000E+00  0.2000E+01
    -26.107  0.0000E+00  0.2000E+01
    -25.953  0.0000E+00  0.2000E+01
    -25.798  0.0000E+00  0.2000E+01
    -25.643  0.0000E+00  0.2000E+01
    -25.489  0.0000E+00  0.2000E+01
    -25.334  0.0000E+00  0.2000E+01
    -25.179  0.0000E+00  0.2000E+01
    -25.024  0.0000E+00  0.2000E+01
    -24.870  0.0000E+00  0.2000E+01
    -24.715  0.0000E+00  0.2000E+01
    -24.560  0.0000E+00  0.2000E+01
    -24.406  0.0000E+00  0.2000E+01
    -24.251  0.0000E+00  0.2000E+01
    -24.096  0.0000E+00  0.2000E+01
    -23.941  0.0000E+00  0.2000E+01
    -23.787  0.0000E+00  0.2000E+01
    -23.632  0.0000E+00  0.2000E+01
    -23.477  0.0000E+00  0.2000E+01
    -23.323  0.0000E+00  0.2000E+01
    -23.168  0.0000E+00  0.2000E+01
    -23.013  0.0000E+00  0.2000E+01
    -22.858  0.0000E+00  0.2000E+01
    -22.704  0.0000E+00  0.2000E+01
    -22.549  0.0000E+00  0.2000E+01
    -22.394  0.0000E+00  0.2000E+01
    -22.240  0.0000E+00  0.2000E+01
    -22.085  0.0000E+00  0.2000E+01
    -21.930  0.0000E+00  0.2000E+01
    -21.775  0.0000E+00  0.2000E+01
    -21.621  0.0000E+00  0.2000E+01
    -21.466  0.0000E+00  0.2000E+01
    -21.311  0.0000E+00  0.2000E+01
    -21.157  0.0000E+00  0.2000E+01
    -21.002  0.0000E+00  0.2000E+01
    -20.847  0.0000E+00  0.2000E+01
    -20.692  0.0000E+00  0.2000E+01
    -20.538  0.0000E+00  0.2000E+01
    -20.383  0.0000E+00  0.2000E+01
    -20.228  0.0000E+00  0.2000E+01
    -20.074  0.0000E+00  0.2000E+01
    -19.919  0.0000E+00  0.2000E+01
    -19.764  0.0000E+00  0.2000E+01
    -19.609  0.0000E+00  0.2000E+01
    -19.455  0.0000E+00  0.2000E+01
    -19.300  0.0000E+00  0.2000E+01
    -19.145  0.0000E+00  0.2000E+01
    -18.991  0.0000E+00  0.2000E+01
    -18.836  0.0000E+00  0.2000E+01
    -18.681  0.0000E+00  0.2000E+01
    -18.526  0.0000E+00  0.2000E+01
    -18.372  0.0000E+00  0.2000E+01
    -18.217  0.0000E+00  0.2000E+01
    -18.062  0.0000E+00  0.2000E+01
    -17.907  0.0000E+00  0.2000E+01
    -17.753  0.0000E+00  0.2000E+01
    -17.598  0.0000E+00  0.2000E+01
    -17.443  0.0000E+00  0.2000E+01
    -17.289  0.0000E+00  0.2000E+01
    -17.134  0.0000E+00  0.2000E+01
    -16.979  0.0000E+00  0.2000E+01
    -16.824  0.0000E+00  0.2000E+01
    -16.670  0.0000E+00  0.2000E+01
    -16.515  0.0000E+00  0.2000E+01
    -16.360  0.0000E+00  0.2000E+01
    -16.206  0.0000E+00  0.2000E+01
    -16.051  0.0000E+00  0.2000E+01
    -15.896  0.0000E+00  0.2000E+01
    -15.741  0.0000E+00  0.2000E+01
    -15.587  0.0000E+00  0.2000E+01
    -15.432  0.0000E+00  0.2000E+01
    -15.277  0.0000E+00  0.2000E+01
    -15.123  0.0000E+00  0.2000E+01
    -14.968  0.0000E+00  0.2000E+01
    -14.813  0.0000E+00  0.2000E+01
    -14.658  0.0000E+00  0.2000E+01
    -14.504  0.9740E+00  0.2151E+01
    -14.349  0.0000E+00  0.1200E+02
    -14.194  0.0000E+00  0.1200E+02
    -14.040  0.0000E+00  0.1200E+02
    -13.885  0.0000E+00  0.1200E+02
    -13.730  0.0000E+00  0.1200E+02
    -13.575  0.0000E+00  0.1200E+02
    -13.421  0.0000E+00  0.1200E+02
    -13.266  0.0000E+00  0.1200E+02
    -13.111  0.0000E+00  0.1200E+02
    -12.957  0.0000E+00  0.1200E+02
    -12.802  0.0000E+00  0.1200E+02
    -12.647  0.0000E+00  0.1200E+02
    -12.492  0.0000E+00  0.1200E+02
    -12.338  0.0000E+00  0.1200E+02
    -12.183  0.0000E+00  0.1200E+02
    -12.028  0.0000E+00  0.1200E+02
    -11.874  0.0000E+00  0.1200E+02
    -11.719  0.0000E+00  0.1200E+02
    -11.564  0.0000E+00  0.1200E+02
    -11.409  0.0000E+00  0.1200E+02
    -11.255  0.0000E+00  0.1200E+02
    -11.100  0.0000E+00  0.1200E+02
    -10.945  0.0000E+00  0.1200E+02
    -10.791  0.0000E+00  0.1200E+02
    -10.636  0.0000E+00  0.1200E+02
    -10.481  0.0000E+00  0.1200E+02
    -10.326  0.0000E+00  0.1200E+02
    -10.172  0.0000E+00  0.1200E+02
    -10.017  0.0000E+00  0.1200E+02
     -9.862  0.3114E-13  0.1200E+02
     -9.708  0.9730E+01  0.1363E+02
     -9.553  0.1775E+02  0.1706E+02
     -9.398  0.0000E+00  0.1800E+02
     -9.243  0.0000E+00  0.1800E+02
     -9.089  0.0000E+00  0.1800E+02
     -8.934  0.0000E+00  0.1800E+02
     -8.779  0.0000E+00  0.1800E+02
     -8.625  0.0000E+00  0.1800E+02
     -8.470  0.0000E+00  0.1800E+02
     -8.315  0.0000E+00  0.1800E+02
     -8.160  0.0000E+00  0.1800E+02
     -8.006  0.0000E+00  0.1800E+02
     -7.851  0.0000E+00  0.1800E+02
     -7.696  0.0000E+00  0.1800E+02
     -7.542  0.0000E+00  0.1800E+02
     -7.387  0.0000E+00  0.1800E+02
     -7.232  0.0000E+00  0.1800E+02
     -7.077  0.0000E+00  0.1800E+02
     -6.923  0.0000E+00  0.1800E+02
     -6.768  0.0000E+00  0.1800E+02
     -6.613  0.0000E+00  0.1800E+02
     -6.459  0.0000E+00  0.1800E+02
     -6.304  0.0000E+00  0.1800E+02
     -6.149  0.0000E+00  0.1800E+02
     -5.994  0.0000E+00  0.1800E+02
     -5.840  0.0000E+00  0.1800E+02
     -5.685  0.0000E+00  0.1800E+02
     -5.530  0.0000E+00  0.1800E+02
     -5.376  0.0000E+00  0.1800E+02
     -5.221  0.0000E+00  0.1800E+02
     -5.066  0.0000E+00  0.1800E+02
     -4.911  0.0000E+00  0.1800E+02
     -4.757  0.0000E+00  0.1800E+02
     -4.602  0.0000E+00  0.1800E+02
     -4.447  0.0000E+00  0.1800E+02
     -4.292  0.0000E+00  0.1800E+02
     -4.138  0.0000E+00  0.1800E+02
     -3.983  0.0000E+00  0.1800E+02
     -3.828  0.0000E+00  0.1800E+02
     -3.674  0.7040E-01  0.1801E+02
     -3.519  0.1819E+00  0.1805E+02
     -3.364  0.2826E+00  0.1810E+02
     -3.209  0.3721E+00  0.1820E+02
     -3.055  0.1657E+01  0.1856E+02
     -2.900  0.3176E+01  0.1943E+02
     -2.745  0.8707E+00  0.1997E+02
     -2.591  0.0000E+00  0.2000E+02
     -2.436  0.0000E+00  0.2000E+02
     -2.281  0.0000E+00  0.2000E+02
     -2.126  0.0000E+00  0.2000E+02
     -1.972  0.0000E+00  0.2000E+02
     -1.817  0.0000E+00  0.2000E+02
     -1.662  0.0000E+00  0.2000E+02
     -1.508  0.0000E+00  0.2000E+02
     -1.353  0.0000E+00  0.2000E+02
     -1.198  0.0000E+00  0.2000E+02
     -1.043  0.0000E+00  0.2000E+02
     -0.889  0.0000E+00  0.2000E+02
     -0.734  0.0000E+00  0.2000E+02
     -0.579  0.0000E+00  0.2000E+02
     -0.425  0.0000E+00  0.2000E+02
     -0.270  0.0000E+00  0.2000E+02
     -0.115  0.0000E+00  0.2000E+02
      0.040  0.0000E+00  0.2000E+02
      0.194  0.0000E+00  0.2000E+02
      0.349  0.0000E+00  0.2000E+02
      0.504  0.0000E+00  0.2000E+02
      0.658  0.0000E+00  0.2000E+02
      0.813  0.0000E+00  0.2000E+02
      0.968  0.0000E+00  0.2000E+02
      1.123  0.0000E+00  0.2000E+02
      1.277  0.0000E+00  0.2000E+02
      1.432  0.0000E+00  0.2000E+02
      1.587  0.0000E+00  0.2000E+02
      1.741  0.0000E+00  0.2000E+02
      1.896  0.0000E+00  0.2000E+02
      2.051  0.0000E+00  0.2000E+02
      2.206  0.0000E+00  0.2000E+02
      2.360  0.0000E+00  0.2000E+02
      2.515  0.1810E+00  0.2003E+02
      2.670  0.3586E+00  0.2013E+02
      2.824  0.2389E+01  0.2069E+02
      2.979  0.1394E+01  0.2110E+02
      3.134  0.1439E+01  0.2137E+02
      3.289  0.6148E+00  0.2154E+02
      3.443  0.4551E+00  0.2175E+02
      3.598  0.4884E+01  0.2284E+02
      3.753  0.3212E+01  0.2382E+02
      3.907  0.2687E+01  0.2460E+02
      4.062  0.2568E+01  0.2541E+02
      4.217  0.1282E+01  0.2597E+02
      4.372  0.1447E+00  0.2607E+02
      4.526  0.5689E+01  0.2700E+02
      4.681  0.3904E+01  0.2866E+02
      4.836  0.4536E+01  0.3011E+02
      4.990  0.1498E+01  0.3063E+02
      5.145  0.2141E+01  0.3128E+02
      5.300  0.1003E+01  0.3160E+02
      5.455  0.9686E+00  0.3185E+02
      5.609  0.7016E+00  0.3204E+02
      5.764  0.1187E+01  0.3225E+02
      5.919  0.3427E+00  0.3249E+02
      6.073  0.9020E+00  0.3276E+02
      6.228  0.7900E+00  0.3308E+02
      6.383  0.4543E+00  0.3325E+02
      6.538  0.6819E+00  0.3359E+02
      6.692  0.1305E+01  0.3382E+02
      6.847  0.4834E+01  0.3518E+02
      7.002  0.1172E+01  0.3584E+02
      7.156  0.2159E+00  0.3596E+02
      7.311  0.9320E-01  0.3599E+02
      7.466  0.1765E-01  0.3600E+02
      7.621  0.4705E-01  0.3601E+02
      7.775  0.4706E-01  0.3602E+02
      7.930  0.6153E-01  0.3604E+02
      8.085  0.1103E+00  0.3606E+02
      8.240  0.6059E+00  0.3628E+02
      8.394  0.1490E+01  0.3664E+02
      8.549  0.1629E+01  0.3716E+02
      8.704  0.1702E+01  0.3766E+02
      8.858  0.1623E+01  0.3804E+02
      9.013  0.5635E+00  0.3821E+02
      9.168  0.3620E+00  0.3832E+02
      9.323  0.9257E+00  0.3850E+02
      9.477  0.1149E+01  0.3885E+02
      9.632  0.2381E+01  0.3958E+02
      9.787  0.2736E+01  0.4032E+02
      9.941  0.1787E+01  0.4086E+02
     10.096  0.3346E+01  0.4165E+02
     10.251  0.4191E+01  0.4305E+02
     10.406  0.1081E+02  0.4574E+02
     10.560  0.7826E+01  0.4740E+02
     10.715  0.0000E+00  0.4800E+02
     10.870  0.0000E+00  0.4800E+02
     11.024  0.0000E+00  0.4800E+02
     11.179  0.0000E+00  0.4800E+02
     11.334  0.0000E+00  0.4800E+02
     11.489  0.0000E+00  0.4800E+02
     11.643  0.0000E+00  0.4800E+02
     11.798  0.0000E+00  0.4800E+02
     11.953  0.0000E+00  0.4800E+02
     12.107  0.0000E+00  0.4800E+02
     12.262  0.0000E+00  0.4800E+02
     12.417  0.0000E+00  0.4800E+02
     12.572  0.0000E+00  0.4800E+02
     12.726  0.0000E+00  0.4800E+02
