       N       E                     dE             d eps       ncg     rms          rms(c)
DAV:   1     0.445214248437E+03    0.44521E+03   -0.20522E+04  4032   0.202E+03
DAV:   2     0.463364804721E+02   -0.39888E+03   -0.39025E+03  4184   0.500E+02
DAV:   3    -0.186049463204E+02   -0.64941E+02   -0.64168E+02  5560   0.168E+02
DAV:   4    -0.228234536145E+02   -0.42185E+01   -0.42065E+01  7352   0.438E+01
DAV:   5    -0.229409129805E+02   -0.11746E+00   -0.11744E+00  5600   0.575E+00    0.330E+01
DAV:   6    -0.220314681570E+02    0.90944E+00   -0.17289E+00  5040   0.824E+00    0.203E+01
DAV:   7    -0.219111933038E+02    0.12027E+00   -0.23492E+00  6104   0.829E+00    0.629E+00
DAV:   8    -0.218645457845E+02    0.46648E-01   -0.32623E-01  5080   0.285E+00    0.445E+00
DAV:   9    -0.218553546330E+02    0.91912E-02   -0.20417E-01  6024   0.223E+00    0.340E+00
DAV:  10    -0.218497149992E+02    0.56396E-02   -0.33374E-02  4856   0.106E+00    0.684E-01
DAV:  11    -0.218499119950E+02   -0.19700E-03   -0.23340E-03  5912   0.294E-01    0.366E-01
DAV:  12    -0.218497988558E+02    0.11314E-03   -0.47778E-04  5592   0.124E-01    0.104E-01
DAV:  13    -0.218497962693E+02    0.25864E-05   -0.17079E-04  6416   0.683E-02    0.378E-02
DAV:  14    -0.218497948004E+02    0.14689E-05   -0.11223E-05  5160   0.198E-02    0.225E-02
DAV:  15    -0.218497945149E+02    0.28551E-06   -0.17513E-06  6328   0.743E-03    0.172E-03
DAV:  16    -0.218497945210E+02   -0.60918E-08   -0.17739E-07  3456   0.226E-03
   1 F= -.21849795E+02 E0= -.21849682E+02  d E =-.224768E-03
