 vasp.6.0.8 29Jun18 (build Jun 13 2019 12:54:44) complex

 executed on      IFC18_CrayMPICH date 2021.12.05  14:21:47
 running   64 mpi-ranks, with    1 threads/rank
 distrk:  each k-point on   16 cores,    4 groups
 distr:  one band on NCORES_PER_BAND=   4 cores,    4 groups


--------------------------------------------------------------------------------------------------------


 INCAR:
 POTCAR:    PAW_PBE Th 07Sep2000
 POTCAR:    PAW_PBE Bi_d 06Sep2000
 POTCAR:    PAW_PBE Pt 04Feb2005
 POTCAR:    PAW_PBE Th 07Sep2000
   VRHFIN =Th:  [Xe,5d,4f]
   LEXCH  = PE
   EATOM  =   984.7553 eV,   72.3775 Ry

   TITEL  = PAW_PBE Th 07Sep2000
   LULTRA =        F    use ultrasoft PP ?
   IUNSCR =        1    unscreen: 0-lin 1-nonlin 2-no
   RPACOR =    2.200    partial core radius
   POMASS =  232.039; ZVAL   =   12.000    mass and valenz
   RCORE  =    2.800    outmost cutoff radius
   RWIGS  =    3.000; RWIGS  =    1.588    wigner-seitz radius (au A)
   ENMAX  =  247.306; ENMIN  =  185.480 eV
   RCLOC  =    2.211    cutoff for local pot
   LCOR   =        T    correct aug charges
   LPAW   =        T    paw PP
   EAUG   =  535.431
   DEXC   =    0.000
   RMAX   =    2.862    core radius for proj-oper
   RAUG   =    1.300    factor for augmentation sphere
   RDEP   =    2.926    radius for radial grids
   RDEPT  =    2.250    core radius for aug-charge

   Atomic configuration
   18 entries
     n  l   j            E        occ.
     1  0  0.50   -109990.1879   2.0000
     2  0  0.50    -20388.0147   2.0000
     2  1  1.50    -17049.6156   6.0000
     3  0  0.50     -5106.5436   2.0000
     3  1  1.50     -4175.1262   6.0000
     3  2  2.50     -3342.8437  10.0000
     4  0  0.50     -1280.8211   2.0000
     4  1  1.50      -976.4859   6.0000
     4  2  2.50      -661.8358  10.0000
     4  3  3.50      -324.9124  14.0000
     5  0  0.50      -278.7726   2.0000
     5  1  1.50      -186.2212   6.0000
     5  2  2.50       -86.9031  10.0000
     6  0  0.50       -43.3059   2.0000
     7  0  0.50        -4.0783   2.0000
     6  1  1.50       -21.4071   6.0000
     6  2  1.50        -2.3664   1.0000
     5  3  2.50        -1.2804   1.0000
   Description
     l       E           TYP  RCUT    TYP  RCUT
     0    -43.3059201     23  2.800
     0     -4.0782900     23  2.800
     1    -21.4071032     23  2.500
     1    -22.7676858     23  2.500
     2     -2.3664170     23  2.500
     2      3.0546543     23  2.500
     3     -1.2803910     23  2.800
     3      0.1360583     23  2.800
  local pseudopotential read in
  partial core-charges read in
  partial kinetic energy density read in
  atomic valenz-charges read in
  non local Contribution for L=           0  read in
    real space projection operators read in
  non local Contribution for L=           0  read in
    real space projection operators read in
  non local Contribution for L=           1  read in
    real space projection operators read in
  non local Contribution for L=           1  read in
    real space projection operators read in
  non local Contribution for L=           2  read in
    real space projection operators read in
  non local Contribution for L=           2  read in
    real space projection operators read in
  non local Contribution for L=           3  read in
    real space projection operators read in
  non local Contribution for L=           3  read in
    real space projection operators read in
    PAW grid and wavefunctions read in

   number of l-projection  operators is LMAX  =           8
   number of lm-projection operators is LMMAX =          32

 POTCAR:    PAW_PBE Bi_d 06Sep2000
   VRHFIN =Bi:
   LEXCH  = PE
   EATOM  =  1959.2045 eV,  143.9975 Ry

   TITEL  = PAW_PBE Bi_d 06Sep2000
   LULTRA =        F    use ultrasoft PP ?
   IUNSCR =        1    unscreen: 0-lin 1-nonlin 2-no
   RPACOR =    2.200    partial core radius
   POMASS =  208.980; ZVAL   =   15.000    mass and valenz
   RCORE  =    2.500    outmost cutoff radius
   RWIGS  =    3.090; RWIGS  =    1.635    wigner-seitz radius (au A)
   ENMAX  =  242.839; ENMIN  =  182.129 eV
   ICORE  =        3    local potential
   LCOR   =        T    correct aug charges
   LPAW   =        T    paw PP
   EAUG   =  442.899
   DEXC   =    0.000
   RMAX   =    2.551    core radius for proj-oper
   RAUG   =    1.300    factor for augmentation sphere
   RDEP   =    2.650    radius for radial grids
   RDEPT  =    2.039    core radius for aug-charge

   Atomic configuration
   16 entries
     n  l   j            E        occ.
     1  0  0.50    -90639.6581   2.0000
     2  0  0.50    -16282.4666   2.0000
     2  1  1.50    -13922.8286   6.0000
     3  0  0.50     -3930.4763   2.0000
     3  1  1.50     -3256.7013   6.0000
     3  2  2.50     -2581.6168  10.0000
     4  0  0.50      -902.2614   2.0000
     4  1  1.50      -681.5915   6.0000
     4  2  2.50      -429.8249  10.0000
     4  3  3.50      -152.6004  14.0000
     5  0  0.50      -157.7156   2.0000
     5  1  1.50       -95.8054   6.0000
     5  2  2.50       -27.0806  10.0000
     6  0  0.50       -14.4732   2.0000
     6  1  1.50        -4.5702   3.0000
     5  3  2.50        -2.7212   0.0000
   Description
     l       E           TYP  RCUT    TYP  RCUT
     2    -27.0805982     23  2.500
     2     -1.3605826     23  2.500
     0    -14.4732271     23  2.500
     0      6.8029130     23  2.500
     1     -4.5701651     23  2.500
     1     13.6058260     23  2.500
     3     -1.3605826      7  2.500
  local pseudopotential read in
  partial core-charges read in
  partial kinetic energy density read in
  atomic valenz-charges read in
  non local Contribution for L=           2  read in
    real space projection operators read in
  non local Contribution for L=           2  read in
    real space projection operators read in
  non local Contribution for L=           0  read in
    real space projection operators read in
  non local Contribution for L=           0  read in
    real space projection operators read in
  non local Contribution for L=           1  read in
    real space projection operators read in
  non local Contribution for L=           1  read in
    real space projection operators read in
    PAW grid and wavefunctions read in

   number of l-projection  operators is LMAX  =           6
   number of lm-projection operators is LMMAX =          18

 POTCAR:    PAW_PBE Pt 04Feb2005
   VRHFIN =Pt: s1d9
   LEXCH  = PE
   EATOM  =   729.1176 eV,   53.5886 Ry

   TITEL  = PAW_PBE Pt 04Feb2005
   LULTRA =        F    use ultrasoft PP ?
   IUNSCR =        1    unscreen: 0-lin 1-nonlin 2-no
   RPACOR =    2.330    partial core radius
   POMASS =  195.080; ZVAL   =   10.000    mass and valenz
   RCORE  =    2.600    outmost cutoff radius
   RWIGS  =    2.750; RWIGS  =    1.455    wigner-seitz radius (au A)
   ENMAX  =  230.283; ENMIN  =  172.712 eV
   ICORE  =        3    local potential
   LCOR   =        T    correct aug charges
   LPAW   =        T    paw PP
   EAUG   =  358.966
   DEXC   =    0.000
   RMAX   =    2.658    core radius for proj-oper
   RAUG   =    1.300    factor for augmentation sphere
   RDEP   =    2.761    radius for radial grids
   RDEPT  =    2.203    core radius for aug-charge

   Atomic configuration
   16 entries
     n  l   j            E        occ.
     1  0  0.50    -78401.1885   2.0000
     2  0  0.50    -13770.7750   2.0000
     2  1  1.50    -11931.0468   6.0000
     3  0  0.50     -3234.7234   2.0000
     3  1  1.50     -2699.2216   6.0000
     3  2  2.50     -2119.5714  10.0000
     4  0  0.50      -695.1528   2.0000
     4  1  1.50      -519.6034   6.0000
     4  2  2.50      -306.6786  10.0000
     4  3  3.50       -70.1041  14.0000
     5  0  0.50      -101.7747   2.0000
     5  1  1.50       -55.9873   6.0000
     5  2  2.50        -6.1423   9.0000
     6  0  0.50        -5.6573   1.0000
     6  1  1.50        -6.8029   0.0000
     5  3  2.50        -1.3606   0.0000
   Description
     l       E           TYP  RCUT    TYP  RCUT
     2     -6.1423404     23  2.500
     2     -7.5029230     23  2.500
     0     -5.6573207     23  2.500
     0      0.7416693     23  2.500
     1     -2.7211652     23  2.600
     1     20.4087390     23  2.600
     3     -1.3605826     23  2.500
  local pseudopotential read in
  partial core-charges read in
  partial kinetic energy density read in
  atomic valenz-charges read in
  non local Contribution for L=           2  read in
    real space projection operators read in
  non local Contribution for L=           2  read in
    real space projection operators read in
  non local Contribution for L=           0  read in
    real space projection operators read in
  non local Contribution for L=           0  read in
    real space projection operators read in
  non local Contribution for L=           1  read in
    real space projection operators read in
  non local Contribution for L=           1  read in
    real space projection operators read in
    PAW grid and wavefunctions read in

   number of l-projection  operators is LMAX  =           6
   number of lm-projection operators is LMMAX =          18

 WARNING: PSMAXN for non-local potential too small
          PSMAXN should be >   13.5545592237991       NTYP=           1

 -----------------------------------------------------------------------------
|                                                                             |
|  ADVICE TO THIS USER RUNNING 'VASP/VAMP'   (HEAR YOUR MASTER'S VOICE ...):  |
|                                                                             |
|      You enforced a specific xc-type in the INCAR file,                     |
|      a different type was found on the POTCAR file                          |
|          I HOPE YOU KNOW, WHAT YOU ARE  DOING                               |
|                                                                             |
 -----------------------------------------------------------------------------

  PAW_PBE Th 07Sep2000                  :
 energy of atom  1       EATOM= -984.7553
 kinetic energy error for atom=    0.0005 (will be added to EATOM!!)
  PAW_PBE Bi_d 06Sep2000                :
 energy of atom  2       EATOM=-1959.2045
 kinetic energy error for atom=    0.0012 (will be added to EATOM!!)
  PAW_PBE Pt 04Feb2005                  :
 energy of atom  3       EATOM= -729.1176
 kinetic energy error for atom=    0.0010 (will be added to EATOM!!)


 POSCAR: Th1 Bi1 Pt1
  positions in direct lattice
  No initial velocities read in
 exchange correlation table for  LEXCH =       14
   RHO(1)=    0.500       N(1)  =     2000
   RHO(2)=  100.500       N(2)  =     4000



--------------------------------------------------------------------------------------------------------


 ion  position               nearest neighbor table
   1  0.250  0.250  0.250-   3 2.97   3 2.97   3 2.97   3 2.97   2 3.42   2 3.42   2 3.42   2 3.42
                             2 3.42   2 3.42
   2  0.750  0.750  0.750-   3 2.97   3 2.97   3 2.97   3 2.97   1 3.42   1 3.42   1 3.42   1 3.42
                             1 3.42   1 3.42
   3  0.000  0.000  0.000-   2 2.97   2 2.97   1 2.97   2 2.97   1 2.97   1 2.97   1 2.97   2 2.97


  LATTYP: Found a face centered cubic cell.
 ALAT       =     6.8497180000

  Lattice vectors:

 A1 = (   0.0000000000,   3.4248590000,   3.4248590000)
 A2 = (   3.4248590000,   0.0000000000,   3.4248590000)
 A3 = (   3.4248590000,   3.4248590000,   0.0000000000)


Analysis of symmetry for initial positions (statically):
=====================================================================
 Subroutine PRICEL returns:
 Original cell was already a primitive cell.


 Routine SETGRP: Setting up the symmetry group for a
 face centered cubic supercell.


 Subroutine GETGRP returns: Found 24 space group operations
 (whereof 24 operations were pure point group operations)
 out of a pool of 48 trial point group operations.


The static configuration has the point symmetry T_d .


Analysis of symmetry for dynamics (positions and initial velocities):
=====================================================================
 Subroutine PRICEL returns:
 Original cell was already a primitive cell.


 Routine SETGRP: Setting up the symmetry group for a
 face centered cubic supercell.


 Subroutine GETGRP returns: Found 24 space group operations
 (whereof 24 operations were pure point group operations)
 out of a pool of 48 trial point group operations.


The dynamic configuration has the point symmetry T_d .


 Subroutine INISYM returns: Found 24 space group operations
 (whereof 24 operations are pure point group operations),
 and found     1 'primitive' translations


----------------------------------------------------------------------------------------

                                     Primitive cell

  volume of cell :      80.3449

  direct lattice vectors                    reciprocal lattice vectors
     0.000000000  3.424859000  3.424859000    -0.145991412  0.145991412  0.145991412
     3.424859000  0.000000000  3.424859000     0.145991412 -0.145991412  0.145991412
     3.424859000  3.424859000  0.000000000     0.145991412  0.145991412 -0.145991412

  length of vectors
     4.843482047  4.843482047  4.843482047     0.252864542  0.252864542  0.252864542

  position of ions in fractional coordinates (direct lattice)
     0.250000000  0.250000000  0.250000000
     0.750000000  0.750000000  0.750000000
     0.000000000  0.000000000  0.000000000

  ion indices of the primitive-cell ions
   primitive index   ion index
                 1           1
                 2           2
                 3           3

----------------------------------------------------------------------------------------



 KPOINTS: KPOINTS

Automatic generation of k-mesh.
Space group operators:
 irot       det(A)        alpha          n_x          n_y          n_z        tau_x        tau_y        tau_z
    1     1.000000     0.000000     1.000000     0.000000     0.000000     0.000000     0.000000     0.000000
    2     1.000000   120.000000    -0.577350    -0.577350    -0.577350     0.000000     0.000000     0.000000
    3     1.000000   120.000000     0.577350     0.577350     0.577350     0.000000     0.000000     0.000000
    4    -1.000000    90.000000    -0.000000    -0.000000    -1.000000     0.000000     0.000000     0.000000
    5    -1.000000   180.000000     0.000000     0.707107     0.707107     0.000000     0.000000     0.000000
    6    -1.000000    90.000000    -0.000000     1.000000     0.000000     0.000000     0.000000     0.000000
    7     1.000000   180.000000     0.000000     0.000000    -1.000000     0.000000     0.000000     0.000000
    8     1.000000   120.000000    -0.577350     0.577350     0.577350     0.000000     0.000000     0.000000
    9     1.000000   120.000000    -0.577350     0.577350    -0.577350     0.000000     0.000000     0.000000
   10    -1.000000    90.000000     0.000000     0.000000     1.000000     0.000000     0.000000     0.000000
   11    -1.000000    90.000000    -1.000000     0.000000    -0.000000     0.000000     0.000000     0.000000
   12    -1.000000   180.000000     0.707107     0.000000     0.707107     0.000000     0.000000     0.000000
   13     1.000000   120.000000     0.577350    -0.577350     0.577350     0.000000     0.000000     0.000000
   14     1.000000   120.000000    -0.577350    -0.577350     0.577350     0.000000     0.000000     0.000000
   15     1.000000   180.000000     1.000000     0.000000     0.000000     0.000000     0.000000     0.000000
   16    -1.000000    90.000000     0.000000    -1.000000     0.000000     0.000000     0.000000     0.000000
   17    -1.000000   180.000000     0.707107     0.707107    -0.000000     0.000000     0.000000     0.000000
   18    -1.000000    90.000000     1.000000     0.000000     0.000000     0.000000     0.000000     0.000000
   19     1.000000   120.000000     0.577350    -0.577350    -0.577350     0.000000     0.000000     0.000000
   20     1.000000   180.000000    -0.000000    -1.000000     0.000000     0.000000     0.000000     0.000000
   21     1.000000   120.000000     0.577350     0.577350    -0.577350     0.000000     0.000000     0.000000
   22    -1.000000   180.000000     0.000000    -0.707107     0.707107     0.000000     0.000000     0.000000
   23    -1.000000   180.000000     0.707107    -0.707107     0.000000     0.000000     0.000000     0.000000
   24    -1.000000   180.000000    -0.707107     0.000000     0.707107     0.000000     0.000000     0.000000

 Subroutine IBZKPT returns following result:
 ===========================================

 Found     84 irreducible k-points:

 Following reciprocal coordinates:
            Coordinates               Weight
  0.000000  0.000000  0.000000      1.000000
  0.076923  0.000000 -0.000000      8.000000
  0.153846 -0.000000  0.000000      8.000000
  0.230769 -0.000000  0.000000      8.000000
  0.307692 -0.000000  0.000000      8.000000
  0.384615  0.000000 -0.000000      8.000000
  0.461538  0.000000 -0.000000      8.000000
  0.076923  0.076923  0.000000      6.000000
  0.153846  0.076923  0.000000     24.000000
  0.230769  0.076923  0.000000     24.000000
  0.307692  0.076923  0.000000     24.000000
  0.384615  0.076923 -0.000000     24.000000
  0.461538  0.076923  0.000000     24.000000
 -0.461538  0.076923 -0.000000     24.000000
 -0.384615  0.076923 -0.000000     24.000000
 -0.307692  0.076923  0.000000     24.000000
 -0.230769  0.076923  0.000000     24.000000
 -0.153846  0.076923 -0.000000     24.000000
 -0.076923  0.076923  0.000000     12.000000
  0.153846  0.153846  0.000000      6.000000
  0.230769  0.153846  0.000000     24.000000
  0.307692  0.153846  0.000000     24.000000
  0.384615  0.153846  0.000000     24.000000
  0.461538  0.153846  0.000000     24.000000
 -0.461538  0.153846  0.000000     24.000000
 -0.384615  0.153846 -0.000000     24.000000
 -0.307692  0.153846  0.000000     24.000000
 -0.230769  0.153846  0.000000     24.000000
 -0.153846  0.153846 -0.000000     12.000000
  0.230769  0.230769  0.000000      6.000000
  0.307692  0.230769  0.000000     24.000000
  0.384615  0.230769  0.000000     24.000000
  0.461538  0.230769  0.000000     24.000000
 -0.461538  0.230769  0.000000     24.000000
 -0.384615  0.230769 -0.000000     24.000000
 -0.307692  0.230769 -0.000000     24.000000
 -0.230769  0.230769 -0.000000     12.000000
  0.307692  0.307692  0.000000      6.000000
  0.384615  0.307692  0.000000     24.000000
  0.461538  0.307692  0.000000     24.000000
 -0.461538  0.307692 -0.000000     24.000000
 -0.384615  0.307692  0.000000     24.000000
 -0.307692  0.307692 -0.000000     12.000000
  0.384615  0.384615  0.000000      6.000000
  0.461538  0.384615  0.000000     24.000000
 -0.461538  0.384615 -0.000000     24.000000
 -0.384615  0.384615  0.000000     12.000000
  0.461538  0.461538  0.000000      6.000000
 -0.461538  0.461538  0.000000     12.000000
  0.230769  0.153846  0.076923     24.000000
  0.307692  0.153846  0.076923     48.000000
  0.384615  0.153846  0.076923     48.000000
  0.461538  0.153846  0.076923     48.000000
 -0.461538  0.153846  0.076923     48.000000
  0.307692  0.230769  0.076923     24.000000
  0.384615  0.230769  0.076923     48.000000
  0.461538  0.230769  0.076923     48.000000
 -0.461538  0.230769  0.076923     48.000000
 -0.384615  0.230769  0.076923     48.000000
 -0.307692  0.230769  0.076923     48.000000
 -0.230769  0.230769  0.076923     48.000000
 -0.153846  0.230769  0.076923     24.000000
  0.384615  0.307692  0.076923     24.000000
  0.461538  0.307692  0.076923     48.000000
 -0.461538  0.307692  0.076923     48.000000
 -0.384615  0.307692  0.076923     48.000000
 -0.307692  0.307692  0.076923     48.000000
 -0.230769  0.307692  0.076923     24.000000
  0.461538  0.384615  0.076923     24.000000
 -0.461538  0.384615  0.076923     48.000000
 -0.384615  0.384615  0.076923     48.000000
 -0.307692  0.384615  0.076923     24.000000
 -0.461538  0.461538  0.076923     24.000000
 -0.384615  0.461538  0.076923     24.000000
  0.461538  0.307692  0.153846     24.000000
 -0.461538  0.307692  0.153846     48.000000
 -0.384615  0.307692  0.153846     48.000000
 -0.461538  0.384615  0.153846     24.000000
 -0.384615  0.384615  0.153846     48.000000
 -0.307692  0.384615  0.153846     48.000000
 -0.230769  0.384615  0.153846     24.000000
 -0.384615  0.461538  0.153846     24.000000
 -0.307692  0.461538  0.153846     24.000000
 -0.307692  0.461538  0.230769     24.000000

 Following cartesian coordinates:
            Coordinates               Weight
  0.000000  0.000000  0.000000      1.000000
 -0.011230  0.011230  0.011230      8.000000
 -0.022460  0.022460  0.022460      8.000000
 -0.033690  0.033690  0.033690      8.000000
 -0.044920  0.044920  0.044920      8.000000
 -0.056151  0.056151  0.056151      8.000000
 -0.067381  0.067381  0.067381      8.000000
  0.000000 -0.000000  0.022460      6.000000
 -0.011230  0.011230  0.033690     24.000000
 -0.022460  0.022460  0.044920     24.000000
 -0.033690  0.033690  0.056151     24.000000
 -0.044920  0.044920  0.067381     24.000000
 -0.056151  0.056151  0.078611     24.000000
  0.078611 -0.078611 -0.056151     24.000000
  0.067381 -0.067381 -0.044920     24.000000
  0.056151 -0.056151 -0.033690     24.000000
  0.044920 -0.044920 -0.022460     24.000000
  0.033690 -0.033690 -0.011230     24.000000
  0.022460 -0.022460 -0.000000     12.000000
 -0.000000  0.000000  0.044920      6.000000
 -0.011230  0.011230  0.056151     24.000000
 -0.022460  0.022460  0.067381     24.000000
 -0.033690  0.033690  0.078611     24.000000
 -0.044920  0.044920  0.089841     24.000000
  0.089841 -0.089841 -0.044920     24.000000
  0.078611 -0.078611 -0.033690     24.000000
  0.067381 -0.067381 -0.022460     24.000000
  0.056151 -0.056151 -0.011230     24.000000
  0.044920 -0.044920  0.000000     12.000000
 -0.000000  0.000000  0.067381      6.000000
 -0.011230  0.011230  0.078611     24.000000
 -0.022460  0.022460  0.089841     24.000000
 -0.033690  0.033690  0.101071     24.000000
  0.101071 -0.101071 -0.033690     24.000000
  0.089841 -0.089841 -0.022460     24.000000
  0.078611 -0.078611 -0.011230     24.000000
  0.067381 -0.067381  0.000000     12.000000
 -0.000000  0.000000  0.089841      6.000000
 -0.011230  0.011230  0.101071     24.000000
 -0.022460  0.022460  0.112301     24.000000
  0.112301 -0.112301 -0.022460     24.000000
  0.101071 -0.101071 -0.011230     24.000000
  0.089841 -0.089841  0.000000     12.000000
  0.000000  0.000000  0.112301      6.000000
 -0.011230  0.011230  0.123531     24.000000
  0.123531 -0.123531 -0.011230     24.000000
  0.112301 -0.112301 -0.000000     12.000000
 -0.000000  0.000000  0.134761      6.000000
  0.134761 -0.134761 -0.000000     12.000000
 -0.000000  0.022460  0.044920     24.000000
 -0.011230  0.033690  0.056151     48.000000
 -0.022460  0.044920  0.067381     48.000000
 -0.033690  0.056151  0.078611     48.000000
  0.101071 -0.078611 -0.056151     48.000000
  0.000000  0.022460  0.067381     24.000000
 -0.011230  0.033690  0.078611     48.000000
 -0.022460  0.044920  0.089841     48.000000
  0.112301 -0.089841 -0.044920     48.000000
  0.101071 -0.078611 -0.033690     48.000000
  0.089841 -0.067381 -0.022460     48.000000
  0.078611 -0.056151 -0.011230     48.000000
  0.067381 -0.044920  0.000000     24.000000
  0.000000  0.022460  0.089841     24.000000
 -0.011230  0.033690  0.101071     48.000000
  0.123531 -0.101071 -0.033690     48.000000
  0.112301 -0.089841 -0.022460     48.000000
  0.101071 -0.078611 -0.011230     48.000000
  0.089841 -0.067381 -0.000000     24.000000
  0.000000  0.022460  0.112301     24.000000
  0.134761 -0.112301 -0.022460     48.000000
  0.123531 -0.101071 -0.011230     48.000000
  0.112301 -0.089841  0.000000     24.000000
  0.145991 -0.123531 -0.011230     24.000000
  0.134761 -0.112301 -0.000000     24.000000
 -0.000000  0.044920  0.089841     24.000000
  0.134761 -0.089841 -0.044920     48.000000
  0.123531 -0.078611 -0.033690     48.000000
  0.145991 -0.101071 -0.033690     24.000000
  0.134761 -0.089841 -0.022460     48.000000
  0.123531 -0.078611 -0.011230     48.000000
  0.112301 -0.067381  0.000000     24.000000
  0.145991 -0.101071 -0.011230     24.000000
  0.134761 -0.089841  0.000000     24.000000
  0.145991 -0.078611 -0.011230     24.000000



--------------------------------------------------------------------------------------------------------




 Dimension of arrays:
   k-points           NKPTS =     84   k-points in BZ     NKDIM =     84   number of bands    NBANDS=     24
   number of dos      NEDOS =    301   number of ions     NIONS =      3
   non local maximal  LDIM  =      8   non local SUM 2l+1 LMDIM =     32
   total plane-waves  NPLWV =  74088
   max r-space proj   IRMAX =      1   max aug-charges    IRDMAX= 446953
   dimension x,y,z NGX =    42 NGY =   42 NGZ =   42
   dimension x,y,z NGXF=    84 NGYF=   84 NGZF=   84
   support grid    NGXF=   168 NGYF=  168 NGZF=  168
   ions per type =               1   1   1
   NGX,Y,Z   is equivalent  to a cutoff of  14.42, 14.42, 14.42 a.u.
   NGXF,Y,Z  is equivalent  to a cutoff of  28.83, 28.83, 28.83 a.u.

 SYSTEM =  unknown system
 POSCAR =  Th1 Bi1 Pt1

 Startparameter for this run:
   NWRITE =      2    write-flag & timer
   PREC   = acc       normal or accurate (medium, high low for compatibility)
   ISTART =      0    job   : 0-new  1-cont  2-samecut
   ICHARG =      2    charge: 1-file 2-atom 10-const
   ISPIN  =      1    spin polarized calculation?
   LNONCOLLINEAR =      F non collinear calculations
   LSORBIT =      F    spin-orbit coupling
   INIWAV =      1    electr: 0-lowe 1-rand  2-diag
   LASPH  =      F    aspherical Exc in radial PAW
   METAGGA=      F    non-selfconsistent MetaGGA calc.

 Electronic Relaxation 1
   ENCUT  =  700.0 eV  51.45 Ry    7.17 a.u.  10.45 10.45 10.45*2*pi/ulx,y,z
   ENINI  =  700.0     initial cutoff
   ENAUG  =  535.4 eV  augmentation charge cutoff
   NELM   =     60;   NELMIN=  5; NELMDL= -5     # of ELM steps
   EDIFF  = 0.1E-06   stopping-criterion for ELM
   LREAL  =      F    real-space projection
   NLSPLINE    = F    spline interpolate recip. space projectors
   LCOMPAT=      F    compatible to vasp.4.4
   GGA_COMPAT  = T    GGA compatible to vasp.4.4-vasp.4.6
   LMAXPAW     = -100 max onsite density
   LMAXMIX     =    2 max onsite mixed and CHGCAR
   VOSKOWN=      0    Vosko Wilk Nusair interpolation
   ROPT   =    0.00000   0.00000   0.00000
 Ionic relaxation
   EDIFFG = 0.1E-05   stopping-criterion for IOM
   NSW    =      0    number of steps for IOM
   NBLOCK =      1;   KBLOCK =      1    inner block; outer block
   IBRION =     -1    ionic relax: 0-MD 1-quasi-New 2-CG
   NFREE  =      0    steps in history (QN), initial steepest desc. (CG)
   ISIF   =      3    stress and relaxation
   IWAVPR =     10    prediction:  0-non 1-charg 2-wave 3-comb
   ISYM   =      2    0-nonsym 1-usesym 2-fastsym
   LCORR  =      T    Harris-Foulkes like correction to forces

   POTIM  = 0.5000    time-step for ionic-motion
   TEIN   =    0.0    initial temperature
   TEBEG  =    0.0;   TEEND  =   0.0 temperature during run
   SMASS  =  -3.00    Nose mass-parameter (am)
   estimated Nose-frequenzy (Omega)   =  0.10E-29 period in steps = 0.13E+47 mass=  -0.536E-27a.u.
   SCALEE = 1.0000    scale energy and forces
   NPACO  =    256;   APACO  = 16.0  distance and # of slots for P.C.
   PSTRESS=    0.0 pullay stress

  Mass of Ions in am
   POMASS = 232.04208.98195.08
  Ionic Valenz
   ZVAL   =  12.00 15.00 10.00
  Atomic Wigner-Seitz radii
   RWIGS  =  -1.00 -1.00 -1.00
  virtual crystal weights
   VCA    =   1.00  1.00  1.00
   NELECT =      37.0000    total number of electrons
   NUPDOWN=      -1.0000    fix difference up-down

 DOS related values:
   EMIN   =  10.00;   EMAX   =-10.00  energy-range for DOS
   EFERMI =   0.00
   ISMEAR =     0;   SIGMA  =   0.01  broadening in eV -4-tet -1-fermi 0-gaus

 Electronic relaxation 2 (details)
   IALGO  =     38    algorithm
   LDIAG  =      T    sub-space diagonalisation (order eigenvalues)
   LSUBROT=      F    optimize rotation matrix (better conditioning)
   TURBO    =      0    0=normal 1=particle mesh
   IRESTART =      0    0=no restart 2=restart with 2 vectors
   NREBOOT  =      0    no. of reboots
   NMIN     =      0    reboot dimension
   EREF     =   0.00    reference energy to select bands
   IMIX   =      4    mixing-type and parameters
     AMIX     =   0.40;   BMIX     =  1.00
     AMIX_MAG =   1.60;   BMIX_MAG =  1.00
     AMIN     =   0.10
     WC   =   100.;   INIMIX=   1;  MIXPRE=   1;  MAXMIX= -45

 Intra band minimization:
   WEIMIN = 0.0000     energy-eigenvalue tresh-hold
   EBREAK =  0.10E-08  absolut break condition
   DEPER  =   0.30     relativ break condition

   TIME   =   0.40     timestep for ELM

  volume/ion in A,a.u.               =      26.78       180.73
  Fermi-wavevector in a.u.,A,eV,Ry     =   1.264220  2.389030 21.745547  1.598253
  Thomas-Fermi vector in A             =   2.397537

 Write flags
   LWAVE        =      F    write WAVECAR
   LDOWNSAMPLE  =      F    k-point downsampling of WAVECAR
   LCHARG       =      F    write CHGCAR
   LVTOT        =      F    write LOCPOT, total local potential
   LVHAR        =      F    write LOCPOT, Hartree potential only
   LELF         =      F    write electronic localiz. function (ELF)
   LORBIT       =      0    0 simple, 1 ext, 2 COOP (PROOUT), +10 PAW based schemes


 Dipole corrections
   LMONO  =      F    monopole corrections only (constant potential shift)
   LDIPOL =      F    correct potential (dipole corrections)
   IDIPOL =      0    1-x, 2-y, 3-z, 4-all directions
   EPSILON=  1.0000000 bulk dielectric constant

 Exchange correlation treatment:
   GGA     =    PS    GGA type
   LEXCH   =    14    internal setting for exchange type
   VOSKOWN=      0    Vosko Wilk Nusair interpolation
   LHFCALC =     F    Hartree Fock is set to
   LHFONE  =     F    Hartree Fock one center treatment
   AEXX    =    0.0000 exact exchange contribution

 Linear response parameters
   LEPSILON=     F    determine dielectric tensor
   LRPA    =     F    only Hartree local field effects (RPA)
   LNABLA  =     F    use nabla operator in PAW spheres
   LVEL    =     F    velocity operator in full k-point grid
   LINTERFAST=   F  fast interpolation
   KINTER  =     0    interpolate to denser k-point grid
   CSHIFT  =0.1000    complex shift for real part using Kramers Kronig
   OMEGAMAX=  -1.0    maximum frequency
   DEG_THRESHOLD= 0.2000000E-02 threshold for treating states as degnerate
   RTIME   =   -0.100 relaxation time in fs
  (WPLASMAI=    0.000 imaginary part of plasma frequency in eV, 0.658/RTIME)
   DFIELD  = 0.0000000 0.0000000 0.0000000 field for delta impulse in time

 Orbital magnetization related:
   ORBITALMAG=     F  switch on orbital magnetization
   LCHIMAG   =     F  perturbation theory with respect to B field
   DQ        =  0.001000  dq finite difference perturbation B field
   LLRAUG    =     F  two centre corrections for induced B field



--------------------------------------------------------------------------------------------------------


 Static calculation
 charge density and potential will be updated during run
 non-spin polarized calculation
 Variant of blocked Davidson
 Davidson routine will perform the subspace rotation
 perform sub-space diagonalisation
    after iterative eigenvector-optimisation
 modified Broyden-mixing scheme, WC =      100.0
 initial mixing is a Kerker type mixing with AMIX =  0.4000 and BMIX =      1.0000
 Hartree-type preconditioning will be used
 using additional bands            5
 reciprocal scheme for non local part
 use partial core corrections
 calculate Harris-corrections to forces
   (improved forces if not selfconsistent)
 use gradient corrections
 use of overlap-Matrix (Vanderbilt PP)
 Gauss-broadening in eV      SIGMA  =   0.01


--------------------------------------------------------------------------------------------------------


  energy-cutoff  :      700.00
  volume of cell :       80.34
      direct lattice vectors                 reciprocal lattice vectors
     0.000000000  3.424859000  3.424859000    -0.145991412  0.145991412  0.145991412
     3.424859000  0.000000000  3.424859000     0.145991412 -0.145991412  0.145991412
     3.424859000  3.424859000  0.000000000     0.145991412  0.145991412 -0.145991412

  length of vectors
     4.843482047  4.843482047  4.843482047     0.252864542  0.252864542  0.252864542



 k-points in units of 2pi/SCALE and weight: KPOINTS
   0.00000000  0.00000000  0.00000000       0.000
  -0.01123011  0.01123011  0.01123011       0.004
  -0.02246022  0.02246022  0.02246022       0.004
  -0.03369033  0.03369033  0.03369033       0.004
  -0.04492043  0.04492043  0.04492043       0.004
  -0.05615054  0.05615054  0.05615054       0.004
  -0.06738065  0.06738065  0.06738065       0.004
   0.00000000 -0.00000000  0.02246022       0.003
  -0.01123011  0.01123011  0.03369033       0.011
  -0.02246022  0.02246022  0.04492043       0.011
  -0.03369033  0.03369033  0.05615054       0.011
  -0.04492043  0.04492043  0.06738065       0.011
  -0.05615054  0.05615054  0.07861076       0.011
   0.07861076 -0.07861076 -0.05615054       0.011
   0.06738065 -0.06738065 -0.04492043       0.011
   0.05615054 -0.05615054 -0.03369033       0.011
   0.04492043 -0.04492043 -0.02246022       0.011
   0.03369033 -0.03369033 -0.01123011       0.011
   0.02246022 -0.02246022 -0.00000000       0.005
  -0.00000000  0.00000000  0.04492043       0.003
  -0.01123011  0.01123011  0.05615054       0.011
  -0.02246022  0.02246022  0.06738065       0.011
  -0.03369033  0.03369033  0.07861076       0.011
  -0.04492043  0.04492043  0.08984087       0.011
   0.08984087 -0.08984087 -0.04492043       0.011
   0.07861076 -0.07861076 -0.03369033       0.011
   0.06738065 -0.06738065 -0.02246022       0.011
   0.05615054 -0.05615054 -0.01123011       0.011
   0.04492043 -0.04492043  0.00000000       0.005
  -0.00000000  0.00000000  0.06738065       0.003
  -0.01123011  0.01123011  0.07861076       0.011
  -0.02246022  0.02246022  0.08984087       0.011
  -0.03369033  0.03369033  0.10107098       0.011
   0.10107098 -0.10107098 -0.03369033       0.011
   0.08984087 -0.08984087 -0.02246022       0.011
   0.07861076 -0.07861076 -0.01123011       0.011
   0.06738065 -0.06738065  0.00000000       0.005
  -0.00000000  0.00000000  0.08984087       0.003
  -0.01123011  0.01123011  0.10107098       0.011
  -0.02246022  0.02246022  0.11230109       0.011
   0.11230109 -0.11230109 -0.02246022       0.011
   0.10107098 -0.10107098 -0.01123011       0.011
   0.08984087 -0.08984087  0.00000000       0.005
   0.00000000  0.00000000  0.11230109       0.003
  -0.01123011  0.01123011  0.12353119       0.011
   0.12353119 -0.12353119 -0.01123011       0.011
   0.11230109 -0.11230109 -0.00000000       0.005
  -0.00000000  0.00000000  0.13476130       0.003
   0.13476130 -0.13476130 -0.00000000       0.005
  -0.00000000  0.02246022  0.04492043       0.011
  -0.01123011  0.03369033  0.05615054       0.022
  -0.02246022  0.04492043  0.06738065       0.022
  -0.03369033  0.05615054  0.07861076       0.022
   0.10107098 -0.07861076 -0.05615054       0.022
   0.00000000  0.02246022  0.06738065       0.011
  -0.01123011  0.03369033  0.07861076       0.022
  -0.02246022  0.04492043  0.08984087       0.022
   0.11230109 -0.08984087 -0.04492043       0.022
   0.10107098 -0.07861076 -0.03369033       0.022
   0.08984087 -0.06738065 -0.02246022       0.022
   0.07861076 -0.05615054 -0.01123011       0.022
   0.06738065 -0.04492043  0.00000000       0.011
   0.00000000  0.02246022  0.08984087       0.011
  -0.01123011  0.03369033  0.10107098       0.022
   0.12353119 -0.10107098 -0.03369033       0.022
   0.11230109 -0.08984087 -0.02246022       0.022
   0.10107098 -0.07861076 -0.01123011       0.022
   0.08984087 -0.06738065 -0.00000000       0.011
   0.00000000  0.02246022  0.11230109       0.011
   0.13476130 -0.11230109 -0.02246022       0.022
   0.12353119 -0.10107098 -0.01123011       0.022
   0.11230109 -0.08984087  0.00000000       0.011
   0.14599141 -0.12353119 -0.01123011       0.011
   0.13476130 -0.11230109 -0.00000000       0.011
  -0.00000000  0.04492043  0.08984087       0.011
   0.13476130 -0.08984087 -0.04492043       0.022
   0.12353119 -0.07861076 -0.03369033       0.022
   0.14599141 -0.10107098 -0.03369033       0.011
   0.13476130 -0.08984087 -0.02246022       0.022
   0.12353119 -0.07861076 -0.01123011       0.022
   0.11230109 -0.06738065  0.00000000       0.011
   0.14599141 -0.10107098 -0.01123011       0.011
   0.13476130 -0.08984087  0.00000000       0.011
   0.14599141 -0.07861076 -0.01123011       0.011

 k-points in reciprocal lattice and weights: KPOINTS
   0.00000000  0.00000000  0.00000000       0.000
   0.07692308  0.00000000 -0.00000000       0.004
   0.15384615 -0.00000000  0.00000000       0.004
   0.23076923 -0.00000000  0.00000000       0.004
   0.30769231 -0.00000000  0.00000000       0.004
   0.38461538  0.00000000 -0.00000000       0.004
   0.46153846  0.00000000 -0.00000000       0.004
   0.07692308  0.07692308  0.00000000       0.003
   0.15384615  0.07692308  0.00000000       0.011
   0.23076923  0.07692308  0.00000000       0.011
   0.30769231  0.07692308  0.00000000       0.011
   0.38461538  0.07692308 -0.00000000       0.011
   0.46153846  0.07692308  0.00000000       0.011
  -0.46153846  0.07692308 -0.00000000       0.011
  -0.38461538  0.07692308 -0.00000000       0.011
  -0.30769231  0.07692308  0.00000000       0.011
  -0.23076923  0.07692308  0.00000000       0.011
  -0.15384615  0.07692308 -0.00000000       0.011
  -0.07692308  0.07692308  0.00000000       0.005
   0.15384615  0.15384615  0.00000000       0.003
   0.23076923  0.15384615  0.00000000       0.011
   0.30769231  0.15384615  0.00000000       0.011
   0.38461538  0.15384615  0.00000000       0.011
   0.46153846  0.15384615  0.00000000       0.011
  -0.46153846  0.15384615  0.00000000       0.011
  -0.38461538  0.15384615 -0.00000000       0.011
  -0.30769231  0.15384615  0.00000000       0.011
  -0.23076923  0.15384615  0.00000000       0.011
  -0.15384615  0.15384615 -0.00000000       0.005
   0.23076923  0.23076923  0.00000000       0.003
   0.30769231  0.23076923  0.00000000       0.011
   0.38461538  0.23076923  0.00000000       0.011
   0.46153846  0.23076923  0.00000000       0.011
  -0.46153846  0.23076923  0.00000000       0.011
  -0.38461538  0.23076923 -0.00000000       0.011
  -0.30769231  0.23076923 -0.00000000       0.011
  -0.23076923  0.23076923 -0.00000000       0.005
   0.30769231  0.30769231  0.00000000       0.003
   0.38461538  0.30769231  0.00000000       0.011
   0.46153846  0.30769231  0.00000000       0.011
  -0.46153846  0.30769231 -0.00000000       0.011
  -0.38461538  0.30769231  0.00000000       0.011
  -0.30769231  0.30769231 -0.00000000       0.005
   0.38461538  0.38461538  0.00000000       0.003
   0.46153846  0.38461538  0.00000000       0.011
  -0.46153846  0.38461538 -0.00000000       0.011
  -0.38461538  0.38461538  0.00000000       0.005
   0.46153846  0.46153846  0.00000000       0.003
  -0.46153846  0.46153846  0.00000000       0.005
   0.23076923  0.15384615  0.07692308       0.011
   0.30769231  0.15384615  0.07692308       0.022
   0.38461538  0.15384615  0.07692308       0.022
   0.46153846  0.15384615  0.07692308       0.022
  -0.46153846  0.15384615  0.07692308       0.022
   0.30769231  0.23076923  0.07692308       0.011
   0.38461538  0.23076923  0.07692308       0.022
   0.46153846  0.23076923  0.07692308       0.022
  -0.46153846  0.23076923  0.07692308       0.022
  -0.38461538  0.23076923  0.07692308       0.022
  -0.30769231  0.23076923  0.07692308       0.022
  -0.23076923  0.23076923  0.07692308       0.022
  -0.15384615  0.23076923  0.07692308       0.011
   0.38461538  0.30769231  0.07692308       0.011
   0.46153846  0.30769231  0.07692308       0.022
  -0.46153846  0.30769231  0.07692308       0.022
  -0.38461538  0.30769231  0.07692308       0.022
  -0.30769231  0.30769231  0.07692308       0.022
  -0.23076923  0.30769231  0.07692308       0.011
   0.46153846  0.38461538  0.07692308       0.011
  -0.46153846  0.38461538  0.07692308       0.022
  -0.38461538  0.38461538  0.07692308       0.022
  -0.30769231  0.38461538  0.07692308       0.011
  -0.46153846  0.46153846  0.07692308       0.011
  -0.38461538  0.46153846  0.07692308       0.011
   0.46153846  0.30769231  0.15384615       0.011
  -0.46153846  0.30769231  0.15384615       0.022
  -0.38461538  0.30769231  0.15384615       0.022
  -0.46153846  0.38461538  0.15384615       0.011
  -0.38461538  0.38461538  0.15384615       0.022
  -0.30769231  0.38461538  0.15384615       0.022
  -0.23076923  0.38461538  0.15384615       0.011
  -0.38461538  0.46153846  0.15384615       0.011
  -0.30769231  0.46153846  0.15384615       0.011
  -0.30769231  0.46153846  0.23076923       0.011

 position of ions in fractional coordinates (direct lattice)
   0.25000000  0.25000000  0.25000000
   0.75000000  0.75000000  0.75000000
   0.00000000  0.00000000  0.00000000

 position of ions in cartesian coordinates  (Angst):
   1.71242950  1.71242950  1.71242950
   5.13728850  5.13728850  5.13728850
   0.00000000  0.00000000  0.00000000



--------------------------------------------------------------------------------------------------------


 k-point  1 :   0.0000 0.0000 0.0000  plane waves:    3383
 k-point  2 :   0.0769 0.0000-0.0000  plane waves:    3404
 k-point  3 :   0.1538-0.0000 0.0000  plane waves:    3389
 k-point  4 :   0.2308-0.0000 0.0000  plane waves:    3389
 k-point  5 :   0.3077-0.0000 0.0000  plane waves:    3392
 k-point  6 :   0.3846 0.0000-0.0000  plane waves:    3392
 k-point  7 :   0.4615 0.0000-0.0000  plane waves:    3389
 k-point  8 :   0.0769 0.0769 0.0000  plane waves:    3403
 k-point  9 :   0.1538 0.0769 0.0000  plane waves:    3392
 k-point 10 :   0.2308 0.0769 0.0000  plane waves:    3389
 k-point 11 :   0.3077 0.0769 0.0000  plane waves:    3388
 k-point 12 :   0.3846 0.0769-0.0000  plane waves:    3382
 k-point 13 :   0.4615 0.0769 0.0000  plane waves:    3374
 k-point 14 :  -0.4615 0.0769-0.0000  plane waves:    3376
 k-point 15 :  -0.3846 0.0769-0.0000  plane waves:    3380
 k-point 16 :  -0.3077 0.0769 0.0000  plane waves:    3390
 k-point 17 :  -0.2308 0.0769 0.0000  plane waves:    3388
 k-point 18 :  -0.1538 0.0769-0.0000  plane waves:    3392
 k-point 19 :  -0.0769 0.0769 0.0000  plane waves:    3403
 k-point 20 :   0.1538 0.1538 0.0000  plane waves:    3383
 k-point 21 :   0.2308 0.1538 0.0000  plane waves:    3393
 k-point 22 :   0.3077 0.1538 0.0000  plane waves:    3400
 k-point 23 :   0.3846 0.1538 0.0000  plane waves:    3388
 k-point 24 :   0.4615 0.1538 0.0000  plane waves:    3375
 k-point 25 :  -0.4615 0.1538 0.0000  plane waves:    3368
 k-point 26 :  -0.3846 0.1538-0.0000  plane waves:    3379
 k-point 27 :  -0.3077 0.1538 0.0000  plane waves:    3380
 k-point 28 :  -0.2308 0.1538 0.0000  plane waves:    3391
 k-point 29 :  -0.1538 0.1538-0.0000  plane waves:    3395
 k-point 30 :   0.2308 0.2308 0.0000  plane waves:    3383
 k-point 31 :   0.3077 0.2308 0.0000  plane waves:    3386
 k-point 32 :   0.3846 0.2308 0.0000  plane waves:    3398
 k-point 33 :   0.4615 0.2308 0.0000  plane waves:    3381
 k-point 34 :  -0.4615 0.2308 0.0000  plane waves:    3374
 k-point 35 :  -0.3846 0.2308-0.0000  plane waves:    3381
 k-point 36 :  -0.3077 0.2308-0.0000  plane waves:    3381
 k-point 37 :  -0.2308 0.2308-0.0000  plane waves:    3390
 k-point 38 :   0.3077 0.3077 0.0000  plane waves:    3383
 k-point 39 :   0.3846 0.3077 0.0000  plane waves:    3391
 k-point 40 :   0.4615 0.3077 0.0000  plane waves:    3387
 k-point 41 :  -0.4615 0.3077-0.0000  plane waves:    3372
 k-point 42 :  -0.3846 0.3077 0.0000  plane waves:    3370
 k-point 43 :  -0.3077 0.3077-0.0000  plane waves:    3372
 k-point 44 :   0.3846 0.3846 0.0000  plane waves:    3379
 k-point 45 :   0.4615 0.3846 0.0000  plane waves:    3375
 k-point 46 :  -0.4615 0.3846-0.0000  plane waves:    3367
 k-point 47 :  -0.3846 0.3846 0.0000  plane waves:    3366
 k-point 48 :   0.4615 0.4615 0.0000  plane waves:    3354
 k-point 49 :  -0.4615 0.4615 0.0000  plane waves:    3362
 k-point 50 :   0.2308 0.1538 0.0769  plane waves:    3396
 k-point 51 :   0.3077 0.1538 0.0769  plane waves:    3390
 k-point 52 :   0.3846 0.1538 0.0769  plane waves:    3391
 k-point 53 :   0.4615 0.1538 0.0769  plane waves:    3386
 k-point 54 :  -0.4615 0.1538 0.0769  plane waves:    3370
 k-point 55 :   0.3077 0.2308 0.0769  plane waves:    3395
 k-point 56 :   0.3846 0.2308 0.0769  plane waves:    3395
 k-point 57 :   0.4615 0.2308 0.0769  plane waves:    3381
 k-point 58 :  -0.4615 0.2308 0.0769  plane waves:    3367
 k-point 59 :  -0.3846 0.2308 0.0769  plane waves:    3376
 k-point 60 :  -0.3077 0.2308 0.0769  plane waves:    3373
 k-point 61 :  -0.2308 0.2308 0.0769  plane waves:    3389
 k-point 62 :  -0.1538 0.2308 0.0769  plane waves:    3386
 k-point 63 :   0.3846 0.3077 0.0769  plane waves:    3395
 k-point 64 :   0.4615 0.3077 0.0769  plane waves:    3379
 k-point 65 :  -0.4615 0.3077 0.0769  plane waves:    3373
 k-point 66 :  -0.3846 0.3077 0.0769  plane waves:    3362
 k-point 67 :  -0.3077 0.3077 0.0769  plane waves:    3370
 k-point 68 :  -0.2308 0.3077 0.0769  plane waves:    3381
 k-point 69 :   0.4615 0.3846 0.0769  plane waves:    3380
 k-point 70 :  -0.4615 0.3846 0.0769  plane waves:    3373
 k-point 71 :  -0.3846 0.3846 0.0769  plane waves:    3369
 k-point 72 :  -0.3077 0.3846 0.0769  plane waves:    3370
 k-point 73 :  -0.4615 0.4615 0.0769  plane waves:    3369
 k-point 74 :  -0.3846 0.4615 0.0769  plane waves:    3366
 k-point 75 :   0.4615 0.3077 0.1538  plane waves:    3398
 k-point 76 :  -0.4615 0.3077 0.1538  plane waves:    3377
 k-point 77 :  -0.3846 0.3077 0.1538  plane waves:    3366
 k-point 78 :  -0.4615 0.3846 0.1538  plane waves:    3371
 k-point 79 :  -0.3846 0.3846 0.1538  plane waves:    3372
 k-point 80 :  -0.3077 0.3846 0.1538  plane waves:    3367
 k-point 81 :  -0.2308 0.3846 0.1538  plane waves:    3366
 k-point 82 :  -0.3846 0.4615 0.1538  plane waves:    3373
 k-point 83 :  -0.3077 0.4615 0.1538  plane waves:    3360
 k-point 84 :  -0.3077 0.4615 0.2308  plane waves:    3369

 maximum and minimum number of plane-waves per node :       860      821

 maximum number of plane-waves:      3404
 maximum index in each direction:
   IXMAX=   10   IYMAX=   10   IZMAX=   10
   IXMIN=  -10   IYMIN=  -10   IZMIN=  -10


 parallel 3D FFT for wavefunctions:
    minimum data exchange during FFTs selected (reduces bandwidth)
 parallel 3D FFT for charge:
    minimum data exchange during FFTs selected (reduces bandwidth)


 total amount of memory used by VASP MPI-rank0   102295. kBytes
=======================================================================

   base      :      30000. kBytes
   nonl-proj :      55263. kBytes
   fftplans  :       6282. kBytes
   grid      :       3541. kBytes
   one-center:         49. kBytes
   wavefun   :       7160. kBytes

     INWAV:  cpu time    0.0002: real time    0.0005
 Broyden mixing: mesh for mixing (old mesh)
   NGX = 21   NGY = 21   NGZ = 21
  (NGX  = 84   NGY  = 84   NGZ  = 84)
  gives a total of   9261 points

 initial charge density was supplied:
 charge density of overlapping atoms calculated
 number of electron      37.0000000 magnetization
 keeping initial charge density in first step


--------------------------------------------------------------------------------------------------------


 Maximum index for augmentation-charges        30369 (set IRDMAX)


--------------------------------------------------------------------------------------------------------


 First call to EWALD:  gamma=   0.411
 Maximum number of real-space cells 3x 3x 3
 Maximum number of reciprocal cells 3x 3x 3

    FEWALD:  cpu time    0.0060: real time    0.0068


--------------------------------------- Iteration      1(   1)  ---------------------------------------


    POTLOK:  cpu time    0.0566: real time    0.1569
    SETDIJ:  cpu time    0.0988: real time    0.0992
     EDDAV:  cpu time    1.5333: real time    1.5630
       DOS:  cpu time    0.0038: real time    0.0042
    --------------------------------------------
      LOOP:  cpu time    1.6929: real time    1.8240

 eigenvalue-minimisations  :  4032
 total energy-change (2. order) : 0.4452142E+03  (-0.2052241E+04)
 number of electron      37.0000000 magnetization
 augmentation part       37.0000000 magnetization

 Free energy of the ion-electron system (eV)
  ---------------------------------------------------
  alpha Z        PSCENC =       213.84769982
  Ewald energy   TEWEN  =     -3127.77265529
  -Hartree energ DENC   =      -756.48664056
  -exchange      EXHF   =         0.00000000
  -V(xc)+E(xc)   XCENC  =        68.30107805
  PAW double counting   =      3147.30828992    -3070.62761383
  entropy T*S    EENTRO =        -0.00032037
  eigenvalues    EBANDS =       295.97098807
  atomic energy  EATOM  =      3674.67342263
  Solvation  Ediel_sol  =         0.00000000
  ---------------------------------------------------
  free energy    TOTEN  =       445.21424844 eV

  energy without entropy =      445.21456881  energy(sigma->0) =      445.21440862


--------------------------------------------------------------------------------------------------------




--------------------------------------- Iteration      1(   2)  ---------------------------------------


     EDDAV:  cpu time    1.5501: real time    1.6339
       DOS:  cpu time    0.0030: real time    0.0034
    --------------------------------------------
      LOOP:  cpu time    1.5531: real time    1.6395

 eigenvalue-minimisations  :  4184
 total energy-change (2. order) :-0.3988778E+03  (-0.3902485E+03)
 number of electron      37.0000000 magnetization
 augmentation part       37.0000000 magnetization

 Free energy of the ion-electron system (eV)
  ---------------------------------------------------
  alpha Z        PSCENC =       213.84769982
  Ewald energy   TEWEN  =     -3127.77265529
  -Hartree energ DENC   =      -756.48664056
  -exchange      EXHF   =         0.00000000
  -V(xc)+E(xc)   XCENC  =        68.30107805
  PAW double counting   =      3147.30828992    -3070.62761383
  entropy T*S    EENTRO =        -0.00037485
  eigenvalues    EBANDS =      -102.90672542
  atomic energy  EATOM  =      3674.67342263
  Solvation  Ediel_sol  =         0.00000000
  ---------------------------------------------------
  free energy    TOTEN  =        46.33648047 eV

  energy without entropy =       46.33685532  energy(sigma->0) =       46.33666790


--------------------------------------------------------------------------------------------------------




--------------------------------------- Iteration      1(   3)  ---------------------------------------


     EDDAV:  cpu time    1.9204: real time    1.9515
       DOS:  cpu time    0.0031: real time    0.0034
    --------------------------------------------
      LOOP:  cpu time    1.9236: real time    1.9530

 eigenvalue-minimisations  :  5560
 total energy-change (2. order) :-0.6494143E+02  (-0.6416813E+02)
 number of electron      37.0000000 magnetization
 augmentation part       37.0000000 magnetization

 Free energy of the ion-electron system (eV)
  ---------------------------------------------------
  alpha Z        PSCENC =       213.84769982
  Ewald energy   TEWEN  =     -3127.77265529
  -Hartree energ DENC   =      -756.48664056
  -exchange      EXHF   =         0.00000000
  -V(xc)+E(xc)   XCENC  =        68.30107805
  PAW double counting   =      3147.30828992    -3070.62761383
  entropy T*S    EENTRO =        -0.00025222
  eigenvalues    EBANDS =      -167.84827484
  atomic energy  EATOM  =      3674.67342263
  Solvation  Ediel_sol  =         0.00000000
  ---------------------------------------------------
  free energy    TOTEN  =       -18.60494632 eV

  energy without entropy =      -18.60469410  energy(sigma->0) =      -18.60482021


--------------------------------------------------------------------------------------------------------




--------------------------------------- Iteration      1(   4)  ---------------------------------------


     EDDAV:  cpu time    2.4315: real time    2.4599
       DOS:  cpu time    0.0029: real time    0.0037
    --------------------------------------------
      LOOP:  cpu time    2.4342: real time    2.4655

 eigenvalue-minimisations  :  7352
 total energy-change (2. order) :-0.4218507E+01  (-0.4206540E+01)
 number of electron      37.0000000 magnetization
 augmentation part       37.0000000 magnetization

 Free energy of the ion-electron system (eV)
  ---------------------------------------------------
  alpha Z        PSCENC =       213.84769982
  Ewald energy   TEWEN  =     -3127.77265529
  -Hartree energ DENC   =      -756.48664056
  -exchange      EXHF   =         0.00000000
  -V(xc)+E(xc)   XCENC  =        68.30107805
  PAW double counting   =      3147.30828992    -3070.62761383
  entropy T*S    EENTRO =        -0.00007268
  eigenvalues    EBANDS =      -172.06696167
  atomic energy  EATOM  =      3674.67342263
  Solvation  Ediel_sol  =         0.00000000
  ---------------------------------------------------
  free energy    TOTEN  =       -22.82345361 eV

  energy without entropy =      -22.82338093  energy(sigma->0) =      -22.82341727


--------------------------------------------------------------------------------------------------------




--------------------------------------- Iteration      1(   5)  ---------------------------------------


     EDDAV:  cpu time    1.9879: real time    2.0133
       DOS:  cpu time    0.0029: real time    0.0031
    CHARGE:  cpu time    0.3387: real time    0.3396
    MIXING:  cpu time    0.0067: real time    0.0069
    --------------------------------------------
      LOOP:  cpu time    2.3362: real time    2.3626

 eigenvalue-minimisations  :  5600
 total energy-change (2. order) :-0.1174594E+00  (-0.1174394E+00)
 number of electron      37.0000000 magnetization
 augmentation part        5.9821947 magnetization

 Broyden mixing:
  rms(total) = 0.32993E+01    rms(broyden)= 0.32993E+01
  rms(prec ) = 0.36091E+01
  weight for this iteration     100.00

 Free energy of the ion-electron system (eV)
  ---------------------------------------------------
  alpha Z        PSCENC =       213.84769982
  Ewald energy   TEWEN  =     -3127.77265529
  -Hartree energ DENC   =      -756.48664056
  -exchange      EXHF   =         0.00000000
  -V(xc)+E(xc)   XCENC  =        68.30107805
  PAW double counting   =      3147.30828992    -3070.62761383
  entropy T*S    EENTRO =        -0.00007270
  eigenvalues    EBANDS =      -172.18442102
  atomic energy  EATOM  =      3674.67342263
  Solvation  Ediel_sol  =         0.00000000
  ---------------------------------------------------
  free energy    TOTEN  =       -22.94091298 eV

  energy without entropy =      -22.94084028  energy(sigma->0) =      -22.94087663


--------------------------------------------------------------------------------------------------------




--------------------------------------- Iteration      1(   6)  ---------------------------------------


    POTLOK:  cpu time    0.0418: real time    0.0682
    SETDIJ:  cpu time    0.0925: real time    0.0926
     EDDAV:  cpu time    1.7838: real time    1.7842
       DOS:  cpu time    0.0030: real time    0.0033
    CHARGE:  cpu time    0.3003: real time    0.3007
    MIXING:  cpu time    0.0079: real time    0.0080
    --------------------------------------------
      LOOP:  cpu time    2.2293: real time    2.2577

 eigenvalue-minimisations  :  5040
 total energy-change (2. order) : 0.9094448E+00  (-0.1728944E+00)
 number of electron      37.0000000 magnetization
 augmentation part        6.0475869 magnetization

 Broyden mixing:
  rms(total) = 0.20283E+01    rms(broyden)= 0.20283E+01
  rms(prec ) = 0.21386E+01
  weight for this iteration     100.00

 eigenvalues of (default mixing * dielectric matrix)
  average eigenvalue GAMMA=   2.5328
  2.5328

 Free energy of the ion-electron system (eV)
  ---------------------------------------------------
  alpha Z        PSCENC =       213.84769982
  Ewald energy   TEWEN  =     -3127.77265529
  -Hartree energ DENC   =      -740.96555848
  -exchange      EXHF   =         0.00000000
  -V(xc)+E(xc)   XCENC  =        67.83807920
  PAW double counting   =      3448.67181710    -3376.46997599
  entropy T*S    EENTRO =        -0.00016377
  eigenvalues    EBANDS =      -181.85413337
  atomic energy  EATOM  =      3674.67342263
  Solvation  Ediel_sol  =         0.00000000
  ---------------------------------------------------
  free energy    TOTEN  =       -22.03146816 eV

  energy without entropy =      -22.03130439  energy(sigma->0) =      -22.03138627


--------------------------------------------------------------------------------------------------------




--------------------------------------- Iteration      1(   7)  ---------------------------------------


    POTLOK:  cpu time    0.0409: real time    0.0700
    SETDIJ:  cpu time    0.0912: real time    0.0914
     EDDAV:  cpu time    2.0467: real time    2.0470
       DOS:  cpu time    0.0031: real time    0.0035
    CHARGE:  cpu time    0.2826: real time    0.2849
    MIXING:  cpu time    0.0064: real time    0.0066
    --------------------------------------------
      LOOP:  cpu time    2.4709: real time    2.5023

 eigenvalue-minimisations  :  6104
 total energy-change (2. order) : 0.1202749E+00  (-0.2349201E+00)
 number of electron      37.0000000 magnetization
 augmentation part        5.9939937 magnetization

 Broyden mixing:
  rms(total) = 0.62853E+00    rms(broyden)= 0.62853E+00
  rms(prec ) = 0.75095E+00
  weight for this iteration     100.00

 eigenvalues of (default mixing * dielectric matrix)
  average eigenvalue GAMMA=   2.1263
  1.0571  3.1955

 Free energy of the ion-electron system (eV)
  ---------------------------------------------------
  alpha Z        PSCENC =       213.84769982
  Ewald energy   TEWEN  =     -3127.77265529
  -Hartree energ DENC   =      -727.84273988
  -exchange      EXHF   =         0.00000000
  -V(xc)+E(xc)   XCENC  =        67.61281288
  PAW double counting   =      3851.22217971    -3783.97756602
  entropy T*S    EENTRO =        -0.00043188
  eigenvalues    EBANDS =      -189.67391527
  atomic energy  EATOM  =      3674.67342263
  Solvation  Ediel_sol  =         0.00000000
  ---------------------------------------------------
  free energy    TOTEN  =       -21.91119330 eV

  energy without entropy =      -21.91076142  energy(sigma->0) =      -21.91097736


--------------------------------------------------------------------------------------------------------




--------------------------------------- Iteration      1(   8)  ---------------------------------------


    POTLOK:  cpu time    0.0374: real time    0.0655
    SETDIJ:  cpu time    0.0902: real time    0.0903
     EDDAV:  cpu time    1.7812: real time    1.7815
       DOS:  cpu time    0.0029: real time    0.0032
    CHARGE:  cpu time    0.2828: real time    0.2829
    MIXING:  cpu time    0.0056: real time    0.0064
    --------------------------------------------
      LOOP:  cpu time    2.2001: real time    2.2310

 eigenvalue-minimisations  :  5080
 total energy-change (2. order) : 0.4664752E-01  (-0.3262307E-01)
 number of electron      37.0000000 magnetization
 augmentation part        5.9516869 magnetization

 Broyden mixing:
  rms(total) = 0.44515E+00    rms(broyden)= 0.44515E+00
  rms(prec ) = 0.48870E+00
  weight for this iteration     100.00

 eigenvalues of (default mixing * dielectric matrix)
  average eigenvalue GAMMA=   1.9151
  3.5904  1.3805  0.7745

 Free energy of the ion-electron system (eV)
  ---------------------------------------------------
  alpha Z        PSCENC =       213.84769982
  Ewald energy   TEWEN  =     -3127.77265529
  -Hartree energ DENC   =      -728.01321870
  -exchange      EXHF   =         0.00000000
  -V(xc)+E(xc)   XCENC  =        67.62107898
  PAW double counting   =      3880.74938641    -3813.58537620
  entropy T*S    EENTRO =        -0.00010993
  eigenvalues    EBANDS =      -189.38477351
  atomic energy  EATOM  =      3674.67342263
  Solvation  Ediel_sol  =         0.00000000
  ---------------------------------------------------
  free energy    TOTEN  =       -21.86454578 eV

  energy without entropy =      -21.86443586  energy(sigma->0) =      -21.86449082


--------------------------------------------------------------------------------------------------------




--------------------------------------- Iteration      1(   9)  ---------------------------------------


    POTLOK:  cpu time    0.0372: real time    0.0648
    SETDIJ:  cpu time    0.0913: real time    0.0919
     EDDAV:  cpu time    2.0287: real time    2.0290
       DOS:  cpu time    0.0030: real time    0.0032
    CHARGE:  cpu time    0.2831: real time    0.2833
    MIXING:  cpu time    0.0053: real time    0.0060
    --------------------------------------------
      LOOP:  cpu time    2.4487: real time    2.4786

 eigenvalue-minimisations  :  6024
 total energy-change (2. order) : 0.9191151E-02  (-0.2041703E-01)
 number of electron      37.0000000 magnetization
 augmentation part        5.9449929 magnetization

 Broyden mixing:
  rms(total) = 0.34033E+00    rms(broyden)= 0.34033E+00
  rms(prec ) = 0.35187E+00
  weight for this iteration     100.00

 eigenvalues of (default mixing * dielectric matrix)
  average eigenvalue GAMMA=   1.4114
  2.4480  1.2636  1.2636  0.6705

 Free energy of the ion-electron system (eV)
  ---------------------------------------------------
  alpha Z        PSCENC =       213.84769982
  Ewald energy   TEWEN  =     -3127.77265529
  -Hartree energ DENC   =      -730.36659962
  -exchange      EXHF   =         0.00000000
  -V(xc)+E(xc)   XCENC  =        67.65355137
  PAW double counting   =      3961.99569574    -3894.73045315
  entropy T*S    EENTRO =        -0.00028190
  eigenvalues    EBANDS =      -187.15573422
  atomic energy  EATOM  =      3674.67342263
  Solvation  Ediel_sol  =         0.00000000
  ---------------------------------------------------
  free energy    TOTEN  =       -21.85535463 eV

  energy without entropy =      -21.85507273  energy(sigma->0) =      -21.85521368


--------------------------------------------------------------------------------------------------------




--------------------------------------- Iteration      1(  10)  ---------------------------------------


    POTLOK:  cpu time    0.0364: real time    0.0658
    SETDIJ:  cpu time    0.0911: real time    0.0912
     EDDAV:  cpu time    1.7160: real time    1.7163
       DOS:  cpu time    0.0030: real time    0.0032
    CHARGE:  cpu time    0.2835: real time    0.2857
    MIXING:  cpu time    0.0052: real time    0.0055
    --------------------------------------------
      LOOP:  cpu time    2.1352: real time    2.1667

 eigenvalue-minimisations  :  4856
 total energy-change (2. order) : 0.5639634E-02  (-0.3337357E-02)
 number of electron      37.0000000 magnetization
 augmentation part        5.9506705 magnetization

 Broyden mixing:
  rms(total) = 0.68399E-01    rms(broyden)= 0.68399E-01
  rms(prec ) = 0.70940E-01
  weight for this iteration     100.00

 eigenvalues of (default mixing * dielectric matrix)
  average eigenvalue GAMMA=   1.4214
  2.4078  1.6882  1.4663  0.8825  0.6620

 Free energy of the ion-electron system (eV)
  ---------------------------------------------------
  alpha Z        PSCENC =       213.84769982
  Ewald energy   TEWEN  =     -3127.77265529
  -Hartree energ DENC   =      -730.55507246
  -exchange      EXHF   =         0.00000000
  -V(xc)+E(xc)   XCENC  =        67.64330642
  PAW double counting   =      3899.17849454    -3831.55467336
  entropy T*S    EENTRO =        -0.00021032
  eigenvalues    EBANDS =      -187.31002698
  atomic energy  EATOM  =      3674.67342263
  Solvation  Ediel_sol  =         0.00000000
  ---------------------------------------------------
  free energy    TOTEN  =       -21.84971500 eV

  energy without entropy =      -21.84950467  energy(sigma->0) =      -21.84960984


--------------------------------------------------------------------------------------------------------




--------------------------------------- Iteration      1(  11)  ---------------------------------------


    POTLOK:  cpu time    0.0425: real time    0.0788
    SETDIJ:  cpu time    0.0905: real time    0.0906
     EDDAV:  cpu time    2.0168: real time    2.0170
       DOS:  cpu time    0.0028: real time    0.0030
    CHARGE:  cpu time    0.2842: real time    0.2843
    MIXING:  cpu time    0.0051: real time    0.0053
    --------------------------------------------
      LOOP:  cpu time    2.4418: real time    2.4795

 eigenvalue-minimisations  :  5912
 total energy-change (2. order) :-0.1969958E-03  (-0.2333985E-03)
 number of electron      37.0000000 magnetization
 augmentation part        5.9520608 magnetization

 Broyden mixing:
  rms(total) = 0.36603E-01    rms(broyden)= 0.36603E-01
  rms(prec ) = 0.40324E-01
  weight for this iteration     100.00

 eigenvalues of (default mixing * dielectric matrix)
  average eigenvalue GAMMA=   1.3782
  2.5988  1.9378  0.6434  0.9447  0.9447  1.1998

 Free energy of the ion-electron system (eV)
  ---------------------------------------------------
  alpha Z        PSCENC =       213.84769982
  Ewald energy   TEWEN  =     -3127.77265529
  -Hartree energ DENC   =      -730.70988997
  -exchange      EXHF   =         0.00000000
  -V(xc)+E(xc)   XCENC  =        67.63705728
  PAW double counting   =      3907.65601046    -3839.98854284
  entropy T*S    EENTRO =        -0.00021157
  eigenvalues    EBANDS =      -187.19280251
  atomic energy  EATOM  =      3674.67342263
  Solvation  Ediel_sol  =         0.00000000
  ---------------------------------------------------
  free energy    TOTEN  =       -21.84991199 eV

  energy without entropy =      -21.84970042  energy(sigma->0) =      -21.84980621


--------------------------------------------------------------------------------------------------------




--------------------------------------- Iteration      1(  12)  ---------------------------------------


    POTLOK:  cpu time    0.0366: real time    0.0750
    SETDIJ:  cpu time    0.0900: real time    0.0903
     EDDAV:  cpu time    1.9048: real time    1.9050
       DOS:  cpu time    0.0032: real time    0.0034
    CHARGE:  cpu time    0.2839: real time    0.2841
    MIXING:  cpu time    0.0060: real time    0.0061
    --------------------------------------------
      LOOP:  cpu time    2.3245: real time    2.3665

 eigenvalue-minimisations  :  5592
 total energy-change (2. order) : 0.1131392E-03  (-0.4777800E-04)
 number of electron      37.0000000 magnetization
 augmentation part        5.9526722 magnetization

 Broyden mixing:
  rms(total) = 0.10401E-01    rms(broyden)= 0.10401E-01
  rms(prec ) = 0.11724E-01
  weight for this iteration     100.00

 eigenvalues of (default mixing * dielectric matrix)
  average eigenvalue GAMMA=   1.4269
  2.4991  2.3264  0.6486  1.2127  1.2127  1.0444  1.0444

 Free energy of the ion-electron system (eV)
  ---------------------------------------------------
  alpha Z        PSCENC =       213.84769982
  Ewald energy   TEWEN  =     -3127.77265529
  -Hartree energ DENC   =      -730.71236576
  -exchange      EXHF   =         0.00000000
  -V(xc)+E(xc)   XCENC  =        67.63566472
  PAW double counting   =      3910.25462085    -3842.55793130
  entropy T*S    EENTRO =        -0.00022250
  eigenvalues    EBANDS =      -187.21803203
  atomic energy  EATOM  =      3674.67342263
  Solvation  Ediel_sol  =         0.00000000
  ---------------------------------------------------
  free energy    TOTEN  =       -21.84979886 eV

  energy without entropy =      -21.84957636  energy(sigma->0) =      -21.84968761


--------------------------------------------------------------------------------------------------------




--------------------------------------- Iteration      1(  13)  ---------------------------------------


    POTLOK:  cpu time    0.0386: real time    0.0683
    SETDIJ:  cpu time    0.0897: real time    0.0899
     EDDAV:  cpu time    2.1414: real time    2.1417
       DOS:  cpu time    0.0031: real time    0.0033
    CHARGE:  cpu time    0.2830: real time    0.2832
    MIXING:  cpu time    0.0066: real time    0.0067
    --------------------------------------------
      LOOP:  cpu time    2.5625: real time    2.5905

 eigenvalue-minimisations  :  6416
 total energy-change (2. order) : 0.2586416E-05  (-0.1707869E-04)
 number of electron      37.0000000 magnetization
 augmentation part        5.9535448 magnetization

 Broyden mixing:
  rms(total) = 0.37804E-02    rms(broyden)= 0.37804E-02
  rms(prec ) = 0.43235E-02
  weight for this iteration     100.00

 eigenvalues of (default mixing * dielectric matrix)
  average eigenvalue GAMMA=   1.3865
  2.5940  2.0995  1.4172  1.4172  0.6510  0.9119  1.0005  1.0005

 Free energy of the ion-electron system (eV)
  ---------------------------------------------------
  alpha Z        PSCENC =       213.84769982
  Ewald energy   TEWEN  =     -3127.77265529
  -Hartree energ DENC   =      -730.71712193
  -exchange      EXHF   =         0.00000000
  -V(xc)+E(xc)   XCENC  =        67.63354980
  PAW double counting   =      3911.39838584    -3843.66452850
  entropy T*S    EENTRO =        -0.00022702
  eigenvalues    EBANDS =      -187.24832161
  atomic energy  EATOM  =      3674.67342263
  Solvation  Ediel_sol  =         0.00000000
  ---------------------------------------------------
  free energy    TOTEN  =       -21.84979627 eV

  energy without entropy =      -21.84956925  energy(sigma->0) =      -21.84968276


--------------------------------------------------------------------------------------------------------




--------------------------------------- Iteration      1(  14)  ---------------------------------------


    POTLOK:  cpu time    0.0436: real time    0.0673
    SETDIJ:  cpu time    0.0901: real time    0.0902
     EDDAV:  cpu time    1.8046: real time    1.8049
       DOS:  cpu time    0.0032: real time    0.0034
    CHARGE:  cpu time    0.2839: real time    0.2840
    MIXING:  cpu time    0.0061: real time    0.0063
    --------------------------------------------
      LOOP:  cpu time    2.2315: real time    2.2578

 eigenvalue-minimisations  :  5160
 total energy-change (2. order) : 0.1468949E-05  (-0.1122303E-05)
 number of electron      37.0000000 magnetization
 augmentation part        5.9538331 magnetization

 Broyden mixing:
  rms(total) = 0.22521E-02    rms(broyden)= 0.22520E-02
  rms(prec ) = 0.24089E-02
  weight for this iteration     100.00

 eigenvalues of (default mixing * dielectric matrix)
  average eigenvalue GAMMA=   1.4272
  2.5868  1.8554  1.8554  1.8408  1.0802  1.0802  0.6495  0.9481  0.9481

 Free energy of the ion-electron system (eV)
  ---------------------------------------------------
  alpha Z        PSCENC =       213.84769982
  Ewald energy   TEWEN  =     -3127.77265529
  -Hartree energ DENC   =      -730.71298327
  -exchange      EXHF   =         0.00000000
  -V(xc)+E(xc)   XCENC  =        67.63373563
  PAW double counting   =      3911.26315845    -3843.53088592
  entropy T*S    EENTRO =        -0.00022551
  eigenvalues    EBANDS =      -187.25106133
  atomic energy  EATOM  =      3674.67342263
  Solvation  Ediel_sol  =         0.00000000
  ---------------------------------------------------
  free energy    TOTEN  =       -21.84979480 eV

  energy without entropy =      -21.84956929  energy(sigma->0) =      -21.84968204


--------------------------------------------------------------------------------------------------------




--------------------------------------- Iteration      1(  15)  ---------------------------------------


    POTLOK:  cpu time    0.0371: real time    0.0696
    SETDIJ:  cpu time    0.0900: real time    0.0901
     EDDAV:  cpu time    2.1227: real time    2.1229
       DOS:  cpu time    0.0028: real time    0.0030
    CHARGE:  cpu time    0.2838: real time    0.2839
    MIXING:  cpu time    0.0061: real time    0.0062
    --------------------------------------------
      LOOP:  cpu time    2.5424: real time    2.5751

 eigenvalue-minimisations  :  6328
 total energy-change (2. order) : 0.2855063E-06  (-0.1751342E-06)
 number of electron      37.0000000 magnetization
 augmentation part        5.9536271 magnetization

 Broyden mixing:
  rms(total) = 0.17178E-03    rms(broyden)= 0.17160E-03
  rms(prec ) = 0.23797E-03
  weight for this iteration     100.00

 eigenvalues of (default mixing * dielectric matrix)
  average eigenvalue GAMMA=   1.4230
  2.7109  2.2038  2.2038  1.3686  1.0624  1.0624  0.6495  1.1016  0.9334  0.9334

 Free energy of the ion-electron system (eV)
  ---------------------------------------------------
  alpha Z        PSCENC =       213.84769982
  Ewald energy   TEWEN  =     -3127.77265529
  -Hartree energ DENC   =      -730.71565668
  -exchange      EXHF   =         0.00000000
  -V(xc)+E(xc)   XCENC  =        67.63420281
  PAW double counting   =      3910.98712524    -3843.25533967
  entropy T*S    EENTRO =        -0.00022497
  eigenvalues    EBANDS =      -187.24836840
  atomic energy  EATOM  =      3674.67342263
  Solvation  Ediel_sol  =         0.00000000
  ---------------------------------------------------
  free energy    TOTEN  =       -21.84979451 eV

  energy without entropy =      -21.84956954  energy(sigma->0) =      -21.84968203


--------------------------------------------------------------------------------------------------------




--------------------------------------- Iteration      1(  16)  ---------------------------------------


    POTLOK:  cpu time    0.0447: real time    0.0716
    SETDIJ:  cpu time    0.0917: real time    0.0918
     EDDAV:  cpu time    1.3865: real time    1.3868
       DOS:  cpu time    0.0030: real time    0.0035
    --------------------------------------------
      LOOP:  cpu time    1.5258: real time    1.5499

 eigenvalue-minimisations  :  3456
 total energy-change (2. order) :-0.6091796E-08  (-0.1773907E-07)
 number of electron      37.0000000 magnetization
 augmentation part        5.9536271 magnetization

 Free energy of the ion-electron system (eV)
  ---------------------------------------------------
  alpha Z        PSCENC =       213.84769982
  Ewald energy   TEWEN  =     -3127.77265529
  -Hartree energ DENC   =      -730.71409553
  -exchange      EXHF   =         0.00000000
  -V(xc)+E(xc)   XCENC  =        67.63412428
  PAW double counting   =      3911.02093529    -3843.28888080
  entropy T*S    EENTRO =        -0.00022477
  eigenvalues    EBANDS =      -187.25012015
  atomic energy  EATOM  =      3674.67342263
  Solvation  Ediel_sol  =         0.00000000
  ---------------------------------------------------
  free energy    TOTEN  =       -21.84979452 eV

  energy without entropy =      -21.84956975  energy(sigma->0) =      -21.84968214


--------------------------------------------------------------------------------------------------------




 average (electrostatic) potential at core
  the test charge radii are     1.1985  1.0856  1.2059
  (the norm of the test charge is              1.0000)
       1 -57.1945       2-102.3459       3 -65.8078



 E-fermi :   8.4873     XC(G=0): -11.0322     alpha+bet :-14.0025


 k-point     1 :       0.0000    0.0000    0.0000
  band No.  band energies     occupation
      1     -31.5788      2.00000
      2     -14.4842      2.00000
      3     -14.4842      2.00000
      4     -14.4509      2.00000
      5     -14.4509      2.00000
      6     -14.4509      2.00000
      7      -9.5675      2.00000
      8      -9.5675      2.00000
      9      -9.5675      2.00000
     10      -3.7560      2.00000
     11       4.1797      2.00000
     12       4.1797      2.00000
     13       4.1797      2.00000
     14       4.3932      2.00000
     15       4.3932      2.00000
     16       6.6014      2.00000
     17       7.3982      2.00000
     18       7.3982      2.00000
     19       7.3982      2.00000
     20       8.7306      0.00000
     21       8.7306      0.00000
     22       8.7306      0.00000
     23       9.5505      0.00000
     24      10.4927      0.00000

 k-point     2 :       0.0769    0.0000   -0.0000
  band No.  band energies     occupation
      1     -31.5784      2.00000
      2     -14.4849      2.00000
      3     -14.4849      2.00000
      4     -14.4510      2.00000
      5     -14.4508      2.00000
      6     -14.4508      2.00000
      7      -9.5839      2.00000
      8      -9.5654      2.00000
      9      -9.5654      2.00000
     10      -3.6952      2.00000
     11       4.0458      2.00000
     12       4.0550      2.00000
     13       4.0550      2.00000
     14       4.5106      2.00000
     15       4.5106      2.00000
     16       6.2851      2.00000
     17       7.3162      2.00000
     18       7.3162      2.00000
     19       7.5969      2.00000
     20       8.8264      0.00000
     21       8.8264      0.00000
     22       8.8349      0.00000
     23       9.7713      0.00000
     24      10.4998      0.00000

 k-point     3 :       0.1538   -0.0000    0.0000
  band No.  band energies     occupation
      1     -31.5776      2.00000
      2     -14.4869      2.00000
      3     -14.4869      2.00000
      4     -14.4515      2.00000
      5     -14.4503      2.00000
      6     -14.4503      2.00000
      7      -9.6279      2.00000
      8      -9.5596      2.00000
      9      -9.5596      2.00000
     10      -3.5267      2.00000
     11       3.7080      2.00000
     12       3.8875      2.00000
     13       3.8875      2.00000
     14       4.6459      2.00000
     15       4.6459      2.00000
     16       5.7809      2.00000
     17       7.1466      2.00000
     18       7.1466      2.00000
     19       7.7500      2.00000
     20       9.0529      0.00000
     21       9.0529      0.00000
     22       9.2910      0.00000
     23      10.1676      0.00000
     24      10.5163      0.00000

 k-point     4 :       0.2308   -0.0000    0.0000
  band No.  band energies     occupation
      1     -31.5764      2.00000
      2     -14.4897      2.00000
      3     -14.4897      2.00000
      4     -14.4522      2.00000
      5     -14.4497      2.00000
      6     -14.4497      2.00000
      7      -9.6861      2.00000
      8      -9.5515      2.00000
      9      -9.5515      2.00000
     10      -3.2887      2.00000
     11       3.2920      2.00000
     12       3.7592      2.00000
     13       3.7592      2.00000
     14       4.6980      2.00000
     15       4.6980      2.00000
     16       5.3354      2.00000
     17       7.0002      2.00000
     18       7.0002      2.00000
     19       7.8302      2.00000
     20       9.3270      0.00000
     21       9.3270      0.00000
     22       9.9116      0.00000
     23      10.4805      0.00000
     24      10.5083      0.00000

 k-point     5 :       0.3077   -0.0000    0.0000
  band No.  band energies     occupation
      1     -31.5751      2.00000
      2     -14.4927      2.00000
      3     -14.4927      2.00000
      4     -14.4530      2.00000
      5     -14.4490      2.00000
      6     -14.4490      2.00000
      7      -9.7435      2.00000
      8      -9.5429      2.00000
      9      -9.5429      2.00000
     10      -3.0352      2.00000
     11       2.9042      2.00000
[...]
  212              fftbas_plan_mpi                       0.082067                     12   6
  213                dfftw_execute                         0.034865                   36   7
  214                map_backward                          0.004846                   12   7
  215                  map_gather                            0.001329                  6   8
  216                  m_alltoallv_z                         0.002096                  6   8
  217                  map_scatter                           0.001121                  6   8
  218                map_forward                           0.039199                   12   7
  219                  map_gather                            0.020179                  6   8
  220                  m_alltoallv_z                         0.006496                  6   8
  221                  map_scatter                           0.012177                  6   8
  222            M_sumb_d                              0.005504                        6   5
  223          M_sumb_d                              0.000029                          1   4
  224        setdij_                               1.498826                           20   3
  225          fft3d_mpi                             0.281173                         40   4
  226            fftbas_plan_mpi                       0.259319                       40   5
  227              dfftw_execute                         0.116634                    120   6
  228              map_backward                          0.017254                     40   6
  229                map_gather                            0.004940                   20   7
  230                m_alltoallv_z                         0.007602                   20   7
  231                map_scatter                           0.003739                   20   7
  232              map_forward                           0.115199                     40   6
  233                map_gather                            0.056054                   20   7
  234                m_alltoallv_z                         0.019926                   20   7
  235                map_scatter                           0.038232                   20   7
  236          M_sumb_d                              0.005558                         20   4
  237        set_dd_magatom                        0.000003                            1   3
  238        set_dd_paw                            0.015906                            1   3
  239          set_rsgf_all                          0.000004                          1   4
  240          M_sumb_d                              0.015736                          8   4
  241        strkin                                0.001179                            1   3
  242          M_sumb_d                              0.000484                          1   4
  243        strelo                                0.003059                            1   3
  244          M_sumb_d                              0.000088                          2   4
  245        strenl                                1.183631                            1   3
  246          spher                                 0.870801                         19   4
  247          phase                                 0.013616                        189   4
  248          proj1                                 0.272452                       1134   4
  249            crexp_mul_wave                        0.034726                     3402   5
  250            M_sumb_d                              0.084413                     1134   5
  251          M_sumb_d                              0.003456                          1   4
  252        M_sumb_d                              0.000269                            6   3
  253        fft3d_mpi                             0.018298                           11   3
  254          fftbas_plan_mpi                       0.016861                         11   4
  255            dfftw_execute                         0.006287                       33   5
  256            map_forward                           0.003663                       10   5
  257              map_gather                            0.000695                      5   6
  258              m_alltoallv_z                         0.001559                      5   6
  259              map_scatter                           0.001166                      5   6
  260            map_backward                          0.004574                       12   5
  261              map_gather                            0.001319                      6   6
  262              m_alltoallv_z                         0.001864                      6   6
  263              map_scatter                           0.001090                      6   6
  264        ggaall_grid                           0.001969                            1   3
  265        forhar                                0.007269                            2   3
  266          M_sumb_d                              0.000125                          2   4
  267        strehar                               0.003165                            1   3
  268          M_sumb_d                              0.000184                          1   4
  269        chggra                                0.007329                            1   3
  270          fft3d_mpi                             0.004886                          3   4
  271            fftbas_plan_mpi                       0.004528                        3   5
  272              dfftw_execute                         0.001717                      9   6
  273              map_backward                          0.000706                      2   6
  274                map_gather                            0.000206                    1   7
  275                m_alltoallv_z                         0.000263                    1   7
  276                map_scatter                           0.000183                    1   7
  277              map_forward                           0.001343                      4   6
  278                map_gather                            0.000272                    2   7
  279                m_alltoallv_z                         0.000488                    2   7
  280                map_scatter                           0.000484                    2   7
  281          M_sumb_d                              0.000115                          3   4
  282        brmix                                 0.024067                            1   3
  283          M_sumb_d                              0.000248                          6   4
  284          brpre                                 0.000053                          1   4
  285          setg0                                 0.001728                          1   4
  286          broyd                                 0.020782                          1   4
  287            M_sumb_d                              0.000801                       18   5
  288            brget                                 0.000362                       64   5
  289            brsav                                 0.000080                       16   5
  290          M_bcast_z                             0.000164                          1   4
  291          M_bcast_d                             0.000053                          1   4
  292        M_bcast_d                             0.000048                            2   3
  293      potlok                                0.031542                              1   2
  294        fft3d_mpi                             0.021137                           13   3
  295          fftbas_plan_mpi                       0.019605                         13   4
  296            dfftw_execute                         0.007106                       39   5
  297            map_forward                           0.004674                       14   5
  298              map_gather                            0.000808                      8   6
  299              m_alltoallv_z                         0.001935                      8   6
  300              map_scatter                           0.001581                      8   6
  301            map_backward                          0.004993                       12   5
  302              map_gather                            0.001496                      6   6
  303              m_alltoallv_z                         0.001919                      6   6
  304              map_scatter                           0.001271                      6   6
  305        ggaall_grid                           0.002058                            1   3
  306        M_sumb_d                              0.000253                            6   3
  307        M_bcast_d                             0.000102                            1   3
  308      potlok_metagga                        0.000003                              1   2
  309      set_dd_magatom                        0.000003                              1   2
  310      set_dd_paw                            0.000489                              1   2
  311        set_rsgf_all                          0.000004                            1   3
  312        M_sumb_d                              0.000279                            8   3
  313      densta                                0.002316                              1   2
  314        M_sumb_d                              0.000821                           39   3
  315      lprj_proall                           0.000007                              1   2

 Flat profile
 ============

             routine name                   CPU           calls
 ---------------------------------------------------------------
 total_time                             13.646771           1
 dfftw_execute                           5.947405       49320
 eddav                                   5.078249          16
 fftbas_plan_mpi                         3.615639       16442
 M_sumb_d                                2.738230       45785
 setdij_                                 2.519676          40
 set_charge                              2.039740          12
 m_alltoallv_z                           1.686106       16465
 pdssyex_zheevx                          1.500964         336
 elmin                                   1.246917           1
 M_alltoall_d                            1.199382       54768
 proj1                                   0.992305        6690
 spher                                   0.971271          20
 orth1                                   0.945857       11190
 vhamil                                  0.908691        7446
 gemm                                    0.867309       22338
 fftwav_mpi                              0.742008        8706
 map_forward                             0.727068       17690
 map_scatter                             0.683815       16465
 map_gather                              0.680882       16465
 M_bcast_z                               0.546282        6274
 vnlac0                                  0.506804        7446
 redis_pw                                0.465775       21036
 hamiltmu                                0.414855        3723
 redis_proj                              0.406911       26487
 w1_copy                                 0.331597       22338
 work_mul_crexp                          0.288664       22338
 fft3d_mpi                               0.283524       16440
 map_backward                            0.267048       15190
 crpa_reader                             0.251698           1
 fftext_mpi                              0.248096        7446
 crexp_mul_wave                          0.219258       20070
 eccp                                    0.206440        2016
 kinhamil                                0.155102        7446
 overl                                   0.144142       12897
 M_bcast_d                               0.121496        3755
 potlok                                  0.105922          13
 pw_charge                               0.096644        1260
 overl1                                  0.090182        7446
 apply_precond                           0.077669        5430
 setup_precond                           0.067735        2016
 lincom                                  0.065180         357
 w1_projall                              0.060177        2715
 force_and_stress                        0.057226           1
 fornl                                   0.051430           1
 phase                                   0.041151         568
 soft_charge                             0.034045          12
 truncate_high_frequency_w1              0.031962        9462
 ggaall_grid                             0.028350          14
 broyd                                   0.027024          12
 densta                                  0.024761          17
 strenl                                  0.023305           1
 brmix                                   0.018186          12
 setg0                                   0.017435          13
 forhar                                  0.007144           2
 depsum                                  0.005278          12
 forloc                                  0.003594           1
 strehar                                 0.002981           1
 strelo                                  0.002971           1
 set_dd_paw                              0.002891          14
 orthch                                  0.002341           1
 chggra                                  0.002328           1
 brget                                   0.002274         432
 choleski                                0.001755          21
 proj                                    0.001556          21
 brgrid                                  0.001211           1
 brsav                                   0.001080         128
 brpre                                   0.000698          12
 strkin                                  0.000695           1
 fordep                                  0.000127           1
 vectorpot                               0.000067          13
 set_rsgf_all                            0.000063          14
 set_dd_magatom                          0.000053          14
 potlok_metagga                          0.000051          13
 set_kineden                             0.000041          11
 rotate_active_occupied_orbital          0.000014           1
 lprj_proall                             0.000007           1
 redis_pw_over_bands                     0.000003           1
 ---------------------------------------------------------------
  summed up times    54.5535829067230

 Accumulative profile
 ====================

             routine name                   CPU           calls
 ---------------------------------------------------------------
 total_time                             54.553583           1
 elmin                                  36.160532           1
 eddav                                  30.149406          16
 fft3d_mpi                              13.845866       16440
 fftbas_plan_mpi                        13.607963       16442
 hamiltmu                                9.587574        3723
 fftwav_mpi                              7.859748        8706
 kinhamil                                6.046499        7446
 dfftw_execute                           5.947405       49320
 fftext_mpi                              5.891398        7446
 force_and_stress                        3.651144           1
 set_charge                              3.473853          12
 setdij_                                 3.143258          40
 M_sumb_d                                2.738230       45785
 map_forward                             2.479548       17690
 vnlac0                                  2.127346        7446
 proj1                                   1.689634        6690
 m_alltoallv_z                           1.686106       16465
 map_backward                            1.565371       15190
 pdssyex_zheevx                          1.500964         336
 w1_projall                              1.448460        2715
 soft_charge                             1.225451          12
 M_alltoall_d                            1.199382       54768
 strenl                                  1.183631           1
 redis_pw                                1.143895       21036
 spher                                   0.971271          20
 orth1                                   0.945857       11190
 redis_proj                              0.928174       26487
 vhamil                                  0.908691        7446
 gemm                                    0.867309       22338
 map_scatter                             0.683815       16465
 map_gather                              0.680882       16465
 M_bcast_z                               0.546282        6274
 fordep                                  0.468138           1
 potlok                                  0.409422          13
 w1_copy                                 0.331597       22338
 eccp                                    0.321183        2016
 work_mul_crexp                          0.288664       22338
 crpa_reader                             0.251698           1
 crexp_mul_wave                          0.219258       20070
 set_dd_paw                              0.171745          14
 overl                                   0.144142       12897
 M_bcast_d                               0.121496        3755
 setup_precond                           0.119156        2016
 pw_charge                               0.096644        1260
 overl1                                  0.090182        7446
 brmix                                   0.088950          12
 apply_precond                           0.077669        5430
 fornl                                   0.068649           1
 lincom                                  0.065180         357
 phase                                   0.041151         568
 densta                                  0.037970          17
 broyd                                   0.035259          12
 orthch                                  0.032139           1
 truncate_high_frequency_w1              0.031962        9462
 proj                                    0.030455          21
 ggaall_grid                             0.028350          14
 setg0                                   0.017435          13
 depsum                                  0.010386          12
 chggra                                  0.007329           1
 forhar                                  0.007269           2
 forloc                                  0.003679           1
 strehar                                 0.003165           1
 strelo                                  0.003059           1
 brget                                   0.002274         432
 choleski                                0.001755          21
 brgrid                                  0.001211           1
 strkin                                  0.001179           1
 brsav                                   0.001080         128
 brpre                                   0.000698          12
 vectorpot                               0.000067          13
 set_rsgf_all                            0.000063          14
 set_dd_magatom                          0.000053          14
 potlok_metagga                          0.000051          13
 set_kineden                             0.000041          11
 rotate_active_occupied_orbital          0.000014           1
 lprj_proall                             0.000007           1
 redis_pw_over_bands                     0.000003           1
 ---------------------------------------------------------------

Profiling took   1.317737  1.567143  0.006242  0.004730 seconds
Profiling took   1.283025 seconds
