<?xml version="1.0" encoding="ISO-8859-1"?>
<modeling>
 <generator>
  <i name="program" type="string">vasp </i>
  <i name="version" type="string">6.0.8  </i>
  <i name="subversion" type="string">29Jun18 (build Jun 13 2019 12:54:44) complex                          parallel </i>
  <i name="platform" type="string">IFC18_CrayMPICH </i>
  <i name="date" type="string">2021 12 05 </i>
  <i name="time" type="string">14:21:47 </i>
 </generator>
 <incar>
  <i type="int" name="KPAR">     4</i>
  <i type="int" name="NPAR">     4</i>
  <i type="int" name="ISTART">     0</i>
  <i type="string" name="PREC"> ACC</i>
  <i type="string" name="ALGO"> Normal</i>
  <i type="logical" name="ADDGRID"> T  </i>
  <i type="int" name="ISPIN">     1</i>
  <i type="int" name="NELMIN">     5</i>
  <i type="int" name="IBRION">    -1</i>
  <i name="EDIFF">      0.00000010</i>
  <i type="int" name="NSW">     0</i>
  <i type="int" name="ISIF">     3</i>
  <i name="ENCUT">    700.00000000</i>
  <i type="logical" name="LREAL"> F  </i>
  <i type="int" name="ISMEAR">     0</i>
  <i name="SIGMA">      0.01000000</i>
  <i type="logical" name="LWAVE"> F  </i>
  <i type="logical" name="LCHARG"> F  </i>
  <i type="logical" name="LVTOT"> F  </i>
  <i type="string" name="ALGO"> Normal</i>
  <i type="string" name="GGA"> PS</i>
  <i name="EDIFF">      0.00000010</i>
  <i type="int" name="ISPIN">     1</i>
 </incar>
 <structure name="primitive_cell" >
  <crystal>
   <varray name="basis" >
    <v>       0.00000000       3.42485900       3.42485900 </v>
    <v>       3.42485900       0.00000000       3.42485900 </v>
    <v>       3.42485900       3.42485900       0.00000000 </v>
   </varray>
   <i name="volume">     80.34485755 </i>
   <varray name="rec_basis" >
    <v>      -0.14599141       0.14599141       0.14599141 </v>
    <v>       0.14599141      -0.14599141       0.14599141 </v>
    <v>       0.14599141       0.14599141      -0.14599141 </v>
   </varray>
  </crystal>
  <varray name="positions" >
   <v>       0.25000000       0.25000000       0.25000000 </v>
   <v>       0.75000000       0.75000000       0.75000000 </v>
   <v>       0.00000000       0.00000000       0.00000000 </v>
  </varray>
 </structure>
 <varray name="primitive_index" >
  <v type="int" >        1 </v>
  <v type="int" >        2 </v>
  <v type="int" >        3 </v>
 </varray>
 <kpoints>
  <generation param="Gamma">
   <v type="int" name="divisions">      13       13       13 </v>
   <v name="usershift">      0.00000000       0.00000000       0.00000000 </v>
   <v name="genvec1">      0.07692308       0.00000000      -0.00000000 </v>
   <v name="genvec2">      0.00000000       0.07692308       0.00000000 </v>
   <v name="genvec3">     -0.00000000      -0.00000000       0.07692308 </v>
   <v name="shift">      0.00000000       0.00000000       0.00000000 </v>
  </generation>
  <varray name="kpointlist" >
   <v>       0.00000000       0.00000000       0.00000000 </v>
   <v>       0.07692308       0.00000000      -0.00000000 </v>
   <v>       0.15384615      -0.00000000       0.00000000 </v>
   <v>       0.23076923      -0.00000000       0.00000000 </v>
   <v>       0.30769231      -0.00000000       0.00000000 </v>
   <v>       0.38461538       0.00000000      -0.00000000 </v>
   <v>       0.46153846       0.00000000      -0.00000000 </v>
   <v>       0.07692308       0.07692308       0.00000000 </v>
   <v>       0.15384615       0.07692308       0.00000000 </v>
   <v>       0.23076923       0.07692308       0.00000000 </v>
   <v>       0.30769231       0.07692308       0.00000000 </v>
   <v>       0.38461538       0.07692308      -0.00000000 </v>
   <v>       0.46153846       0.07692308       0.00000000 </v>
   <v>      -0.46153846       0.07692308      -0.00000000 </v>
   <v>      -0.38461538       0.07692308      -0.00000000 </v>
   <v>      -0.30769231       0.07692308       0.00000000 </v>
   <v>      -0.23076923       0.07692308       0.00000000 </v>
   <v>      -0.15384615       0.07692308      -0.00000000 </v>
   <v>      -0.07692308       0.07692308       0.00000000 </v>
   <v>       0.15384615       0.15384615       0.00000000 </v>
   <v>       0.23076923       0.15384615       0.00000000 </v>
   <v>       0.30769231       0.15384615       0.00000000 </v>
   <v>       0.38461538       0.15384615       0.00000000 </v>
   <v>       0.46153846       0.15384615       0.00000000 </v>
   <v>      -0.46153846       0.15384615       0.00000000 </v>
   <v>      -0.38461538       0.15384615      -0.00000000 </v>
   <v>      -0.30769231       0.15384615       0.00000000 </v>
   <v>      -0.23076923       0.15384615       0.00000000 </v>
   <v>      -0.15384615       0.15384615      -0.00000000 </v>
   <v>       0.23076923       0.23076923       0.00000000 </v>
   <v>       0.30769231       0.23076923       0.00000000 </v>
   <v>       0.38461538       0.23076923       0.00000000 </v>
   <v>       0.46153846       0.23076923       0.00000000 </v>
   <v>      -0.46153846       0.23076923       0.00000000 </v>
   <v>      -0.38461538       0.23076923      -0.00000000 </v>
   <v>      -0.30769231       0.23076923      -0.00000000 </v>
   <v>      -0.23076923       0.23076923      -0.00000000 </v>
   <v>       0.30769231       0.30769231       0.00000000 </v>
   <v>       0.38461538       0.30769231       0.00000000 </v>
   <v>       0.46153846       0.30769231       0.00000000 </v>
   <v>      -0.46153846       0.30769231      -0.00000000 </v>
   <v>      -0.38461538       0.30769231       0.00000000 </v>
   <v>      -0.30769231       0.30769231      -0.00000000 </v>
   <v>       0.38461538       0.38461538       0.00000000 </v>
   <v>       0.46153846       0.38461538       0.00000000 </v>
   <v>      -0.46153846       0.38461538      -0.00000000 </v>
   <v>      -0.38461538       0.38461538       0.00000000 </v>
   <v>       0.46153846       0.46153846       0.00000000 </v>
   <v>      -0.46153846       0.46153846       0.00000000 </v>
   <v>       0.23076923       0.15384615       0.07692308 </v>
   <v>       0.30769231       0.15384615       0.07692308 </v>
   <v>       0.38461538       0.15384615       0.07692308 </v>
   <v>       0.46153846       0.15384615       0.07692308 </v>
   <v>      -0.46153846       0.15384615       0.07692308 </v>
   <v>       0.30769231       0.23076923       0.07692308 </v>
   <v>       0.38461538       0.23076923       0.07692308 </v>
   <v>       0.46153846       0.23076923       0.07692308 </v>
   <v>      -0.46153846       0.23076923       0.07692308 </v>
   <v>      -0.38461538       0.23076923       0.07692308 </v>
   <v>      -0.30769231       0.23076923       0.07692308 </v>
   <v>      -0.23076923       0.23076923       0.07692308 </v>
   <v>      -0.15384615       0.23076923       0.07692308 </v>
   <v>       0.38461538       0.30769231       0.07692308 </v>
   <v>       0.46153846       0.30769231       0.07692308 </v>
   <v>      -0.46153846       0.30769231       0.07692308 </v>
   <v>      -0.38461538       0.30769231       0.07692308 </v>
   <v>      -0.30769231       0.30769231       0.07692308 </v>
   <v>      -0.23076923       0.30769231       0.07692308 </v>
   <v>       0.46153846       0.38461538       0.07692308 </v>
   <v>      -0.46153846       0.38461538       0.07692308 </v>
   <v>      -0.38461538       0.38461538       0.07692308 </v>
   <v>      -0.30769231       0.38461538       0.07692308 </v>
   <v>      -0.46153846       0.46153846       0.07692308 </v>
   <v>      -0.38461538       0.46153846       0.07692308 </v>
   <v>       0.46153846       0.30769231       0.15384615 </v>
   <v>      -0.46153846       0.30769231       0.15384615 </v>
   <v>      -0.38461538       0.30769231       0.15384615 </v>
   <v>      -0.46153846       0.38461538       0.15384615 </v>
   <v>      -0.38461538       0.38461538       0.15384615 </v>
   <v>      -0.30769231       0.38461538       0.15384615 </v>
   <v>      -0.23076923       0.38461538       0.15384615 </v>
   <v>      -0.38461538       0.46153846       0.15384615 </v>
   <v>      -0.30769231       0.46153846       0.15384615 </v>
   <v>      -0.30769231       0.46153846       0.23076923 </v>
  </varray>
  <varray name="weights" >
   <v>       0.00045517 </v>
   <v>       0.00364133 </v>
   <v>       0.00364133 </v>
   <v>       0.00364133 </v>
   <v>       0.00364133 </v>
   <v>       0.00364133 </v>
   <v>       0.00364133 </v>
   <v>       0.00273100 </v>
   <v>       0.01092399 </v>
   <v>       0.01092399 </v>
   <v>       0.01092399 </v>
   <v>       0.01092399 </v>
   <v>       0.01092399 </v>
   <v>       0.01092399 </v>
   <v>       0.01092399 </v>
   <v>       0.01092399 </v>
   <v>       0.01092399 </v>
   <v>       0.01092399 </v>
   <v>       0.00546199 </v>
   <v>       0.00273100 </v>
   <v>       0.01092399 </v>
   <v>       0.01092399 </v>
   <v>       0.01092399 </v>
   <v>       0.01092399 </v>
   <v>       0.01092399 </v>
   <v>       0.01092399 </v>
   <v>       0.01092399 </v>
   <v>       0.01092399 </v>
   <v>       0.00546199 </v>
   <v>       0.00273100 </v>
   <v>       0.01092399 </v>
   <v>       0.01092399 </v>
   <v>       0.01092399 </v>
   <v>       0.01092399 </v>
   <v>       0.01092399 </v>
   <v>       0.01092399 </v>
   <v>       0.00546199 </v>
   <v>       0.00273100 </v>
   <v>       0.01092399 </v>
   <v>       0.01092399 </v>
   <v>       0.01092399 </v>
   <v>       0.01092399 </v>
   <v>       0.00546199 </v>
   <v>       0.00273100 </v>
   <v>       0.01092399 </v>
   <v>       0.01092399 </v>
   <v>       0.00546199 </v>
   <v>       0.00273100 </v>
   <v>       0.00546199 </v>
   <v>       0.01092399 </v>
   <v>       0.02184797 </v>
   <v>       0.02184797 </v>
   <v>       0.02184797 </v>
   <v>       0.02184797 </v>
   <v>       0.01092399 </v>
   <v>       0.02184797 </v>
   <v>       0.02184797 </v>
   <v>       0.02184797 </v>
   <v>       0.02184797 </v>
   <v>       0.02184797 </v>
   <v>       0.02184797 </v>
   <v>       0.01092399 </v>
   <v>       0.01092399 </v>
   <v>       0.02184797 </v>
   <v>       0.02184797 </v>
   <v>       0.02184797 </v>
   <v>       0.02184797 </v>
   <v>       0.01092399 </v>
   <v>       0.01092399 </v>
   <v>       0.02184797 </v>
   <v>       0.02184797 </v>
   <v>       0.01092399 </v>
   <v>       0.01092399 </v>
   <v>       0.01092399 </v>
   <v>       0.01092399 </v>
   <v>       0.02184797 </v>
   <v>       0.02184797 </v>
   <v>       0.01092399 </v>
   <v>       0.02184797 </v>
   <v>       0.02184797 </v>
   <v>       0.01092399 </v>
   <v>       0.01092399 </v>
   <v>       0.01092399 </v>
   <v>       0.01092399 </v>
  </varray>
 </kpoints>
 <parameters>
  <separator name="general" >
   <i type="string" name="SYSTEM">unknown system</i>
   <i type="logical" name="LCOMPAT"> F  </i>
  </separator>
  <separator name="electronic" >
   <i type="string" name="PREC">acc</i>
   <i name="ENMAX">    700.00000000</i>
   <i name="ENAUG">    535.43100000</i>
   <i name="EDIFF">      0.00000010</i>
   <i type="int" name="IALGO">    38</i>
   <i type="int" name="IWAVPR">    10</i>
   <i type="int" name="NBANDS">    24</i>
   <i type="int" name="NBANDSLOW">    -1</i>
   <i type="int" name="NBANDSHIGH">    -1</i>
   <i name="NELECT">     37.00000000</i>
   <i type="int" name="TURBO">     0</i>
   <i type="int" name="IRESTART">     0</i>
   <i type="int" name="NREBOOT">     0</i>
   <i type="int" name="NMIN">     0</i>
   <i name="EREF">      0.00000000</i>
   <separator name="electronic smearing" >
    <i type="int" name="ISMEAR">     0</i>
    <i name="SIGMA">      0.01000000</i>
    <i name="KSPACING">      0.50000000</i>
    <i type="logical" name="KGAMMA"> T  </i>
    <i type="logical" name="KBLOWUP"> T  </i>
   </separator>
   <separator name="electronic projectors" >
    <i type="logical" name="LREAL"> F  </i>
    <v name="ROPT">      0.00000000      0.00000000      0.00000000</v>
    <i type="int" name="LMAXPAW">  -100</i>
    <i type="int" name="LMAXMIX">     2</i>
    <i type="logical" name="NLSPLINE"> F  </i>
   </separator>
   <separator name="electronic startup" >
    <i type="int" name="ISTART">     0</i>
    <i type="int" name="ICHARG">     2</i>
    <i type="int" name="INIWAV">     1</i>
   </separator>
   <separator name="electronic spin" >
    <i type="int" name="ISPIN">     1</i>
    <i type="logical" name="LNONCOLLINEAR"> F  </i>
    <v name="MAGMOM">      1.00000000      1.00000000      1.00000000</v>
    <i name="NUPDOWN">     -1.00000000</i>
    <i type="logical" name="LSORBIT"> F  </i>
    <v name="SAXIS">      0.00000000      0.00000000      1.00000000</v>
    <i type="logical" name="LSPIRAL"> F  </i>
    <v name="QSPIRAL">      0.00000000      0.00000000      0.00000000</v>
    <i type="logical" name="LZEROZ"> F  </i>
   </separator>
   <separator name="electronic exchange-correlation" >
    <i type="logical" name="LASPH"> F  </i>
    <i type="logical" name="LMETAGGA"> F  </i>
   </separator>
   <separator name="electronic convergence" >
    <i type="int" name="NELM">    60</i>
    <i type="int" name="NELMDL">    -5</i>
    <i type="int" name="NELMIN">     5</i>
    <i name="ENINI">    700.00000000</i>
    <separator name="electronic convergence detail" >
     <i type="logical" name="LDIAG"> T  </i>
     <i type="logical" name="LSUBROT"> F  </i>
     <i name="WEIMIN">      0.00000000</i>
     <i name="EBREAK">      0.00000000</i>
     <i name="DEPER">      0.30000000</i>
     <i type="int" name="NRMM">     4</i>
     <i name="TIME">      0.40000000</i>
    </separator>
   </separator>
   <separator name="electronic mixer" >
    <i name="AMIX">      0.40000000</i>
    <i name="BMIX">      1.00000000</i>
    <i name="AMIN">      0.10000000</i>
    <i name="AMIX_MAG">      1.60000000</i>
    <i name="BMIX_MAG">      1.00000000</i>
    <separator name="electronic mixer details" >
     <i type="int" name="IMIX">     4</i>
     <i type="logical" name="MIXFIRST"> F  </i>
     <i type="int" name="MAXMIX">   -45</i>
     <i name="WC">    100.00000000</i>
     <i type="int" name="INIMIX">     1</i>
     <i type="int" name="MIXPRE">     1</i>
     <i type="int" name="MREMOVE">     5</i>
    </separator>
   </separator>
   <separator name="electronic dipolcorrection" >
    <i type="logical" name="LDIPOL"> F  </i>
    <i type="logical" name="LMONO"> F  </i>
    <i type="int" name="IDIPOL">     0</i>
    <i name="EPSILON">      1.00000000</i>
    <v name="DIPOL">   -100.00000000   -100.00000000   -100.00000000</v>
    <i name="EFIELD">      0.00000000</i>
   </separator>
  </separator>
  <separator name="grids" >
   <i type="int" name="NGX">    42</i>
   <i type="int" name="NGY">    42</i>
   <i type="int" name="NGZ">    42</i>
   <i type="int" name="NGXF">    84</i>
   <i type="int" name="NGYF">    84</i>
   <i type="int" name="NGZF">    84</i>
   <i type="logical" name="ADDGRID"> T  </i>
  </separator>
  <separator name="ionic" >
   <i type="int" name="NSW">     0</i>
   <i type="int" name="IBRION">    -1</i>
   <i type="int" name="MDALGO">     0</i>
   <i type="int" name="ISIF">     3</i>
   <i name="PSTRESS">      0.00000000</i>
   <i name="EDIFFG">      0.00000100</i>
   <i type="int" name="NFREE">     0</i>
   <i name="POTIM">      0.50000000</i>
   <i name="SMASS">     -3.00000000</i>
   <i name="SCALEE">      1.00000000</i>
  </separator>
  <separator name="ionic md" >
   <i name="TEBEG">      0.00010000</i>
   <i name="TEEND">      0.00010000</i>
   <i type="int" name="NBLOCK">     1</i>
   <i type="int" name="KBLOCK">     1</i>
   <i type="int" name="NPACO">   256</i>
   <i name="APACO">     16.00000000</i>
  </separator>
  <separator name="symmetry" >
   <i type="int" name="ISYM">     2</i>
   <i name="SYMPREC">      0.00001000</i>
  </separator>
  <separator name="dos" >
   <i type="int" name="LORBIT">     0</i>
   <v name="RWIGS">     -1.00000000     -1.00000000     -1.00000000</v>
   <i type="int" name="NEDOS">   301</i>
   <i name="EMIN">     10.00000000</i>
   <i name="EMAX">    -10.00000000</i>
   <i name="EFERMI">      0.00000000</i>
  </separator>
  <separator name="writing" >
   <i type="int" name="NWRITE">     2</i>
   <i type="logical" name="LWAVE"> F  </i>
   <i type="logical" name="LDOWNSAMPLE"> F  </i>
   <i type="logical" name="LCHARG"> F  </i>
   <i type="logical" name="LPARD"> F  </i>
   <i type="logical" name="LVTOT"> F  </i>
   <i type="logical" name="LVHAR"> F  </i>
   <i type="logical" name="LELF"> F  </i>
   <i type="logical" name="LOPTICS"> F  </i>
   <v name="STM">      0.00000000      0.00000000      0.00000000      0.00000000      0.00000000      0.00000000      0.00000000</v>
  </separator>
  <separator name="performance" >
   <i type="int" name="NPAR">     4</i>
   <i type="int" name="NSIM">     4</i>
   <i type="int" name="NBLK">    -1</i>
   <i type="logical" name="LPLANE"> T  </i>
   <i type="logical" name="LSCALAPACK"> T  </i>
   <i type="logical" name="LSCAAWARE"> F  </i>
   <i type="logical" name="LSCALU"> F  </i>
   <i type="logical" name="LASYNC"> F  </i>
   <i type="logical" name="LORBITALREAL"> F  </i>
  </separator>
  <separator name="miscellaneous" >
   <i type="int" name="IDIOT">     3</i>
   <i type="int" name="PHON_NSTRUCT">    -1</i>
   <i type="logical" name="LMUSIC"> F  </i>
   <v name="POMASS">    232.03900000    208.98000000    195.08000000</v>
   <v name="DARWINR">      0.00000000      0.00000000      0.00000000</v>
   <v name="DARWINV">      1.00000000      1.00000000      1.00000000</v>
   <i type="logical" name="LCORR"> T  </i>
  </separator>
  <i type="logical" name="GGA_COMPAT"> T  </i>
  <i type="logical" name="LBERRY"> F  </i>
  <i type="int" name="ICORELEVEL">     0</i>
  <i type="logical" name="LDAU"> F  </i>
  <i type="int" name="I_CONSTRAINED_M">     0</i>
  <separator name="electronic exchange-correlation" >
   <i type="string" name="GGA">PS</i>
   <i type="int" name="VOSKOWN">     0</i>
   <i type="logical" name="LHFCALC"> F  </i>
   <i type="string" name="PRECFOCK"></i>
   <i type="logical" name="LSYMGRAD"> F  </i>
   <i type="logical" name="LHFONE"> F  </i>
   <i type="logical" name="LRHFCALC"> F  </i>
   <i type="logical" name="LTHOMAS"> F  </i>
   <i type="logical" name="LMODELHF"> F  </i>
   <i type="logical" name="LFOCKACE"> F  </i>
   <i name="ENCUT4O">     -1.00000000</i>
   <i type="int" name="EXXOEP">     0</i>
   <i type="int" name="FOURORBIT">     0</i>
   <i name="AEXX">      0.00000000</i>
   <i name="HFALPHA">      0.00000000</i>
   <i name="MCALPHA">      0.00000000</i>
   <i name="ALDAX">      1.00000000</i>
   <i name="AGGAX">      1.00000000</i>
   <i name="ALDAC">      1.00000000</i>
   <i name="AGGAC">      1.00000000</i>
   <i type="int" name="NKREDX">     1</i>
   <i type="int" name="NKREDY">     1</i>
   <i type="int" name="NKREDZ">     1</i>
   <i type="logical" name="SHIFTRED"> F  </i>
   <i type="logical" name="ODDONLY"> F  </i>
   <i type="logical" name="EVENONLY"> F  </i>
   <i type="int" name="LMAXFOCK">     0</i>
   <i type="int" name="NMAXFOCKAE">     0</i>
   <i type="logical" name="LFOCKAEDFT"> F  </i>
   <i name="HFSCREEN">      0.00000000</i>
   <i name="HFSCREENC">      0.00000000</i>
   <i type="int" name="NBANDSGWLOW">     0</i>
  </separator>
  <separator name="vdW DFT" >
   <i type="logical" name="LUSE_VDW"> F  </i>
   <i name="Zab_VDW">     -0.84910000</i>
   <i name="PARAM1">      0.12340000</i>
   <i name="PARAM2">      1.00000000</i>
   <i name="PARAM3">      0.00000000</i>
  </separator>
  <separator name="model GW" >
   <i type="int" name="MODEL_GW">     0</i>
   <i name="MODEL_EPS0">     16.06897151</i>
   <i name="MODEL_ALPHA">      1.00000000</i>
  </separator>
  <separator name="linear response parameters" >
   <i type="logical" name="LEPSILON"> F  </i>
   <i type="logical" name="LRPA"> F  </i>
   <i type="logical" name="LNABLA"> F  </i>
   <i type="logical" name="LVEL"> F  </i>
   <i type="int" name="KINTER">     0</i>
   <i name="CSHIFT">      0.10000000</i>
   <i name="OMEGAMAX">     -1.00000000</i>
   <i name="DEG_THRESHOLD">      0.00200000</i>
   <i name="RTIME">     -0.10000000</i>
   <i name="WPLASMAI">      0.00000000</i>
   <v name="DFIELD">      0.00000000      0.00000000      0.00000000</v>
   <v name="WPLASMA">      0.00000000      0.00000000      0.00000000      0.00000000      0.00000000      0.00000000      0.00000000      0.00000000      0.00000000</v>
  </separator>
  <separator name="orbital magnetization" >
   <i type="logical" name="NUCIND"> F  </i>
   <v name="MAGPOS">      0.00000000      0.00000000      0.00000000</v>
   <i type="logical" name="LNICSALL"> T  </i>
   <i type="logical" name="ORBITALMAG"> F  </i>
   <i type="logical" name="LMAGBLOCH"> F  </i>
   <i type="logical" name="LCHIMAG"> F  </i>
   <i type="logical" name="LGAUGE"> T  </i>
   <i type="int" name="MAGATOM">     0</i>
   <v name="MAGDIPOL">      0.00000000      0.00000000      0.00000000</v>
   <v name="AVECCONST">      0.00000000      0.00000000      0.00000000</v>
  </separator>
  <separator name="response functions" >
   <i type="logical" name="LFINITE_TEMPERATURE"> F  </i>
   <i type="logical" name="LADDER"> F  </i>
   <i type="logical" name="LRPAFORCE"> F  </i>
   <i type="logical" name="LFXC"> F  </i>
   <i type="logical" name="LHARTREE"> T  </i>
   <i type="int" name="IBSE">     0</i>
   <v type="int" name="KPOINT">    -1     0     0     0</v>
   <i type="logical" name="LTCTC"> F  </i>
   <i type="logical" name="LTCTE"> F  </i>
   <i type="logical" name="LTETE"> F  </i>
   <i type="logical" name="LTRIPLET"> F  </i>
   <i type="logical" name="LFXCEPS"> F  </i>
   <i type="logical" name="LFXHEG"> F  </i>
   <i type="int" name="NATURALO">     2</i>
   <i type="logical" name="L2ORDER"> F  </i>
   <i type="logical" name="LDMP1"> F  </i>
   <i type="logical" name="LMP2LT"> F  </i>
   <i type="logical" name="LSMP2LT"> F  </i>
   <i type="logical" name="LUSEW"> F  </i>
   <i name="ENCUTGW">     -2.00000000</i>
   <i name="ENCUTGWSOFT">     -2.00000000</i>
   <i name="ENCUTLF">     -1.00000000</i>
   <i type="int" name="LMAXMP2">    -1</i>
   <i name="SCISSOR">      0.00000000</i>
   <i type="int" name="NOMEGA">     0</i>
   <i type="int" name="NOMEGAR">     0</i>
   <i type="int" name="NBANDSGW">    -1</i>
   <i type="int" name="NBANDSO">    -1</i>
   <i type="int" name="NBANDSV">    -1</i>
   <i type="int" name="NELM">     1</i>
   <i type="int" name="NELMHF">     1</i>
   <i type="int" name="DIM">     3</i>
   <i type="int" name="IESPILON">     4</i>
   <i type="int" name="ANTIRES">     0</i>
   <i name="OMEGAMAX">    -30.00000000</i>
   <i name="OMEGAMIN">    -30.00000000</i>
   <i name="OMEGATL">   -200.00000000</i>
   <i type="int" name="OMEGAGRID">   145</i>
   <i name="CSHIFT">     -0.10000000</i>
   <i type="logical" name="LSELFENERGY"> F  </i>
   <i type="logical" name="LSPECTRAL"> F  </i>
   <i type="logical" name="LSPECTRALGW"> F  </i>
   <i type="logical" name="LSINGLES"> F  </i>
   <i type="logical" name="LFERMIGW"> F  </i>
   <i type="logical" name="ODDONLYGW"> F  </i>
   <i type="logical" name="EVENONLYGW"> F  </i>
   <i type="int" name="NKREDLFX">     1</i>
   <i type="int" name="NKREDLFY">     1</i>
   <i type="int" name="NKREDLFZ">     1</i>
   <i type="int" name="MAXMEM">  2800</i>
   <i type="int" name="TELESCOPE">     0</i>
   <i type="int" name="NTAUPAR">     1</i>
   <i type="int" name="NOMEGAPAR">    -1</i>
   <i name="LAMBDA">      1.00000000</i>
  </separator>
  <separator name="External order field" >
   <i name="OFIELD_KAPPA">      0.00000000</i>
   <v name="OFIELD_K">      0.00000000      0.00000000      0.00000000</v>
   <i name="OFIELD_Q6_NEAR">      0.00000000</i>
   <i name="OFIELD_Q6_FAR">      0.00000000</i>
   <i name="OFIELD_A">      0.00000000</i>
  </separator>
 </parameters>
 <atominfo>
  <atoms>       3 </atoms>
  <types>       3 </types>
  <array name="atoms" >
   <dimension dim="1">ion</dimension>
   <field type="string">element</field>
   <field type="int">atomtype</field>
   <set>
    <rc><c>Th</c><c>   1</c></rc>
    <rc><c>Bi</c><c>   2</c></rc>
    <rc><c>Pt</c><c>   3</c></rc>
   </set>
  </array>
  <array name="atomtypes" >
   <dimension dim="1">type</dimension>
   <field type="int">atomspertype</field>
   <field type="string">element</field>
   <field>mass</field>
   <field>valence</field>
   <field type="string">pseudopotential</field>
   <set>
    <rc><c>   1</c><c>Th</c><c>    232.03900000</c><c>     12.00000000</c><c>  PAW_PBE Th 07Sep2000                  </c></rc>
    <rc><c>   1</c><c>Bi</c><c>    208.98000000</c><c>     15.00000000</c><c>  PAW_PBE Bi_d 06Sep2000                </c></rc>
    <rc><c>   1</c><c>Pt</c><c>    195.08000000</c><c>     10.00000000</c><c>  PAW_PBE Pt 04Feb2005                  </c></rc>
   </set>
  </array>
 </atominfo>
 <structure name="initialpos" >
  <crystal>
   <varray name="basis" >
    <v>       0.00000000       3.42485900       3.42485900 </v>
    <v>       3.42485900       0.00000000       3.42485900 </v>
    <v>       3.42485900       3.42485900       0.00000000 </v>
   </varray>
   <i name="volume">     80.34485755 </i>
   <varray name="rec_basis" >
    <v>      -0.14599141       0.14599141       0.14599141 </v>
    <v>       0.14599141      -0.14599141       0.14599141 </v>
    <v>       0.14599141       0.14599141      -0.14599141 </v>
   </varray>
  </crystal>
  <varray name="positions" >
   <v>       0.25000000       0.25000000       0.25000000 </v>
   <v>       0.75000000       0.75000000       0.75000000 </v>
   <v>       0.00000000       0.00000000       0.00000000 </v>
  </varray>
 </structure>
 <calculation>
  <scstep>
   <time name="dav">    1.53    1.56</time>
   <time name="total">    1.69    1.82</time>
   <energy>
    <i name="alphaZ">    213.84769982 </i>
    <i name="ewald">  -3127.77265529 </i>
    <i name="hartreedc">   -756.48664056 </i>
    <i name="XCdc">     68.30107805 </i>
    <i name="pawpsdc">   3147.30828992 </i>
    <i name="pawaedc">  -3070.62761383 </i>
    <i name="eentropy">     -0.00032037 </i>
    <i name="bandstr">    295.97098807 </i>
    <i name="atom">   3674.67342263 </i>
    <i name="e_fr_energy">    445.21424844 </i>
    <i name="e_wo_entrp">    445.21456881 </i>
    <i name="e_0_energy">    445.21440862 </i>
   </energy>
  </scstep>
  <scstep>
   <time name="dav">    1.55    1.63</time>
   <time name="total">    1.55    1.64</time>
   <energy>
    <i name="e_fr_energy">     46.33648047 </i>
    <i name="e_wo_entrp">     46.33685532 </i>
    <i name="e_0_energy">     46.33666790 </i>
   </energy>
  </scstep>
  <scstep>
   <time name="dav">    1.92    1.95</time>
   <time name="total">    1.92    1.95</time>
   <energy>
    <i name="e_fr_energy">    -18.60494632 </i>
    <i name="e_wo_entrp">    -18.60469410 </i>
    <i name="e_0_energy">    -18.60482021 </i>
   </energy>
  </scstep>
  <scstep>
   <time name="dav">    2.43    2.46</time>
   <time name="total">    2.43    2.47</time>
   <energy>
    <i name="e_fr_energy">    -22.82345361 </i>
    <i name="e_wo_entrp">    -22.82338093 </i>
    <i name="e_0_energy">    -22.82341727 </i>
   </energy>
  </scstep>
  <scstep>
   <time name="dav">    1.99    2.01</time>
   <time name="total">    2.34    2.36</time>
   <energy>
    <i name="e_fr_energy">    -22.94091298 </i>
    <i name="e_wo_entrp">    -22.94084028 </i>
    <i name="e_0_energy">    -22.94087663 </i>
   </energy>
  </scstep>
  <scstep>
   <time name="dav">    1.78    1.78</time>
   <time name="total">    2.23    2.26</time>
   <energy>
    <i name="e_fr_energy">    -22.03146816 </i>
    <i name="e_wo_entrp">    -22.03130439 </i>
    <i name="e_0_energy">    -22.03138627 </i>
   </energy>
  </scstep>
  <scstep>
   <time name="dav">    2.05    2.05</time>
   <time name="total">    2.47    2.50</time>
   <energy>
    <i name="e_fr_energy">    -21.91119330 </i>
    <i name="e_wo_entrp">    -21.91076142 </i>
    <i name="e_0_energy">    -21.91097736 </i>
   </energy>
  </scstep>
  <scstep>
   <time name="dav">    1.78    1.78</time>
   <time name="total">    2.20    2.23</time>
   <energy>
    <i name="e_fr_energy">    -21.86454578 </i>
    <i name="e_wo_entrp">    -21.86443586 </i>
    <i name="e_0_energy">    -21.86449082 </i>
   </energy>
  </scstep>
  <scstep>
   <time name="dav">    2.03    2.03</time>
   <time name="total">    2.45    2.48</time>
   <energy>
    <i name="e_fr_energy">    -21.85535463 </i>
    <i name="e_wo_entrp">    -21.85507273 </i>
    <i name="e_0_energy">    -21.85521368 </i>
   </energy>
  </scstep>
  <scstep>
   <time name="dav">    1.72    1.72</time>
   <time name="total">    2.14    2.17</time>
   <energy>
    <i name="e_fr_energy">    -21.84971500 </i>
    <i name="e_wo_entrp">    -21.84950467 </i>
    <i name="e_0_energy">    -21.84960984 </i>
   </energy>
  </scstep>
  <scstep>
   <time name="dav">    2.02    2.02</time>
   <time name="total">    2.44    2.48</time>
   <energy>
    <i name="e_fr_energy">    -21.84991199 </i>
    <i name="e_wo_entrp">    -21.84970042 </i>
    <i name="e_0_energy">    -21.84980621 </i>
   </energy>
  </scstep>
  <scstep>
   <time name="dav">    1.90    1.91</time>
   <time name="total">    2.32    2.37</time>
   <energy>
    <i name="e_fr_energy">    -21.84979886 </i>
    <i name="e_wo_entrp">    -21.84957636 </i>
    <i name="e_0_energy">    -21.84968761 </i>
   </energy>
  </scstep>
  <scstep>
   <time name="dav">    2.14    2.14</time>
   <time name="total">    2.56    2.59</time>
   <energy>
    <i name="e_fr_energy">    -21.84979627 </i>
    <i name="e_wo_entrp">    -21.84956925 </i>
    <i name="e_0_energy">    -21.84968276 </i>
   </energy>
  </scstep>
  <scstep>
   <time name="dav">    1.80    1.80</time>
   <time name="total">    2.23    2.26</time>
   <energy>
    <i name="e_fr_energy">    -21.84979480 </i>
    <i name="e_wo_entrp">    -21.84956929 </i>
    <i name="e_0_energy">    -21.84968204 </i>
   </energy>
  </scstep>
  <scstep>
   <time name="dav">    2.12    2.12</time>
   <time name="total">    2.54    2.58</time>
   <energy>
    <i name="e_fr_energy">    -21.84979451 </i>
    <i name="e_wo_entrp">    -21.84956954 </i>
    <i name="e_0_energy">    -21.84968203 </i>
   </energy>
  </scstep>
  <scstep>
   <time name="dav">    1.39    1.39</time>
   <time name="total">    1.53    1.55</time>
   <energy>
    <i name="alphaZ">    213.84769982 </i>
    <i name="ewald">  -3127.77265529 </i>
    <i name="hartreedc">   -730.71409553 </i>
    <i name="XCdc">     67.63412428 </i>
    <i name="pawpsdc">   3911.02093529 </i>
    <i name="pawaedc">  -3843.28888080 </i>
    <i name="eentropy">     -0.00022477 </i>
    <i name="bandstr">   -187.25012015 </i>
    <i name="atom">   3674.67342263 </i>
    <i name="e_fr_energy">    -21.84979452 </i>
    <i name="e_wo_entrp">    -21.84956975 </i>
    <i name="e_0_energy">    -21.84968214 </i>
   </energy>
  </scstep>
  <structure>
   <crystal>
    <varray name="basis" >
     <v>       0.00000000       3.42485900       3.42485900 </v>
     <v>       3.42485900       0.00000000       3.42485900 </v>
     <v>       3.42485900       3.42485900       0.00000000 </v>
    </varray>
    <i name="volume">     80.34485755 </i>
    <varray name="rec_basis" >
     <v>      -0.14599141       0.14599141       0.14599141 </v>
     <v>       0.14599141      -0.14599141       0.14599141 </v>
     <v>       0.14599141       0.14599141      -0.14599141 </v>
    </varray>
   </crystal>
   <varray name="positions" >
    <v>       0.25000000       0.25000000       0.25000000 </v>
    <v>       0.75000000       0.75000000       0.75000000 </v>
    <v>       0.00000000       0.00000000       0.00000000 </v>
   </varray>
  </structure>
  <varray name="forces" >
   <v>       0.00000000       0.00000000       0.00000000 </v>
   <v>       0.00000000       0.00000000       0.00000000 </v>
   <v>      -0.00000000      -0.00000000      -0.00000000 </v>
  </varray>
  <varray name="stress" >
   <v>       0.61571997       0.00000000       0.00000000 </v>
   <v>       0.00000000       0.61571997       0.00000000 </v>
   <v>       0.00000000       0.00000000       0.61571997 </v>
  </varray>
  <energy>
   <i name="e_fr_energy">    -21.84979452 </i>
   <i name="e_wo_entrp">    -21.84968214 </i>
   <i name="e_0_energy">     -0.00022477 </i>
  </energy>
  <time name="totalsc">   38.95   39.99</time>
  <eigenvalues>
   <array>
    <dimension dim="1">band</dimension>
    <dimension dim="2">kpoint</dimension>
    <dimension dim="3">spin</dimension>
    <field>eigene</field>
    <field>occ</field>
    <set>
     <set comment="spin 1">
      <set comment="kpoint 1">
       <r>  -31.5788    1.0000 </r>
       <r>  -14.4842    1.0000 </r>
       <r>  -14.4842    1.0000 </r>
       <r>  -14.4509    1.0000 </r>
       <r>  -14.4509    1.0000 </r>
       <r>  -14.4509    1.0000 </r>
       <r>   -9.5675    1.0000 </r>
       <r>   -9.5675    1.0000 </r>
       <r>   -9.5675    1.0000 </r>
       <r>   -3.7560    1.0000 </r>
       <r>    4.1797    1.0000 </r>
       <r>    4.1797    1.0000 </r>
       <r>    4.1797    1.0000 </r>
       <r>    4.3932    1.0000 </r>
       <r>    4.3932    1.0000 </r>
       <r>    6.6014    1.0000 </r>
       <r>    7.3982    1.0000 </r>
       <r>    7.3982    1.0000 </r>
       <r>    7.3982    1.0000 </r>
       <r>    8.7306    0.0000 </r>
       <r>    8.7306    0.0000 </r>
       <r>    8.7306    0.0000 </r>
       <r>    9.5505    0.0000 </r>
       <r>   10.4927    0.0000 </r>
      </set>
      <set comment="kpoint 2">
       <r>  -31.5784    1.0000 </r>
       <r>  -14.4849    1.0000 </r>
       <r>  -14.4849    1.0000 </r>
       <r>  -14.4510    1.0000 </r>
       <r>  -14.4508    1.0000 </r>
       <r>  -14.4508    1.0000 </r>
       <r>   -9.5839    1.0000 </r>
       <r>   -9.5654    1.0000 </r>
       <r>   -9.5654    1.0000 </r>
       <r>   -3.6952    1.0000 </r>
       <r>    4.0458    1.0000 </r>
       <r>    4.0550    1.0000 </r>
       <r>    4.0550    1.0000 </r>
       <r>    4.5106    1.0000 </r>
       <r>    4.5106    1.0000 </r>
       <r>    6.2851    1.0000 </r>
       <r>    7.3162    1.0000 </r>
       <r>    7.3162    1.0000 </r>
       <r>    7.5969    1.0000 </r>
       <r>    8.8264    0.0000 </r>
       <r>    8.8264    0.0000 </r>
       <r>    8.8349    0.0000 </r>
       <r>    9.7713    0.0000 </r>
       <r>   10.4998    0.0000 </r>
      </set>
      <set comment="kpoint 3">
       <r>  -31.5776    1.0000 </r>
       <r>  -14.4869    1.0000 </r>
       <r>  -14.4869    1.0000 </r>
       <r>  -14.4515    1.0000 </r>
       <r>  -14.4503    1.0000 </r>
       <r>  -14.4503    1.0000 </r>
       <r>   -9.6279    1.0000 </r>
       <r>   -9.5596    1.0000 </r>
       <r>   -9.5596    1.0000 </r>
       <r>   -3.5267    1.0000 </r>
       <r>    3.7080    1.0000 </r>
       <r>    3.8875    1.0000 </r>
       <r>    3.8875    1.0000 </r>
       <r>    4.6459    1.0000 </r>
       <r>    4.6459    1.0000 </r>
       <r>    5.7809    1.0000 </r>
       <r>    7.1466    1.0000 </r>
       <r>    7.1466    1.0000 </r>
       <r>    7.7500    1.0000 </r>
       <r>    9.0529    0.0000 </r>
       <r>    9.0529    0.0000 </r>
       <r>    9.2910    0.0000 </r>
       <r>   10.1676    0.0000 </r>
       <r>   10.5163    0.0000 </r>
      </set>
      <set comment="kpoint 4">
       <r>  -31.5764    1.0000 </r>
       <r>  -14.4897    1.0000 </r>
       <r>  -14.4897    1.0000 </r>
       <r>  -14.4522    1.0000 </r>
       <r>  -14.4497    1.0000 </r>
       <r>  -14.4497    1.0000 </r>
       <r>   -9.6861    1.0000 </r>
       <r>   -9.5515    1.0000 </r>
       <r>   -9.5515    1.0000 </r>
       <r>   -3.2887    1.0000 </r>
       <r>    3.2920    1.0000 </r>
       <r>    3.7592    1.0000 </r>
       <r>    3.7592    1.0000 </r>
       <r>    4.6980    1.0000 </r>
       <r>    4.6980    1.0000 </r>
       <r>    5.3354    1.0000 </r>
       <r>    7.0002    1.0000 </r>
       <r>    7.0002    1.0000 </r>
       <r>    7.8302    1.0000 </r>
       <r>    9.3270    0.0000 </r>
       <r>    9.3270    0.0000 </r>
       <r>    9.9116    0.0000 </r>
       <r>   10.4805    0.0000 </r>
       <r>   10.5083    0.0000 </r>
      </set>
      <set comment="kpoint 5">
       <r>  -31.5751    1.0000 </r>
       <r>  -14.4927    1.0000 </r>
       <r>  -14.4927    1.0000 </r>
       <r>  -14.4530    1.0000 </r>
       <r>  -14.4490    1.0000 </r>
       <r>  -14.4490    1.0000 </r>
       <r>   -9.7435    1.0000 </r>
       <r>   -9.5429    1.0000 </r>
       <r>   -9.5429    1.0000 </r>
       <r>   -3.0352    1.0000 </r>
       <r>    2.9042    1.0000 </r>
       <r>    3.6839    1.0000 </r>
       <r>    3.6839    1.0000 </r>
       <r>    4.6550    1.0000 </r>
       <r>    4.6550    1.0000 </r>
       <r>    5.0052    1.0000 </r>
       <r>    6.9241    1.0000 </r>
       <r>    6.9241    1.0000 </r>
       <r>    7.9443    1.0000 </r>
       <r>    9.5943    0.0000 </r>
       <r>    9.5943    0.0000 </r>
       <r>   10.3747    0.0000 </r>
       <r>   10.4748    0.0000 </r>
       <r>   10.4751    0.0000 </r>
      </set>
      <set comment="kpoint 6">
       <r>  -31.5740    1.0000 </r>
       <r>  -14.4952    1.0000 </r>
       <r>  -14.4952    1.0000 </r>
       <r>  -14.4537    1.0000 </r>
       <r>  -14.4485    1.0000 </r>
       <r>  -14.4485    1.0000 </r>
       <r>   -9.7881    1.0000 </r>
       <r>   -9.5358    1.0000 </r>
       <r>   -9.5358    1.0000 </r>
       <r>   -2.8242    1.0000 </r>
       <r>    2.6141    1.0000 </r>
       <r>    3.6566    1.0000 </r>
       <r>    3.6566    1.0000 </r>
       <r>    4.5603    1.0000 </r>
       <r>    4.5603    1.0000 </r>
       <r>    4.7983    1.0000 </r>
       <r>    6.9040    1.0000 </r>
       <r>    6.9040    1.0000 </r>
       <r>    8.1062    1.0000 </r>
       <r>    9.8051    0.0000 </r>
       <r>    9.8051    0.0000 </r>
       <r>   10.4410    0.0000 </r>
       <r>   10.4411    0.0000 </r>
       <r>   10.5059    0.0000 </r>
      </set>
      <set comment="kpoint 7">
       <r>  -31.5734    1.0000 </r>
       <r>  -14.4966    1.0000 </r>
       <r>  -14.4966    1.0000 </r>
       <r>  -14.4542    1.0000 </r>
       <r>  -14.4481    1.0000 </r>
       <r>  -14.4481    1.0000 </r>
       <r>   -9.8121    1.0000 </r>
       <r>   -9.5318    1.0000 </r>
       <r>   -9.5318    1.0000 </r>
       <r>   -2.7048    1.0000 </r>
       <r>    2.4607    1.0000 </r>
       <r>    3.6559    1.0000 </r>
       <r>    3.6559    1.0000 </r>
       <r>    4.4850    1.0000 </r>
       <r>    4.4850    1.0000 </r>
       <r>    4.7021    1.0000 </r>
       <r>    6.9052    1.0000 </r>
       <r>    6.9052    1.0000 </r>
       <r>    8.2534    1.0000 </r>
       <r>    9.9197    0.0000 </r>
       <r>    9.9197    0.0000 </r>
       <r>   10.3848    0.0000 </r>
       <r>   10.4185    0.0000 </r>
       <r>   10.4185    0.0000 </r>
      </set>
      <set comment="kpoint 8">
       <r>  -31.5783    1.0000 </r>
       <r>  -14.4862    1.0000 </r>
       <r>  -14.4839    1.0000 </r>
       <r>  -14.4512    1.0000 </r>
       <r>  -14.4506    1.0000 </r>
       <r>  -14.4506    1.0000 </r>
       <r>   -9.5800    1.0000 </r>
       <r>   -9.5694    1.0000 </r>
       <r>   -9.5694    1.0000 </r>
       <r>   -3.6766    1.0000 </r>
       <r>    3.7889    1.0000 </r>
       <r>    4.1932    1.0000 </r>
       <r>    4.1932    1.0000 </r>
       <r>    4.4098    1.0000 </r>
       <r>    4.5490    1.0000 </r>
       <r>    6.2674    1.0000 </r>
       <r>    7.1970    1.0000 </r>
       <r>    7.1970    1.0000 </r>
       <r>    7.8365    1.0000 </r>
       <r>    8.5520    0.0000 </r>
       <r>    8.9895    0.0000 </r>
       <r>    8.9895    0.0000 </r>
       <r>    9.8110    0.0000 </r>
       <r>   10.4814    0.0000 </r>
      </set>
      <set comment="kpoint 9">
       <r>  -31.5777    1.0000 </r>
       <r>  -14.4884    1.0000 </r>
       <r>  -14.4844    1.0000 </r>
       <r>  -14.4516    1.0000 </r>
       <r>  -14.4503    1.0000 </r>
       <r>  -14.4502    1.0000 </r>
       <r>   -9.6126    1.0000 </r>
       <r>   -9.5690    1.0000 </r>
       <r>   -9.5630    1.0000 </r>
       <r>   -3.5489    1.0000 </r>
       <r>    3.5049    1.0000 </r>
       <r>    4.0702    1.0000 </r>
       <r>    4.0992    1.0000 </r>
       <r>    4.5142    1.0000 </r>
       <r>    4.6494    1.0000 </r>
       <r>    5.9337    1.0000 </r>
       <r>    7.0187    1.0000 </r>
       <r>    7.0299    1.0000 </r>
       <r>    8.0889    1.0000 </r>
       <r>    8.5790    0.0000 </r>
       <r>    9.2269    0.0000 </r>
       <r>    9.3138    0.0000 </r>
       <r>   10.1037    0.0000 </r>
       <r>   10.4651    0.0000 </r>
      </set>
      <set comment="kpoint 10">
       <r>  -31.5766    1.0000 </r>
       <r>  -14.4911    1.0000 </r>
       <r>  -14.4863    1.0000 </r>
       <r>  -14.4521    1.0000 </r>
       <r>  -14.4499    1.0000 </r>
       <r>  -14.4496    1.0000 </r>
       <r>   -9.6655    1.0000 </r>
       <r>   -9.5644    1.0000 </r>
       <r>   -9.5536    1.0000 </r>
       <r>   -3.3425    1.0000 </r>
       <r>    3.2150    1.0000 </r>
       <r>    3.8420    1.0000 </r>
       <r>    3.9710    1.0000 </r>
       <r>    4.5960    1.0000 </r>
       <r>    4.7393    1.0000 </r>
       <r>    5.5173    1.0000 </r>
       <r>    6.8503    1.0000 </r>
       <r>    6.9049    1.0000 </r>
       <r>    8.1294    1.0000 </r>
       <r>    8.9296    0.0000 </r>
       <r>    9.4699    0.0000 </r>
       <r>    9.7883    0.0000 </r>
       <r>   10.4088    0.0000 </r>
       <r>   10.4516    0.0000 </r>
      </set>
      <set comment="kpoint 11">
       <r>  -31.5753    1.0000 </r>
       <r>  -14.4936    1.0000 </r>
       <r>  -14.4891    1.0000 </r>
       <r>  -14.4528    1.0000 </r>
       <r>  -14.4494    1.0000 </r>
       <r>  -14.4489    1.0000 </r>
       <r>   -9.7222    1.0000 </r>
       <r>   -9.5565    1.0000 </r>
       <r>   -9.5455    1.0000 </r>
       <r>   -3.1057    1.0000 </r>
       <r>    2.9312    1.0000 </r>
       <r>    3.6698    1.0000 </r>
       <r>    3.8719    1.0000 </r>
       <r>    4.5842    1.0000 </r>
       <r>    4.7476    1.0000 </r>
       <r>    5.1526    1.0000 </r>
       <r>    6.7587    1.0000 </r>
       <r>    6.8544    1.0000 </r>
       <r>    8.1242    1.0000 </r>
       <r>    9.3462    0.0000 </r>
       <r>    9.6900    0.0000 </r>
       <r>   10.2342    0.0000 </r>
       <r>   10.4388    0.0000 </r>
       <r>   10.5026    0.0000 </r>
      </set>
      <set comment="kpoint 12">
       <r>  -31.5741    1.0000 </r>
       <r>  -14.4954    1.0000 </r>
       <r>  -14.4922    1.0000 </r>
       <r>  -14.4534    1.0000 </r>
       <r>  -14.4489    1.0000 </r>
       <r>  -14.4483    1.0000 </r>
       <r>   -9.7699    1.0000 </r>
       <r>   -9.5473    1.0000 </r>
       <r>   -9.5406    1.0000 </r>
       <r>   -2.8930    1.0000 </r>
       <r>    2.6934    1.0000 </r>
       <r>    3.5963    1.0000 </r>
       <r>    3.7972    1.0000 </r>
       <r>    4.5207    1.0000 </r>
       <r>    4.6798    1.0000 </r>
       <r>    4.8913    1.0000 </r>
       <r>    6.7363    1.0000 </r>
       <r>    6.8548    1.0000 </r>
       <r>    8.1897    1.0000 </r>
       <r>    9.6675    0.0000 </r>
       <r>    9.8612    0.0000 </r>
       <r>   10.3847    0.0000 </r>
       <r>   10.4218    0.0000 </r>
       <r>   10.5435    0.0000 </r>
      </set>
      <set comment="kpoint 13">
       <r>  -31.5734    1.0000 </r>
       <r>  -14.4960    1.0000 </r>
       <r>  -14.4949    1.0000 </r>
       <r>  -14.4539    1.0000 </r>
       <r>  -14.4485    1.0000 </r>
       <r>  -14.4480    1.0000 </r>
       <r>   -9.7998    1.0000 </r>
       <r>   -9.5398    1.0000 </r>
       <r>   -9.5388    1.0000 </r>
       <r>   -2.7522    1.0000 </r>
       <r>    2.5433    1.0000 </r>
       <r>    3.6081    1.0000 </r>
       <r>    3.7235    1.0000 </r>
       <r>    4.4844    1.0000 </r>
       <r>    4.5811    1.0000 </r>
       <r>    4.7442    1.0000 </r>
       <r>    6.7443    1.0000 </r>
       <r>    6.8664    1.0000 </r>
       <r>    8.3087    1.0000 </r>
       <r>    9.8276    0.0000 </r>
       <r>    9.9562    0.0000 </r>
       <r>   10.3635    0.0000 </r>
       <r>   10.4037    0.0000 </r>
       <r>   10.5149    0.0000 </r>
      </set>
      <set comment="kpoint 14">
       <r>  -31.5732    1.0000 </r>
       <r>  -14.4965    1.0000 </r>
       <r>  -14.4954    1.0000 </r>
       <r>  -14.4540    1.0000 </r>
       <r>  -14.4483    1.0000 </r>
       <r>  -14.4480    1.0000 </r>
       <r>   -9.8074    1.0000 </r>
       <r>   -9.5432    1.0000 </r>
       <r>   -9.5330    1.0000 </r>
       <r>   -2.7137    1.0000 </r>
       <r>    2.5035    1.0000 </r>
       <r>    3.6404    1.0000 </r>
       <r>    3.6741    1.0000 </r>
       <r>    4.5015    1.0000 </r>
       <r>    4.5241    1.0000 </r>
       <r>    4.7104    1.0000 </r>
       <r>    6.7439    1.0000 </r>
       <r>    6.8706    1.0000 </r>
       <r>    8.3670    1.0000 </r>
       <r>    9.8590    0.0000 </r>
       <r>    9.9511    0.0000 </r>
       <r>   10.3659    0.0000 </r>
       <r>   10.3971    0.0000 </r>
       <r>   10.4723    0.0000 </r>
      </set>
      <set comment="kpoint 15">
       <r>  -31.5736    1.0000 </r>
       <r>  -14.4966    1.0000 </r>
       <r>  -14.4936    1.0000 </r>
       <r>  -14.4537    1.0000 </r>
       <r>  -14.4484    1.0000 </r>
       <r>  -14.4483    1.0000 </r>
       <r>   -9.7918    1.0000 </r>
       <r>   -9.5500    1.0000 </r>
       <r>   -9.5310    1.0000 </r>
       <r>   -2.7857    1.0000 </r>
       <r>    2.5815    1.0000 </r>
       <r>    3.5708    1.0000 </r>
       <r>    3.7613    1.0000 </r>
       <r>    4.4834    1.0000 </r>
       <r>    4.6253    1.0000 </r>
       <r>    4.7831    1.0000 </r>
       <r>    6.7135    1.0000 </r>
       <r>    6.8747    1.0000 </r>
       <r>    8.2909    1.0000 </r>
       <r>    9.8287    0.0000 </r>
       <r>    9.8805    0.0000 </r>
       <r>   10.3808    0.0000 </r>
       <r>   10.4102    0.0000 </r>
       <r>   10.5379    0.0000 </r>
      </set>
      <set comment="kpoint 16">
       <r>  -31.5745    1.0000 </r>
       <r>  -14.4954    1.0000 </r>
       <r>  -14.4910    1.0000 </r>
       <r>  -14.4531    1.0000 </r>
       <r>  -14.4489    1.0000 </r>
       <r>  -14.4488    1.0000 </r>
       <r>   -9.7553    1.0000 </r>
       <r>   -9.5585    1.0000 </r>
       <r>   -9.5335    1.0000 </r>
       <r>   -2.9535    1.0000 </r>
       <r>    2.7753    1.0000 </r>
       <r>    3.5458    1.0000 </r>
       <r>    3.8562    1.0000 </r>
       <r>    4.5254    1.0000 </r>
       <r>    4.7361    1.0000 </r>
       <r>    4.9644    1.0000 </r>
       <r>    6.6589    1.0000 </r>
       <r>    6.9060    1.0000 </r>
       <r>    8.1889    1.0000 </r>
       <r>    9.5997    0.0000 </r>
       <r>    9.7783    0.0000 </r>
       <r>   10.3686    0.0000 </r>
       <r>   10.4338    0.0000 </r>
       <r>   10.5389    0.0000 </r>
      </set>
      <set comment="kpoint 17">
       <r>  -31.5757    1.0000 </r>
       <r>  -14.4930    1.0000 </r>
       <r>  -14.4883    1.0000 </r>
       <r>  -14.4524    1.0000 </r>
       <r>  -14.4495    1.0000 </r>
       <r>  -14.4493    1.0000 </r>
       <r>   -9.7041    1.0000 </r>
       <r>   -9.5666    1.0000 </r>
       <r>   -9.5399    1.0000 </r>
       <r>   -3.1802    1.0000 </r>
       <r>    3.0671    1.0000 </r>
       <r>    3.5840    1.0000 </r>
       <r>    3.9713    1.0000 </r>
       <r>    4.5667    1.0000 </r>
       <r>    4.7973    1.0000 </r>
       <r>    5.2595    1.0000 </r>
       <r>    6.6252    1.0000 </r>
       <r>    6.9962    1.0000 </r>
       <r>    8.1392    1.0000 </r>
       <r>    9.3104    0.0000 </r>
       <r>    9.5125    0.0000 </r>
       <r>   10.1246    0.0000 </r>
       <r>   10.4575    0.0000 </r>
       <r>   10.5119    0.0000 </r>
      </set>
      <set comment="kpoint 18">
       <r>  -31.5770    1.0000 </r>
       <r>  -14.4900    1.0000 </r>
       <r>  -14.4861    1.0000 </r>
       <r>  -14.4518    1.0000 </r>
       <r>  -14.4502    1.0000 </r>
       <r>  -14.4499    1.0000 </r>
       <r>   -9.6486    1.0000 </r>
       <r>   -9.5719    1.0000 </r>
       <r>   -9.5487    1.0000 </r>
       <r>   -3.4139    1.0000 </r>
       <r>    3.4159    1.0000 </r>
       <r>    3.6902    1.0000 </r>
       <r>    4.1133    1.0000 </r>
       <r>    4.5373    1.0000 </r>
       <r>    4.7716    1.0000 </r>
       <r>    5.6427    1.0000 </r>
       <r>    6.6956    1.0000 </r>
       <r>    7.1467    1.0000 </r>
       <r>    8.1125    1.0000 </r>
       <r>    9.0290    0.0000 </r>
       <r>    9.0950    0.0000 </r>
       <r>    9.7132    0.0000 </r>
       <r>   10.3214    0.0000 </r>
       <r>   10.4886    0.0000 </r>
      </set>
      <set comment="kpoint 19">
       <r>  -31.5779    1.0000 </r>
       <r>  -14.4871    1.0000 </r>
       <r>  -14.4848    1.0000 </r>
       <r>  -14.4513    1.0000 </r>
       <r>  -14.4506    1.0000 </r>
       <r>  -14.4504    1.0000 </r>
       <r>   -9.6041    1.0000 </r>
       <r>   -9.5716    1.0000 </r>
       <r>   -9.5579    1.0000 </r>
       <r>   -3.6002    1.0000 </r>
       <r>    3.7619    1.0000 </r>
       <r>    3.8558    1.0000 </r>
       <r>    4.2049    1.0000 </r>
       <r>    4.4676    1.0000 </r>
       <r>    4.6635    1.0000 </r>
       <r>    6.0219    1.0000 </r>
       <r>    6.9579    1.0000 </r>
       <r>    7.2914    1.0000 </r>
       <r>    7.9225    1.0000 </r>
       <r>    8.7958    0.0000 </r>
       <r>    8.8380    0.0000 </r>
       <r>    9.2839    0.0000 </r>
       <r>   10.0076    0.0000 </r>
       <r>   10.5014    0.0000 </r>
      </set>
      <set comment="kpoint 20">
       <r>  -31.5772    1.0000 </r>
       <r>  -14.4904    1.0000 </r>
       <r>  -14.4832    1.0000 </r>
       <r>  -14.4521    1.0000 </r>
       <r>  -14.4499    1.0000 </r>
       <r>  -14.4499    1.0000 </r>
       <r>   -9.6133    1.0000 </r>
       <r>   -9.5748    1.0000 </r>
       <r>   -9.5748    1.0000 </r>
       <r>   -3.4762    1.0000 </r>
       <r>    3.2153    1.0000 </r>
       <r>    4.2193    1.0000 </r>
       <r>    4.2193    1.0000 </r>
       <r>    4.4568    1.0000 </r>
       <r>    4.5757    1.0000 </r>
       <r>    5.9169    1.0000 </r>
       <r>    6.8808    1.0000 </r>
       <r>    6.8808    1.0000 </r>
       <r>    8.1471    1.0000 </r>
       <r>    8.5911    0.0000 </r>
       <r>    9.4495    0.0000 </r>
       <r>    9.4495    0.0000 </r>
       <r>   10.2082    0.0000 </r>
       <r>   10.4217    0.0000 </r>
      </set>
      <set comment="kpoint 21">
       <r>  -31.5763    1.0000 </r>
       <r>  -14.4922    1.0000 </r>
       <r>  -14.4836    1.0000 </r>
       <r>  -14.4527    1.0000 </r>
       <r>  -14.4494    1.0000 </r>
       <r>  -14.4493    1.0000 </r>
       <r>   -9.6501    1.0000 </r>
       <r>   -9.5756    1.0000 </r>
       <r>   -9.5700    1.0000 </r>
       <r>   -3.3289    1.0000 </r>
       <r>    2.9795    1.0000 </r>
       <r>    4.0813    1.0000 </r>
       <r>    4.1584    1.0000 </r>
       <r>    4.5224    1.0000 </r>
       <r>    4.6304    1.0000 </r>
       <r>    5.6997    1.0000 </r>
       <r>    6.6865    1.0000 </r>
       <r>    6.7781    1.0000 </r>
       <r>    8.2956    1.0000 </r>
       <r>    8.7308    0.0000 </r>
       <r>    9.6531    0.0000 </r>
       <r>    9.7556    0.0000 </r>
       <r>   10.3879    0.0000 </r>
       <r>   10.4081    0.0000 </r>
      </set>
      <set comment="kpoint 22">
       <r>  -31.5752    1.0000 </r>
       <r>  -14.4935    1.0000 </r>
       <r>  -14.4854    1.0000 </r>
       <r>  -14.4531    1.0000 </r>
       <r>  -14.4491    1.0000 </r>
       <r>  -14.4486    1.0000 </r>
       <r>   -9.6995    1.0000 </r>
       <r>   -9.5714    1.0000 </r>
       <r>   -9.5629    1.0000 </r>
       <r>   -3.1453    1.0000 </r>
       <r>    2.8204    1.0000 </r>
       <r>    3.8486    1.0000 </r>
       <r>    4.0608    1.0000 </r>
       <r>    4.5438    1.0000 </r>
       <r>    4.7064    1.0000 </r>
       <r>    5.3924    1.0000 </r>
       <r>    6.5054    1.0000 </r>
       <r>    6.7508    1.0000 </r>
       <r>    8.3689    1.0000 </r>
       <r>    9.1013    0.0000 </r>
       <r>    9.8213    0.0000 </r>
       <r>   10.1070    0.0000 </r>
       <r>   10.3710    0.0000 </r>
       <r>   10.5224    0.0000 </r>
      </set>
      <set comment="kpoint 23">
       <r>  -31.5741    1.0000 </r>
       <r>  -14.4940    1.0000 </r>
       <r>  -14.4883    1.0000 </r>
       <r>  -14.4534    1.0000 </r>
       <r>  -14.4489    1.0000 </r>
       <r>  -14.4480    1.0000 </r>
       <r>   -9.7442    1.0000 </r>
       <r>   -9.5630    1.0000 </r>
       <r>   -9.5604    1.0000 </r>
       <r>   -2.9699    1.0000 </r>
       <r>    2.7362    1.0000 </r>
       <r>    3.6743    1.0000 </r>
       <r>    3.9546    1.0000 </r>
       <r>    4.5207    1.0000 </r>
       <r>    4.7178    1.0000 </r>
       <r>    5.0942    1.0000 </r>
       <r>    6.4253    1.0000 </r>
       <r>    6.7688    1.0000 </r>
       <r>    8.3601    1.0000 </r>
       <r>    9.5384    0.0000 </r>
       <r>    9.9507    0.0000 </r>
       <r>   10.3095    0.0000 </r>
       <r>   10.3702    0.0000 </r>
       <r>   10.5576    0.0000 </r>
      </set>
      <set comment="kpoint 24">
       <r>  -31.5732    1.0000 </r>
       <r>  -14.4937    1.0000 </r>
       <r>  -14.4916    1.0000 </r>
       <r>  -14.4535    1.0000 </r>
       <r>  -14.4488    1.0000 </r>
       <r>  -14.4476    1.0000 </r>
       <r>   -9.7749    1.0000 </r>
       <r>   -9.5636    1.0000 </r>
       <r>   -9.5525    1.0000 </r>
       <r>   -2.8398    1.0000 </r>
       <r>    2.7004    1.0000 </r>
       <r>    3.6070    1.0000 </r>
       <r>    3.8241    1.0000 </r>
       <r>    4.5251    1.0000 </r>
       <r>    4.6688    1.0000 </r>
       <r>    4.8801    1.0000 </r>
       <r>    6.4087    1.0000 </r>
       <r>    6.7859    1.0000 </r>
       <r>    8.4192    1.0000 </r>
       <r>    9.7370    0.0000 </r>
       <r>   10.0305    0.0000 </r>
       <r>   10.3357    0.0000 </r>
       <r>   10.3694    0.0000 </r>
       <r>   10.5726    0.0000 </r>
      </set>
      <set comment="kpoint 25">
       <r>  -31.5729    1.0000 </r>
       <r>  -14.4944    1.0000 </r>
       <r>  -14.4925    1.0000 </r>
       <r>  -14.4534    1.0000 </r>
       <r>  -14.4488    1.0000 </r>
       <r>  -14.4476    1.0000 </r>
       <r>   -9.7868    1.0000 </r>
       <r>   -9.5712    1.0000 </r>
       <r>   -9.5421    1.0000 </r>
       <r>   -2.7777    1.0000 </r>
       <r>    2.6826    1.0000 </r>
       <r>    3.6487    1.0000 </r>
       <r>    3.6790    1.0000 </r>
       <r>    4.5858    1.0000 </r>
       <r>    4.5911    1.0000 </r>
       <r>    4.7969    1.0000 </r>
       <r>    6.3976    1.0000 </r>
       <r>    6.7851    1.0000 </r>
       <r>    8.5198    0.0000 </r>
       <r>    9.7061    0.0000 </r>
       <r>   10.0365    0.0000 </r>
       <r>   10.3650    0.0000 </r>
       <r>   10.3836    0.0000 </r>
       <r>   10.5362    0.0000 </r>
      </set>
      <set comment="kpoint 26">
       <r>  -31.5731    1.0000 </r>
       <r>  -14.4962    1.0000 </r>
       <r>  -14.4908    1.0000 </r>
       <r>  -14.4531    1.0000 </r>
       <r>  -14.4489    1.0000 </r>
       <r>  -14.4479    1.0000 </r>
       <r>   -9.7790    1.0000 </r>
       <r>   -9.5809    1.0000 </r>
       <r>   -9.5342    1.0000 </r>
       <r>   -2.7940    1.0000 </r>
       <r>    2.6821    1.0000 </r>
       <r>    3.5540    1.0000 </r>
       <r>    3.7678    1.0000 </r>
       <r>    4.5124    1.0000 </r>
       <r>    4.7000    1.0000 </r>
       <r>    4.8506    1.0000 </r>
       <r>    6.3477    1.0000 </r>
       <r>    6.7818    1.0000 </r>
       <r>    8.5537    0.0000 </r>
       <r>    9.7453    0.0000 </r>
       <r>    9.9333    0.0000 </r>
       <r>   10.3725    0.0000 </r>
       <r>   10.3971    0.0000 </r>
       <r>   10.5488    0.0000 </r>
      </set>
      <set comment="kpoint 27">
       <r>  -31.5738    1.0000 </r>
       <r>  -14.4966    1.0000 </r>
       <r>  -14.4889    1.0000 </r>
       <r>  -14.4527    1.0000 </r>
       <r>  -14.4491    1.0000 </r>
       <r>  -14.4484    1.0000 </r>
       <r>   -9.7538    1.0000 </r>
       <r>   -9.5893    1.0000 </r>
       <r>   -9.5307    1.0000 </r>
       <r>   -2.8893    1.0000 </r>
       <r>    2.7311    1.0000 </r>
       <r>    3.4799    1.0000 </r>
       <r>    3.9276    1.0000 </r>
       <r>    4.4787    1.0000 </r>
       <r>    4.8088    1.0000 </r>
       <r>    5.0200    1.0000 </r>
       <r>    6.2519    1.0000 </r>
       <r>    6.8088    1.0000 </r>
       <r>    8.5369    0.0000 </r>
       <r>    9.7196    0.0000 </r>
       <r>    9.7869    0.0000 </r>
       <r>   10.3710    0.0000 </r>
       <r>   10.3928    0.0000 </r>
       <r>   10.5807    0.0000 </r>
      </set>
      <set comment="kpoint 28">
       <r>  -31.5748    1.0000 </r>
       <r>  -14.4955    1.0000 </r>
       <r>  -14.4872    1.0000 </r>
       <r>  -14.4524    1.0000 </r>
       <r>  -14.4493    1.0000 </r>
       <r>  -14.4491    1.0000 </r>
       <r>   -9.7170    1.0000 </r>
       <r>   -9.5925    1.0000 </r>
       <r>   -9.5324    1.0000 </r>
       <r>   -3.0492    1.0000 </r>
       <r>    2.8678    1.0000 </r>
       <r>    3.4752    1.0000 </r>
       <r>    4.0953    1.0000 </r>
       <r>    4.4674    1.0000 </r>
       <r>    4.8699    1.0000 </r>
       <r>    5.2745    1.0000 </r>
       <r>    6.1692    1.0000 </r>
       <r>    6.8955    1.0000 </r>
       <r>    8.5355    0.0000 </r>
       <r>    9.4441    0.0000 </r>
       <r>    9.6107    0.0000 </r>
       <r>   10.2822    0.0000 </r>
       <r>   10.4176    0.0000 </r>
       <r>   10.5837    0.0000 </r>
      </set>
      <set comment="kpoint 29">
       <r>  -31.5760    1.0000 </r>
       <r>  -14.4931    1.0000 </r>
       <r>  -14.4862    1.0000 </r>
       <r>  -14.4521    1.0000 </r>
       <r>  -14.4497    1.0000 </r>
       <r>  -14.4495    1.0000 </r>
       <r>   -9.6786    1.0000 </r>
       <r>   -9.5867    1.0000 </r>
       <r>   -9.5389    1.0000 </r>
       <r>   -3.2398    1.0000 </r>
       <r>    3.1050    1.0000 </r>
       <r>    3.5468    1.0000 </r>
       <r>    4.2131    1.0000 </r>
       <r>    4.4528    1.0000 </r>
       <r>    4.8554    1.0000 </r>
       <r>    5.5121    1.0000 </r>
       <r>    6.2739    1.0000 </r>
       <r>    7.0323    1.0000 </r>
       <r>    8.4711    0.9890 </r>
       <r>    9.1836    0.0000 </r>
       <r>    9.2562    0.0000 </r>
       <r>   10.0643    0.0000 </r>
       <r>   10.4450    0.0000 </r>
       <r>   10.4975    0.0000 </r>
      </set>
      <set comment="kpoint 30">
       <r>  -31.5756    1.0000 </r>
       <r>  -14.4926    1.0000 </r>
       <r>  -14.4822    1.0000 </r>
       <r>  -14.4534    1.0000 </r>
       <r>  -14.4487    1.0000 </r>
       <r>  -14.4487    1.0000 </r>
       <r>   -9.6568    1.0000 </r>
       <r>   -9.5827    1.0000 </r>
       <r>   -9.5827    1.0000 </r>
       <r>   -3.2565    1.0000 </r>
       <r>    2.8065    1.0000 </r>
       <r>    4.2236    1.0000 </r>
       <r>    4.2236    1.0000 </r>
       <r>    4.4571    1.0000 </r>
       <r>    4.5255    1.0000 </r>
       <r>    5.6910    1.0000 </r>
       <r>    6.6941    1.0000 </r>
       <r>    6.6941    1.0000 </r>
       <r>    8.0630    1.0000 </r>
       <r>    8.9963    0.0000 </r>
       <r>    9.8126    0.0000 </r>
       <r>    9.8126    0.0000 </r>
       <r>   10.3226    0.0000 </r>
       <r>   10.4892    0.0000 </r>
      </set>
      <set comment="kpoint 31">
       <r>  -31.5747    1.0000 </r>
       <r>  -14.4923    1.0000 </r>
       <r>  -14.4825    1.0000 </r>
       <r>  -14.4540    1.0000 </r>
       <r>  -14.4482    1.0000 </r>
       <r>  -14.4481    1.0000 </r>
       <r>   -9.6886    1.0000 </r>
       <r>   -9.5839    1.0000 </r>
       <r>   -9.5825    1.0000 </r>
       <r>   -3.1500    1.0000 </r>
       <r>    2.7412    1.0000 </r>
       <r>    4.0464    1.0000 </r>
       <r>    4.1746    1.0000 </r>
       <r>    4.5164    1.0000 </r>
       <r>    4.5580    1.0000 </r>
       <r>    5.5360    1.0000 </r>
       <r>    6.5310    1.0000 </r>
       <r>    6.6838    1.0000 </r>
       <r>    8.2145    1.0000 </r>
       <r>    9.1668    0.0000 </r>
       <r>    9.9351    0.0000 </r>
       <r>   10.0157    0.0000 </r>
       <r>   10.2828    0.0000 </r>
       <r>   10.5348    0.0000 </r>
      </set>
      <set comment="kpoint 32">
       <r>  -31.5737    1.0000 </r>
       <r>  -14.4914    1.0000 </r>
       <r>  -14.4845    1.0000 </r>
       <r>  -14.4542    1.0000 </r>
       <r>  -14.4481    1.0000 </r>
       <r>  -14.4474    1.0000 </r>
       <r>   -9.7234    1.0000 </r>
       <r>   -9.5839    1.0000 </r>
       <r>   -9.5791    1.0000 </r>
       <r>   -3.0381    1.0000 </r>
       <r>    2.7831    1.0000 </r>
       <r>    3.8206    1.0000 </r>
       <r>    4.0739    1.0000 </r>
       <r>    4.5671    1.0000 </r>
       <r>    4.6138    1.0000 </r>
       <r>    5.3074    1.0000 </r>
       <r>    6.3063    1.0000 </r>
       <r>    6.7136    1.0000 </r>
       <r>    8.3721    1.0000 </r>
       <r>    9.4781    0.0000 </r>
       <r>   10.0293    0.0000 </r>
       <r>   10.2270    0.0000 </r>
       <r>   10.2921    0.0000 </r>
       <r>   10.5564    0.0000 </r>
      </set>
      <set comment="kpoint 33">
       <r>  -31.5729    1.0000 </r>
       <r>  -14.4901    1.0000 </r>
       <r>  -14.4875    1.0000 </r>
       <r>  -14.4540    1.0000 </r>
       <r>  -14.4483    1.0000 </r>
       <r>  -14.4470    1.0000 </r>
       <r>   -9.7479    1.0000 </r>
       <r>   -9.5923    1.0000 </r>
       <r>   -9.5694    1.0000 </r>
       <r>   -2.9431    1.0000 </r>
       <r>    2.8874    1.0000 </r>
       <r>    3.6727    1.0000 </r>
       <r>    3.9287    1.0000 </r>
       <r>    4.5948    1.0000 </r>
       <r>    4.6532    1.0000 </r>
       <r>    5.0809    1.0000 </r>
       <r>    6.1531    1.0000 </r>
       <r>    6.7279    1.0000 </r>
       <r>    8.4482    1.0000 </r>
       <r>    9.7076    0.0000 </r>
       <r>   10.0981    0.0000 </r>
       <r>   10.2989    0.0000 </r>
       <r>   10.3252    0.0000 </r>
       <r>   10.5855    0.0000 </r>
      </set>
      <set comment="kpoint 34">
       <r>  -31.5725    1.0000 </r>
       <r>  -14.4910    1.0000 </r>
       <r>  -14.4886    1.0000 </r>
       <r>  -14.4534    1.0000 </r>
       <r>  -14.4489    1.0000 </r>
       <r>  -14.4470    1.0000 </r>
       <r>   -9.7573    1.0000 </r>
       <r>   -9.6064    1.0000 </r>
       <r>   -9.5570    1.0000 </r>
       <r>   -2.8771    1.0000 </r>
       <r>    2.9600    1.0000 </r>
       <r>    3.6336    1.0000 </r>
       <r>    3.7597    1.0000 </r>
       <r>    4.6165    1.0000 </r>
       <r>    4.6653    1.0000 </r>
       <r>    4.9639    1.0000 </r>
       <r>    6.0593    1.0000 </r>
       <r>    6.7100    1.0000 </r>
       <r>    8.5676    0.0000 </r>
       <r>    9.6516    0.0000 </r>
       <r>   10.1271    0.0000 </r>
       <r>   10.3411    0.0000 </r>
       <r>   10.3519    0.0000 </r>
       <r>   10.5643    0.0000 </r>
      </set>
      <set comment="kpoint 35">
       <r>  -31.5725    1.0000 </r>
       <r>  -14.4940    1.0000 </r>
       <r>  -14.4875    1.0000 </r>
       <r>  -14.4526    1.0000 </r>
       <r>  -14.4495    1.0000 </r>
       <r>  -14.4473    1.0000 </r>
       <r>   -9.7525    1.0000 </r>
       <r>   -9.6208    1.0000 </r>
       <r>   -9.5446    1.0000 </r>
       <r>   -2.8480    1.0000 </r>
       <r>    2.9261    1.0000 </r>
       <r>    3.6032    1.0000 </r>
       <r>    3.7029    1.0000 </r>
       <r>    4.5523    1.0000 </r>
       <r>    4.7628    1.0000 </r>
       <r>    4.9996    1.0000 </r>
       <r>    5.9794    1.0000 </r>
       <r>    6.6858    1.0000 </r>
       <r>    8.7112    0.0000 </r>
       <r>    9.5856    0.0000 </r>
       <r>   10.0727    0.0000 </r>
       <r>   10.3443    0.0000 </r>
       <r>   10.3908    0.0000 </r>
       <r>   10.5516    0.0000 </r>
      </set>
      <set comment="kpoint 36">
       <r>  -31.5730    1.0000 </r>
       <r>  -14.4960    1.0000 </r>
       <r>  -14.4868    1.0000 </r>
       <r>  -14.4520    1.0000 </r>
       <r>  -14.4498    1.0000 </r>
       <r>  -14.4478    1.0000 </r>
       <r>   -9.7396    1.0000 </r>
       <r>   -9.6271    1.0000 </r>
       <r>   -9.5350    1.0000 </r>
       <r>   -2.8650    1.0000 </r>
       <r>    2.8339    1.0000 </r>
       <r>    3.4910    1.0000 </r>
       <r>    3.8411    1.0000 </r>
       <r>    4.5081    1.0000 </r>
       <r>    4.8509    1.0000 </r>
       <r>    5.1458    1.0000 </r>
       <r>    5.8926    1.0000 </r>
       <r>    6.6972    1.0000 </r>
       <r>    8.7820    0.0000 </r>
       <r>    9.6353    0.0000 </r>
       <r>    9.9056    0.0000 </r>
       <r>   10.3602    0.0000 </r>
       <r>   10.4117    0.0000 </r>
       <r>   10.5562    0.0000 </r>
      </set>
      <set comment="kpoint 37">
       <r>  -31.5738    1.0000 </r>
       <r>  -14.4965    1.0000 </r>
       <r>  -14.4867    1.0000 </r>
       <r>  -14.4521    1.0000 </r>
       <r>  -14.4495    1.0000 </r>
       <r>  -14.4485    1.0000 </r>
       <r>   -9.7271    1.0000 </r>
       <r>   -9.6169    1.0000 </r>
       <r>   -9.5306    1.0000 </r>
       <r>   -2.9346    1.0000 </r>
       <r>    2.7909    1.0000 </r>
       <r>    3.4445    1.0000 </r>
       <r>    4.0027    1.0000 </r>
       <r>    4.4760    1.0000 </r>
       <r>    4.8918    1.0000 </r>
       <r>    5.2824    1.0000 </r>
       <r>    5.8954    1.0000 </r>
       <r>    6.7726    1.0000 </r>
       <r>    8.7458    0.0000 </r>
       <r>    9.6520    0.0000 </r>
       <r>    9.6703    0.0000 </r>
       <r>   10.3823    0.0000 </r>
       <r>   10.3859    0.0000 </r>
       <r>   10.5977    0.0000 </r>
      </set>
      <set comment="kpoint 38">
       <r>  -31.5740    1.0000 </r>
       <r>  -14.4904    1.0000 </r>
       <r>  -14.4811    1.0000 </r>
       <r>  -14.4549    1.0000 </r>
       <r>  -14.4474    1.0000 </r>
       <r>  -14.4474    1.0000 </r>
       <r>   -9.6997    1.0000 </r>
       <r>   -9.5913    1.0000 </r>
       <r>   -9.5913    1.0000 </r>
       <r>   -3.1271    1.0000 </r>
       <r>    2.7663    1.0000 </r>
       <r>    4.1853    1.0000 </r>
       <r>    4.1853    1.0000 </r>
       <r>    4.2775    1.0000 </r>
       <r>    4.6017    1.0000 </r>
       <r>    5.4732    1.0000 </r>
       <r>    6.6900    1.0000 </r>
       <r>    6.6900    1.0000 </r>
       <r>    8.0613    1.0000 </r>
       <r>    9.3297    0.0000 </r>
       <r>   10.0202    0.0000 </r>
       <r>   10.0202    0.0000 </r>
       <r>   10.1974    0.0000 </r>
       <r>   10.5127    0.0000 </r>
      </set>
      <set comment="kpoint 39">
       <r>  -31.5732    1.0000 </r>
       <r>  -14.4881    1.0000 </r>
       <r>  -14.4816    1.0000 </r>
       <r>  -14.4553    1.0000 </r>
       <r>  -14.4470    1.0000 </r>
       <r>  -14.4468    1.0000 </r>
       <r>   -9.7211    1.0000 </r>
       <r>   -9.5962    1.0000 </r>
       <r>   -9.5920    1.0000 </r>
       <r>   -3.0875    1.0000 </r>
       <r>    2.9010    1.0000 </r>
       <r>    3.9695    1.0000 </r>
       <r>    4.1275    1.0000 </r>
       <r>    4.3856    1.0000 </r>
       <r>    4.6292    1.0000 </r>
       <r>    5.3103    1.0000 </r>
       <r>    6.5578    1.0000 </r>
       <r>    6.7351    1.0000 </r>
       <r>    8.2133    1.0000 </r>
       <r>    9.5243    0.0000 </r>
       <r>   10.0850    0.0000 </r>
       <r>   10.1400    0.0000 </r>
       <r>   10.1788    0.0000 </r>
       <r>   10.4943    0.0000 </r>
      </set>
      <set comment="kpoint 40">
       <r>  -31.5726    1.0000 </r>
       <r>  -14.4860    1.0000 </r>
       <r>  -14.4836    1.0000 </r>
       <r>  -14.4552    1.0000 </r>
       <r>  -14.4471    1.0000 </r>
       <r>  -14.4464    1.0000 </r>
       <r>   -9.7354    1.0000 </r>
       <r>   -9.6087    1.0000 </r>
       <r>   -9.5858    1.0000 </r>
       <r>   -3.0387    1.0000 </r>
       <r>    3.1022    1.0000 </r>
       <r>    3.7739    1.0000 </r>
       <r>    4.0143    1.0000 </r>
       <r>    4.5150    1.0000 </r>
       <r>    4.6605    1.0000 </r>
       <r>    5.1193    1.0000 </r>
       <r>    6.2634    1.0000 </r>
       <r>    6.7481    1.0000 </r>
       <r>    8.3671    1.0000 </r>
       <r>    9.7558    0.0000 </r>
       <r>   10.1370    0.0000 </r>
       <r>   10.2462    0.0000 </r>
       <r>   10.2462    0.0000 </r>
       <r>   10.5850    0.0000 </r>
      </set>
      <set comment="kpoint 41">
       <r>  -31.5722    1.0000 </r>
       <r>  -14.4869    1.0000 </r>
       <r>  -14.4847    1.0000 </r>
       <r>  -14.4544    1.0000 </r>
       <r>  -14.4479    1.0000 </r>
       <r>  -14.4464    1.0000 </r>
       <r>   -9.7354    1.0000 </r>
       <r>   -9.6308    1.0000 </r>
       <r>   -9.5742    1.0000 </r>
       <r>   -2.9842    1.0000 </r>
       <r>    3.2684    1.0000 </r>
       <r>    3.6605    1.0000 </r>
       <r>    3.8623    1.0000 </r>
       <r>    4.5759    1.0000 </r>
       <r>    4.7183    1.0000 </r>
       <r>    5.0097    1.0000 </r>
       <r>    5.9794    1.0000 </r>
       <r>    6.7064    1.0000 </r>
       <r>    8.4889    0.4099 </r>
       <r>    9.7350    0.0000 </r>
       <r>   10.1745    0.0000 </r>
       <r>   10.2870    0.0000 </r>
       <r>   10.3202    0.0000 </r>
       <r>   10.5591    0.0000 </r>
      </set>
      <set comment="kpoint 42">
       <r>  -31.5721    1.0000 </r>
       <r>  -14.4906    1.0000 </r>
       <r>  -14.4844    1.0000 </r>
       <r>  -14.4532    1.0000 </r>
       <r>  -14.4490    1.0000 </r>
       <r>  -14.4467    1.0000 </r>
       <r>   -9.7233    1.0000 </r>
       <r>   -9.6556    1.0000 </r>
       <r>   -9.5596    1.0000 </r>
       <r>   -2.9285    1.0000 </r>
       <r>    3.2501    1.0000 </r>
       <r>    3.6476    1.0000 </r>
       <r>    3.7039    1.0000 </r>
       <r>    4.5542    1.0000 </r>
       <r>    4.7900    1.0000 </r>
       <r>    5.0786    1.0000 </r>
       <r>    5.7727    1.0000 </r>
       <r>    6.6503    1.0000 </r>
       <r>    8.6589    0.0000 </r>
       <r>    9.6101    0.0000 </r>
       <r>   10.1754    0.0000 </r>
       <r>   10.3134    0.0000 </r>
       <r>   10.3380    0.0000 </r>
       <r>   10.5612    0.0000 </r>
      </set>
      <set comment="kpoint 43">
       <r>  -31.5724    1.0000 </r>
       <r>  -14.4938    1.0000 </r>
       <r>  -14.4852    1.0000 </r>
       <r>  -14.4519    1.0000 </r>
       <r>  -14.4501    1.0000 </r>
       <r>  -14.4472    1.0000 </r>
       <r>   -9.7213    1.0000 </r>
       <r>   -9.6580    1.0000 </r>
       <r>   -9.5455    1.0000 </r>
       <r>   -2.8829    1.0000 </r>
       <r>    3.0479    1.0000 </r>
       <r>    3.5715    1.0000 </r>
       <r>    3.7243    1.0000 </r>
       <r>    4.5327    1.0000 </r>
       <r>    4.8436    1.0000 </r>
       <r>    5.1950    1.0000 </r>
       <r>    5.7030    1.0000 </r>
       <r>    6.6371    1.0000 </r>
       <r>    8.8148    0.0000 </r>
       <r>    9.5528    0.0000 </r>
       <r>   10.0832    0.0000 </r>
       <r>   10.3390    0.0000 </r>
       <r>   10.3608    0.0000 </r>
       <r>   10.5476    0.0000 </r>
      </set>
      <set comment="kpoint 44">
       <r>  -31.5727    1.0000 </r>
       <r>  -14.4849    1.0000 </r>
       <r>  -14.4803    1.0000 </r>
       <r>  -14.4560    1.0000 </r>
       <r>  -14.4462    1.0000 </r>
       <r>  -14.4462    1.0000 </r>
       <r>   -9.7335    1.0000 </r>
       <r>   -9.5988    1.0000 </r>
       <r>   -9.5988    1.0000 </r>
       <r>   -3.1124    1.0000 </r>
       <r>    3.1030    1.0000 </r>
       <r>    4.1185    1.0000 </r>
       <r>    4.1247    1.0000 </r>
       <r>    4.1247    1.0000 </r>
       <r>    4.6679    1.0000 </r>
       <r>    5.1568    1.0000 </r>
       <r>    6.8079    1.0000 </r>
       <r>    6.8079    1.0000 </r>
       <r>    8.1374    1.0000 </r>
       <r>    9.6070    0.0000 </r>
       <r>   10.0833    0.0000 </r>
       <r>   10.1272    0.0000 </r>
       <r>   10.1272    0.0000 </r>
       <r>   10.3873    0.0000 </r>
      </set>
      <set comment="kpoint 45">
       <r>  -31.5722    1.0000 </r>
       <r>  -14.4825    1.0000 </r>
       <r>  -14.4809    1.0000 </r>
       <r>  -14.4562    1.0000 </r>
       <r>  -14.4461    1.0000 </r>
       <r>  -14.4458    1.0000 </r>
       <r>   -9.7428    1.0000 </r>
       <r>   -9.6066    1.0000 </r>
       <r>   -9.5980    1.0000 </r>
       <r>   -3.1084    1.0000 </r>
       <r>    3.3493    1.0000 </r>
       <r>    3.8964    1.0000 </r>
       <r>    4.0689    1.0000 </r>
       <r>    4.2905    1.0000 </r>
       <r>    4.6946    1.0000 </r>
       <r>    4.9575    1.0000 </r>
       <r>    6.6699    1.0000 </r>
       <r>    6.8422    1.0000 </r>
       <r>    8.2524    1.0000 </r>
       <r>    9.8151    0.0000 </r>
       <r>   10.1024    0.0000 </r>
       <r>   10.1674    0.0000 </r>
       <r>   10.1924    0.0000 </r>
       <r>   10.3227    0.0000 </r>
      </set>
      <set comment="kpoint 46">
       <r>  -31.5719    1.0000 </r>
       <r>  -14.4832    1.0000 </r>
       <r>  -14.4815    1.0000 </r>
       <r>  -14.4557    1.0000 </r>
       <r>  -14.4466    1.0000 </r>
       <r>  -14.4458    1.0000 </r>
       <r>   -9.7387    1.0000 </r>
       <r>   -9.6263    1.0000 </r>
       <r>   -9.5897    1.0000 </r>
       <r>   -3.0737    1.0000 </r>
       <r>    3.5373    1.0000 </r>
       <r>    3.7383    1.0000 </r>
       <r>    3.9647    1.0000 </r>
       <r>    4.4553    1.0000 </r>
       <r>    4.7324    1.0000 </r>
       <r>    4.8230    1.0000 </r>
       <r>    6.2993    1.0000 </r>
       <r>    6.7890    1.0000 </r>
       <r>    8.3667    1.0000 </r>
       <r>    9.8793    0.0000 </r>
       <r>   10.1712    0.0000 </r>
       <r>   10.2326    0.0000 </r>
       <r>   10.2540    0.0000 </r>
       <r>   10.5068    0.0000 </r>
      </set>
      <set comment="kpoint 47">
       <r>  -31.5719    1.0000 </r>
       <r>  -14.4867    1.0000 </r>
       <r>  -14.4822    1.0000 </r>
       <r>  -14.4546    1.0000 </r>
       <r>  -14.4477    1.0000 </r>
       <r>  -14.4461    1.0000 </r>
       <r>   -9.7228    1.0000 </r>
       <r>   -9.6529    1.0000 </r>
       <r>   -9.5759    1.0000 </r>
       <r>   -3.0103    1.0000 </r>
       <r>    3.5215    1.0000 </r>
       <r>    3.6403    1.0000 </r>
       <r>    3.8334    1.0000 </r>
       <r>    4.5276    1.0000 </r>
       <r>    4.7735    1.0000 </r>
       <r>    4.9254    1.0000 </r>
       <r>    5.9311    1.0000 </r>
       <r>    6.6981    1.0000 </r>
       <r>    8.5009    0.0274 </r>
       <r>    9.7495    0.0000 </r>
       <r>   10.1954    0.0000 </r>
       <r>   10.2583    0.0000 </r>
       <r>   10.3335    0.0000 </r>
       <r>   10.5480    0.0000 </r>
      </set>
      <set comment="kpoint 48">
       <r>  -31.5720    1.0000 </r>
       <r>  -14.4803    1.0000 </r>
       <r>  -14.4798    1.0000 </r>
       <r>  -14.4567    1.0000 </r>
       <r>  -14.4455    1.0000 </r>
       <r>  -14.4455    1.0000 </r>
       <r>   -9.7522    1.0000 </r>
       <r>   -9.6031    1.0000 </r>
       <r>   -9.6031    1.0000 </r>
       <r>   -3.1403    1.0000 </r>
       <r>    3.5848    1.0000 </r>
       <r>    4.0314    1.0000 </r>
       <r>    4.0817    1.0000 </r>
       <r>    4.0817    1.0000 </r>
       <r>    4.7065    1.0000 </r>
       <r>    4.7628    1.0000 </r>
       <r>    6.9217    1.0000 </r>
       <r>    6.9217    1.0000 </r>
       <r>    8.2200    1.0000 </r>
       <r>    9.8306    0.0000 </r>
       <r>   10.0157    0.0000 </r>
       <r>   10.1280    0.0000 </r>
       <r>   10.1770    0.0000 </r>
       <r>   10.1770    0.0000 </r>
      </set>
      <set comment="kpoint 49">
       <r>  -31.5719    1.0000 </r>
       <r>  -14.4806    1.0000 </r>
       <r>  -14.4799    1.0000 </r>
       <r>  -14.4565    1.0000 </r>
       <r>  -14.4457    1.0000 </r>
       <r>  -14.4455    1.0000 </r>
       <r>   -9.7504    1.0000 </r>
       <r>   -9.6105    1.0000 </r>
       <r>   -9.6002    1.0000 </r>
       <r>   -3.1284    1.0000 </r>
       <r>    3.6764    1.0000 </r>
       <r>    3.8668    1.0000 </r>
       <r>    4.0445    1.0000 </r>
       <r>    4.2642    1.0000 </r>
       <r>    4.6828    1.0000 </r>
       <r>    4.7200    1.0000 </r>
       <r>    6.7298    1.0000 </r>
       <r>    6.8952    1.0000 </r>
       <r>    8.2744    1.0000 </r>
       <r>   10.0058    0.0000 </r>
       <r>   10.0790    0.0000 </r>
       <r>   10.1280    0.0000 </r>
       <r>   10.1935    0.0000 </r>
       <r>   10.2075    0.0000 </r>
      </set>
      <set comment="kpoint 50">
       <r>  -31.5769    1.0000 </r>
       <r>  -14.4909    1.0000 </r>
       <r>  -14.4846    1.0000 </r>
       <r>  -14.4520    1.0000 </r>
       <r>  -14.4499    1.0000 </r>
       <r>  -14.4498    1.0000 </r>
       <r>   -9.6404    1.0000 </r>
       <r>   -9.5779    1.0000 </r>
       <r>   -9.5555    1.0000 </r>
       <r>   -3.4082    1.0000 </r>
       <r>    3.2218    1.0000 </r>
       <r>    3.8813    1.0000 </r>
       <r>    4.2239    1.0000 </r>
       <r>    4.4737    1.0000 </r>
       <r>    4.7312    1.0000 </r>
       <r>    5.7416    1.0000 </r>
       <r>    6.6165    1.0000 </r>
       <r>    7.0258    1.0000 </r>
       <r>    8.4264    1.0000 </r>
       <r>    8.5646    0.0000 </r>
       <r>    9.3509    0.0000 </r>
       <r>    9.7156    0.0000 </r>
       <r>   10.3148    0.0000 </r>
       <r>   10.4380    0.0000 </r>
      </set>
      <set comment="kpoint 51">
       <r>  -31.5758    1.0000 </r>
       <r>  -14.4933    1.0000 </r>
       <r>  -14.4859    1.0000 </r>
       <r>  -14.4525    1.0000 </r>
       <r>  -14.4495    1.0000 </r>
       <r>  -14.4492    1.0000 </r>
       <r>   -9.6854    1.0000 </r>
       <r>   -9.5805    1.0000 </r>
       <r>   -9.5462    1.0000 </r>
       <r>   -3.2138    1.0000 </r>
       <r>    2.9786    1.0000 </r>
       <r>    3.6982    1.0000 </r>
       <r>    4.1375    1.0000 </r>
       <r>    4.5036    1.0000 </r>
       <r>    4.7947    1.0000 </r>
       <r>    5.4558    1.0000 </r>
       <r>    6.4065    1.0000 </r>
       <r>    6.9287    1.0000 </r>
       <r>    8.4229    1.0000 </r>
       <r>    9.0053    0.0000 </r>
       <r>    9.5879    0.0000 </r>
       <r>   10.0563    0.0000 </r>
       <r>   10.4197    0.0000 </r>
       <r>   10.5142    0.0000 </r>
      </set>
      <set comment="kpoint 52">
       <r>  -31.5746    1.0000 </r>
       <r>  -14.4950    1.0000 </r>
       <r>  -14.4882    1.0000 </r>
       <r>  -14.4529    1.0000 </r>
       <r>  -14.4491    1.0000 </r>
       <r>  -14.4486    1.0000 </r>
       <r>   -9.7328    1.0000 </r>
       <r>   -9.5765    1.0000 </r>
       <r>   -9.5401    1.0000 </r>
       <r>   -3.0135    1.0000 </r>
       <r>    2.7952    1.0000 </r>
       <r>    3.5813    1.0000 </r>
       <r>    4.0009    1.0000 </r>
       <r>    4.5025    1.0000 </r>
       <r>    4.7868    1.0000 </r>
       <r>    5.1446    1.0000 </r>
       <r>    6.3921    1.0000 </r>
       <r>    6.8495    1.0000 </r>
       <r>    8.3853    1.0000 </r>
       <r>    9.4392    0.0000 </r>
       <r>    9.8167    0.0000 </r>
       <r>   10.2946    0.0000 </r>
       <r>   10.4064    0.0000 </r>
       <r>   10.5509    0.0000 </r>
      </set>
      <set comment="kpoint 53">
       <r>  -31.5736    1.0000 </r>
       <r>  -14.4957    1.0000 </r>
[...]
       <r>    8.9115    0.0000 </r>
       <r>    9.3711    0.0000 </r>
       <r>   10.1465    0.0000 </r>
       <r>   10.2523    0.0000 </r>
       <r>   10.3719    0.0000 </r>
       <r>   10.5267    0.0000 </r>
      </set>
      <set comment="kpoint 81">
       <r>  -31.5722    1.0000 </r>
       <r>  -14.4919    1.0000 </r>
       <r>  -14.4832    1.0000 </r>
       <r>  -14.4524    1.0000 </r>
       <r>  -14.4503    1.0000 </r>
       <r>  -14.4463    1.0000 </r>
       <r>   -9.7179    1.0000 </r>
       <r>   -9.6500    1.0000 </r>
       <r>   -9.5674    1.0000 </r>
       <r>   -2.9319    1.0000 </r>
       <r>    3.2012    1.0000 </r>
       <r>    3.5153    1.0000 </r>
       <r>    3.9291    1.0000 </r>
       <r>    4.5796    1.0000 </r>
       <r>    4.7710    1.0000 </r>
       <r>    5.1441    1.0000 </r>
       <r>    5.5147    1.0000 </r>
       <r>    6.8287    1.0000 </r>
       <r>    8.9296    0.0000 </r>
       <r>    9.3633    0.0000 </r>
       <r>   10.1270    0.0000 </r>
       <r>   10.2565    0.0000 </r>
       <r>   10.3837    0.0000 </r>
       <r>   10.5233    0.0000 </r>
      </set>
      <set comment="kpoint 82">
       <r>  -31.5719    1.0000 </r>
       <r>  -14.4870    1.0000 </r>
       <r>  -14.4802    1.0000 </r>
       <r>  -14.4547    1.0000 </r>
       <r>  -14.4482    1.0000 </r>
       <r>  -14.4455    1.0000 </r>
       <r>   -9.7255    1.0000 </r>
       <r>   -9.6307    1.0000 </r>
       <r>   -9.5978    1.0000 </r>
       <r>   -3.0343    1.0000 </r>
       <r>    3.5158    1.0000 </r>
       <r>    3.6172    1.0000 </r>
       <r>    4.0572    1.0000 </r>
       <r>    4.5149    1.0000 </r>
       <r>    4.7667    1.0000 </r>
       <r>    4.8550    1.0000 </r>
       <r>    5.7310    1.0000 </r>
       <r>    6.9793    1.0000 </r>
       <r>    8.6171    0.0000 </r>
       <r>    9.6919    0.0000 </r>
       <r>   10.0586    0.0000 </r>
       <r>   10.1725    0.0000 </r>
       <r>   10.3029    0.0000 </r>
       <r>   10.5411    0.0000 </r>
      </set>
      <set comment="kpoint 83">
       <r>  -31.5718    1.0000 </r>
       <r>  -14.4890    1.0000 </r>
       <r>  -14.4802    1.0000 </r>
       <r>  -14.4536    1.0000 </r>
       <r>  -14.4494    1.0000 </r>
       <r>  -14.4455    1.0000 </r>
       <r>   -9.7110    1.0000 </r>
       <r>   -9.6497    1.0000 </r>
       <r>   -9.5932    1.0000 </r>
       <r>   -3.0010    1.0000 </r>
       <r>    3.5012    1.0000 </r>
       <r>    3.5965    1.0000 </r>
       <r>    4.0163    1.0000 </r>
       <r>    4.5548    1.0000 </r>
       <r>    4.7953    1.0000 </r>
       <r>    4.9307    1.0000 </r>
       <r>    5.4362    1.0000 </r>
       <r>    6.9680    1.0000 </r>
       <r>    8.7910    0.0000 </r>
       <r>    9.5380    0.0000 </r>
       <r>   10.1075    0.0000 </r>
       <r>   10.1757    0.0000 </r>
       <r>   10.3433    0.0000 </r>
       <r>   10.5395    0.0000 </r>
      </set>
      <set comment="kpoint 84">
       <r>  -31.5718    1.0000 </r>
       <r>  -14.4902    1.0000 </r>
       <r>  -14.4802    1.0000 </r>
       <r>  -14.4526    1.0000 </r>
       <r>  -14.4505    1.0000 </r>
       <r>  -14.4455    1.0000 </r>
       <r>   -9.7039    1.0000 </r>
       <r>   -9.6541    1.0000 </r>
       <r>   -9.5944    1.0000 </r>
       <r>   -2.9836    1.0000 </r>
       <r>    3.4654    1.0000 </r>
       <r>    3.5683    1.0000 </r>
       <r>    4.0320    1.0000 </r>
       <r>    4.5765    1.0000 </r>
       <r>    4.8229    1.0000 </r>
       <r>    5.0165    1.0000 </r>
       <r>    5.2288    1.0000 </r>
       <r>    6.9905    1.0000 </r>
       <r>    9.0131    0.0000 </r>
       <r>    9.3295    0.0000 </r>
       <r>   10.0888    0.0000 </r>
       <r>   10.1728    0.0000 </r>
       <r>   10.3759    0.0000 </r>
       <r>   10.5209    0.0000 </r>
      </set>
     </set>
    </set>
   </array>
  </eigenvalues>
  <separator name="orbital magnetization" >
   <v name="MAGDIPOLOUT">      0.00000000      0.00000000      0.00000000</v>
  </separator>
  <dos>
   <i name="efermi">      8.48733957 </i>
   <total>
    <array>
     <dimension dim="1">gridpoints</dimension>
     <dimension dim="2">spin</dimension>
     <field>energy</field>
     <field>total</field>
     <field>integrated</field>
     <set>
      <set comment="spin 1">
       <r>   -33.6885     0.0000     0.0000 </r>
       <r>   -33.5338     0.0000     0.0000 </r>
       <r>   -33.3791     0.0000     0.0000 </r>
       <r>   -33.2244     0.0000     0.0000 </r>
       <r>   -33.0697     0.0000     0.0000 </r>
       <r>   -32.9149     0.0000     0.0000 </r>
       <r>   -32.7602     0.0000     0.0000 </r>
       <r>   -32.6055     0.0000     0.0000 </r>
       <r>   -32.4508     0.0000     0.0000 </r>
       <r>   -32.2961     0.0000     0.0000 </r>
       <r>   -32.1414     0.0000     0.0000 </r>
       <r>   -31.9866     0.0000     0.0000 </r>
       <r>   -31.8319     0.0000     0.0000 </r>
       <r>   -31.6772     0.0000     0.0000 </r>
       <r>   -31.5225    12.9269     2.0000 </r>
       <r>   -31.3678     0.0000     2.0000 </r>
       <r>   -31.2131     0.0000     2.0000 </r>
       <r>   -31.0584     0.0000     2.0000 </r>
       <r>   -30.9036     0.0000     2.0000 </r>
       <r>   -30.7489     0.0000     2.0000 </r>
       <r>   -30.5942     0.0000     2.0000 </r>
       <r>   -30.4395     0.0000     2.0000 </r>
       <r>   -30.2848     0.0000     2.0000 </r>
       <r>   -30.1301     0.0000     2.0000 </r>
       <r>   -29.9753     0.0000     2.0000 </r>
       <r>   -29.8206     0.0000     2.0000 </r>
       <r>   -29.6659     0.0000     2.0000 </r>
       <r>   -29.5112     0.0000     2.0000 </r>
       <r>   -29.3565     0.0000     2.0000 </r>
       <r>   -29.2018     0.0000     2.0000 </r>
       <r>   -29.0470     0.0000     2.0000 </r>
       <r>   -28.8923     0.0000     2.0000 </r>
       <r>   -28.7376     0.0000     2.0000 </r>
       <r>   -28.5829     0.0000     2.0000 </r>
       <r>   -28.4282     0.0000     2.0000 </r>
       <r>   -28.2735     0.0000     2.0000 </r>
       <r>   -28.1187     0.0000     2.0000 </r>
       <r>   -27.9640     0.0000     2.0000 </r>
       <r>   -27.8093     0.0000     2.0000 </r>
       <r>   -27.6546     0.0000     2.0000 </r>
       <r>   -27.4999     0.0000     2.0000 </r>
       <r>   -27.3452     0.0000     2.0000 </r>
       <r>   -27.1905     0.0000     2.0000 </r>
       <r>   -27.0357     0.0000     2.0000 </r>
       <r>   -26.8810     0.0000     2.0000 </r>
       <r>   -26.7263     0.0000     2.0000 </r>
       <r>   -26.5716     0.0000     2.0000 </r>
       <r>   -26.4169     0.0000     2.0000 </r>
       <r>   -26.2622     0.0000     2.0000 </r>
       <r>   -26.1074     0.0000     2.0000 </r>
       <r>   -25.9527     0.0000     2.0000 </r>
       <r>   -25.7980     0.0000     2.0000 </r>
       <r>   -25.6433     0.0000     2.0000 </r>
       <r>   -25.4886     0.0000     2.0000 </r>
       <r>   -25.3339     0.0000     2.0000 </r>
       <r>   -25.1791     0.0000     2.0000 </r>
       <r>   -25.0244     0.0000     2.0000 </r>
       <r>   -24.8697     0.0000     2.0000 </r>
       <r>   -24.7150     0.0000     2.0000 </r>
       <r>   -24.5603     0.0000     2.0000 </r>
       <r>   -24.4056     0.0000     2.0000 </r>
       <r>   -24.2508     0.0000     2.0000 </r>
       <r>   -24.0961     0.0000     2.0000 </r>
       <r>   -23.9414     0.0000     2.0000 </r>
       <r>   -23.7867     0.0000     2.0000 </r>
       <r>   -23.6320     0.0000     2.0000 </r>
       <r>   -23.4773     0.0000     2.0000 </r>
       <r>   -23.3226     0.0000     2.0000 </r>
       <r>   -23.1678     0.0000     2.0000 </r>
       <r>   -23.0131     0.0000     2.0000 </r>
       <r>   -22.8584     0.0000     2.0000 </r>
       <r>   -22.7037     0.0000     2.0000 </r>
       <r>   -22.5490     0.0000     2.0000 </r>
       <r>   -22.3943     0.0000     2.0000 </r>
       <r>   -22.2395     0.0000     2.0000 </r>
       <r>   -22.0848     0.0000     2.0000 </r>
       <r>   -21.9301     0.0000     2.0000 </r>
       <r>   -21.7754     0.0000     2.0000 </r>
       <r>   -21.6207     0.0000     2.0000 </r>
       <r>   -21.4660     0.0000     2.0000 </r>
       <r>   -21.3112     0.0000     2.0000 </r>
       <r>   -21.1565     0.0000     2.0000 </r>
       <r>   -21.0018     0.0000     2.0000 </r>
       <r>   -20.8471     0.0000     2.0000 </r>
       <r>   -20.6924     0.0000     2.0000 </r>
       <r>   -20.5377     0.0000     2.0000 </r>
       <r>   -20.3829     0.0000     2.0000 </r>
       <r>   -20.2282     0.0000     2.0000 </r>
       <r>   -20.0735     0.0000     2.0000 </r>
       <r>   -19.9188     0.0000     2.0000 </r>
       <r>   -19.7641     0.0000     2.0000 </r>
       <r>   -19.6094     0.0000     2.0000 </r>
       <r>   -19.4547     0.0000     2.0000 </r>
       <r>   -19.2999     0.0000     2.0000 </r>
       <r>   -19.1452     0.0000     2.0000 </r>
       <r>   -18.9905     0.0000     2.0000 </r>
       <r>   -18.8358     0.0000     2.0000 </r>
       <r>   -18.6811     0.0000     2.0000 </r>
       <r>   -18.5264     0.0000     2.0000 </r>
       <r>   -18.3716     0.0000     2.0000 </r>
       <r>   -18.2169     0.0000     2.0000 </r>
       <r>   -18.0622     0.0000     2.0000 </r>
       <r>   -17.9075     0.0000     2.0000 </r>
       <r>   -17.7528     0.0000     2.0000 </r>
       <r>   -17.5981     0.0000     2.0000 </r>
       <r>   -17.4433     0.0000     2.0000 </r>
       <r>   -17.2886     0.0000     2.0000 </r>
       <r>   -17.1339     0.0000     2.0000 </r>
       <r>   -16.9792     0.0000     2.0000 </r>
       <r>   -16.8245     0.0000     2.0000 </r>
       <r>   -16.6698     0.0000     2.0000 </r>
       <r>   -16.5151     0.0000     2.0000 </r>
       <r>   -16.3603     0.0000     2.0000 </r>
       <r>   -16.2056     0.0000     2.0000 </r>
       <r>   -16.0509     0.0000     2.0000 </r>
       <r>   -15.8962     0.0000     2.0000 </r>
       <r>   -15.7415     0.0000     2.0000 </r>
       <r>   -15.5868     0.0000     2.0000 </r>
       <r>   -15.4320     0.0000     2.0000 </r>
       <r>   -15.2773     0.0000     2.0000 </r>
       <r>   -15.1226     0.0000     2.0000 </r>
       <r>   -14.9679     0.0000     2.0000 </r>
       <r>   -14.8132     0.0000     2.0000 </r>
       <r>   -14.6585     0.0000     2.0000 </r>
       <r>   -14.5037     0.9740     2.1507 </r>
       <r>   -14.3490     0.0000    12.0000 </r>
       <r>   -14.1943     0.0000    12.0000 </r>
       <r>   -14.0396     0.0000    12.0000 </r>
       <r>   -13.8849     0.0000    12.0000 </r>
       <r>   -13.7302     0.0000    12.0000 </r>
       <r>   -13.5754     0.0000    12.0000 </r>
       <r>   -13.4207     0.0000    12.0000 </r>
       <r>   -13.2660     0.0000    12.0000 </r>
       <r>   -13.1113     0.0000    12.0000 </r>
       <r>   -12.9566     0.0000    12.0000 </r>
       <r>   -12.8019     0.0000    12.0000 </r>
       <r>   -12.6472     0.0000    12.0000 </r>
       <r>   -12.4924     0.0000    12.0000 </r>
       <r>   -12.3377     0.0000    12.0000 </r>
       <r>   -12.1830     0.0000    12.0000 </r>
       <r>   -12.0283     0.0000    12.0000 </r>
       <r>   -11.8736     0.0000    12.0000 </r>
       <r>   -11.7189     0.0000    12.0000 </r>
       <r>   -11.5641     0.0000    12.0000 </r>
       <r>   -11.4094     0.0000    12.0000 </r>
       <r>   -11.2547     0.0000    12.0000 </r>
       <r>   -11.1000     0.0000    12.0000 </r>
       <r>   -10.9453     0.0000    12.0000 </r>
       <r>   -10.7906     0.0000    12.0000 </r>
       <r>   -10.6358     0.0000    12.0000 </r>
       <r>   -10.4811     0.0000    12.0000 </r>
       <r>   -10.3264     0.0000    12.0000 </r>
       <r>   -10.1717     0.0000    12.0000 </r>
       <r>   -10.0170     0.0000    12.0000 </r>
       <r>    -9.8623     0.0000    12.0000 </r>
       <r>    -9.7075     9.7300    13.6292 </r>
       <r>    -9.5528    17.7462    17.0579 </r>
       <r>    -9.3981     0.0000    18.0000 </r>
       <r>    -9.2434     0.0000    18.0000 </r>
       <r>    -9.0887     0.0000    18.0000 </r>
       <r>    -8.9340     0.0000    18.0000 </r>
       <r>    -8.7793     0.0000    18.0000 </r>
       <r>    -8.6245     0.0000    18.0000 </r>
       <r>    -8.4698     0.0000    18.0000 </r>
       <r>    -8.3151     0.0000    18.0000 </r>
       <r>    -8.1604     0.0000    18.0000 </r>
       <r>    -8.0057     0.0000    18.0000 </r>
       <r>    -7.8510     0.0000    18.0000 </r>
       <r>    -7.6962     0.0000    18.0000 </r>
       <r>    -7.5415     0.0000    18.0000 </r>
       <r>    -7.3868     0.0000    18.0000 </r>
       <r>    -7.2321     0.0000    18.0000 </r>
       <r>    -7.0774     0.0000    18.0000 </r>
       <r>    -6.9227     0.0000    18.0000 </r>
       <r>    -6.7679     0.0000    18.0000 </r>
       <r>    -6.6132     0.0000    18.0000 </r>
       <r>    -6.4585     0.0000    18.0000 </r>
       <r>    -6.3038     0.0000    18.0000 </r>
       <r>    -6.1491     0.0000    18.0000 </r>
       <r>    -5.9944     0.0000    18.0000 </r>
       <r>    -5.8396     0.0000    18.0000 </r>
       <r>    -5.6849     0.0000    18.0000 </r>
       <r>    -5.5302     0.0000    18.0000 </r>
       <r>    -5.3755     0.0000    18.0000 </r>
       <r>    -5.2208     0.0000    18.0000 </r>
       <r>    -5.0661     0.0000    18.0000 </r>
       <r>    -4.9114     0.0000    18.0000 </r>
       <r>    -4.7566     0.0000    18.0000 </r>
       <r>    -4.6019     0.0000    18.0000 </r>
       <r>    -4.4472     0.0000    18.0000 </r>
       <r>    -4.2925     0.0000    18.0000 </r>
       <r>    -4.1378     0.0000    18.0000 </r>
       <r>    -3.9831     0.0000    18.0000 </r>
       <r>    -3.8283     0.0000    18.0000 </r>
       <r>    -3.6736     0.0704    18.0118 </r>
       <r>    -3.5189     0.1819    18.0527 </r>
       <r>    -3.3642     0.2826    18.1029 </r>
       <r>    -3.2095     0.3721    18.2041 </r>
       <r>    -3.0548     1.6567    18.5631 </r>
       <r>    -2.9000     3.1758    19.4281 </r>
       <r>    -2.7453     0.8707    19.9672 </r>
       <r>    -2.5906     0.0000    20.0000 </r>
       <r>    -2.4359     0.0000    20.0000 </r>
       <r>    -2.2812     0.0000    20.0000 </r>
       <r>    -2.1265     0.0000    20.0000 </r>
       <r>    -1.9717     0.0000    20.0000 </r>
       <r>    -1.8170     0.0000    20.0000 </r>
       <r>    -1.6623     0.0000    20.0000 </r>
       <r>    -1.5076     0.0000    20.0000 </r>
       <r>    -1.3529     0.0000    20.0000 </r>
       <r>    -1.1982     0.0000    20.0000 </r>
       <r>    -1.0435     0.0000    20.0000 </r>
       <r>    -0.8887     0.0000    20.0000 </r>
       <r>    -0.7340     0.0000    20.0000 </r>
       <r>    -0.5793     0.0000    20.0000 </r>
       <r>    -0.4246     0.0000    20.0000 </r>
       <r>    -0.2699     0.0000    20.0000 </r>
       <r>    -0.1152     0.0000    20.0000 </r>
       <r>     0.0396     0.0000    20.0000 </r>
       <r>     0.1943     0.0000    20.0000 </r>
       <r>     0.3490     0.0000    20.0000 </r>
       <r>     0.5037     0.0000    20.0000 </r>
       <r>     0.6584     0.0000    20.0000 </r>
       <r>     0.8131     0.0000    20.0000 </r>
       <r>     0.9679     0.0000    20.0000 </r>
       <r>     1.1226     0.0000    20.0000 </r>
       <r>     1.2773     0.0000    20.0000 </r>
       <r>     1.4320     0.0000    20.0000 </r>
       <r>     1.5867     0.0000    20.0000 </r>
       <r>     1.7414     0.0000    20.0000 </r>
       <r>     1.8961     0.0000    20.0000 </r>
       <r>     2.0509     0.0000    20.0000 </r>
       <r>     2.2056     0.0000    20.0000 </r>
       <r>     2.3603     0.0000    20.0000 </r>
       <r>     2.5150     0.1810    20.0280 </r>
       <r>     2.6697     0.3586    20.1283 </r>
       <r>     2.8244     2.3891    20.6901 </r>
       <r>     2.9792     1.3939    21.1041 </r>
       <r>     3.1339     1.4386    21.3696 </r>
       <r>     3.2886     0.6148    21.5425 </r>
       <r>     3.4433     0.4551    21.7491 </r>
       <r>     3.5980     4.8840    22.8385 </r>
       <r>     3.7527     3.2120    23.8160 </r>
       <r>     3.9075     2.6865    24.5959 </r>
       <r>     4.0622     2.5676    25.4114 </r>
       <r>     4.2169     1.2823    25.9663 </r>
       <r>     4.3716     0.1447    26.0715 </r>
       <r>     4.5263     5.6895    27.0022 </r>
       <r>     4.6810     3.9036    28.6649 </r>
       <r>     4.8358     4.5357    30.1082 </r>
       <r>     4.9905     1.4983    30.6342 </r>
       <r>     5.1452     2.1407    31.2761 </r>
       <r>     5.2999     1.0035    31.5972 </r>
       <r>     5.4546     0.9686    31.8504 </r>
       <r>     5.6093     0.7016    32.0439 </r>
       <r>     5.7640     1.1871    32.2501 </r>
       <r>     5.9188     0.3427    32.4927 </r>
       <r>     6.0735     0.9020    32.7595 </r>
       <r>     6.2282     0.7900    33.0808 </r>
       <r>     6.3829     0.4543    33.2492 </r>
       <r>     6.5376     0.6819    33.5902 </r>
       <r>     6.6923     1.3055    33.8187 </r>
       <r>     6.8471     4.8345    35.1840 </r>
       <r>     7.0018     1.1717    35.8372 </r>
       <r>     7.1565     0.2159    35.9588 </r>
       <r>     7.3112     0.0932    35.9871 </r>
       <r>     7.4659     0.0177    36.0009 </r>
       <r>     7.6206     0.0471    36.0082 </r>
       <r>     7.7754     0.0471    36.0155 </r>
       <r>     7.9301     0.0615    36.0377 </r>
       <r>     8.0848     0.1103    36.0635 </r>
       <r>     8.2395     0.6059    36.2785 </r>
       <r>     8.3942     1.4900    36.6356 </r>
       <r>     8.5489     1.6290    37.1596 </r>
       <r>     8.7037     1.7017    37.6625 </r>
       <r>     8.8584     1.6234    38.0354 </r>
       <r>     9.0131     0.5635    38.2101 </r>
       <r>     9.1678     0.3620    38.3191 </r>
       <r>     9.3225     0.9257    38.5046 </r>
       <r>     9.4772     1.1485    38.8504 </r>
       <r>     9.6319     2.3814    39.5774 </r>
       <r>     9.7867     2.7362    40.3186 </r>
       <r>     9.9414     1.7868    40.8600 </r>
       <r>    10.0961     3.3460    41.6529 </r>
       <r>    10.2508     4.1905    43.0471 </r>
       <r>    10.4055    10.8129    45.7376 </r>
       <r>    10.5602     7.8256    47.3983 </r>
       <r>    10.7150     0.0000    48.0000 </r>
       <r>    10.8697     0.0000    48.0000 </r>
       <r>    11.0244     0.0000    48.0000 </r>
       <r>    11.1791     0.0000    48.0000 </r>
       <r>    11.3338     0.0000    48.0000 </r>
       <r>    11.4885     0.0000    48.0000 </r>
       <r>    11.6433     0.0000    48.0000 </r>
       <r>    11.7980     0.0000    48.0000 </r>
       <r>    11.9527     0.0000    48.0000 </r>
       <r>    12.1074     0.0000    48.0000 </r>
       <r>    12.2621     0.0000    48.0000 </r>
       <r>    12.4168     0.0000    48.0000 </r>
       <r>    12.5716     0.0000    48.0000 </r>
       <r>    12.7263     0.0000    48.0000 </r>
      </set>
     </set>
    </array>
   </total>
  </dos>
 </calculation>
 <structure name="finalpos" >
  <crystal>
   <varray name="basis" >
    <v>       0.00000000       3.42485900       3.42485900 </v>
    <v>       3.42485900       0.00000000       3.42485900 </v>
    <v>       3.42485900       3.42485900       0.00000000 </v>
   </varray>
   <i name="volume">     80.34485755 </i>
   <varray name="rec_basis" >
    <v>      -0.14599141       0.14599141       0.14599141 </v>
    <v>       0.14599141      -0.14599141       0.14599141 </v>
    <v>       0.14599141       0.14599141      -0.14599141 </v>
   </varray>
  </crystal>
  <varray name="positions" >
   <v>       0.25000000       0.25000000       0.25000000 </v>
   <v>       0.75000000       0.75000000       0.75000000 </v>
   <v>       0.00000000       0.00000000       0.00000000 </v>
  </varray>
 </structure>
</modeling>
