   2   2   0   0
  0.2073163E+02  0.3885016E-09  0.3885016E-09  0.3885016E-09  0.0000000E+00
  1.000000000000000E-004
  CAR 
 unknown system                          
     16.89516197     -8.86047632  301      4.71489136      1.00000000
     -8.860  0.0000E+00  0.0000E+00
     -8.775  0.0000E+00  0.0000E+00
     -8.689  0.0000E+00  0.0000E+00
     -8.603  0.0000E+00  0.0000E+00
     -8.517  0.0000E+00  0.0000E+00
     -8.431  0.0000E+00  0.0000E+00
     -8.345  0.0000E+00  0.0000E+00
     -8.260  0.0000E+00  0.0000E+00
     -8.174  0.0000E+00  0.0000E+00
     -8.088  0.0000E+00  0.0000E+00
     -8.002  0.0000E+00  0.0000E+00
     -7.916  0.0000E+00  0.0000E+00
     -7.830  0.0000E+00  0.0000E+00
     -7.744  0.0000E+00  0.0000E+00
     -7.659  0.7207E-01  0.1012E-02
     -7.573  0.1442E+00  0.1052E-01
     -7.487  0.2005E+00  0.2558E-01
     -7.401  0.2474E+00  0.4470E-01
     -7.315  0.2845E+00  0.6755E-01
     -7.229  0.3257E+00  0.9374E-01
     -7.143  0.3606E+00  0.1232E+00
     -7.058  0.3995E+00  0.1558E+00
     -6.972  0.4359E+00  0.1916E+00
     -6.886  0.4754E+00  0.2307E+00
     -6.800  0.5167E+00  0.2733E+00
     -6.714  0.5606E+00  0.3195E+00
     -6.628  0.6082E+00  0.3697E+00
     -6.542  0.6626E+00  0.4242E+00
     -6.457  0.7237E+00  0.4836E+00
     -6.371  0.7935E+00  0.5487E+00
     -6.285  0.8855E+00  0.6206E+00
     -6.199  0.1000E+01  0.7013E+00
     -6.113  0.1172E+01  0.7937E+00
     -6.027  0.1544E+01  0.9110E+00
     -5.942  0.1547E+01  0.1043E+01
     -5.856  0.1550E+01  0.1176E+01
     -5.770  0.1550E+01  0.1308E+01
     -5.684  0.1580E+01  0.1442E+01
     -5.598  0.1638E+01  0.1580E+01
     -5.512  0.1759E+01  0.1725E+01
     -5.426  0.2205E+01  0.1889E+01
     -5.341  0.0000E+00  0.2000E+01
     -5.255  0.0000E+00  0.2000E+01
     -5.169  0.0000E+00  0.2000E+01
     -5.083  0.0000E+00  0.2000E+01
     -4.997  0.0000E+00  0.2000E+01
     -4.911  0.0000E+00  0.2000E+01
     -4.825  0.0000E+00  0.2000E+01
     -4.740  0.0000E+00  0.2000E+01
     -4.654  0.0000E+00  0.2000E+01
     -4.568  0.0000E+00  0.2000E+01
     -4.482  0.0000E+00  0.2000E+01
     -4.396  0.0000E+00  0.2000E+01
     -4.310  0.0000E+00  0.2000E+01
     -4.224  0.0000E+00  0.2000E+01
     -4.139  0.0000E+00  0.2000E+01
     -4.053  0.0000E+00  0.2000E+01
     -3.967  0.0000E+00  0.2000E+01
     -3.881  0.0000E+00  0.2000E+01
     -3.795  0.0000E+00  0.2000E+01
     -3.709  0.0000E+00  0.2000E+01
     -3.623  0.0000E+00  0.2000E+01
     -3.538  0.0000E+00  0.2000E+01
     -3.452  0.0000E+00  0.2000E+01
     -3.366  0.0000E+00  0.2000E+01
     -3.280  0.0000E+00  0.2000E+01
     -3.194  0.0000E+00  0.2000E+01
     -3.108  0.0000E+00  0.2000E+01
     -3.023  0.0000E+00  0.2000E+01
     -2.937  0.0000E+00  0.2000E+01
     -2.851  0.0000E+00  0.2000E+01
     -2.765  0.0000E+00  0.2000E+01
     -2.679  0.0000E+00  0.2000E+01
     -2.593  0.0000E+00  0.2000E+01
     -2.507  0.0000E+00  0.2000E+01
     -2.422  0.0000E+00  0.2000E+01
     -2.336  0.0000E+00  0.2000E+01
     -2.250  0.0000E+00  0.2000E+01
     -2.164  0.0000E+00  0.2000E+01
     -2.078  0.0000E+00  0.2000E+01
     -1.992  0.0000E+00  0.2000E+01
     -1.906  0.0000E+00  0.2000E+01
     -1.821  0.0000E+00  0.2000E+01
     -1.735  0.0000E+00  0.2000E+01
     -1.649  0.0000E+00  0.2000E+01
     -1.563  0.0000E+00  0.2000E+01
     -1.477  0.0000E+00  0.2000E+01
     -1.391  0.0000E+00  0.2000E+01
     -1.305  0.0000E+00  0.2000E+01
     -1.220  0.2294E+00  0.2010E+01
     -1.134  0.3954E+00  0.2037E+01
     -1.048  0.5523E+00  0.2076E+01
     -0.962  0.9809E+00  0.2142E+01
     -0.876  0.1335E+01  0.2239E+01
     -0.790  0.2027E+01  0.2379E+01
     -0.705  0.3273E+01  0.2623E+01
     -0.619  0.1931E+01  0.2881E+01
     -0.533  0.1248E+01  0.3013E+01
     -0.447  0.9914E+00  0.3107E+01
     -0.361  0.7981E+00  0.3184E+01
     -0.275  0.7093E+00  0.3248E+01
     -0.189  0.6271E+00  0.3306E+01
     -0.104  0.5457E+00  0.3356E+01
     -0.018  0.5060E+00  0.3401E+01
      0.068  0.4654E+00  0.3443E+01
      0.154  0.4200E+00  0.3481E+01
      0.240  0.3837E+00  0.3515E+01
      0.326  0.3616E+00  0.3547E+01
      0.412  0.3398E+00  0.3578E+01
      0.497  0.3141E+00  0.3606E+01
      0.583  0.2859E+00  0.3631E+01
      0.669  0.2703E+00  0.3655E+01
      0.755  0.2571E+00  0.3678E+01
      0.841  0.5871E+00  0.3705E+01
      0.927  0.7193E+00  0.3757E+01
      1.013  0.9846E+00  0.3829E+01
      1.098  0.1274E+01  0.3930E+01
      1.184  0.1101E+01  0.4028E+01
      1.270  0.1071E+01  0.4122E+01
      1.356  0.1013E+01  0.4210E+01
      1.442  0.9827E+00  0.4295E+01
      1.528  0.9600E+00  0.4379E+01
      1.613  0.9706E+00  0.4462E+01
      1.699  0.1017E+01  0.4547E+01
      1.785  0.1049E+01  0.4636E+01
      1.871  0.1084E+01  0.4728E+01
      1.957  0.1132E+01  0.4824E+01
      2.043  0.1215E+01  0.4924E+01
      2.129  0.1247E+01  0.5029E+01
      2.214  0.1366E+01  0.5141E+01
      2.300  0.1549E+01  0.5267E+01
      2.386  0.1620E+01  0.5407E+01
      2.472  0.1598E+01  0.5546E+01
      2.558  0.1584E+01  0.5682E+01
      2.644  0.1555E+01  0.5817E+01
      2.730  0.1531E+01  0.5950E+01
      2.815  0.1530E+01  0.6081E+01
      2.901  0.1499E+01  0.6211E+01
      2.987  0.1479E+01  0.6339E+01
      3.073  0.1466E+01  0.6466E+01
      3.159  0.1450E+01  0.6590E+01
      3.245  0.1440E+01  0.6715E+01
      3.331  0.1427E+01  0.6838E+01
      3.416  0.1406E+01  0.6959E+01
      3.502  0.1398E+01  0.7079E+01
      3.588  0.1397E+01  0.7199E+01
      3.674  0.1402E+01  0.7320E+01
      3.760  0.1384E+01  0.7439E+01
      3.846  0.1066E+01  0.7546E+01
      3.931  0.8933E+00  0.7629E+01
      4.017  0.7818E+00  0.7700E+01
      4.103  0.6824E+00  0.7763E+01
      4.189  0.5989E+00  0.7818E+01
      4.275  0.5260E+00  0.7866E+01
      4.361  0.4524E+00  0.7908E+01
      4.447  0.3701E+00  0.7943E+01
      4.532  0.3041E+00  0.7973E+01
      4.618  0.1636E+00  0.7994E+01
      4.704  0.0000E+00  0.8000E+01
      4.790  0.0000E+00  0.8000E+01
      4.876  0.0000E+00  0.8000E+01
      4.962  0.0000E+00  0.8000E+01
      5.048  0.0000E+00  0.8000E+01
      5.133  0.0000E+00  0.8000E+01
      5.219  0.0000E+00  0.8000E+01
      5.305  0.0000E+00  0.8000E+01
      5.391  0.0000E+00  0.8000E+01
      5.477  0.0000E+00  0.8000E+01
      5.563  0.0000E+00  0.8000E+01
      5.649  0.0000E+00  0.8000E+01
      5.734  0.0000E+00  0.8000E+01
      5.820  0.0000E+00  0.8000E+01
      5.906  0.0000E+00  0.8000E+01
      5.992  0.7290E-02  0.8000E+01
      6.078  0.5532E-01  0.8003E+01
      6.164  0.8825E-01  0.8009E+01
      6.249  0.1122E+00  0.8018E+01
      6.335  0.1431E+00  0.8029E+01
      6.421  0.1787E+00  0.8042E+01
      6.507  0.2069E+00  0.8059E+01
      6.593  0.2412E+00  0.8078E+01
      6.679  0.2785E+00  0.8100E+01
      6.765  0.3138E+00  0.8126E+01
      6.850  0.3458E+00  0.8154E+01
      6.936  0.3791E+00  0.8185E+01
      7.022  0.4263E+00  0.8219E+01
      7.108  0.5086E+00  0.8260E+01
      7.194  0.5525E+00  0.8305E+01
      7.280  0.6333E+00  0.8356E+01
      7.366  0.7492E+00  0.8415E+01
      7.451  0.8373E+00  0.8483E+01
      7.537  0.9235E+00  0.8559E+01
      7.623  0.1016E+01  0.8642E+01
      7.709  0.1126E+01  0.8734E+01
      7.795  0.1271E+01  0.8837E+01
      7.881  0.1563E+01  0.8957E+01
      7.967  0.1674E+01  0.9098E+01
      8.052  0.1632E+01  0.9240E+01
      8.138  0.1644E+01  0.9381E+01
      8.224  0.1614E+01  0.9521E+01
      8.310  0.1637E+01  0.9659E+01
      8.396  0.1532E+01  0.9799E+01
      8.482  0.1471E+01  0.9927E+01
      8.568  0.1322E+01  0.1004E+02
      8.653  0.1033E+01  0.1014E+02
      8.739  0.8646E+00  0.1022E+02
      8.825  0.5683E+00  0.1028E+02
      8.911  0.4495E+00  0.1033E+02
      8.997  0.5672E+00  0.1037E+02
      9.083  0.7941E+00  0.1043E+02
      9.168  0.1352E+01  0.1052E+02
      9.254  0.1752E+01  0.1066E+02
      9.340  0.2147E+01  0.1083E+02
      9.426  0.2724E+01  0.1105E+02
      9.512  0.1842E+01  0.1122E+02
      9.598  0.1768E+01  0.1138E+02
      9.684  0.1574E+01  0.1152E+02
      9.769  0.1313E+01  0.1165E+02
      9.855  0.1329E+01  0.1176E+02
      9.941  0.1308E+01  0.1187E+02
     10.027  0.1259E+01  0.1198E+02
     10.113  0.1292E+01  0.1209E+02
     10.199  0.1300E+01  0.1220E+02
     10.285  0.1414E+01  0.1232E+02
     10.370  0.1424E+01  0.1244E+02
     10.456  0.1595E+01  0.1258E+02
     10.542  0.1318E+01  0.1270E+02
     10.628  0.1257E+01  0.1281E+02
     10.714  0.1345E+01  0.1292E+02
     10.800  0.1442E+01  0.1304E+02
     10.886  0.1283E+01  0.1316E+02
     10.971  0.1187E+01  0.1327E+02
     11.057  0.1138E+01  0.1337E+02
     11.143  0.1103E+01  0.1347E+02
     11.229  0.1140E+01  0.1356E+02
     11.315  0.1135E+01  0.1366E+02
     11.401  0.1105E+01  0.1376E+02
     11.486  0.1076E+01  0.1385E+02
     11.572  0.1094E+01  0.1394E+02
     11.658  0.1044E+01  0.1403E+02
     11.744  0.1019E+01  0.1412E+02
     11.830  0.1043E+01  0.1421E+02
     11.916  0.9763E+00  0.1430E+02
     12.002  0.9193E+00  0.1438E+02
     12.087  0.8472E+00  0.1446E+02
     12.173  0.8479E+00  0.1453E+02
     12.259  0.8609E+00  0.1460E+02
     12.345  0.9406E+00  0.1468E+02
     12.431  0.1075E+01  0.1477E+02
     12.517  0.1243E+01  0.1487E+02
     12.603  0.1172E+01  0.1498E+02
     12.688  0.1114E+01  0.1507E+02
     12.774  0.9455E+00  0.1516E+02
     12.860  0.8805E+00  0.1524E+02
     12.946  0.7889E+00  0.1531E+02
     13.032  0.7241E+00  0.1538E+02
     13.118  0.6845E+00  0.1544E+02
     13.204  0.6104E+00  0.1550E+02
     13.289  0.4289E+00  0.1554E+02
     13.375  0.3913E+00  0.1558E+02
     13.461  0.3664E+00  0.1561E+02
     13.547  0.3500E+00  0.1564E+02
     13.633  0.3487E+00  0.1567E+02
     13.719  0.3375E+00  0.1570E+02
     13.804  0.3001E+00  0.1573E+02
     13.890  0.2747E+00  0.1575E+02
     13.976  0.2534E+00  0.1577E+02
     14.062  0.2378E+00  0.1580E+02
     14.148  0.2237E+00  0.1582E+02
     14.234  0.2139E+00  0.1583E+02
     14.320  0.2020E+00  0.1585E+02
     14.405  0.1907E+00  0.1587E+02
     14.491  0.1795E+00  0.1588E+02
     14.577  0.1728E+00  0.1590E+02
     14.663  0.1600E+00  0.1591E+02
     14.749  0.1462E+00  0.1593E+02
     14.835  0.1276E+00  0.1594E+02
     14.921  0.1113E+00  0.1595E+02
     15.006  0.9722E-01  0.1596E+02
     15.092  0.8541E-01  0.1597E+02
     15.178  0.7670E-01  0.1597E+02
     15.264  0.7363E-01  0.1598E+02
     15.350  0.7726E-01  0.1599E+02
     15.436  0.6661E-01  0.1599E+02
     15.522  0.3806E-01  0.1600E+02
     15.607  0.1595E-01  0.1600E+02
     15.693  0.1311E-02  0.1600E+02
     15.779  0.0000E+00  0.1600E+02
     15.865  0.0000E+00  0.1600E+02
     15.951  0.0000E+00  0.1600E+02
     16.037  0.0000E+00  0.1600E+02
     16.122  0.0000E+00  0.1600E+02
     16.208  0.0000E+00  0.1600E+02
     16.294  0.0000E+00  0.1600E+02
     16.380  0.0000E+00  0.1600E+02
     16.466  0.0000E+00  0.1600E+02
     16.552  0.0000E+00  0.1600E+02
     16.638  0.0000E+00  0.1600E+02
     16.723  0.0000E+00  0.1600E+02
     16.809  0.0000E+00  0.1600E+02
     16.895  0.0000E+00  0.1600E+02
