    2    2    1    1
  0.2073163E+02  0.3885016E-09  0.3885016E-09  0.3885016E-09  0.0000000E+00
  1.000000000000000E-004
  CAR 
 unknown system                          
      8    256      8
 
  0.0000000E+00  0.0000000E+00  0.0000000E+00  0.1250000E-03
    1       -7.689765   1.000000
    2        4.690877   1.000000
    3        4.690877   1.000000
    4        4.690877   1.000000
    5        7.510318   0.000000
    6        9.128296   0.000000
    7        9.128296   0.000000
    8        9.128296   0.000000
 
  0.5000000E-01  0.0000000E+00  0.0000000E+00  0.1000000E-02
    1       -7.661992   1.000000
    2        4.374477   1.000000
    3        4.659569   1.000000
    4        4.659569   1.000000
    5        7.729799   0.000000
    6        9.169472   0.000000
    7        9.185116   0.000000
    8        9.185116   0.000000
 
  0.1000000E+00  0.0000000E+00  0.0000000E+00  0.1000000E-02
    1       -7.579341   1.000000
    2        3.662595   1.000000
    3        4.573153   1.000000
    4        4.573153   1.000000
    5        8.022394   0.000000
    6        9.337758   0.000000
    7        9.337758   0.000000
    8        9.443344   0.000000
 
  0.1500000E+00  0.0000000E+00  0.0000000E+00  0.1000000E-02
    1       -7.444205   1.000000
    2        2.821372   1.000000
    3        4.449772   1.000000
    4        4.449773   1.000000
    5        8.032565   0.000000
    6        9.534634   0.000000
    7        9.534634   0.000000
    8       10.085413   0.000000
 
  0.2000000E+00  0.0000000E+00  0.0000000E+00  0.1000000E-02
    1       -7.260957   1.000000
    2        1.961995   1.000000
    3        4.309934   1.000000
    4        4.309934   1.000000
    5        7.884054   0.000000
    6        9.698913   0.000000
    7        9.698914   0.000000
    8       10.898994   0.000000
 
  0.2500000E+00  0.0000000E+00  0.0000000E+00  0.1000000E-02
    1       -7.037091   1.000000
    2        1.134695   1.000000
    3        4.170927   1.000000
    4        4.170927   1.000000
    5        7.699508   0.000000
    6        9.762850   0.000000
    7        9.762850   0.000000
    8       11.712836   0.000000
 
  0.3000000E+00  0.0000000E+00  0.0000000E+00  0.1000000E-02
    1       -6.784772   1.000000
    2        0.372362   1.000000
    3        4.045278   1.000000
    4        4.045278   1.000000
    5        7.525461   0.000000
    6        9.720859   0.000000
    7        9.720859   0.000000
    8       12.361136   0.000000
 
  0.3500000E+00  0.0000000E+00  0.0000000E+00  0.1000000E-02
    1       -6.523685   1.000000
    2       -0.293866   1.000000
    3        3.941286   1.000000
    4        3.941286   1.000000
    5        7.380768   0.000000
    6        9.622599   0.000000
    7        9.622600   0.000000
    8       12.647391   0.000000
 
  0.4000000E+00  0.0000000E+00  0.0000000E+00  0.1000000E-02
    1       -6.284515   1.000000
    2       -0.826413   1.000000
    3        3.864111   1.000000
    4        3.864111   1.000000
    5        7.273896   0.000000
    6        9.520675   0.000000
    7        9.520675   0.000000
    8       12.662443   0.000000
 
  0.4500000E+00  0.0000000E+00  0.0000000E+00  0.1000000E-02
    1       -6.110070   1.000000
    2       -1.178350   1.000000
    3        3.816784   1.000000
    4        3.816784   1.000000
    5        7.208679   0.000000
    6        9.448518   0.000000
    7        9.448518   0.000000
    8       12.615931   0.000000
 
  0.5000000E+00  0.0000000E+00  0.0000000E+00  0.5000000E-03
    1       -6.045083   1.000000
    2       -1.302738   1.000000
    3        3.800852   1.000000
    4        3.800852   1.000000
    5        7.186804   0.000000
    6        9.422816   0.000000
    7        9.422816   0.000000
    8       12.594018   0.000000
 
  0.5000000E-01  0.5000000E-01  0.0000000E+00  0.7500000E-03
    1       -7.652718   1.000000
    2        4.393849   1.000000
    3        4.584727   1.000000
    4        4.584727   1.000000
    5        7.827318   0.000000
    6        8.996512   0.000000
    7        9.288564   0.000000
    8        9.288564   0.000000
 
  0.1000000E+00  0.5000000E-01  0.0000000E+00  0.3000000E-02
    1       -7.588315   1.000000
    2        3.848578   1.000000
    3        4.462463   1.000000
    4        4.539299   1.000000
    5        8.151394   0.000000
    6        8.940440   0.000000
    7        9.484503   0.000000
    8        9.532816   0.000000
 
  0.1500000E+00  0.5000000E-01  0.0000000E+00  0.3000000E-02
    1       -7.470599   1.000000
    2        3.066823   1.000000
    3        4.314659   1.000000
    4        4.462339   1.000000
    5        8.252126   0.000000
    6        9.090656   0.000000
    7        9.722074   0.000000
    8       10.013566   0.000000
 
  0.2000000E+00  0.5000000E-01  0.0000000E+00  0.3000000E-02
    1       -7.303176   1.000000
    2        2.228040   1.000000
    3        4.162096   1.000000
    4        4.338962   1.000000
    5        8.127503   0.000000
    6        9.330150   0.000000
    7        9.927501   0.000000
    8       10.643383   0.000000
 
  0.2500000E+00  0.5000000E-01  0.0000000E+00  0.3000000E-02
    1       -7.092419   1.000000
    2        1.400278   1.000000
    3        4.020815   1.000000
    4        4.190936   1.000000
    5        7.947084   0.000000
    6        9.490179   0.000000
    7       10.027145   0.000000
    8       11.250522   0.000000
 
  0.3000000E+00  0.5000000E-01  0.0000000E+00  0.3000000E-02
    1       -6.848662   1.000000
    2        0.622729   1.000000
    3        3.901831   1.000000
    4        4.037936   1.000000
    5        7.770297   0.000000
    6        9.517718   0.000000
    7        9.999305   0.000000
    8       11.807544   0.000000
 
  0.3500000E+00  0.5000000E-01  0.0000000E+00  0.3000000E-02
    1       -6.588746   1.000000
    2       -0.072336   1.000000
    3        3.812051   1.000000
    4        3.894404   1.000000
    5        7.618783   0.000000
    6        9.457591   0.000000
    7        9.886985   0.000000
    8       12.329187   0.000000
 
  0.4000000E+00  0.5000000E-01  0.0000000E+00  0.3000000E-02
    1       -6.339234   1.000000
    2       -0.649210   1.000000
    3        3.755322   1.000000
    4        3.770224   1.000000
    5        7.502272   0.000000
    6        9.379026   0.000000
    7        9.748706   0.000000
    8       12.663632   0.000000
 
  0.4500000E+00  0.5000000E-01  0.0000000E+00  0.3000000E-02
    1       -6.139062   1.000000
    2       -1.063537   1.000000
    3        3.672076   1.000000
    4        3.733309   1.000000
    5        7.425428   0.000000
    6        9.326346   0.000000
    7        9.626009   0.000000
    8       12.754718   0.000000
 
  0.5000000E+00  0.5000000E-01  0.0000000E+00  0.3000000E-02
    1       -6.034201   1.000000
    2       -1.266254   1.000000
    3        3.604524   1.000000
    4        3.746025   1.000000
    5        7.390407   0.000000
    6        9.320687   0.000000
    7        9.542028   0.000000
    8       12.763112   0.000000
 
 -0.4500000E+00  0.5000000E-01  0.0000000E+00  0.3000000E-02
    1       -6.056078   1.000000
    2       -1.224636   1.000000
    3        3.570711   1.000000
    4        3.792196   1.000000
    5        7.397991   0.000000
    6        9.369024   0.000000
    7        9.506987   0.000000
    8       12.772045   0.000000
 
 -0.4000000E+00  0.5000000E-01  0.0000000E+00  0.3000000E-02
    1       -6.197656   1.000000
    2       -0.946023   1.000000
    3        3.572648   1.000000
    4        3.869389   1.000000
    5        7.448019   0.000000
    6        9.468285   0.000000
    7        9.521096   0.000000
    8       12.777034   0.000000
 
 -0.3500000E+00  0.5000000E-01  0.0000000E+00  0.3000000E-02
    1       -6.419346   1.000000
    2       -0.471882   1.000000
    3        3.611285   1.000000
    4        3.973892   1.000000
    5        7.539333   0.000000
    6        9.573769   0.000000
    7        9.604707   0.000000
    8       12.689275   0.000000
 
 -0.3000000E+00  0.5000000E-01  0.0000000E+00  0.3000000E-02
    1       -6.676046   1.000000
    2        0.148721   1.000000
    3        3.686326   1.000000
    4        4.100390   1.000000
    5        7.669121   0.000000
    6        9.639138   0.000000
    7        9.748244   0.000000
    8       12.351246   0.000000
 
 -0.2500000E+00  0.5000000E-01  0.0000000E+00  0.3000000E-02
    1       -6.932940   1.000000
    2        0.874246   1.000000
    3        3.795867   1.000000
    4        4.241264   1.000000
    5        7.831169   0.000000
    6        9.671390   0.000000
    7        9.841973   0.000000
    8       11.779696   0.000000
 
 -0.2000000E+00  0.5000000E-01  0.0000000E+00  0.3000000E-02
    1       -7.167159   1.000000
    2        1.670223   1.000000
    3        3.935894   1.000000
    4        4.385602   1.000000
    5        8.011654   0.000000
    6        9.619193   0.000000
    7        9.801115   0.000000
    8       11.129889   0.000000
 
 -0.1500000E+00  0.5000000E-01  0.0000000E+00  0.3000000E-02
    1       -7.364338   1.000000
    2        2.501525   1.000000
    3        4.099865   1.000000
    4        4.518319   1.000000
    5        8.175949   0.000000
    6        9.477763   0.000000
    7        9.572652   0.000000
    8       10.490732   0.000000
 
 -0.1000000E+00  0.5000000E-01  0.0000000E+00  0.3000000E-02
    1       -7.515698   1.000000
    2        3.316676   1.000000
    3        4.279780   1.000000
    4        4.620317   1.000000
    5        8.222814   0.000000
    6        9.259314   0.000000
    7        9.310678   0.000000
    8        9.926099   0.000000
 
 -0.5000000E-01  0.5000000E-01  0.0000000E+00  0.1500000E-02
    1       -7.615894   1.000000
    2        4.006485   1.000000
    3        4.475561   1.000000
    4        4.671773   1.000000
    5        7.995063   0.000000
    6        9.127066   0.000000
    7        9.196505   0.000000
    8        9.485484   0.000000
 
  0.1000000E+00  0.1000000E+00  0.0000000E+00  0.7500000E-03
    1       -7.542379   1.000000
    2        3.737742   1.000000
    3        4.309455   1.000000
    4        4.309455   1.000000
    5        8.505477   0.000000
    6        8.659973   0.000000
    7        9.724785   0.000000
    8        9.724785   0.000000
 
  0.1500000E+00  0.1000000E+00  0.0000000E+00  0.3000000E-02
    1       -7.442772   1.000000
    2        3.171196   1.000000
    3        4.138600   1.000000
    4        4.206089   1.000000
    5        8.508004   0.000000
    6        8.807112   0.000000
    7       10.009647   0.000000
    8       10.093825   0.000000
 
  0.2000000E+00  0.1000000E+00  0.0000000E+00  0.3000000E-02
    1       -7.292497   1.000000
    2        2.422172   1.000000
    3        3.970891   1.000000
    4        4.098424   1.000000
    5        8.403510   0.000000
    6        9.028723   0.000000
    7       10.269560   0.000000
    8       10.471478   0.000000
 
  0.2500000E+00  0.1000000E+00  0.0000000E+00  0.3000000E-02
    1       -7.096964   1.000000
    2        1.636630   1.000000
    3        3.821743   1.000000
    4        3.943951   1.000000
    5        8.273434   0.000000
    6        9.255553   0.000000
    7       10.425966   0.000000
    8       10.646714   0.000000
 
  0.3000000E+00  0.1000000E+00  0.0000000E+00  0.3000000E-02
    1       -6.865017   1.000000
    2        0.873637   1.000000
    3        3.701448   1.000000
    4        3.762575   1.000000
    5        8.127750   0.000000
    6        9.386251   0.000000
    7       10.437274   0.000000
    8       10.882215   0.000000
 
  0.3500000E+00  0.1000000E+00  0.0000000E+00  0.3000000E-02
    1       -6.611068   1.000000
    2        0.172443   1.000000
    3        3.577105   1.000000
    4        3.616382   1.000000
    5        7.992118   0.000000
    6        9.365719   0.000000
    7       10.333233   0.000000
    8       11.360714   0.000000
 
  0.4000000E+00  0.1000000E+00  0.0000000E+00  0.3000000E-02
    1       -6.357954   1.000000
    2       -0.429927   1.000000
    3        3.404395   1.000000
    4        3.569981   1.000000
    5        7.883883   0.000000
    6        9.285755   0.000000
    7       10.176288   0.000000
    8       11.993210   0.000000
 
  0.4500000E+00  0.1000000E+00  0.0000000E+00  0.3000000E-02
    1       -6.140092   1.000000
    2       -0.890659   1.000000
    3        3.255950   1.000000
    4        3.563480   1.000000
    5        7.812561   0.000000
    6        9.219826   0.000000
    7       10.016725   0.000000
    8       12.617651   0.000000
 
  0.5000000E+00  0.1000000E+00  0.0000000E+00  0.3000000E-02
    1       -6.001629   1.000000
    2       -1.160705   1.000000
    3        3.139700   1.000000
    4        3.596322   1.000000
    5        7.782343   0.000000
    6        9.198674   0.000000
    7        9.884480   0.000000
    8       13.016056   0.000000
 
 -0.4500000E+00  0.1000000E+00  0.0000000E+00  0.3000000E-02
    1       -5.980831   1.000000
    2       -1.199530   1.000000
    3        3.061299   1.000000
    4        3.666363   1.000000
    5        7.794006   0.000000
    6        9.233596   0.000000
    7        9.794659   0.000000
    8       13.141729   0.000000
 
 -0.4000000E+00  0.1000000E+00  0.0000000E+00  0.3000000E-02
    1       -6.084262   1.000000
    2       -1.000407   1.000000
    3        3.024966   1.000000
    4        3.769910   1.000000
    5        7.846253   0.000000
    6        9.325929   0.000000
    7        9.751780   0.000000
    8       13.084391   0.000000
 
 -0.3500000E+00  0.1000000E+00  0.0000000E+00  0.3000000E-02
    1       -6.281362   1.000000
    2       -0.596001   1.000000
    3        3.033941   1.000000
    4        3.901484   1.000000
    5        7.936678   0.000000
    6        9.467545   0.000000
    7        9.750072   0.000000
    8       12.792599   0.000000
 
 -0.3000000E+00  0.1000000E+00  0.0000000E+00  0.3000000E-02
    1       -6.527327   1.000000
    2       -0.036085   1.000000
    3        3.090876   1.000000
    4        4.053428   1.000000
    5        8.061858   0.000000
    6        9.634506   0.000000
    7        9.769540   0.000000
    8       12.255121   0.000000
 
 -0.2500000E+00  0.1000000E+00  0.0000000E+00  0.3000000E-02
    1       -6.783947   1.000000
    2        0.631776   1.000000
    3        3.198430   1.000000
    4        4.215182   1.000000
    5        8.216089   0.000000
    6        9.767980   0.000000
    7        9.769935   0.000000
    8       11.642471   0.000000
 
 -0.2000000E+00  0.1000000E+00  0.0000000E+00  0.3000000E-02
    1       -7.024909   1.000000
    2        1.363778   1.000000
    3        3.360690   1.000000
    4        4.372367   1.000000
    5        8.386818   0.000000
    6        9.700795   0.000000
    7        9.742124   0.000000
    8       11.141690   0.000000
 
 -0.1500000E+00  0.1000000E+00  0.0000000E+00  0.3000000E-02
    1       -7.233446   1.000000
    2        2.109195   1.000000
    3        3.586886   1.000000
    4        4.506292   1.000000
    5        8.535361   0.000000
    6        9.471886   0.000000
    7        9.554933   0.000000
    8       10.808963   0.000000
 
 -0.1000000E+00  0.1000000E+00  0.0000000E+00  0.1500000E-02
    1       -7.399163   1.000000
    2        2.791474   1.000000
    3        3.895855   1.000000
    4        4.595350   1.000000
    5        8.511665   0.000000
    6        9.222177   0.000000
    7        9.398201   0.000000
    8       10.435155   0.000000
 
  0.1500000E+00  0.1500000E+00  0.0000000E+00  0.7500000E-03
    1       -7.361479   1.000000
    2        2.972525   1.000000
    3        3.948250   1.000000
    4        3.948250   1.000000
    5        8.213687   0.000000
    6        9.121134   0.000000
    7       10.349786   0.000000
    8       10.349786   0.000000
 
  0.2000000E+00  0.1500000E+00  0.0000000E+00  0.3000000E-02
    1       -7.229186   1.000000
    2        2.444300   1.000000
    3        3.765224   1.000000
    4        3.793165   1.000000
    5        8.070091   0.000000
    6        9.215863   0.000000
    7       10.600819   0.000000
    8       10.677634   0.000000
 
  0.2500000E+00  0.1500000E+00  0.0000000E+00  0.3000000E-02
    1       -7.050463   1.000000
    2        1.773553   1.000000
    3        3.604956   1.000000
    4        3.625367   1.000000
    5        8.046330   0.000000
    6        9.283476   0.000000
    7       10.516364   0.000000
    8       10.912031   0.000000
 
  0.3000000E+00  0.1500000E+00  0.0000000E+00  0.3000000E-02
    1       -6.832977   1.000000
    2        1.073430   1.000000
    3        3.415047   1.000000
    4        3.477671   1.000000
    5        8.022278   0.000000
    6        9.490596   0.000000
    7       10.362351   0.000000
    8       10.989795   0.000000
 
  0.3500000E+00  0.1500000E+00  0.0000000E+00  0.3000000E-02
    1       -6.589146   1.000000
    2        0.401774   1.000000
    3        3.184781   1.000000
    4        3.389691   1.000000
    5        7.957093   0.000000
    6        9.707479   0.000000
    7       10.432114   0.000000
    8       10.919243   0.000000
 
  0.4000000E+00  0.1500000E+00  0.0000000E+00  0.3000000E-02
    1       -6.338622   1.000000
    2       -0.197761   1.000000
    3        2.959771   1.000000
    4        3.344501   1.000000
    5        7.887421   0.000000
    6        9.684713   0.000000
    7       10.763290   0.000000
    8       10.946531   0.000000
 
  0.4500000E+00  0.1500000E+00  0.0000000E+00  0.3000000E-02
    1       -6.111358   1.000000
    2       -0.681117   1.000000
    3        2.757987   1.000000
    4        3.343418   1.000000
    5        7.847607   0.000000
    6        9.591147   0.000000
    7       10.582375   0.000000
    8       11.682919   0.000000
 
  0.5000000E+00  0.1500000E+00  0.0000000E+00  0.3000000E-02
    1       -5.947799   1.000000
    2       -0.999583   1.000000
    3        2.591403   1.000000
    4        3.385923   1.000000
    5        7.854214   0.000000
    6        9.518582   0.000000
    7       10.414580   0.000000
    8       12.485613   0.000000
 
 -0.4500000E+00  0.1500000E+00  0.0000000E+00  0.3000000E-02
    1       -5.888661   1.000000
    2       -1.108249   1.000000
    3        2.468411   1.000000
    4        3.469781   1.000000
    5        7.912241   0.000000
    6        9.488194   0.000000
    7       10.280014   0.000000
    8       13.178005   0.000000
 
 -0.4000000E+00  0.1500000E+00  0.0000000E+00  0.3000000E-02
    1       -5.951730   1.000000
    2       -0.988586   1.000000
    3        2.395572   1.000000
    4        3.590916   1.000000
    5        8.019516   0.000000
    6        9.507447   0.000000
    7       10.186535   0.000000
    8       13.329260   0.000000
 
 -0.3500000E+00  0.1500000E+00  0.0000000E+00  0.3000000E-02
    1       -6.117936   1.000000
    2       -0.662588   1.000000
    3        2.379038   1.000000
    4        3.743031   1.000000
    5        8.168735   0.000000
    6        9.577662   0.000000
    7       10.131104   0.000000
    8       12.859004   0.000000
 
 -0.3000000E+00  0.1500000E+00  0.0000000E+00  0.3000000E-02
    1       -6.346275   1.000000
    2       -0.179294   1.000000
    3        2.426203   1.000000
    4        3.917052   1.000000
    5        8.348436   0.000000
    6        9.688789   0.000000
    7       10.096027   0.000000
    8       12.162686   0.000000
 
 -0.2500000E+00  0.1500000E+00  0.0000000E+00  0.3000000E-02
    1       -6.596695   1.000000
    2        0.404602   1.000000
    3        2.548542   1.000000
    4        4.100156   1.000000
    5        8.542694   0.000000
    6        9.796119   0.000000
    7       10.041713   0.000000
    8       11.478484   0.000000
 
 -0.2000000E+00  0.1500000E+00  0.0000000E+00  0.3000000E-02
    1       -6.839727   1.000000
    2        1.027444   1.000000
    3        2.766566   1.000000
    4        4.274794   1.000000
    5        8.722844   0.000000
    6        9.761904   0.000000
    7        9.918030   0.000000
    8       11.012686   0.000000
 
 -0.1500000E+00  0.1500000E+00  0.0000000E+00  0.1500000E-02
    1       -7.056051   1.000000
    2        1.616506   1.000000
    3        3.110872   1.000000
    4        4.418488   1.000000
    5        8.789930   0.000000
    6        9.524267   0.000000
    7        9.728768   0.000000
    8       10.888439   0.000000
 
  0.2000000E+00  0.2000000E+00  0.0000000E+00  0.7500000E-03
    1       -7.115159   1.000000
    2        2.189503   1.000000
    3        3.567960   1.000000
    4        3.567960   1.000000
    5        7.743352   0.000000
    6        9.134862   0.000000
    7       11.091244   0.000000
    8       11.091245   0.000000
 
  0.2500000E+00  0.2000000E+00  0.0000000E+00  0.3000000E-02
    1       -6.954339   1.000000
    2        1.711325   1.000000
    3        3.379063   1.000000
    4        3.395169   1.000000
    5        7.607754   0.000000
    6        8.969122   0.000000
    7       11.190548   0.000000
    8       11.429582   0.000000
 
  0.3000000E+00  0.2000000E+00  0.0000000E+00  0.3000000E-02
    1       -6.753466   1.000000
    2        1.136692   1.000000
    3        3.143571   1.000000
    4        3.257457   1.000000
    5        7.605563   0.000000
    6        8.947489   0.000000
    7       11.042726   0.000000
    8       11.608203   0.000000
 
  0.3500000E+00  0.2000000E+00  0.0000000E+00  0.3000000E-02
    1       -6.523370   1.000000
    2        0.546263   1.000000
    3        2.863982   1.000000
    4        3.161453   1.000000
    5        7.606076   0.000000
    6        9.193346   0.000000
    7       10.875210   0.000000
    8       11.603156   0.000000
 
  0.4000000E+00  0.2000000E+00  0.0000000E+00  0.3000000E-02
    1       -6.281127   1.000000
    2       -0.007068   1.000000
    3        2.575479   1.000000
    4        3.110924   1.000000
    5        7.574843   0.000000
    6        9.671864   0.000000
    7       10.756107   0.000000
    8       11.471044   0.000000
 
  0.4500000E+00  0.2000000E+00  0.0000000E+00  0.3000000E-02
    1       -6.052710   1.000000
    2       -0.476231   1.000000
    3        2.307728   1.000000
    4        3.107468   1.000000
    5        7.555514   0.000000
    6       10.132228   0.000000
    7       10.866432   0.000000
    8       11.284769   0.000000
 
  0.5000000E+00  0.2000000E+00  0.0000000E+00  0.3000000E-02
    1       -5.874037   1.000000
    2       -0.812290   1.000000
    3        2.079814   1.000000
    4        3.150866   1.000000
    5        7.580427   0.000000
    6       10.223572   0.000000
    7       11.093638   0.000000
    8       11.497214   0.000000
 
 -0.4500000E+00  0.2000000E+00  0.0000000E+00  0.3000000E-02
    1       -5.784661   1.000000
    2       -0.968611   1.000000
    3        1.904165   1.000000
    4        3.239167   1.000000
    5        7.662491   0.000000
    6       10.190013   0.000000
    7       10.923948   0.000000
    8       12.349051   0.000000
 
 -0.4000000E+00  0.2000000E+00  0.0000000E+00  0.3000000E-02
    1       -5.809319   1.000000
    2       -0.918916   1.000000
    3        1.790617   1.000000
    4        3.368480   1.000000
    5        7.803931   0.000000
    6       10.164918   0.000000
    7       10.786214   0.000000
    8       13.097359   0.000000
 
 -0.3500000E+00  0.2000000E+00  0.0000000E+00  0.3000000E-02
    1       -5.940477   1.000000
    2       -0.675766   1.000000
    3        1.749946   1.000000
    4        3.532519   1.000000
    5        8.000134   0.000000
    6       10.170719   0.000000
    7       10.677283   0.000000
    8       12.854486   0.000000
 
 -0.3000000E+00  0.2000000E+00  0.0000000E+00  0.3000000E-02
    1       -6.144307   1.000000
    2       -0.287991   1.000000
    3        1.798245   1.000000
    4        3.721817   1.000000
    5        8.239281   0.000000
    6       10.205133   0.000000
    7       10.575138   0.000000
    8       12.093093   0.000000
 
 -0.2500000E+00  0.2000000E+00  0.0000000E+00  0.3000000E-02
    1       -6.381509   1.000000
    2        0.174176   1.000000
    3        1.962766   1.000000
    4        3.922576   1.000000
    5        8.496983   0.000000
    6       10.225015   0.000000
    7       10.430316   0.000000
    8       11.371563   0.000000
 
 -0.2000000E+00  0.2000000E+00  0.0000000E+00  0.1500000E-02
    1       -6.620569   1.000000
    2        0.631469   1.000000
    3        2.281009   1.000000
    4        4.115374   1.000000
    5        8.714703   0.000000
    6       10.054239   0.000000
    7       10.196430   0.000000
    8       10.981590   0.000000
 
  0.2500000E+00  0.2500000E+00  0.0000000E+00  0.7500000E-03
    1       -6.811994   1.000000
    2        1.422457   1.000000
    3        3.209640   1.000000
    4        3.209640   1.000000
    5        7.286369   0.000000
    6        8.617307   0.000000
    7       11.902637   0.000000
    8       11.902647   0.000000
 
  0.3000000E+00  0.2500000E+00  0.0000000E+00  0.3000000E-02
    1       -6.629404   1.000000
    2        0.995958   1.000000
    3        3.003551   1.000000
    4        3.059743   1.000000
    5        7.167706   0.000000
    6        8.402961   0.000000
    7       12.004797   0.000000
    8       12.229849   0.000000
 
  0.3500000E+00  0.2500000E+00  0.0000000E+00  0.3000000E-02
    1       -6.416239   1.000000
    2        0.522450   1.000000
    3        2.708218   1.000000
    4        2.952644   1.000000
    5        7.179186   0.000000
    6        8.430402   0.000000
    7       11.877160   0.000000
    8       12.339218   0.000000
 
  0.4000000E+00  0.2500000E+00  0.0000000E+00  0.3000000E-02
    1       -6.187620   1.000000
    2        0.059417   1.000000
    3        2.359526   1.000000
    4        2.892543   1.000000
    5        7.193057   0.000000
    6        8.770268   0.000000
    7       11.721250   0.000000
    8       12.263666   0.000000
 
  0.4500000E+00  0.2500000E+00  0.0000000E+00  0.3000000E-02
    1       -5.966222   1.000000
    2       -0.348437   1.000000
    3        2.011116   1.000000
    4        2.881441   1.000000
    5        7.197438   0.000000
    6        9.360326   0.000000
    7       11.584504   0.000000
    8       12.091053   0.000000
 
  0.5000000E+00  0.2500000E+00  0.0000000E+00  0.3000000E-02
    1       -5.783429   1.000000
    2       -0.656612   1.000000
    3        1.701330   1.000000
    4        2.919516   1.000000
    5        7.233428   0.000000
    6       10.078242   0.000000
    7       11.513577   0.000000
    8       11.888385   0.000000
 
 -0.4500000E+00  0.2500000E+00  0.0000000E+00  0.3000000E-02
    1       -5.675220   1.000000
    2       -0.822025   1.000000
    3        1.453931   1.000000
    4        3.005227   1.000000
    5        7.323718   0.000000
    6       10.707688   0.000000
    7       11.670528   0.000000
    8       11.690951   0.000000
 
 -0.4000000E+00  0.2500000E+00  0.0000000E+00  0.3000000E-02
    1       -5.668401   1.000000
    2       -0.817815   1.000000
    3        1.286558   1.000000
    4        3.135121   1.000000
    5        7.475251   0.000000
    6       10.931101   0.000000
    7       11.511150   0.000000
    8       12.308085   0.000000
 
 -0.3500000E+00  0.2500000E+00  0.0000000E+00  0.3000000E-02
    1       -5.764264   1.000000
    2       -0.653776   1.000000
    3        1.219608   1.000000
    4        3.303346   1.000000
    5        7.686422   0.000000
    6       10.960537   0.000000
    7       11.340119   0.000000
    8       12.737362   0.000000
 
 -0.3000000E+00  0.2500000E+00  0.0000000E+00  0.3000000E-02
    1       -5.937922   1.000000
    2       -0.383611   1.000000
    3        1.285249   1.000000
    4        3.500814   1.000000
    5        7.948164   0.000000
    6       10.947644   0.000000
    7       11.137174   0.000000
    8       12.078391   0.000000
 
 -0.2500000E+00  0.2500000E+00  0.0000000E+00  0.1500000E-02
    1       -6.154181   1.000000
    2       -0.088030   1.000000
    3        1.526828   1.000000
    4        3.713838   1.000000
    5        8.238315   0.000000
    6       10.772260   0.000000
    7       10.833085   0.000000
    8       11.472084   0.000000
 
  0.3000000E+00  0.3000000E+00  0.0000000E+00  0.7500000E-03
    1       -6.466232   1.000000
    2        0.692535   1.000000
    3        2.896998   1.000000
    4        2.896999   1.000000
    5        6.864830   0.000000
    6        8.035659   0.000000
    7       12.755709   0.000000
    8       12.755796   0.000000
 
  0.3500000E+00  0.3000000E+00  0.0000000E+00  0.3000000E-02
    1       -6.272850   1.000000
    2        0.321094   1.000000
    3        2.687662   1.000000
    4        2.777152   1.000000
    5        6.770314   0.000000
    6        7.877923   0.000000
    7       12.893117   0.000000
    8       13.058319   0.000000
 
  0.4000000E+00  0.3000000E+00  0.0000000E+00  0.3000000E-02
    1       -6.063000   1.000000
    2       -0.049362   1.000000
    3        2.350422   1.000000
    4        2.704955   1.000000
    5        6.803002   0.000000
    6        8.001787   0.000000
    7       12.785985   0.000000
    8       13.098866   0.000000
 
  0.4500000E+00  0.3000000E+00  0.0000000E+00  0.3000000E-02
    1       -5.856870   1.000000
    2       -0.373770   1.000000
    3        1.948774   1.000000
    4        2.682866   1.000000
    5        6.846732   0.000000
    6        8.443001   0.000000
    7       12.636710   0.000000
    8       12.970054   0.000000
 
  0.5000000E+00  0.3000000E+00  0.0000000E+00  0.3000000E-02
    1       -5.681816   1.000000
    2       -0.615624   1.000000
    3        1.553305   1.000000
    4        2.711509   1.000000
    5        6.901584   0.000000
    6        9.120376   0.000000
    7       12.495585   0.000000
    8       12.769841   0.000000
 