   2   2   0   0
  0.3512302E+02  0.4631400E-09  0.4631400E-09  0.4631400E-09  0.0000000E+00
  1.000000000000000E-004
  CAR 
 unknown system                          
     11.43361932     -7.46517082  301      3.12602616      1.00000000
     -7.465  0.0000E+00  0.0000E+00
     -7.402  0.0000E+00  0.0000E+00
     -7.339  0.0000E+00  0.0000E+00
     -7.276  0.0000E+00  0.0000E+00
     -7.213  0.0000E+00  0.0000E+00
     -7.150  0.0000E+00  0.0000E+00
     -7.087  0.0000E+00  0.0000E+00
     -7.024  0.0000E+00  0.0000E+00
     -6.961  0.0000E+00  0.0000E+00
     -6.898  0.0000E+00  0.0000E+00
     -6.835  0.0000E+00  0.0000E+00
     -6.772  0.0000E+00  0.0000E+00
     -6.709  0.0000E+00  0.0000E+00
     -6.646  0.0000E+00  0.0000E+00
     -6.583  0.1240E+00  0.9468E-03
     -6.520  0.2452E+00  0.1242E-01
     -6.457  0.3375E+00  0.3046E-01
     -6.394  0.4063E+00  0.5390E-01
     -6.331  0.4850E+00  0.8205E-01
     -6.268  0.5503E+00  0.1146E+00
     -6.205  0.6250E+00  0.1516E+00
     -6.142  0.6949E+00  0.1931E+00
     -6.079  0.7726E+00  0.2393E+00
     -6.016  0.8572E+00  0.2906E+00
     -5.953  0.9507E+00  0.3475E+00
     -5.890  0.1054E+01  0.4106E+00
     -5.827  0.1186E+01  0.4810E+00
     -5.764  0.1343E+01  0.5605E+00
     -5.701  0.1549E+01  0.6510E+00
     -5.638  0.1899E+01  0.7585E+00
     -5.575  0.2439E+01  0.8989E+00
     -5.512  0.2511E+01  0.1056E+01
     -5.449  0.2494E+01  0.1213E+01
     -5.386  0.2550E+01  0.1372E+01
     -5.323  0.2624E+01  0.1534E+01
     -5.260  0.2845E+01  0.1705E+01
     -5.197  0.3584E+01  0.1900E+01
     -5.134  0.0000E+00  0.2000E+01
     -5.071  0.0000E+00  0.2000E+01
     -5.008  0.0000E+00  0.2000E+01
     -4.945  0.0000E+00  0.2000E+01
     -4.882  0.0000E+00  0.2000E+01
     -4.819  0.0000E+00  0.2000E+01
     -4.756  0.0000E+00  0.2000E+01
     -4.693  0.0000E+00  0.2000E+01
     -4.630  0.0000E+00  0.2000E+01
     -4.567  0.0000E+00  0.2000E+01
     -4.504  0.0000E+00  0.2000E+01
     -4.441  0.0000E+00  0.2000E+01
     -4.378  0.0000E+00  0.2000E+01
     -4.315  0.0000E+00  0.2000E+01
     -4.252  0.0000E+00  0.2000E+01
     -4.189  0.0000E+00  0.2000E+01
     -4.126  0.0000E+00  0.2000E+01
     -4.063  0.0000E+00  0.2000E+01
     -4.000  0.0000E+00  0.2000E+01
     -3.937  0.0000E+00  0.2000E+01
     -3.874  0.0000E+00  0.2000E+01
     -3.811  0.0000E+00  0.2000E+01
     -3.748  0.0000E+00  0.2000E+01
     -3.685  0.0000E+00  0.2000E+01
     -3.622  0.0000E+00  0.2000E+01
     -3.559  0.0000E+00  0.2000E+01
     -3.496  0.0000E+00  0.2000E+01
     -3.433  0.0000E+00  0.2000E+01
     -3.370  0.0000E+00  0.2000E+01
     -3.307  0.0000E+00  0.2000E+01
     -3.244  0.0000E+00  0.2000E+01
     -3.181  0.0000E+00  0.2000E+01
     -3.118  0.0000E+00  0.2000E+01
     -3.055  0.0000E+00  0.2000E+01
     -2.992  0.0000E+00  0.2000E+01
     -2.929  0.0000E+00  0.2000E+01
     -2.866  0.0000E+00  0.2000E+01
     -2.803  0.0000E+00  0.2000E+01
     -2.740  0.0000E+00  0.2000E+01
     -2.677  0.0000E+00  0.2000E+01
     -2.614  0.0000E+00  0.2000E+01
     -2.551  0.0000E+00  0.2000E+01
     -2.488  0.0000E+00  0.2000E+01
     -2.425  0.0000E+00  0.2000E+01
     -2.362  0.0000E+00  0.2000E+01
     -2.300  0.0000E+00  0.2000E+01
     -2.237  0.0000E+00  0.2000E+01
     -2.174  0.0000E+00  0.2000E+01
     -2.111  0.0000E+00  0.2000E+01
     -2.048  0.0000E+00  0.2000E+01
     -1.985  0.0000E+00  0.2000E+01
     -1.922  0.0000E+00  0.2000E+01
     -1.859  0.0000E+00  0.2000E+01
     -1.796  0.0000E+00  0.2000E+01
     -1.733  0.7102E+00  0.2010E+01
     -1.670  0.1297E+01  0.2066E+01
     -1.607  0.2540E+01  0.2191E+01
     -1.544  0.3368E+01  0.2361E+01
     -1.481  0.3473E+01  0.2651E+01
     -1.418  0.2232E+01  0.2824E+01
     -1.355  0.1679E+01  0.2947E+01
     -1.292  0.1405E+01  0.3043E+01
     -1.229  0.1200E+01  0.3125E+01
     -1.166  0.1026E+01  0.3195E+01
     -1.103  0.9156E+00  0.3255E+01
     -1.040  0.8291E+00  0.3310E+01
     -0.977  0.7484E+00  0.3360E+01
     -0.914  0.6710E+00  0.3405E+01
     -0.851  0.6147E+00  0.3445E+01
     -0.788  0.5732E+00  0.3482E+01
     -0.725  0.5334E+00  0.3517E+01
     -0.662  0.4943E+00  0.3550E+01
     -0.599  0.4531E+00  0.3579E+01
     -0.536  0.4167E+00  0.3607E+01
     -0.473  0.3948E+00  0.3632E+01
     -0.410  0.3732E+00  0.3657E+01
     -0.347  0.3508E+00  0.3679E+01
     -0.284  0.3280E+00  0.3701E+01
     -0.221  0.3061E+00  0.3721E+01
     -0.158  0.2812E+00  0.3739E+01
     -0.095  0.2665E+00  0.3756E+01
     -0.032  0.2535E+00  0.3773E+01
      0.031  0.2405E+00  0.3788E+01
      0.094  0.2274E+00  0.3803E+01
      0.157  0.2140E+00  0.3817E+01
      0.220  0.1985E+00  0.3830E+01
      0.283  0.1848E+00  0.3842E+01
      0.346  0.1724E+00  0.3853E+01
      0.409  0.1647E+00  0.3864E+01
      0.472  0.1568E+00  0.3874E+01
      0.535  0.6838E+00  0.3893E+01
      0.598  0.1317E+01  0.3954E+01
      0.661  0.2190E+01  0.4065E+01
      0.724  0.1919E+01  0.4199E+01
      0.787  0.1724E+01  0.4315E+01
      0.850  0.1669E+01  0.4421E+01
      0.913  0.1562E+01  0.4521E+01
      0.976  0.1480E+01  0.4617E+01
      1.039  0.1409E+01  0.4708E+01
      1.102  0.1600E+01  0.4808E+01
      1.165  0.1658E+01  0.4910E+01
      1.228  0.1752E+01  0.5019E+01
      1.291  0.1947E+01  0.5134E+01
      1.354  0.2206E+01  0.5265E+01
      1.417  0.2408E+01  0.5417E+01
      1.480  0.2335E+01  0.5567E+01
      1.543  0.2323E+01  0.5714E+01
      1.606  0.2283E+01  0.5859E+01
      1.669  0.2228E+01  0.6001E+01
      1.732  0.2234E+01  0.6141E+01
      1.795  0.2189E+01  0.6281E+01
      1.858  0.2141E+01  0.6417E+01
      1.921  0.2111E+01  0.6551E+01
      1.984  0.2078E+01  0.6683E+01
      2.047  0.2055E+01  0.6813E+01
      2.110  0.2036E+01  0.6942E+01
      2.173  0.2029E+01  0.7070E+01
      2.236  0.1994E+01  0.7197E+01
      2.299  0.1969E+01  0.7322E+01
      2.362  0.1909E+01  0.7446E+01
      2.425  0.1450E+01  0.7550E+01
      2.488  0.1193E+01  0.7633E+01
      2.551  0.1030E+01  0.7703E+01
      2.614  0.8842E+00  0.7763E+01
      2.677  0.7725E+00  0.7815E+01
      2.740  0.6730E+00  0.7861E+01
      2.803  0.5678E+00  0.7900E+01
      2.866  0.4818E+00  0.7933E+01
      2.929  0.3956E+00  0.7961E+01
      2.992  0.2845E+00  0.7982E+01
      3.055  0.1596E+00  0.7995E+01
      3.118  0.0000E+00  0.8000E+01
      3.181  0.0000E+00  0.8000E+01
      3.244  0.0000E+00  0.8000E+01
      3.307  0.0000E+00  0.8000E+01
      3.370  0.2816E-04  0.8000E+01
      3.433  0.2260E-03  0.8000E+01
      3.496  0.6131E-03  0.8000E+01
      3.559  0.1189E-02  0.8000E+01
      3.622  0.1955E-02  0.8000E+01
      3.685  0.2910E-02  0.8000E+01
      3.748  0.4054E-02  0.8001E+01
      3.811  0.5387E-02  0.8001E+01
      3.874  0.6909E-02  0.8001E+01
      3.937  0.1195E-01  0.8002E+01
      4.000  0.2545E-01  0.8003E+01
      4.063  0.6321E-01  0.8006E+01
      4.126  0.1151E+00  0.8011E+01
      4.189  0.1783E+00  0.8020E+01
      4.252  0.2242E+00  0.8033E+01
      4.315  0.2759E+00  0.8049E+01
      4.378  0.3464E+00  0.8068E+01
      4.441  0.4241E+00  0.8093E+01
      4.504  0.4876E+00  0.8122E+01
      4.567  0.6037E+00  0.8155E+01
      4.630  0.8007E+00  0.8199E+01
      4.693  0.9789E+00  0.8255E+01
      4.756  0.1173E+01  0.8323E+01
      4.819  0.1373E+01  0.8403E+01
      4.882  0.1547E+01  0.8495E+01
      4.945  0.1753E+01  0.8599E+01
      5.008  0.1981E+01  0.8717E+01
      5.071  0.2663E+01  0.8859E+01
      5.134  0.2996E+01  0.9041E+01
      5.197  0.2724E+01  0.9223E+01
      5.260  0.2082E+01  0.9370E+01
      5.323  0.1851E+01  0.9494E+01
      5.386  0.1582E+01  0.9602E+01
      5.449  0.1348E+01  0.9693E+01
      5.512  0.1219E+01  0.9774E+01
      5.575  0.1150E+01  0.9849E+01
      5.638  0.1012E+01  0.9917E+01
      5.701  0.1015E+01  0.9978E+01
      5.764  0.1219E+01  0.1005E+02
      5.827  0.1267E+01  0.1013E+02
      5.890  0.1240E+01  0.1022E+02
      5.953  0.1084E+01  0.1029E+02
      6.016  0.1137E+01  0.1036E+02
      6.079  0.1186E+01  0.1043E+02
      6.142  0.1241E+01  0.1051E+02
      6.205  0.1169E+01  0.1058E+02
      6.268  0.1184E+01  0.1066E+02
      6.331  0.1195E+01  0.1073E+02
      6.394  0.1211E+01  0.1081E+02
      6.457  0.1371E+01  0.1089E+02
      6.520  0.1617E+01  0.1098E+02
      6.583  0.2577E+01  0.1111E+02
      6.646  0.3020E+01  0.1130E+02
      6.709  0.2969E+01  0.1149E+02
      6.772  0.2159E+01  0.1166E+02
      6.835  0.1970E+01  0.1178E+02
      6.898  0.1807E+01  0.1190E+02
      6.961  0.1676E+01  0.1201E+02
      7.024  0.1559E+01  0.1212E+02
      7.087  0.1419E+01  0.1221E+02
      7.150  0.1329E+01  0.1230E+02
      7.213  0.1292E+01  0.1238E+02
      7.276  0.1459E+01  0.1246E+02
      7.339  0.1814E+01  0.1257E+02
      7.402  0.2155E+01  0.1269E+02
      7.465  0.2340E+01  0.1283E+02
      7.528  0.2503E+01  0.1298E+02
      7.591  0.2279E+01  0.1313E+02
      7.654  0.2021E+01  0.1327E+02
      7.717  0.1970E+01  0.1340E+02
      7.780  0.1893E+01  0.1352E+02
      7.843  0.1943E+01  0.1364E+02
      7.906  0.1800E+01  0.1376E+02
      7.969  0.1617E+01  0.1386E+02
      8.032  0.1451E+01  0.1396E+02
      8.095  0.1392E+01  0.1405E+02
      8.158  0.1320E+01  0.1414E+02
      8.221  0.1329E+01  0.1422E+02
      8.284  0.1309E+01  0.1431E+02
      8.347  0.1188E+01  0.1438E+02
      8.410  0.1177E+01  0.1446E+02
      8.473  0.1186E+01  0.1453E+02
      8.536  0.1241E+01  0.1461E+02
      8.599  0.1422E+01  0.1469E+02
      8.662  0.1756E+01  0.1479E+02
      8.725  0.2124E+01  0.1492E+02
      8.788  0.1614E+01  0.1504E+02
      8.851  0.1338E+01  0.1513E+02
      8.914  0.1158E+01  0.1521E+02
      8.977  0.1071E+01  0.1528E+02
      9.040  0.1010E+01  0.1534E+02
      9.103  0.9499E+00  0.1540E+02
      9.166  0.8954E+00  0.1546E+02
      9.229  0.8347E+00  0.1552E+02
      9.292  0.7777E+00  0.1557E+02
      9.355  0.7412E+00  0.1562E+02
      9.418  0.7055E+00  0.1566E+02
      9.481  0.6778E+00  0.1570E+02
      9.544  0.7367E+00  0.1575E+02
      9.607  0.7279E+00  0.1580E+02
      9.670  0.3457E+00  0.1583E+02
      9.733  0.3199E+00  0.1585E+02
      9.796  0.2999E+00  0.1587E+02
      9.859  0.2789E+00  0.1589E+02
      9.922  0.2581E+00  0.1591E+02
      9.985  0.2374E+00  0.1592E+02
     10.048  0.2190E+00  0.1594E+02
     10.111  0.1965E+00  0.1595E+02
     10.174  0.1769E+00  0.1596E+02
     10.237  0.1464E+00  0.1597E+02
     10.300  0.1157E+00  0.1598E+02
     10.363  0.9049E-01  0.1599E+02
     10.426  0.7085E-01  0.1599E+02
     10.489  0.6420E-01  0.1600E+02
     10.552  0.5376E-01  0.1600E+02
     10.615  0.0000E+00  0.1600E+02
     10.678  0.0000E+00  0.1600E+02
     10.741  0.0000E+00  0.1600E+02
     10.804  0.0000E+00  0.1600E+02
     10.867  0.0000E+00  0.1600E+02
     10.930  0.0000E+00  0.1600E+02
     10.993  0.0000E+00  0.1600E+02
     11.056  0.0000E+00  0.1600E+02
     11.119  0.0000E+00  0.1600E+02
     11.182  0.0000E+00  0.1600E+02
     11.245  0.0000E+00  0.1600E+02
     11.308  0.0000E+00  0.1600E+02
     11.371  0.0000E+00  0.1600E+02
     11.434  0.0000E+00  0.1600E+02
