    2    2    1    1
  0.3512302E+02  0.4631400E-09  0.4631400E-09  0.4631400E-09  0.0000000E+00
  1.000000000000000E-004
  CAR 
 unknown system                          
      8    165      8
 
  0.0000000E+00  0.0000000E+00  0.0000000E+00  0.2035416E-03
    1       -6.606135   1.000000
    2        3.112985   1.000000
    3        3.112985   1.000000
    4        3.112985   1.000000
    5        3.335769   0.000000
    6        6.082646   0.000000
    7        6.082646   0.000000
    8        6.082647   0.000000
 
  0.5882353E-01  0.0000000E+00  0.0000000E+00  0.1628333E-02
    1       -6.581206   1.000000
    2        2.466604   1.000000
    3        3.077033   1.000000
    4        3.077033   1.000000
    5        3.875641   0.000000
    6        6.134852   0.000000
    7        6.140385   0.000000
    8        6.140385   0.000000
 
  0.1176471E+00  0.0000000E+00  0.0000000E+00  0.1628333E-02
    1       -6.507535   1.000000
    2        1.695860   1.000000
    3        2.981140   1.000000
    4        2.981140   1.000000
    5        4.274238   0.000000
    6        6.292731   0.000000
    7        6.292731   0.000000
    8        6.379653   0.000000
 
  0.1764706E+00  0.0000000E+00  0.0000000E+00  0.1628333E-02
    1       -6.388936   1.000000
    2        0.939780   1.000000
    3        2.851832   1.000000
    4        2.851832   1.000000
    5        4.380909   0.000000
    6        6.486409   0.000000
    7        6.486409   0.000000
    8        6.899623   0.000000
 
  0.2352941E+00  0.0000000E+00  0.0000000E+00  0.1628333E-02
    1       -6.232691   1.000000
    2        0.230043   1.000000
    3        2.715099   1.000000
    4        2.715099   1.000000
    5        4.316751   0.000000
    6        6.656624   0.000000
    7        6.656624   0.000000
    8        7.603119   0.000000
 
  0.2941176E+00  0.0000000E+00  0.0000000E+00  0.1628333E-02
    1       -6.051332   1.000000
    2       -0.406586   1.000000
    3        2.589891   1.000000
    4        2.589892   1.000000
    5        4.201423   0.000000
    6        6.757578   0.000000
    7        6.757578   0.000000
    8        8.380617   0.000000
 
  0.3529412E+00  0.0000000E+00  0.0000000E+00  0.1628333E-02
    1       -5.865373   1.000000
    2       -0.940537   1.000000
    3        2.488245   1.000000
    4        2.488245   1.000000
    5        4.091249   0.000000
    6        6.788656   0.000000
    7        6.788656   0.000000
    8        9.120725   0.000000
 
  0.4117647E+00  0.0000000E+00  0.0000000E+00  0.1628333E-02
    1       -5.705646   1.000000
    2       -1.335115   1.000000
    3        2.417289   1.000000
    4        2.417289   1.000000
    5        4.009846   0.000000
    6        6.781930   0.000000
    7        6.781930   0.000000
    8        9.517110   0.000000
 
  0.4705882E+00  0.0000000E+00  0.0000000E+00  0.1628333E-02
    1       -5.610690   1.000000
    2       -1.548333   1.000000
    3        2.380945   1.000000
    4        2.380945   1.000000
    5        3.967256   0.000000
    6        6.769913   0.000000
    7        6.769913   0.000000
    8        9.567353   0.000000
 
  0.5882353E-01  0.5882353E-01  0.0000000E+00  0.1221250E-02
    1       -6.572868   1.000000
    2        2.405496   1.000000
    3        3.004068   1.000000
    4        3.004068   1.000000
    5        4.038790   0.000000
    6        5.972426   0.000000
    7        6.243491   0.000000
    8        6.243491   0.000000
 
  0.1176471E+00  0.5882353E-01  0.0000000E+00  0.4884999E-02
    1       -6.515356   1.000000
    2        1.827162   1.000000
    3        2.881119   1.000000
    4        2.925963   1.000000
    5        4.420490   0.000000
    6        5.946378   0.000000
    7        6.434622   0.000000
    8        6.469999   0.000000
 
  0.1764706E+00  0.5882353E-01  0.0000000E+00  0.4884999E-02
    1       -6.411548   1.000000
    2        1.124321   1.000000
    3        2.737402   1.000000
    4        2.817764   1.000000
    5        4.607229   0.000000
    6        6.084416   0.000000
    7        6.659476   0.000000
    8        6.869471   0.000000
 
  0.2352941E+00  0.5882353E-01  0.0000000E+00  0.4884999E-02
    1       -6.267400   1.000000
    2        0.426645   1.000000
    3        2.597447   1.000000
    4        2.672510   1.000000
    5        4.591629   0.000000
    6        6.312640   0.000000
    7        6.853573   0.000000
    8        7.412225   0.000000
 
  0.2941176E+00  0.5882353E-01  0.0000000E+00  0.4884999E-02
    1       -6.093472   1.000000
    2       -0.219542   1.000000
    3        2.477849   1.000000
    4        2.517362   1.000000
    5        4.492598   0.000000
    6        6.506903   0.000000
    7        6.965891   0.000000
    8        8.024013   0.000000
 
  0.3529412E+00  0.5882353E-01  0.0000000E+00  0.4884999E-02
    1       -5.907244   1.000000
    2       -0.780049   1.000000
    3        2.373822   1.000000
    4        2.388697   1.000000
    5        4.382671   0.000000
    6        6.615711   0.000000
    7        6.988763   0.000000
    8        8.654889   0.000000
 
  0.4117647E+00  0.5882353E-01  0.0000000E+00  0.4884999E-02
    1       -5.735864   1.000000
    2       -1.218333   1.000000
    3        2.255524   1.000000
    4        2.335493   1.000000
    5        4.292941   0.000000
    6        6.662297   0.000000
    7        6.954425   0.000000
    8        9.233515   0.000000
 
  0.4705882E+00  0.5882353E-01  0.0000000E+00  0.4884999E-02
    1       -5.616036   1.000000
    2       -1.492288   1.000000
    3        2.170695   1.000000
    4        2.320658   1.000000
    5        4.236816   0.000000
    6        6.689770   0.000000
    7        6.901466   0.000000
    8        9.560789   0.000000
 
 -0.4705882E+00  0.5882353E-01  0.0000000E+00  0.4884999E-02
    1       -5.582926   1.000000
    2       -1.563950   1.000000
    3        2.124252   1.000000
    4        2.344314   1.000000
    5        4.219939   0.000000
    6        6.725717   0.000000
    7        6.854157   0.000000
    8        9.631357   0.000000
 
 -0.4117647E+00  0.5882353E-01  0.0000000E+00  0.4884999E-02
    1       -5.648046   1.000000
    2       -1.421228   1.000000
    3        2.118990   1.000000
    4        2.404694   1.000000
    5        4.243672   0.000000
    6        6.776913   0.000000
    7        6.818982   0.000000
    8        9.553660   0.000000
 
 -0.3529412E+00  0.5882353E-01  0.0000000E+00  0.4884999E-02
    1       -5.789551   1.000000
    2       -1.087365   1.000000
    3        2.156070   1.000000
    4        2.498034   1.000000
    5        4.305665   0.000000
    6        6.785097   0.000000
    7        6.829780   0.000000
    8        9.160174   0.000000
 
 -0.2941176E+00  0.5882353E-01  0.0000000E+00  0.4884999E-02
    1       -5.969594   1.000000
    2       -0.604012   1.000000
    3        2.235065   1.000000
    4        2.618058   1.000000
    5        4.398209   0.000000
    6        6.726168   0.000000
    7        6.847080   0.000000
    8        8.507276   0.000000
 
 -0.2352941E+00  0.5882353E-01  0.0000000E+00  0.4884999E-02
    1       -6.154191   1.000000
    2       -0.012253   1.000000
    3        2.353642   1.000000
    4        2.754815   1.000000
    5        4.502586   0.000000
    6        6.613577   0.000000
    7        6.767913   0.000000
    8        7.838944   0.000000
 
 -0.1764706E+00  0.5882353E-01  0.0000000E+00  0.4884999E-02
    1       -6.319664   1.000000
    2        0.651654   1.000000
    3        2.507037   1.000000
    4        2.892928   1.000000
    5        4.573969   0.000000
    6        6.447334   0.000000
    7        6.546591   0.000000
    8        7.258982   0.000000
 
 -0.1176471E+00  0.5882353E-01  0.0000000E+00  0.4884999E-02
    1       -6.451207   1.000000
    2        1.348416   1.000000
    3        2.688141   1.000000
    4        3.010017   1.000000
    5        4.515175   0.000000
    6        6.267413   0.000000
    7        6.272450   0.000000
    8        6.794385   0.000000
 
 -0.5882353E-01  0.5882353E-01  0.0000000E+00  0.2442499E-02
    1       -6.539976   1.000000
    2        2.010489   1.000000
    3        2.890984   1.000000
    4        3.078660   1.000000
    5        4.226807   0.000000
    6        6.122455   0.000000
    7        6.153771   0.000000
    8        6.419997   0.000000
 
  0.1176471E+00  0.1176471E+00  0.0000000E+00  0.1221250E-02
    1       -6.474287   1.000000
    2        1.619649   1.000000
    3        2.737304   1.000000
    4        2.737304   1.000000
    5        4.763501   0.000000
    6        5.736584   0.000000
    7        6.664727   0.000000
    8        6.664727   0.000000
 
  0.1764706E+00  0.1176471E+00  0.0000000E+00  0.4884999E-02
    1       -6.386319   1.000000
    2        1.121514   1.000000
    3        2.580260   1.000000
    4        2.595593   1.000000
    5        4.994195   0.000000
    6        5.717980   0.000000
    7        6.929466   0.000000
    8        6.989524   0.000000
 
  0.2352941E+00  0.1176471E+00  0.0000000E+00  0.4884999E-02
    1       -6.256341   1.000000
    2        0.518784   1.000000
    3        2.431365   1.000000
    4        2.433778   1.000000
    5        5.049164   0.000000
    6        5.879026   0.000000
    7        7.164884   0.000000
    8        7.361067   0.000000
 
  0.2941176E+00  0.1176471E+00  0.0000000E+00  0.4884999E-02
    1       -6.093204   1.000000
    2       -0.085608   1.000000
    3        2.240587   1.000000
    4        2.313491   1.000000
    5        4.986832   0.000000
    6        6.147999   0.000000
    7        7.312340   0.000000
    8        7.657064   0.000000
 
  0.3529412E+00  0.1176471E+00  0.0000000E+00  0.4884999E-02
    1       -5.911760   1.000000
    2       -0.637216   1.000000
    3        2.050297   1.000000
    4        2.228737   1.000000
    5        4.887754   0.000000
    6        6.386926   0.000000
    7        7.350953   0.000000
    8        7.974473   0.000000
 
  0.4117647E+00  0.1176471E+00  0.0000000E+00  0.4884999E-02
    1       -5.735479   1.000000
    2       -1.092903   1.000000
    3        1.882127   1.000000
    4        2.184514   1.000000
    5        4.795333   0.000000
    6        6.522112   0.000000
    7        7.308234   0.000000
    8        8.443958   0.000000
 
  0.4705882E+00  0.1176471E+00  0.0000000E+00  0.4884999E-02
    1       -5.597729   1.000000
    2       -1.408604   1.000000
    3        1.749372   1.000000
    4        2.182721   1.000000
    5        4.729190   0.000000
    6        6.591295   0.000000
    7        7.227907   0.000000
    8        9.025864   0.000000
 
 -0.4705882E+00  0.1176471E+00  0.0000000E+00  0.4884999E-02
    1       -5.535109   1.000000
    2       -1.542195   1.000000
    3        1.660184   1.000000
    4        2.222822   1.000000
    5        4.697939   0.000000
    6        6.650132   0.000000
    7        7.141408   0.000000
    8        9.531667   0.000000
 
 -0.4117647E+00  0.1176471E+00  0.0000000E+00  0.4884999E-02
    1       -5.568311   1.000000
    2       -1.471220   1.000000
    3        1.620015   1.000000
    4        2.302040   1.000000
    5        4.704124   0.000000
    6        6.723797   0.000000
    7        7.061174   0.000000
    8        9.570062   0.000000
 
 -0.3529412E+00  0.1176471E+00  0.0000000E+00  0.4884999E-02
    1       -5.685962   1.000000
    2       -1.208763   1.000000
    3        1.633133   1.000000
    4        2.415125   1.000000
    5        4.745469   0.000000
    6        6.808934   0.000000
    7        6.981310   0.000000
    8        9.066567   0.000000
 
 -0.2941176E+00  0.1176471E+00  0.0000000E+00  0.4884999E-02
    1       -5.853983   1.000000
    2       -0.794837   1.000000
    3        1.703692   1.000000
    4        2.553628   1.000000
    5        4.813348   0.000000
    6        6.868653   0.000000
    7        6.880047   0.000000
    8        8.428467   0.000000
 
 -0.2352941E+00  0.1176471E+00  0.0000000E+00  0.4884999E-02
    1       -6.036708   1.000000
    2       -0.277404   1.000000
    3        1.837032   1.000000
    4        2.704625   1.000000
    5        4.886436   0.000000
    6        6.733456   0.000000
    7        6.810767   0.000000
    8        7.896038   0.000000
 
 -0.1764706E+00  0.1176471E+00  0.0000000E+00  0.4884999E-02
    1       -6.207551   1.000000
    2        0.293575   1.000000
    3        2.041517   1.000000
    4        2.848870   1.000000
    5        4.913791   0.000000
    6        6.547216   0.000000
    7        6.567851   0.000000
    8        7.548583   0.000000
 
 -0.1176471E+00  0.1176471E+00  0.0000000E+00  0.2442499E-02
    1       -6.349204   1.000000
    2        0.859189   1.000000
    3        2.328348   1.000000
    4        2.960200   1.000000
    5        4.800468   0.000000
    6        6.327546   0.000000
    7        6.371661   0.000000
    8        7.220451   0.000000
 
  0.1764706E+00  0.1764706E+00  0.0000000E+00  0.1221250E-02
    1       -6.314494   1.000000
    2        0.866090   1.000000
    3        2.412294   1.000000
    4        2.412294   1.000000
    5        5.105155   0.000000
    6        5.680507   0.000000
    7        7.243251   0.000000
    8        7.243252   0.000000
 
  0.2352941E+00  0.1764706E+00  0.0000000E+00  0.4884999E-02
    1       -6.200001   1.000000
    2        0.430481   1.000000
    3        2.236190   1.000000
    4        2.257589   1.000000
    5        5.113507   0.000000
    6        5.763323   0.000000
    7        7.527579   0.000000
    8        7.537445   0.000000
 
  0.2941176E+00  0.1764706E+00  0.0000000E+00  0.4884999E-02
    1       -6.050292   1.000000
    2       -0.072113   1.000000
    3        2.017552   1.000000
    4        2.131911   1.000000
    5        5.160816   0.000000
    6        5.899937   0.000000
    7        7.605988   0.000000
    8        7.745362   0.000000
 
  0.3529412E+00  0.1764706E+00  0.0000000E+00  0.4884999E-02
    1       -5.878084   1.000000
    2       -0.567073   1.000000
    3        1.777685   1.000000
    4        2.044729   1.000000
    5        5.148807   0.000000
    6        6.188310   0.000000
    7        7.605105   0.000000
    8        7.827435   0.000000
 
  0.4117647E+00  0.1764706E+00  0.0000000E+00  0.4884999E-02
    1       -5.703507   1.000000
    2       -1.001759   1.000000
    3        1.551501   1.000000
    4        2.001180   1.000000
    5        5.095400   0.000000
    6        6.508559   0.000000
    7        7.748533   0.000000
    8        7.799459   0.000000
 
  0.4705882E+00  0.1764706E+00  0.0000000E+00  0.4884999E-02
    1       -5.556034   1.000000
    2       -1.328641   1.000000
    3        1.362293   1.000000
    4        2.003263   1.000000
    5        5.049097   0.000000
    6        6.695876   0.000000
    7        7.708594   0.000000
    8        8.174810   0.000000
 
 -0.4705882E+00  0.1764706E+00  0.0000000E+00  0.4884999E-02
    1       -5.470762   1.000000
    2       -1.502813   1.000000
    3        1.223763   1.000000
    4        2.050423   1.000000
    5        5.031361   0.000000
    6        6.780528   0.000000
    7        7.594267   0.000000
    8        8.805766   0.000000
 
 -0.4117647E+00  0.1764706E+00  0.0000000E+00  0.4884999E-02
    1       -5.473803   1.000000
    2       -1.494608   1.000000
    3        1.145213   1.000000
    4        2.139669   1.000000
    5        5.047497   0.000000
    6        6.849215   0.000000
    7        7.474580   0.000000
    8        9.348221   0.000000
 
 -0.3529412E+00  0.1764706E+00  0.0000000E+00  0.4884999E-02
    1       -5.564006   1.000000
    2       -1.307606   1.000000
    3        1.135152   1.000000
    4        2.265161   1.000000
    5        5.093082   0.000000
    6        6.933191   0.000000
    7        7.346299   0.000000
    8        8.962829   0.000000
 
 -0.2941176E+00  0.1764706E+00  0.0000000E+00  0.4884999E-02
    1       -5.713966   1.000000
    2       -0.978981   1.000000
    3        1.204237   1.000000
    4        2.417316   1.000000
    5        5.153322   0.000000
    6        7.015756   0.000000
    7        7.188861   0.000000
    8        8.292665   0.000000
 
 -0.2352941E+00  0.1764706E+00  0.0000000E+00  0.4884999E-02
    1       -5.888805   1.000000
    2       -0.563592   1.000000
    3        1.367801   1.000000
    4        2.581249   1.000000
    5        5.193975   0.000000
    6        6.983256   0.000000
    7        6.990748   0.000000
    8        7.798046   0.000000
 
 -0.1764706E+00  0.1764706E+00  0.0000000E+00  0.2442499E-02
    1       -6.059826   1.000000
    2       -0.121548   1.000000
    3        1.644833   1.000000
    4        2.734900   1.000000
    5        5.142012   0.000000
    6        6.748445   0.000000
    7        6.749749   0.000000
    8        7.645645   0.000000
 
  0.2352941E+00  0.2352941E+00  0.0000000E+00  0.1221250E-02
    1       -6.101477   1.000000
    2        0.157253   1.000000
    3        2.094256   1.000000
    4        2.094256   1.000000
    5        4.932112   0.000000
    6        5.796903   0.000000
    7        7.908904   0.000000
    8        7.908904   0.000000
 
  0.2941176E+00  0.2352941E+00  0.0000000E+00  0.4884999E-02
    1       -5.967169   1.000000
    2       -0.220968   1.000000
    3        1.907330   1.000000
    4        1.960443   1.000000
    5        4.915915   0.000000
    6        5.772539   0.000000
    7        8.048179   0.000000
    8        8.206158   0.000000
 
  0.3529412E+00  0.2352941E+00  0.0000000E+00  0.4884999E-02
    1       -5.808046   1.000000
    2       -0.625552   1.000000
    3        1.650825   1.000000
    4        1.866309   1.000000
    5        5.007446   0.000000
    6        5.865692   0.000000
    7        7.946950   0.000000
    8        8.366365   0.000000
 
  0.4117647E+00  0.2352941E+00  0.0000000E+00  0.4884999E-02
    1       -5.641555   1.000000
    2       -1.000973   1.000000
    3        1.371514   1.000000
    4        1.817486   1.000000
    5        5.048676   0.000000
    6        6.211915   0.000000
    7        7.835823   0.000000
    8        8.382327   0.000000
 
  0.4705882E+00  0.2352941E+00  0.0000000E+00  0.4884999E-02
    1       -5.493326   1.000000
    2       -1.301028   1.000000
    3        1.116939   1.000000
    4        1.816399   1.000000
    5        5.048619   0.000000
    6        6.719186   0.000000
    7        7.811411   0.000000
    8        8.300298   0.000000
 
 -0.4705882E+00  0.2352941E+00  0.0000000E+00  0.4884999E-02
    1       -5.395114   1.000000
    2       -1.482894   1.000000
    3        0.916782   1.000000
    4        1.862827   1.000000
    5        5.062209   0.000000
    6        7.133958   0.000000
    7        8.049590   0.000000
    8        8.169305   0.000000
 
 -0.4117647E+00  0.2352941E+00  0.0000000E+00  0.4884999E-02
    1       -5.374252   1.000000
    2       -1.515744   1.000000
    3        0.789795   1.000000
    4        1.954037   1.000000
    5        5.108107   0.000000
    6        7.290915   0.000000
    7        8.013437   0.000000
    8        8.639809   0.000000
 
 -0.3529412E+00  0.2352941E+00  0.0000000E+00  0.4884999E-02
    1       -5.436976   1.000000
    2       -1.397943   1.000000
    3        0.752059   1.000000
    4        2.084279   1.000000
    5        5.182693   0.000000
    6        7.366452   0.000000
    7        7.828940   0.000000
    8        8.835631   0.000000
 
 -0.2941176E+00  0.2352941E+00  0.0000000E+00  0.4884999E-02
    1       -5.564075   1.000000
    2       -1.163505   1.000000
    3        0.822479   1.000000
    4        2.243817   1.000000
    5        5.263959   0.000000
    6        7.444353   0.000000
    7        7.592588   0.000000
    8        8.173269   0.000000
 
 -0.2352941E+00  0.2352941E+00  0.0000000E+00  0.2442499E-02
    1       -5.724255   1.000000
    2       -0.867950   1.000000
    3        1.023224   1.000000
    4        2.417219   1.000000
    5        5.299909   0.000000
    6        7.295682   0.000000
    7        7.371609   0.000000
    8        7.721559   0.000000
 
  0.2941176E+00  0.2941176E+00  0.0000000E+00  0.1221250E-02
    1       -5.849368   1.000000
    2       -0.492110   1.000000
    3        1.817271   1.000000
    4        1.817271   1.000000
    5        4.720363   0.000000
    6        5.609961   0.000000
    7        8.621067   0.000000
    8        8.621085   0.000000
 
  0.3529412E+00  0.2941176E+00  0.0000000E+00  0.4884999E-02
    1       -5.706627   1.000000
    2       -0.809914   1.000000
    3        1.635758   1.000000
    4        1.713603   1.000000
    5        4.734998   0.000000
    6        5.514754   0.000000
    7        8.689650   0.000000
    8        8.904217   0.000000
 
  0.4117647E+00  0.2941176E+00  0.0000000E+00  0.4884999E-02
    1       -5.554410   1.000000
    2       -1.114848   1.000000
    3        1.361143   1.000000
    4        1.655823   1.000000
    5        4.848000   0.000000
    6        5.638744   0.000000
    7        8.559783   0.000000
    8        9.006984   0.000000
 
  0.4705882E+00  0.2941176E+00  0.0000000E+00  0.4884999E-02
    1       -5.414964   1.000000
    2       -1.363439   1.000000
    3        1.061477   1.000000
    4        1.646939   1.000000
    5        4.902336   0.000000
    6        6.076762   0.000000
    7        8.427636   0.000000
    8        8.960296   0.000000
 
 -0.4705882E+00  0.2941176E+00  0.0000000E+00  0.4884999E-02
    1       -5.315898   1.000000
    2       -1.520580   1.000000
    3        0.798046   1.000000
    4        1.687257   1.000000
    5        4.938710   0.000000
    6        6.717459   0.000000
    7        8.334134   0.000000
    8        8.823547   0.000000
 
 -0.4117647E+00  0.2941176E+00  0.0000000E+00  0.4884999E-02
    1       -5.282019   1.000000
    2       -1.563307   1.000000
    3        0.612196   1.000000
    4        1.774508   1.000000
    5        5.003108   0.000000
    6        7.424377   0.000000
    7        8.325356   0.000000
    8        8.627638   0.000000
 
 -0.3529412E+00  0.2941176E+00  0.0000000E+00  0.4884999E-02
    1       -5.322466   1.000000
    2       -1.493862   1.000000
    3        0.535741   1.000000
    4        1.903460   1.000000
    5        5.099915   0.000000
    6        7.915614   0.000000
    7        8.364087   0.000000
    8        8.513722   0.000000
 
 -0.2941176E+00  0.2941176E+00  0.0000000E+00  0.2442499E-02
    1       -5.424891   1.000000
    2       -1.345136   1.000000
    3        0.598452   1.000000
    4        2.064885   1.000000
    5        5.207054   0.000000
    6        8.010671   0.000000
    7        8.019031   0.000000
    8        8.145267   0.000000
 
  0.3529412E+00  0.3529412E+00  0.0000000E+00  0.1221250E-02
    1       -5.582857   1.000000
    2       -1.057228   1.000000
    3        1.599172   1.000000
    4        1.599172   1.000000
    5        4.574588   0.000000
    6        5.274042   0.000000
    7        9.349845   0.000000
    8        9.349860   0.000000
 
  0.4117647E+00  0.3529412E+00  0.0000000E+00  0.4884999E-02
    1       -5.450809   1.000000
    2       -1.302004   1.000000
    3        1.434962   1.000000
    4        1.530366   1.000000
    5        4.627609   0.000000
    6        5.191822   0.000000
    7        9.413907   0.000000
    8        9.601662   0.000000
 
  0.4705882E+00  0.3529412E+00  0.0000000E+00  0.4884999E-02
    1       -5.330129   1.000000
    2       -1.497840   1.000000
    3        1.162627   1.000000
    4        1.510899   1.000000
    5        4.740150   0.000000
    6        5.406534   0.000000
    7        9.286145   0.000000
    8        9.634384   0.000000
 
 -0.4705882E+00  0.3529412E+00  0.0000000E+00  0.4884999E-02
    1       -5.243949   1.000000
    2       -1.614476   1.000000
    3        0.868694   1.000000
    4        1.541682   1.000000
    5        4.796661   0.000000
    6        5.947697   0.000000
    7        9.147429   0.000000
    8        9.504903   0.000000
 
 -0.4117647E+00  0.3529412E+00  0.0000000E+00  0.4884999E-02
    1       -5.211936   1.000000
    2       -1.639606   1.000000
    3        0.629399   1.000000
    4        1.621041   1.000000
    5        4.867980   0.000000
    6        6.666740   0.000000
    7        9.015675   0.000000
    8        9.251442   0.000000
 
 -0.3529412E+00  0.3529412E+00  0.0000000E+00  0.2442499E-02
    1       -5.241106   1.000000
    2       -1.586795   1.000000
    3        0.502831   1.000000
    4        1.744425   1.000000
    5        4.975017   0.000000
    6        7.461897   0.000000
    7        8.794545   0.000000
    8        8.865627   0.000000
 
  0.4117647E+00  0.4117647E+00  0.0000000E+00  0.1221250E-02
    1       -5.344150   1.000000
    2       -1.495582   1.000000
    3        1.449581   1.000000
    4        1.449581   1.000000
    5        4.517957   0.000000
    6        4.951635   0.000000
    7       10.048913   0.000000
    8       10.048922   0.000000
 
  0.4705882E+00  0.4117647E+00  0.0000000E+00  0.4884999E-02
    1       -5.251982   1.000000
    2       -1.643398   1.000000
    3        1.312108   1.000000
    4        1.417997   1.000000
    5        4.606322   0.000000
    6        4.923870   0.000000
    7       10.111673   0.000000
    8       10.227326   0.000000
 
 -0.4705882E+00  0.4117647E+00  0.0000000E+00  0.4884999E-02
    1       -5.192669   1.000000
    2       -1.715337   1.000000
    3        1.062014   1.000000
    4        1.437186   1.000000
    5        4.689792   0.000000
    6        5.270275   0.000000
    7        9.957100   0.000000
    8       10.125346   0.000000
 
 -0.4117647E+00  0.4117647E+00  0.0000000E+00  0.2442499E-02
    1       -5.178895   1.000000
    2       -1.706035   1.000000
    3        0.803443   1.000000
    4        1.506134   1.000000
    5        4.759083   0.000000
    6        5.899552   0.000000
    7        9.652166   0.000000
    8        9.784700   0.000000
 
  0.4705882E+00  0.4705882E+00  0.0000000E+00  0.1221250E-02
    1       -5.195867   1.000000
    2       -1.743951   1.000000
    3        1.373656   1.000000
    4        1.373656   1.000000
    5        4.560318   0.000000
    6        4.707291   0.000000
    7       10.574581   0.000000
    8       10.574583   0.000000
 
 -0.4705882E+00  0.4705882E+00  0.0000000E+00  0.2442499E-02
    1       -5.174613   1.000000
    2       -1.768429   1.000000
    3        1.270792   1.000000
    4        1.380164   1.000000
    5        4.636830   0.000000
    6        4.792985   0.000000
    7       10.487374   0.000000
    8       10.533044   0.000000
 
  0.1764706E+00  0.1176471E+00  0.5882353E-01  0.4884999E-02
    1       -6.442662   1.000000
    2        1.362403   1.000000
    3        2.616529   1.000000
    4        2.884340   1.000000
    5        4.728048   0.000000
    6        5.897396   0.000000
    7        6.573852   0.000000
    8        6.844978   0.000000
 
  0.2352941E+00  0.1176471E+00  0.5882353E-01  0.9769998E-02
    1       -6.325681   1.000000
    2        0.764797   1.000000
    3        2.368463   1.000000
    4        2.799258   1.000000
    5        4.886098   0.000000
    6        6.019349   0.000000
    7        6.792974   0.000000
    8        7.240783   0.000000
 
  0.2941176E+00  0.1176471E+00  0.5882353E-01  0.9769998E-02
    1       -6.171767   1.000000
    2        0.141564   1.000000
    3        2.168111   1.000000
    4        2.671097   1.000000
    5        4.872151   0.000000
    6        6.261278   0.000000
    7        7.011310   0.000000
    8        7.611476   0.000000
 
  0.3529412E+00  0.1176471E+00  0.5882353E-01  0.9769998E-02
    1       -5.993410   1.000000
    2       -0.443958   1.000000
    3        2.012807   1.000000
    4        2.531731   1.000000
    5        4.786129   0.000000
    6        6.478059   0.000000
    7        7.118663   0.000000
    8        8.033176   0.000000
 
  0.4117647E+00  0.1176471E+00  0.5882353E-01  0.9769998E-02
    1       -5.810921   1.000000
    2       -0.946141   1.000000
    3        1.900342   1.000000
    4        2.406723   1.000000
    5        4.693553   0.000000
    6        6.593745   0.000000
    7        7.123681   0.000000
    8        8.563588   0.000000
 
  0.4705882E+00  0.1176471E+00  0.5882353E-01  0.9769998E-02
    1       -5.654601   1.000000
    2       -1.321316   1.000000
    3        1.828147   1.000000
    4        2.313676   1.000000
    5        4.622400   0.000000
    6        6.631982   0.000000
    7        7.091248   0.000000
    8        9.146656   0.000000
 
 -0.4705882E+00  0.1176471E+00  0.5882353E-01  0.9769998E-02
    1       -5.561879   1.000000
    2       -1.525014   1.000000
    3        1.793181   1.000000
    4        2.264132   1.000000
    5        4.584554   0.000000
    6        6.638952   0.000000
    7        7.065074   0.000000
    8        9.579800   0.000000
 
  0.2352941E+00  0.1764706E+00  0.5882353E-01  0.4884999E-02
    1       -6.285093   1.000000
    2        0.693524   1.000000
    3        2.285865   1.000000
    4        2.538226   1.000000
    5        5.163546   0.000000
    6        5.718680   0.000000
    7        7.171399   0.000000
    8        7.313777   0.000000
 
  0.2941176E+00  0.1764706E+00  0.5882353E-01  0.9769998E-02
    1       -6.145060   1.000000
    2        0.177359   1.000000
    3        2.024652   1.000000
    4        2.435473   1.000000
    5        5.238632   0.000000
    6        5.863370   0.000000
    7        7.419474   0.000000
    8        7.497533   0.000000
 
  0.3529412E+00  0.1764706E+00  0.5882353E-01  0.9769998E-02
    1       -5.976816   1.000000
    2       -0.350566   1.000000
    3        1.809002   1.000000
    4        2.307451   1.000000
    5        5.205826   0.000000
    6        6.143993   0.000000
    7        7.509409   0.000000
    8        7.662493   0.000000
 