       N       E                     dE             d eps       ncg     rms          rms(c)
DAV:   1     0.117976081067E+02    0.11798E+02   -0.26741E+03  2640   0.718E+02
DAV:   2    -0.757341590915E+01   -0.19371E+02   -0.19071E+02  3616   0.787E+01
DAV:   3    -0.807417865730E+01   -0.50076E+00   -0.50077E+00  3528   0.141E+01
DAV:   4    -0.807753269843E+01   -0.33540E-02   -0.33540E-02  3864   0.140E+00
DAV:   5    -0.807755192871E+01   -0.19230E-04   -0.19230E-04  3640   0.892E-02    0.189E+00
RMM:   6    -0.802748856615E+01    0.50063E-01   -0.55112E-02  2642   0.126E+00    0.114E+00
RMM:   7    -0.801708942531E+01    0.10399E-01   -0.44432E-02  2694   0.126E+00    0.279E-01
RMM:   8    -0.801770074814E+01   -0.61132E-03   -0.43143E-03  2687   0.470E-01    0.444E-02
RMM:   9    -0.801816463789E+01   -0.46389E-03   -0.68250E-04  2766   0.181E-01    0.126E-02
RMM:  10    -0.801819068167E+01   -0.26044E-04   -0.62520E-05  2987   0.594E-02    0.353E-03
RMM:  11    -0.801819460886E+01   -0.39272E-05   -0.79189E-06  2957   0.232E-02    0.113E-03
RMM:  12    -0.801819512557E+01   -0.51671E-06   -0.57699E-07  2269   0.738E-03
   1 F= -.80181951E+01 E0= -.80181951E+01  d E =0.000000E+00
