   2   2   1   0
  0.9263233E+01  0.2970087E-09  0.2970087E-09  0.2970087E-09  0.0000000E+00
   1.0000000000000000E-004
  CAR 
 unknown system                          
     40.42060666    -15.97672434  301      5.94085349      1.00000000
    -15.977  0.0000E+00  0.0000E+00  0.0000E+00  0.0000E+00
    -15.789  0.0000E+00  0.0000E+00  0.0000E+00  0.0000E+00
    -15.601  0.0000E+00  0.0000E+00  0.0000E+00  0.0000E+00
    -15.413  0.0000E+00  0.0000E+00  0.0000E+00  0.0000E+00
    -15.225  0.0000E+00  0.0000E+00  0.0000E+00  0.0000E+00
    -15.037  0.0000E+00  0.0000E+00  0.0000E+00  0.0000E+00
    -14.849  0.0000E+00  0.0000E+00  0.0000E+00  0.0000E+00
    -14.661  0.0000E+00  0.0000E+00  0.0000E+00  0.0000E+00
    -14.473  0.0000E+00  0.0000E+00  0.0000E+00  0.0000E+00
    -14.285  0.0000E+00  0.0000E+00  0.0000E+00  0.0000E+00
    -14.097  0.0000E+00  0.0000E+00  0.0000E+00  0.0000E+00
    -13.909  0.0000E+00  0.0000E+00  0.0000E+00  0.0000E+00
    -13.721  0.0000E+00  0.0000E+00  0.0000E+00  0.0000E+00
    -13.533  0.0000E+00  0.0000E+00  0.0000E+00  0.0000E+00
    -13.345  0.5696E-01  0.5696E-01  0.2058E-02  0.2057E-02
    -13.157  0.1530E+00  0.1530E+00  0.1971E-01  0.1971E-01
    -12.969  0.2121E+00  0.2121E+00  0.4984E-01  0.4984E-01
    -12.781  0.2742E+00  0.2742E+00  0.9350E-01  0.9350E-01
    -12.593  0.3986E+00  0.3986E+00  0.1549E+00  0.1549E+00
    -12.405  0.5827E+00  0.5827E+00  0.2438E+00  0.2438E+00
    -12.217  0.1034E+01  0.1034E+01  0.3872E+00  0.3872E+00
    -12.029  0.4218E+01  0.4218E+01  0.7491E+00  0.7491E+00
    -11.841  0.9595E+00  0.9595E+00  0.1000E+01  0.1000E+01
    -11.653  0.0000E+00  0.0000E+00  0.1000E+01  0.1000E+01
    -11.465  0.0000E+00  0.0000E+00  0.1000E+01  0.1000E+01
    -11.277  0.0000E+00  0.0000E+00  0.1000E+01  0.1000E+01
    -11.089  0.0000E+00  0.0000E+00  0.1000E+01  0.1000E+01
    -10.901  0.0000E+00  0.0000E+00  0.1000E+01  0.1000E+01
    -10.713  0.0000E+00  0.0000E+00  0.1000E+01  0.1000E+01
    -10.525  0.0000E+00  0.0000E+00  0.1000E+01  0.1000E+01
    -10.337  0.0000E+00  0.0000E+00  0.1000E+01  0.1000E+01
    -10.149  0.0000E+00  0.0000E+00  0.1000E+01  0.1000E+01
     -9.961  0.0000E+00  0.0000E+00  0.1000E+01  0.1000E+01
     -9.773  0.0000E+00  0.0000E+00  0.1000E+01  0.1000E+01
     -9.585  0.0000E+00  0.0000E+00  0.1000E+01  0.1000E+01
     -9.397  0.0000E+00  0.0000E+00  0.1000E+01  0.1000E+01
     -9.209  0.0000E+00  0.0000E+00  0.1000E+01  0.1000E+01
     -9.021  0.0000E+00  0.0000E+00  0.1000E+01  0.1000E+01
     -8.833  0.0000E+00  0.0000E+00  0.1000E+01  0.1000E+01
     -8.645  0.0000E+00  0.0000E+00  0.1000E+01  0.1000E+01
     -8.457  0.0000E+00  0.0000E+00  0.1000E+01  0.1000E+01
     -8.269  0.0000E+00  0.0000E+00  0.1000E+01  0.1000E+01
     -8.081  0.0000E+00  0.0000E+00  0.1000E+01  0.1000E+01
     -7.893  0.0000E+00  0.0000E+00  0.1000E+01  0.1000E+01
     -7.705  0.0000E+00  0.0000E+00  0.1000E+01  0.1000E+01
     -7.517  0.0000E+00  0.0000E+00  0.1000E+01  0.1000E+01
     -7.329  0.0000E+00  0.0000E+00  0.1000E+01  0.1000E+01
     -7.141  0.0000E+00  0.0000E+00  0.1000E+01  0.1000E+01
     -6.953  0.0000E+00  0.0000E+00  0.1000E+01  0.1000E+01
     -6.765  0.0000E+00  0.0000E+00  0.1000E+01  0.1000E+01
     -6.577  0.0000E+00  0.0000E+00  0.1000E+01  0.1000E+01
     -6.389  0.0000E+00  0.0000E+00  0.1000E+01  0.1000E+01
     -6.201  0.0000E+00  0.0000E+00  0.1000E+01  0.1000E+01
     -6.013  0.0000E+00  0.0000E+00  0.1000E+01  0.1000E+01
     -5.825  0.0000E+00  0.0000E+00  0.1000E+01  0.1000E+01
     -5.637  0.0000E+00  0.0000E+00  0.1000E+01  0.1000E+01
     -5.449  0.0000E+00  0.0000E+00  0.1000E+01  0.1000E+01
     -5.261  0.0000E+00  0.0000E+00  0.1000E+01  0.1000E+01
     -5.073  0.0000E+00  0.0000E+00  0.1000E+01  0.1000E+01
     -4.885  0.0000E+00  0.0000E+00  0.1000E+01  0.1000E+01
     -4.697  0.0000E+00  0.0000E+00  0.1000E+01  0.1000E+01
     -4.509  0.0000E+00  0.0000E+00  0.1000E+01  0.1000E+01
     -4.321  0.0000E+00  0.0000E+00  0.1000E+01  0.1000E+01
     -4.133  0.0000E+00  0.0000E+00  0.1000E+01  0.1000E+01
     -3.945  0.0000E+00  0.0000E+00  0.1000E+01  0.1000E+01
     -3.757  0.0000E+00  0.0000E+00  0.1000E+01  0.1000E+01
     -3.569  0.0000E+00  0.0000E+00  0.1000E+01  0.1000E+01
     -3.381  0.0000E+00  0.0000E+00  0.1000E+01  0.1000E+01
     -3.193  0.0000E+00  0.0000E+00  0.1000E+01  0.1000E+01
     -3.005  0.0000E+00  0.0000E+00  0.1000E+01  0.1000E+01
     -2.817  0.0000E+00  0.0000E+00  0.1000E+01  0.1000E+01
     -2.629  0.0000E+00  0.0000E+00  0.1000E+01  0.1000E+01
     -2.441  0.0000E+00  0.0000E+00  0.1000E+01  0.1000E+01
     -2.253  0.0000E+00  0.0000E+00  0.1000E+01  0.1000E+01
     -2.065  0.0000E+00  0.0000E+00  0.1000E+01  0.1000E+01
     -1.877  0.0000E+00  0.0000E+00  0.1000E+01  0.1000E+01
     -1.689  0.0000E+00  0.0000E+00  0.1000E+01  0.1000E+01
     -1.501  0.0000E+00  0.0000E+00  0.1000E+01  0.1000E+01
     -1.313  0.1109E+00  0.1109E+00  0.1007E+01  0.1007E+01
     -1.125  0.1828E+00  0.1828E+00  0.1034E+01  0.1034E+01
     -0.937  0.2637E+00  0.2637E+00  0.1075E+01  0.1075E+01
     -0.749  0.3667E+00  0.3667E+00  0.1134E+01  0.1134E+01
     -0.561  0.5610E+00  0.5610E+00  0.1218E+01  0.1218E+01
     -0.373  0.8651E+00  0.8651E+00  0.1354E+01  0.1354E+01
     -0.185  0.1235E+01  0.1235E+01  0.1524E+01  0.1524E+01
      0.003  0.9524E+00  0.9524E+00  0.1705E+01  0.1705E+01
      0.191  0.6484E+00  0.6484E+00  0.1839E+01  0.1839E+01
      0.379  0.2017E+00  0.2017E+00  0.1894E+01  0.1894E+01
      0.566  0.5764E+00  0.5764E+00  0.1954E+01  0.1954E+01
      0.754  0.1716E+01  0.1716E+01  0.2145E+01  0.2145E+01
      0.942  0.2176E+01  0.2176E+01  0.2444E+01  0.2444E+01
      1.130  0.2721E+01  0.2721E+01  0.2899E+01  0.2899E+01
      1.318  0.1344E+01  0.1344E+01  0.3195E+01  0.3195E+01
      1.506  0.1042E+01  0.1042E+01  0.3412E+01  0.3412E+01
      1.694  0.8368E+00  0.8368E+00  0.3589E+01  0.3589E+01
      1.882  0.6897E+00  0.6897E+00  0.3730E+01  0.3730E+01
      2.070  0.5287E+00  0.5287E+00  0.3845E+01  0.3845E+01
      2.258  0.3566E+00  0.3566E+00  0.3928E+01  0.3928E+01
      2.446  0.2019E+00  0.2019E+00  0.3975E+01  0.3975E+01
      2.634  0.3508E+00  0.3508E+00  0.4019E+01  0.4019E+01
      2.822  0.9811E+00  0.9811E+00  0.4126E+01  0.4126E+01
      3.010  0.1398E+01  0.1398E+01  0.4325E+01  0.4325E+01
      3.198  0.2380E+01  0.2380E+01  0.4619E+01  0.4619E+01
      3.386  0.3533E+01  0.3533E+01  0.5116E+01  0.5116E+01
      3.574  0.6259E+01  0.6259E+01  0.5966E+01  0.5966E+01
      3.762  0.1993E+01  0.1993E+01  0.6161E+01  0.6161E+01
      3.950  0.4876E+01  0.4876E+01  0.6757E+01  0.6757E+01
      4.138  0.1143E+01  0.1143E+01  0.7028E+01  0.7028E+01
      4.326  0.9250E+00  0.9250E+00  0.7178E+01  0.7178E+01
      4.514  0.1248E+01  0.1248E+01  0.7377E+01  0.7377E+01
      4.702  0.8225E+00  0.8225E+00  0.7562E+01  0.7562E+01
      4.890  0.7521E+00  0.7521E+00  0.7706E+01  0.7706E+01
      5.078  0.7489E+00  0.7489E+00  0.7848E+01  0.7848E+01
      5.266  0.8191E+00  0.8191E+00  0.7993E+01  0.7993E+01
      5.454  0.7780E+00  0.7780E+00  0.8142E+01  0.8142E+01
      5.642  0.7448E+00  0.7448E+00  0.8284E+01  0.8284E+01
      5.830  0.7152E+00  0.7152E+00  0.8421E+01  0.8421E+01
      6.018  0.7115E+00  0.7115E+00  0.8556E+01  0.8556E+01
      6.206  0.6886E+00  0.6886E+00  0.8687E+01  0.8687E+01
      6.394  0.6896E+00  0.6896E+00  0.8820E+01  0.8820E+01
      6.582  0.7456E+00  0.7456E+00  0.8953E+01  0.8953E+01
      6.770  0.8756E-01  0.8756E-01  0.9000E+01  0.9000E+01
      6.958  0.0000E+00  0.0000E+00  0.9000E+01  0.9000E+01
      7.146  0.0000E+00  0.0000E+00  0.9000E+01  0.9000E+01
      7.334  0.0000E+00  0.0000E+00  0.9000E+01  0.9000E+01
      7.522  0.0000E+00  0.0000E+00  0.9000E+01  0.9000E+01
      7.710  0.0000E+00  0.0000E+00  0.9000E+01  0.9000E+01
      7.898  0.0000E+00  0.0000E+00  0.9000E+01  0.9000E+01
      8.086  0.0000E+00  0.0000E+00  0.9000E+01  0.9000E+01
      8.274  0.3912E-02  0.3912E-02  0.9000E+01  0.9000E+01
      8.462  0.7096E-02  0.7096E-02  0.9001E+01  0.9001E+01
      8.650  0.1012E-01  0.1012E-01  0.9003E+01  0.9003E+01
      8.838  0.1310E-01  0.1310E-01  0.9005E+01  0.9005E+01
      9.026  0.1583E-01  0.1583E-01  0.9008E+01  0.9008E+01
      9.214  0.1890E-01  0.1890E-01  0.9011E+01  0.9011E+01
      9.402  0.2219E-01  0.2219E-01  0.9015E+01  0.9015E+01
      9.590  0.2575E-01  0.2575E-01  0.9020E+01  0.9020E+01
      9.778  0.2951E-01  0.2951E-01  0.9025E+01  0.9025E+01
      9.966  0.3346E-01  0.3346E-01  0.9031E+01  0.9031E+01
     10.154  0.3807E-01  0.3807E-01  0.9037E+01  0.9037E+01
     10.342  0.4306E-01  0.4306E-01  0.9045E+01  0.9045E+01
     10.530  0.4841E-01  0.4841E-01  0.9054E+01  0.9054E+01
     10.718  0.5412E-01  0.5412E-01  0.9063E+01  0.9063E+01
     10.906  0.6099E-01  0.6099E-01  0.9074E+01  0.9074E+01
     11.094  0.6860E-01  0.6860E-01  0.9086E+01  0.9086E+01
     11.282  0.7700E-01  0.7700E-01  0.9100E+01  0.9100E+01
     11.470  0.8639E-01  0.8639E-01  0.9115E+01  0.9115E+01
     11.658  0.9813E-01  0.9813E-01  0.9132E+01  0.9132E+01
     11.846  0.1122E+00  0.1122E+00  0.9152E+01  0.9152E+01
     12.034  0.1287E+00  0.1287E+00  0.9175E+01  0.9175E+01
     12.222  0.1545E+00  0.1545E+00  0.9201E+01  0.9201E+01
     12.410  0.2046E+00  0.2046E+00  0.9234E+01  0.9234E+01
     12.598  0.2676E+00  0.2676E+00  0.9279E+01  0.9279E+01
     12.786  0.3445E+00  0.3445E+00  0.9336E+01  0.9336E+01
     12.974  0.3431E+00  0.3431E+00  0.9400E+01  0.9400E+01
     13.162  0.3284E+00  0.3284E+00  0.9462E+01  0.9462E+01
     13.350  0.3227E+00  0.3227E+00  0.9524E+01  0.9524E+01
     13.538  0.3102E+00  0.3102E+00  0.9583E+01  0.9583E+01
     13.726  0.2999E+00  0.2999E+00  0.9641E+01  0.9640E+01
     13.914  0.2874E+00  0.2874E+00  0.9696E+01  0.9696E+01
     14.102  0.2760E+00  0.2760E+00  0.9749E+01  0.9749E+01
     14.290  0.2631E+00  0.2631E+00  0.9799E+01  0.9799E+01
     14.478  0.2543E+00  0.2543E+00  0.9848E+01  0.9848E+01
     14.666  0.2704E+00  0.2704E+00  0.9896E+01  0.9896E+01
     14.854  0.2698E+00  0.2698E+00  0.9950E+01  0.9950E+01
     15.042  0.1341E+00  0.1341E+00  0.9997E+01  0.9997E+01
     15.230  0.0000E+00  0.0000E+00  0.1000E+02  0.1000E+02
     15.418  0.0000E+00  0.0000E+00  0.1000E+02  0.1000E+02
     15.606  0.3075E+00  0.3075E+00  0.1002E+02  0.1002E+02
     15.794  0.3308E+00  0.3308E+00  0.1008E+02  0.1008E+02
     15.982  0.3762E+00  0.3762E+00  0.1015E+02  0.1015E+02
     16.170  0.4442E+00  0.4442E+00  0.1022E+02  0.1022E+02
     16.358  0.4083E+00  0.4083E+00  0.1031E+02  0.1031E+02
     16.546  0.3946E+00  0.3946E+00  0.1038E+02  0.1038E+02
     16.734  0.3842E+00  0.3842E+00  0.1045E+02  0.1045E+02
     16.922  0.4807E+00  0.4807E+00  0.1053E+02  0.1053E+02
     17.110  0.6865E+00  0.6865E+00  0.1063E+02  0.1063E+02
     17.298  0.9273E+00  0.9273E+00  0.1078E+02  0.1078E+02
     17.486  0.6403E+00  0.6403E+00  0.1090E+02  0.1090E+02
     17.674  0.5882E+00  0.5882E+00  0.1101E+02  0.1101E+02
     17.862  0.5729E+00  0.5729E+00  0.1112E+02  0.1112E+02
     18.050  0.5099E+00  0.5099E+00  0.1122E+02  0.1122E+02
     18.238  0.4323E+00  0.4323E+00  0.1131E+02  0.1131E+02
     18.426  0.3639E+00  0.3639E+00  0.1139E+02  0.1139E+02
     18.614  0.3163E+00  0.3163E+00  0.1145E+02  0.1145E+02
     18.802  0.2800E+00  0.2800E+00  0.1151E+02  0.1151E+02
     18.990  0.2514E+00  0.2514E+00  0.1156E+02  0.1156E+02
     19.178  0.2285E+00  0.2285E+00  0.1160E+02  0.1160E+02
     19.366  0.2102E+00  0.2102E+00  0.1164E+02  0.1164E+02
     19.554  0.1888E+00  0.1888E+00  0.1168E+02  0.1168E+02
     19.742  0.1749E+00  0.1749E+00  0.1171E+02  0.1171E+02
     19.930  0.1634E+00  0.1634E+00  0.1175E+02  0.1175E+02
     20.118  0.1762E+00  0.1762E+00  0.1178E+02  0.1178E+02
     20.306  0.1816E+00  0.1816E+00  0.1181E+02  0.1181E+02
     20.494  0.1782E+00  0.1782E+00  0.1185E+02  0.1185E+02
     20.682  0.2771E+00  0.2771E+00  0.1189E+02  0.1189E+02
     20.870  0.3515E+00  0.3515E+00  0.1194E+02  0.1194E+02
     21.058  0.5075E+00  0.5075E+00  0.1202E+02  0.1202E+02
     21.246  0.6855E+00  0.6855E+00  0.1214E+02  0.1214E+02
     21.434  0.6553E+00  0.6553E+00  0.1227E+02  0.1227E+02
     21.621  0.6116E+00  0.6116E+00  0.1239E+02  0.1239E+02
     21.809  0.4799E+00  0.4799E+00  0.1249E+02  0.1249E+02
     21.997  0.4146E+00  0.4146E+00  0.1257E+02  0.1257E+02
     22.185  0.3840E+00  0.3840E+00  0.1265E+02  0.1265E+02
     22.373  0.3498E+00  0.3498E+00  0.1272E+02  0.1272E+02
     22.561  0.3412E+00  0.3412E+00  0.1278E+02  0.1278E+02
     22.749  0.3193E+00  0.3193E+00  0.1284E+02  0.1284E+02
     22.937  0.2033E+00  0.2033E+00  0.1289E+02  0.1289E+02
     23.125  0.1940E+00  0.1940E+00  0.1292E+02  0.1292E+02
     23.313  0.1888E+00  0.1888E+00  0.1296E+02  0.1296E+02
     23.501  0.1927E+00  0.1927E+00  0.1299E+02  0.1299E+02
     23.689  0.1820E+00  0.1820E+00  0.1303E+02  0.1303E+02
     23.877  0.1769E+00  0.1769E+00  0.1306E+02  0.1306E+02
     24.065  0.1797E+00  0.1797E+00  0.1310E+02  0.1310E+02
     24.253  0.1829E+00  0.1829E+00  0.1313E+02  0.1313E+02
     24.441  0.1849E+00  0.1849E+00  0.1316E+02  0.1316E+02
     24.629  0.1937E+00  0.1937E+00  0.1320E+02  0.1320E+02
     24.817  0.1589E+00  0.1589E+00  0.1323E+02  0.1323E+02
     25.005  0.1623E+00  0.1623E+00  0.1326E+02  0.1326E+02
     25.193  0.1848E+00  0.1848E+00  0.1330E+02  0.1330E+02
     25.381  0.1850E+00  0.1850E+00  0.1333E+02  0.1333E+02
     25.569  0.1938E+00  0.1938E+00  0.1337E+02  0.1337E+02
     25.757  0.2023E+00  0.2023E+00  0.1340E+02  0.1340E+02
     25.945  0.2077E+00  0.2077E+00  0.1344E+02  0.1344E+02
     26.133  0.2232E+00  0.2232E+00  0.1348E+02  0.1348E+02
     26.321  0.2276E+00  0.2276E+00  0.1352E+02  0.1352E+02
     26.509  0.2148E+00  0.2148E+00  0.1357E+02  0.1357E+02
     26.697  0.2183E+00  0.2183E+00  0.1361E+02  0.1361E+02
     26.885  0.2291E+00  0.2291E+00  0.1365E+02  0.1365E+02
     27.073  0.2566E+00  0.2566E+00  0.1369E+02  0.1369E+02
     27.261  0.2953E+00  0.2953E+00  0.1375E+02  0.1375E+02
     27.449  0.3164E+00  0.3164E+00  0.1380E+02  0.1380E+02
     27.637  0.3146E+00  0.3146E+00  0.1386E+02  0.1386E+02
     27.825  0.2844E+00  0.2844E+00  0.1392E+02  0.1392E+02
     28.013  0.2384E+00  0.2384E+00  0.1397E+02  0.1397E+02
     28.201  0.2142E+00  0.2143E+00  0.1401E+02  0.1401E+02
     28.389  0.1846E+00  0.1846E+00  0.1405E+02  0.1405E+02
     28.577  0.2131E+00  0.2131E+00  0.1409E+02  0.1409E+02
     28.765  0.2242E+00  0.2242E+00  0.1413E+02  0.1413E+02
     28.953  0.2619E+00  0.2619E+00  0.1417E+02  0.1417E+02
     29.141  0.3035E+00  0.3035E+00  0.1423E+02  0.1423E+02
     29.329  0.3309E+00  0.3309E+00  0.1429E+02  0.1429E+02
     29.517  0.3681E+00  0.3681E+00  0.1435E+02  0.1435E+02
     29.705  0.3881E+00  0.3881E+00  0.1443E+02  0.1443E+02
     29.893  0.3890E+00  0.3890E+00  0.1450E+02  0.1450E+02
     30.081  0.3382E+00  0.3382E+00  0.1457E+02  0.1457E+02
     30.269  0.3512E+00  0.3512E+00  0.1463E+02  0.1463E+02
     30.457  0.3462E+00  0.3462E+00  0.1470E+02  0.1470E+02
     30.645  0.3278E+00  0.3278E+00  0.1476E+02  0.1476E+02
     30.833  0.3155E+00  0.3155E+00  0.1482E+02  0.1482E+02
     31.021  0.3207E+00  0.3207E+00  0.1488E+02  0.1488E+02
     31.209  0.3226E+00  0.3226E+00  0.1494E+02  0.1494E+02
     31.397  0.3155E+00  0.3155E+00  0.1500E+02  0.1500E+02
     31.585  0.2686E+00  0.2686E+00  0.1505E+02  0.1505E+02
     31.773  0.2527E+00  0.2527E+00  0.1510E+02  0.1510E+02
     31.961  0.2307E+00  0.2307E+00  0.1515E+02  0.1515E+02
     32.149  0.2196E+00  0.2196E+00  0.1519E+02  0.1519E+02
     32.337  0.2117E+00  0.2117E+00  0.1523E+02  0.1523E+02
     32.525  0.2043E+00  0.2043E+00  0.1527E+02  0.1527E+02
     32.713  0.1951E+00  0.1951E+00  0.1531E+02  0.1531E+02
     32.901  0.1865E+00  0.1865E+00  0.1534E+02  0.1534E+02
     33.089  0.1787E+00  0.1787E+00  0.1538E+02  0.1538E+02
     33.277  0.1685E+00  0.1685E+00  0.1541E+02  0.1541E+02
     33.465  0.1599E+00  0.1599E+00  0.1544E+02  0.1544E+02
     33.653  0.1538E+00  0.1538E+00  0.1547E+02  0.1547E+02
     33.841  0.1503E+00  0.1504E+00  0.1550E+02  0.1550E+02
     34.029  0.1503E+00  0.1503E+00  0.1553E+02  0.1553E+02
     34.217  0.1639E+00  0.1640E+00  0.1556E+02  0.1556E+02
     34.405  0.2115E+00  0.2115E+00  0.1559E+02  0.1559E+02
     34.593  0.1536E+00  0.1536E+00  0.1563E+02  0.1563E+02
     34.781  0.1012E+00  0.1013E+00  0.1566E+02  0.1566E+02
     34.969  0.1496E+00  0.1496E+00  0.1568E+02  0.1568E+02
     35.157  0.4087E+00  0.4087E+00  0.1573E+02  0.1573E+02
     35.345  0.3136E+00  0.3136E+00  0.1580E+02  0.1580E+02
     35.533  0.2475E+00  0.2482E+00  0.1585E+02  0.1585E+02
     35.721  0.2059E+00  0.2049E+00  0.1590E+02  0.1590E+02
     35.909  0.2084E+00  0.2084E+00  0.1594E+02  0.1594E+02
     36.097  0.1840E+00  0.1839E+00  0.1597E+02  0.1597E+02
     36.285  0.4166E-01  0.4208E-01  0.1599E+02  0.1599E+02
     36.473  0.7917E-02  0.7917E-02  0.1600E+02  0.1600E+02
     36.661  0.6224E-02  0.6224E-02  0.1600E+02  0.1600E+02
     36.849  0.4591E-02  0.4591E-02  0.1600E+02  0.1600E+02
     37.037  0.3042E-02  0.3042E-02  0.1600E+02  0.1600E+02
     37.225  0.1808E-02  0.1808E-02  0.1600E+02  0.1600E+02
     37.413  0.8925E-03  0.8926E-03  0.1600E+02  0.1600E+02
     37.601  0.2971E-03  0.2971E-03  0.1600E+02  0.1600E+02
     37.789  0.2112E-04  0.2113E-04  0.1600E+02  0.1600E+02
     37.977  0.0000E+00  0.0000E+00  0.1600E+02  0.1600E+02
     38.165  0.0000E+00  0.0000E+00  0.1600E+02  0.1600E+02
     38.353  0.0000E+00  0.0000E+00  0.1600E+02  0.1600E+02
     38.541  0.0000E+00  0.0000E+00  0.1600E+02  0.1600E+02
     38.729  0.0000E+00  0.0000E+00  0.1600E+02  0.1600E+02
     38.917  0.0000E+00  0.0000E+00  0.1600E+02  0.1600E+02
     39.105  0.0000E+00  0.0000E+00  0.1600E+02  0.1600E+02
     39.293  0.0000E+00  0.0000E+00  0.1600E+02  0.1600E+02
     39.481  0.0000E+00  0.0000E+00  0.1600E+02  0.1600E+02
     39.669  0.0000E+00  0.0000E+00  0.1600E+02  0.1600E+02
     39.857  0.0000E+00  0.0000E+00  0.1600E+02  0.1600E+02
     40.045  0.0000E+00  0.0000E+00  0.1600E+02  0.1600E+02
     40.233  0.0000E+00  0.0000E+00  0.1600E+02  0.1600E+02
     40.421  0.0000E+00  0.0000E+00  0.1600E+02  0.1600E+02
     40.42060666    -15.97672434  301      5.94085349      1.00000000
    -15.977  0.0000E+00  0.0000E+00  0.0000E+00  0.0000E+00  0.0000E+00  0.0000E+00  0.0000E+00  0.0000E+00  0.0000E+00  0.0000E+00  0.0000E+00  0.0000E+00  0.0000E+00  0.0000E+00  0.0000E+00  0.0000E+00  0.0000E+00  0.0000E+00
    -15.789  0.0000E+00  0.0000E+00  0.0000E+00  0.0000E+00  0.0000E+00  0.0000E+00  0.0000E+00  0.0000E+00  0.0000E+00  0.0000E+00  0.0000E+00  0.0000E+00  0.0000E+00  0.0000E+00  0.0000E+00  0.0000E+00  0.0000E+00  0.0000E+00
    -15.601  0.0000E+00  0.0000E+00  0.0000E+00  0.0000E+00  0.0000E+00  0.0000E+00  0.0000E+00  0.0000E+00  0.0000E+00  0.0000E+00  0.0000E+00  0.0000E+00  0.0000E+00  0.0000E+00  0.0000E+00  0.0000E+00  0.0000E+00  0.0000E+00
    -15.413  0.0000E+00  0.0000E+00  0.0000E+00  0.0000E+00  0.0000E+00  0.0000E+00  0.0000E+00  0.0000E+00  0.0000E+00  0.0000E+00  0.0000E+00  0.0000E+00  0.0000E+00  0.0000E+00  0.0000E+00  0.0000E+00  0.0000E+00  0.0000E+00
    -15.225  0.0000E+00  0.0000E+00  0.0000E+00  0.0000E+00  0.0000E+00  0.0000E+00  0.0000E+00  0.0000E+00  0.0000E+00  0.0000E+00  0.0000E+00  0.0000E+00  0.0000E+00  0.0000E+00  0.0000E+00  0.0000E+00  0.0000E+00  0.0000E+00
    -15.037  0.0000E+00  0.0000E+00  0.0000E+00  0.0000E+00  0.0000E+00  0.0000E+00  0.0000E+00  0.0000E+00  0.0000E+00  0.0000E+00  0.0000E+00  0.0000E+00  0.0000E+00  0.0000E+00  0.0000E+00  0.0000E+00  0.0000E+00  0.0000E+00
    -14.849  0.0000E+00  0.0000E+00  0.0000E+00  0.0000E+00  0.0000E+00  0.0000E+00  0.0000E+00  0.0000E+00  0.0000E+00  0.0000E+00  0.0000E+00  0.0000E+00  0.0000E+00  0.0000E+00  0.0000E+00  0.0000E+00  0.0000E+00  0.0000E+00
    -14.661  0.0000E+00  0.0000E+00  0.0000E+00  0.0000E+00  0.0000E+00  0.0000E+00  0.0000E+00  0.0000E+00  0.0000E+00  0.0000E+00  0.0000E+00  0.0000E+00  0.0000E+00  0.0000E+00  0.0000E+00  0.0000E+00  0.0000E+00  0.0000E+00
    -14.473  0.0000E+00  0.0000E+00  0.0000E+00  0.0000E+00  0.0000E+00  0.0000E+00  0.0000E+00  0.0000E+00  0.0000E+00  0.0000E+00  0.0000E+00  0.0000E+00  0.0000E+00  0.0000E+00  0.0000E+00  0.0000E+00  0.0000E+00  0.0000E+00
    -14.285  0.0000E+00  0.0000E+00  0.0000E+00  0.0000E+00  0.0000E+00  0.0000E+00  0.0000E+00  0.0000E+00  0.0000E+00  0.0000E+00  0.0000E+00  0.0000E+00  0.0000E+00  0.0000E+00  0.0000E+00  0.0000E+00  0.0000E+00  0.0000E+00
    -14.097  0.0000E+00  0.0000E+00  0.0000E+00  0.0000E+00  0.0000E+00  0.0000E+00  0.0000E+00  0.0000E+00  0.0000E+00  0.0000E+00  0.0000E+00  0.0000E+00  0.0000E+00  0.0000E+00  0.0000E+00  0.0000E+00  0.0000E+00  0.0000E+00
    -13.909  0.0000E+00  0.0000E+00  0.0000E+00  0.0000E+00  0.0000E+00  0.0000E+00  0.0000E+00  0.0000E+00  0.0000E+00  0.0000E+00  0.0000E+00  0.0000E+00  0.0000E+00  0.0000E+00  0.0000E+00  0.0000E+00  0.0000E+00  0.0000E+00
    -13.721  0.0000E+00  0.0000E+00  0.0000E+00  0.0000E+00  0.0000E+00  0.0000E+00  0.0000E+00  0.0000E+00  0.0000E+00  0.0000E+00  0.0000E+00  0.0000E+00  0.0000E+00  0.0000E+00  0.0000E+00  0.0000E+00  0.0000E+00  0.0000E+00
    -13.533  0.0000E+00  0.0000E+00  0.0000E+00  0.0000E+00  0.0000E+00  0.0000E+00  0.0000E+00  0.0000E+00  0.0000E+00  0.0000E+00  0.0000E+00  0.0000E+00  0.0000E+00  0.0000E+00  0.0000E+00  0.0000E+00  0.0000E+00  0.0000E+00
    -13.345  0.4953E-02  0.4953E-02  0.4450E-04  0.4450E-04  0.4450E-04  0.4450E-04  0.4450E-04  0.4450E-04  0.1631E-07  0.1631E-07  0.1631E-07  0.1631E-07  0.1107E-05  0.1107E-05  0.1631E-07  0.1631E-07  0.1107E-05  0.1107E-05
    -13.157  0.1164E-01  0.1164E-01  0.3863E-03  0.3863E-03  0.3863E-03  0.3863E-03  0.3863E-03  0.3863E-03  0.3817E-06  0.3817E-06  0.3817E-06  0.3817E-06  0.2942E-04  0.2942E-04  0.3817E-06  0.3817E-06  0.2942E-04  0.2942E-04
    -12.969  0.1346E-01  0.1346E-01  0.9241E-03  0.9241E-03  0.9241E-03  0.9241E-03  0.9241E-03  0.9241E-03  0.1381E-05  0.1381E-05  0.1381E-05  0.1381E-05  0.1347E-03  0.1347E-03  0.1381E-05  0.1381E-05  0.1347E-03  0.1347E-03
    -12.781  0.1393E-01  0.1393E-01  0.1625E-02  0.1625E-02  0.1625E-02  0.1625E-02  0.1625E-02  0.1625E-02  0.2971E-05  0.2971E-05  0.2971E-05  0.2971E-05  0.3957E-03  0.3957E-03  0.2971E-05  0.2971E-05  0.3957E-03  0.3957E-03
    -12.593  0.1544E-01  0.1544E-01  0.2839E-02  0.2838E-02  0.2839E-02  0.2838E-02  0.2839E-02  0.2838E-02  0.5581E-05  0.5581E-05  0.5581E-05  0.5581E-05  0.1065E-02  0.1065E-02  0.5581E-05  0.5581E-05  0.1065E-02  0.1065E-02
    -12.405  0.1533E-01  0.1533E-01  0.4668E-02  0.4668E-02  0.4668E-02  0.4668E-02  0.4668E-02  0.4668E-02  0.8893E-05  0.8893E-05  0.8893E-05  0.8893E-05  0.2595E-02  0.2595E-02  0.8893E-05  0.8893E-05  0.2595E-02  0.2595E-02
    -12.217  0.1495E-01  0.1495E-01  0.8605E-02  0.8604E-02  0.8605E-02  0.8604E-02  0.8605E-02  0.8604E-02  0.1288E-04  0.1288E-04  0.1288E-04  0.1288E-04  0.7290E-02  0.7289E-02  0.1288E-04  0.1288E-04  0.7290E-02  0.7289E-02
    -12.029  0.1933E-01  0.1933E-01  0.2923E-01  0.2923E-01  0.2923E-01  0.2923E-01  0.2923E-01  0.2923E-01  0.2619E-04  0.2619E-04  0.2619E-04  0.2619E-04  0.5141E-01  0.5140E-01  0.2619E-04  0.2619E-04  0.5141E-01  0.5140E-01
    -11.841  0.1535E-02  0.1535E-02  0.5296E-02  0.5296E-02  0.5296E-02  0.5296E-02  0.5296E-02  0.5296E-02  0.3605E-05  0.3605E-05  0.3605E-05  0.3605E-05  0.1491E-01  0.1491E-01  0.3605E-05  0.3605E-05  0.1491E-01  0.1491E-01
    -11.653  0.0000E+00  0.0000E+00  0.0000E+00  0.0000E+00  0.0000E+00  0.0000E+00  0.0000E+00  0.0000E+00  0.0000E+00  0.0000E+00  0.0000E+00  0.0000E+00  0.0000E+00  0.0000E+00  0.0000E+00  0.0000E+00  0.0000E+00  0.0000E+00
    -11.465  0.0000E+00  0.0000E+00  0.0000E+00  0.0000E+00  0.0000E+00  0.0000E+00  0.0000E+00  0.0000E+00  0.0000E+00  0.0000E+00  0.0000E+00  0.0000E+00  0.0000E+00  0.0000E+00  0.0000E+00  0.0000E+00  0.0000E+00  0.0000E+00
    -11.277  0.0000E+00  0.0000E+00  0.0000E+00  0.0000E+00  0.0000E+00  0.0000E+00  0.0000E+00  0.0000E+00  0.0000E+00  0.0000E+00  0.0000E+00  0.0000E+00  0.0000E+00  0.0000E+00  0.0000E+00  0.0000E+00  0.0000E+00  0.0000E+00
    -11.089  0.0000E+00  0.0000E+00  0.0000E+00  0.0000E+00  0.0000E+00  0.0000E+00  0.0000E+00  0.0000E+00  0.0000E+00  0.0000E+00  0.0000E+00  0.0000E+00  0.0000E+00  0.0000E+00  0.0000E+00  0.0000E+00  0.0000E+00  0.0000E+00
    -10.901  0.0000E+00  0.0000E+00  0.0000E+00  0.0000E+00  0.0000E+00  0.0000E+00  0.0000E+00  0.0000E+00  0.0000E+00  0.0000E+00  0.0000E+00  0.0000E+00  0.0000E+00  0.0000E+00  0.0000E+00  0.0000E+00  0.0000E+00  0.0000E+00
    -10.713  0.0000E+00  0.0000E+00  0.0000E+00  0.0000E+00  0.0000E+00  0.0000E+00  0.0000E+00  0.0000E+00  0.0000E+00  0.0000E+00  0.0000E+00  0.0000E+00  0.0000E+00  0.0000E+00  0.0000E+00  0.0000E+00  0.0000E+00  0.0000E+00
    -10.525  0.0000E+00  0.0000E+00  0.0000E+00  0.0000E+00  0.0000E+00  0.0000E+00  0.0000E+00  0.0000E+00  0.0000E+00  0.0000E+00  0.0000E+00  0.0000E+00  0.0000E+00  0.0000E+00  0.0000E+00  0.0000E+00  0.0000E+00  0.0000E+00
    -10.337  0.0000E+00  0.0000E+00  0.0000E+00  0.0000E+00  0.0000E+00  0.0000E+00  0.0000E+00  0.0000E+00  0.0000E+00  0.0000E+00  0.0000E+00  0.0000E+00  0.0000E+00  0.0000E+00  0.0000E+00  0.0000E+00  0.0000E+00  0.0000E+00
    -10.149  0.0000E+00  0.0000E+00  0.0000E+00  0.0000E+00  0.0000E+00  0.0000E+00  0.0000E+00  0.0000E+00  0.0000E+00  0.0000E+00  0.0000E+00  0.0000E+00  0.0000E+00  0.0000E+00  0.0000E+00  0.0000E+00  0.0000E+00  0.0000E+00
     -9.961  0.0000E+00  0.0000E+00  0.0000E+00  0.0000E+00  0.0000E+00  0.0000E+00  0.0000E+00  0.0000E+00  0.0000E+00  0.0000E+00  0.0000E+00  0.0000E+00  0.0000E+00  0.0000E+00  0.0000E+00  0.0000E+00  0.0000E+00  0.0000E+00
     -9.773  0.0000E+00  0.0000E+00  0.0000E+00  0.0000E+00  0.0000E+00  0.0000E+00  0.0000E+00  0.0000E+00  0.0000E+00  0.0000E+00  0.0000E+00  0.0000E+00  0.0000E+00  0.0000E+00  0.0000E+00  0.0000E+00  0.0000E+00  0.0000E+00
     -9.585  0.0000E+00  0.0000E+00  0.0000E+00  0.0000E+00  0.0000E+00  0.0000E+00  0.0000E+00  0.0000E+00  0.0000E+00  0.0000E+00  0.0000E+00  0.0000E+00  0.0000E+00  0.0000E+00  0.0000E+00  0.0000E+00  0.0000E+00  0.0000E+00
     -9.397  0.0000E+00  0.0000E+00  0.0000E+00  0.0000E+00  0.0000E+00  0.0000E+00  0.0000E+00  0.0000E+00  0.0000E+00  0.0000E+00  0.0000E+00  0.0000E+00  0.0000E+00  0.0000E+00  0.0000E+00  0.0000E+00  0.0000E+00  0.0000E+00
     -9.209  0.0000E+00  0.0000E+00  0.0000E+00  0.0000E+00  0.0000E+00  0.0000E+00  0.0000E+00  0.0000E+00  0.0000E+00  0.0000E+00  0.0000E+00  0.0000E+00  0.0000E+00  0.0000E+00  0.0000E+00  0.0000E+00  0.0000E+00  0.0000E+00
     -9.021  0.0000E+00  0.0000E+00  0.0000E+00  0.0000E+00  0.0000E+00  0.0000E+00  0.0000E+00  0.0000E+00  0.0000E+00  0.0000E+00  0.0000E+00  0.0000E+00  0.0000E+00  0.0000E+00  0.0000E+00  0.0000E+00  0.0000E+00  0.0000E+00
     -8.833  0.0000E+00  0.0000E+00  0.0000E+00  0.0000E+00  0.0000E+00  0.0000E+00  0.0000E+00  0.0000E+00  0.0000E+00  0.0000E+00  0.0000E+00  0.0000E+00  0.0000E+00  0.0000E+00  0.0000E+00  0.0000E+00  0.0000E+00  0.0000E+00
     -8.645  0.0000E+00  0.0000E+00  0.0000E+00  0.0000E+00  0.0000E+00  0.0000E+00  0.0000E+00  0.0000E+00  0.0000E+00  0.0000E+00  0.0000E+00  0.0000E+00  0.0000E+00  0.0000E+00  0.0000E+00  0.0000E+00  0.0000E+00  0.0000E+00
     -8.457  0.0000E+00  0.0000E+00  0.0000E+00  0.0000E+00  0.0000E+00  0.0000E+00  0.0000E+00  0.0000E+00  0.0000E+00  0.0000E+00  0.0000E+00  0.0000E+00  0.0000E+00  0.0000E+00  0.0000E+00  0.0000E+00  0.0000E+00  0.0000E+00
     -8.269  0.0000E+00  0.0000E+00  0.0000E+00  0.0000E+00  0.0000E+00  0.0000E+00  0.0000E+00  0.0000E+00  0.0000E+00  0.0000E+00  0.0000E+00  0.0000E+00  0.0000E+00  0.0000E+00  0.0000E+00  0.0000E+00  0.0000E+00  0.0000E+00
     -8.081  0.0000E+00  0.0000E+00  0.0000E+00  0.0000E+00  0.0000E+00  0.0000E+00  0.0000E+00  0.0000E+00  0.0000E+00  0.0000E+00  0.0000E+00  0.0000E+00  0.0000E+00  0.0000E+00  0.0000E+00  0.0000E+00  0.0000E+00  0.0000E+00
     -7.893  0.0000E+00  0.0000E+00  0.0000E+00  0.0000E+00  0.0000E+00  0.0000E+00  0.0000E+00  0.0000E+00  0.0000E+00  0.0000E+00  0.0000E+00  0.0000E+00  0.0000E+00  0.0000E+00  0.0000E+00  0.0000E+00  0.0000E+00  0.0000E+00
     -7.705  0.0000E+00  0.0000E+00  0.0000E+00  0.0000E+00  0.0000E+00  0.0000E+00  0.0000E+00  0.0000E+00  0.0000E+00  0.0000E+00  0.0000E+00  0.0000E+00  0.0000E+00  0.0000E+00  0.0000E+00  0.0000E+00  0.0000E+00  0.0000E+00
     -7.517  0.0000E+00  0.0000E+00  0.0000E+00  0.0000E+00  0.0000E+00  0.0000E+00  0.0000E+00  0.0000E+00  0.0000E+00  0.0000E+00  0.0000E+00  0.0000E+00  0.0000E+00  0.0000E+00  0.0000E+00  0.0000E+00  0.0000E+00  0.0000E+00
     -7.329  0.0000E+00  0.0000E+00  0.0000E+00  0.0000E+00  0.0000E+00  0.0000E+00  0.0000E+00  0.0000E+00  0.0000E+00  0.0000E+00  0.0000E+00  0.0000E+00  0.0000E+00  0.0000E+00  0.0000E+00  0.0000E+00  0.0000E+00  0.0000E+00
     -7.141  0.0000E+00  0.0000E+00  0.0000E+00  0.0000E+00  0.0000E+00  0.0000E+00  0.0000E+00  0.0000E+00  0.0000E+00  0.0000E+00  0.0000E+00  0.0000E+00  0.0000E+00  0.0000E+00  0.0000E+00  0.0000E+00  0.0000E+00  0.0000E+00
     -6.953  0.0000E+00  0.0000E+00  0.0000E+00  0.0000E+00  0.0000E+00  0.0000E+00  0.0000E+00  0.0000E+00  0.0000E+00  0.0000E+00  0.0000E+00  0.0000E+00  0.0000E+00  0.0000E+00  0.0000E+00  0.0000E+00  0.0000E+00  0.0000E+00
     -6.765  0.0000E+00  0.0000E+00  0.0000E+00  0.0000E+00  0.0000E+00  0.0000E+00  0.0000E+00  0.0000E+00  0.0000E+00  0.0000E+00  0.0000E+00  0.0000E+00  0.0000E+00  0.0000E+00  0.0000E+00  0.0000E+00  0.0000E+00  0.0000E+00
     -6.577  0.0000E+00  0.0000E+00  0.0000E+00  0.0000E+00  0.0000E+00  0.0000E+00  0.0000E+00  0.0000E+00  0.0000E+00  0.0000E+00  0.0000E+00  0.0000E+00  0.0000E+00  0.0000E+00  0.0000E+00  0.0000E+00  0.0000E+00  0.0000E+00