   2   2   0   0
  0.1229972E+02  0.3264475E-09  0.3264475E-09  0.3264475E-09  0.0000000E+00
  1.000000000000000E-004
  CAR 
 unknown system                          
     21.17078940    -10.44187149  301      7.37318012      1.00000000
    -10.442  0.0000E+00  0.0000E+00
    -10.336  0.0000E+00  0.0000E+00
    -10.231  0.0000E+00  0.0000E+00
    -10.126  0.0000E+00  0.0000E+00
    -10.020  0.0000E+00  0.0000E+00
     -9.915  0.0000E+00  0.0000E+00
     -9.810  0.0000E+00  0.0000E+00
     -9.704  0.0000E+00  0.0000E+00
     -9.599  0.0000E+00  0.0000E+00
     -9.493  0.0000E+00  0.0000E+00
     -9.388  0.0000E+00  0.0000E+00
     -9.283  0.0000E+00  0.0000E+00
     -9.177  0.0000E+00  0.0000E+00
     -9.072  0.0000E+00  0.0000E+00
     -8.967  0.3532E-01  0.6966E-03
     -8.861  0.7659E-01  0.6907E-02
     -8.756  0.1040E+00  0.1663E-01
     -8.650  0.1276E+00  0.2883E-01
     -8.545  0.1443E+00  0.4309E-01
     -8.440  0.1620E+00  0.5931E-01
     -8.334  0.1768E+00  0.7713E-01
     -8.229  0.1923E+00  0.9661E-01
     -8.124  0.2050E+00  0.1175E+00
     -8.018  0.2193E+00  0.1399E+00
     -7.913  0.2315E+00  0.1637E+00
     -7.807  0.2439E+00  0.1887E+00
     -7.702  0.2572E+00  0.2151E+00
     -7.597  0.2686E+00  0.2428E+00
     -7.491  0.2806E+00  0.2717E+00
     -7.386  0.2932E+00  0.3020E+00
     -7.281  0.3051E+00  0.3335E+00
     -7.175  0.3171E+00  0.3663E+00
     -7.070  0.3299E+00  0.4004E+00
     -6.964  0.3430E+00  0.4358E+00
     -6.859  0.3559E+00  0.4726E+00
     -6.754  0.3697E+00  0.5109E+00
     -6.648  0.3845E+00  0.5506E+00
     -6.543  0.3999E+00  0.5919E+00
     -6.438  0.4167E+00  0.6349E+00
     -6.332  0.4351E+00  0.6798E+00
     -6.227  0.4556E+00  0.7267E+00
     -6.121  0.4793E+00  0.7759E+00
     -6.016  0.5084E+00  0.8279E+00
     -5.911  0.5457E+00  0.8834E+00
     -5.805  0.6024E+00  0.9436E+00
     -5.700  0.6896E+00  0.1013E+01
     -5.595  0.6910E+00  0.1086E+01
     -5.489  0.6669E+00  0.1157E+01
     -5.384  0.6481E+00  0.1226E+01
     -5.278  0.6365E+00  0.1294E+01
     -5.173  0.6237E+00  0.1361E+01
     -5.068  0.6071E+00  0.1426E+01
     -4.962  0.6030E+00  0.1489E+01
     -4.857  0.5892E+00  0.1552E+01
     -4.752  0.5815E+00  0.1614E+01
     -4.646  0.5794E+00  0.1675E+01
     -4.541  0.5800E+00  0.1736E+01
     -4.435  0.5934E+00  0.1798E+01
     -4.330  0.6394E+00  0.1862E+01
     -4.225  0.7883E+00  0.1938E+01
     -4.119  0.4537E+00  0.1988E+01
     -4.014  0.0000E+00  0.2000E+01
     -3.909  0.0000E+00  0.2000E+01
     -3.803  0.0000E+00  0.2000E+01
     -3.698  0.0000E+00  0.2000E+01
     -3.592  0.0000E+00  0.2000E+01
     -3.487  0.0000E+00  0.2000E+01
     -3.382  0.0000E+00  0.2000E+01
     -3.276  0.0000E+00  0.2000E+01
     -3.171  0.0000E+00  0.2000E+01
     -3.066  0.0000E+00  0.2000E+01
     -2.960  0.0000E+00  0.2000E+01
     -2.855  0.0000E+00  0.2000E+01
     -2.749  0.0000E+00  0.2000E+01
     -2.644  0.0000E+00  0.2000E+01
     -2.539  0.0000E+00  0.2000E+01
     -2.433  0.0000E+00  0.2000E+01
     -2.328  0.0000E+00  0.2000E+01
     -2.223  0.0000E+00  0.2000E+01
     -2.117  0.1067E+00  0.2005E+01
     -2.012  0.1734E+00  0.2020E+01
     -1.906  0.2142E+00  0.2041E+01
     -1.801  0.2764E+00  0.2067E+01
     -1.696  0.3855E+00  0.2099E+01
     -1.590  0.5047E+00  0.2147E+01
     -1.485  0.6499E+00  0.2208E+01
     -1.380  0.8635E+00  0.2286E+01
     -1.274  0.1264E+01  0.2393E+01
     -1.169  0.1655E+01  0.2556E+01
     -1.063  0.1038E+01  0.2699E+01
     -0.958  0.7870E+00  0.2792E+01
     -0.853  0.6789E+00  0.2869E+01
     -0.747  0.5836E+00  0.2935E+01
     -0.642  0.5365E+00  0.2994E+01
     -0.537  0.4828E+00  0.3048E+01
     -0.431  0.4454E+00  0.3097E+01
     -0.326  0.4209E+00  0.3142E+01
     -0.220  0.3927E+00  0.3185E+01
     -0.115  0.3608E+00  0.3225E+01
     -0.010  0.3460E+00  0.3262E+01
      0.096  0.3300E+00  0.3298E+01
      0.201  0.3126E+00  0.3331E+01
      0.306  0.2895E+00  0.3363E+01
      0.412  0.2790E+00  0.3393E+01
      0.517  0.2687E+00  0.3422E+01
      0.623  0.3487E+00  0.3452E+01
      0.728  0.4609E+00  0.3496E+01
      0.833  0.5513E+00  0.3548E+01
      0.939  0.6552E+00  0.3611E+01
      1.044  0.8468E+00  0.3689E+01
      1.149  0.7804E+00  0.3774E+01
      1.255  0.7520E+00  0.3855E+01
      1.360  0.7109E+00  0.3931E+01
      1.466  0.6980E+00  0.4006E+01
      1.571  0.7008E+00  0.4079E+01
      1.676  0.6987E+00  0.4153E+01
      1.782  0.7119E+00  0.4227E+01
      1.887  0.7157E+00  0.4302E+01
      1.992  0.7410E+00  0.4380E+01
      2.098  0.7486E+00  0.4458E+01
      2.203  0.7822E+00  0.4539E+01
      2.309  0.7843E+00  0.4621E+01
      2.414  0.8165E+00  0.4706E+01
      2.519  0.8588E+00  0.4794E+01
      2.625  0.8765E+00  0.4885E+01
      2.730  0.9470E+00  0.4980E+01
      2.835  0.1065E+01  0.5086E+01
      2.941  0.1082E+01  0.5201E+01
      3.046  0.1055E+01  0.5314E+01
      3.152  0.1043E+01  0.5424E+01
      3.257  0.1027E+01  0.5533E+01
      3.362  0.1018E+01  0.5641E+01
      3.468  0.1006E+01  0.5748E+01
      3.573  0.9928E+00  0.5853E+01
      3.678  0.9774E+00  0.5957E+01
      3.784  0.9590E+00  0.6059E+01
      3.889  0.9472E+00  0.6159E+01
      3.995  0.9385E+00  0.6259E+01
      4.100  0.9221E+00  0.6357E+01
      4.205  0.9086E+00  0.6453E+01
      4.311  0.9011E+00  0.6548E+01
      4.416  0.8941E+00  0.6643E+01
      4.521  0.8786E+00  0.6737E+01
      4.627  0.8631E+00  0.6828E+01
      4.732  0.8516E+00  0.6919E+01
      4.838  0.8396E+00  0.7008E+01
      4.943  0.8335E+00  0.7096E+01
      5.048  0.8216E+00  0.7183E+01
      5.154  0.8029E+00  0.7269E+01
      5.259  0.8012E+00  0.7354E+01
      5.364  0.7040E+00  0.7436E+01
      5.470  0.5936E+00  0.7503E+01
      5.575  0.5255E+00  0.7562E+01
      5.681  0.4777E+00  0.7614E+01
      5.786  0.4330E+00  0.7662E+01
      5.891  0.3944E+00  0.7706E+01
      5.997  0.3558E+00  0.7745E+01
      6.102  0.3282E+00  0.7781E+01
      6.207  0.2965E+00  0.7814E+01
      6.313  0.2695E+00  0.7844E+01
      6.418  0.2446E+00  0.7871E+01
      6.524  0.2202E+00  0.7896E+01
      6.629  0.1973E+00  0.7918E+01
      6.734  0.1742E+00  0.7937E+01
      6.840  0.1488E+00  0.7954E+01
      6.945  0.1297E+00  0.7969E+01
      7.050  0.1051E+00  0.7981E+01
      7.156  0.8546E-01  0.7991E+01
      7.261  0.4532E-01  0.7998E+01
      7.367  0.0000E+00  0.8000E+01
      7.472  0.0000E+00  0.8000E+01
      7.577  0.0000E+00  0.8000E+01
      7.683  0.0000E+00  0.8000E+01
      7.788  0.0000E+00  0.8000E+01
      7.893  0.0000E+00  0.8000E+01
      7.999  0.0000E+00  0.8000E+01
      8.104  0.0000E+00  0.8000E+01
      8.210  0.0000E+00  0.8000E+01
      8.315  0.0000E+00  0.8000E+01
      8.420  0.0000E+00  0.8000E+01
      8.526  0.5850E-01  0.8002E+01
      8.631  0.1205E+00  0.8012E+01
      8.736  0.1691E+00  0.8027E+01
      8.842  0.2234E+00  0.8048E+01
      8.947  0.2684E+00  0.8074E+01
      9.053  0.3000E+00  0.8104E+01
      9.158  0.3327E+00  0.8137E+01
      9.263  0.3670E+00  0.8174E+01
      9.369  0.4037E+00  0.8215E+01
      9.474  0.4378E+00  0.8259E+01
      9.579  0.4643E+00  0.8307E+01
      9.685  0.4926E+00  0.8357E+01
      9.790  0.5226E+00  0.8411E+01
      9.896  0.5524E+00  0.8467E+01
     10.001  0.5837E+00  0.8527E+01
     10.106  0.6184E+00  0.8591E+01
     10.212  0.6556E+00  0.8658E+01
     10.317  0.6933E+00  0.8729E+01
     10.422  0.7300E+00  0.8804E+01
     10.528  0.7714E+00  0.8883E+01
     10.633  0.8197E+00  0.8967E+01
     10.739  0.9079E+00  0.9057E+01
     10.844  0.1105E+01  0.9163E+01
     10.949  0.1317E+01  0.9289E+01
     11.055  0.1778E+01  0.9450E+01
     11.160  0.1497E+01  0.9625E+01
     11.265  0.1407E+01  0.9775E+01
     11.371  0.1238E+01  0.9915E+01
     11.476  0.1087E+01  0.1004E+02
     11.582  0.9749E+00  0.1015E+02
     11.687  0.6972E+00  0.1024E+02
     11.792  0.5529E+00  0.1030E+02
     11.898  0.5120E+00  0.1036E+02
     12.003  0.5542E+00  0.1041E+02
     12.108  0.6270E+00  0.1048E+02
     12.214  0.1498E+01  0.1061E+02
     12.319  0.1164E+01  0.1075E+02
     12.425  0.1159E+01  0.1087E+02
     12.530  0.1165E+01  0.1099E+02
     12.635  0.1197E+01  0.1112E+02
     12.741  0.1234E+01  0.1125E+02
     12.846  0.1319E+01  0.1138E+02
     12.951  0.1451E+01  0.1153E+02
     13.057  0.1395E+01  0.1168E+02
     13.162  0.1018E+01  0.1181E+02
     13.268  0.8947E+00  0.1191E+02
     13.373  0.8638E+00  0.1200E+02
     13.478  0.8632E+00  0.1209E+02
     13.584  0.8508E+00  0.1218E+02
     13.689  0.9062E+00  0.1228E+02
     13.795  0.9942E+00  0.1238E+02
     13.900  0.9710E+00  0.1248E+02
     14.005  0.9290E+00  0.1258E+02
     14.111  0.1002E+01  0.1268E+02
     14.216  0.1028E+01  0.1279E+02
     14.321  0.9789E+00  0.1289E+02
     14.427  0.9632E+00  0.1300E+02
     14.532  0.9994E+00  0.1310E+02
     14.638  0.9641E+00  0.1320E+02
     14.743  0.1045E+01  0.1331E+02
     14.848  0.1035E+01  0.1342E+02
     14.954  0.9888E+00  0.1352E+02
     15.059  0.9520E+00  0.1363E+02
     15.164  0.9157E+00  0.1372E+02
     15.270  0.9109E+00  0.1382E+02
     15.375  0.9279E+00  0.1392E+02
     15.481  0.9153E+00  0.1401E+02
     15.586  0.6716E+00  0.1409E+02
     15.691  0.6577E+00  0.1416E+02
     15.797  0.6480E+00  0.1423E+02
     15.902  0.6488E+00  0.1430E+02
     16.007  0.6672E+00  0.1437E+02
     16.113  0.6859E+00  0.1444E+02
     16.218  0.7013E+00  0.1452E+02
     16.324  0.7266E+00  0.1459E+02
     16.429  0.8279E+00  0.1467E+02
     16.534  0.9080E+00  0.1477E+02
     16.640  0.8911E+00  0.1486E+02
     16.745  0.9554E+00  0.1496E+02
     16.850  0.1034E+01  0.1506E+02
     16.956  0.1106E+01  0.1517E+02
     17.061  0.9667E+00  0.1528E+02
     17.167  0.6447E+00  0.1537E+02
     17.272  0.5437E+00  0.1543E+02
     17.377  0.5038E+00  0.1548E+02
     17.483  0.4437E+00  0.1553E+02
     17.588  0.3849E+00  0.1558E+02
     17.693  0.3755E+00  0.1562E+02
     17.799  0.3528E+00  0.1565E+02
     17.904  0.3242E+00  0.1569E+02
     18.010  0.3003E+00  0.1572E+02
     18.115  0.2779E+00  0.1575E+02
     18.220  0.2680E+00  0.1578E+02
     18.326  0.2483E+00  0.1581E+02
     18.431  0.2341E+00  0.1583E+02
     18.536  0.2198E+00  0.1586E+02
     18.642  0.1949E+00  0.1588E+02
     18.747  0.1750E+00  0.1590E+02
     18.853  0.1593E+00  0.1592E+02
     18.958  0.1450E+00  0.1593E+02
     19.063  0.1343E+00  0.1595E+02
     19.169  0.1249E+00  0.1596E+02
     19.274  0.1005E+00  0.1597E+02
     19.379  0.7893E-01  0.1598E+02
     19.485  0.6366E-01  0.1599E+02
     19.590  0.5310E-01  0.1600E+02
     19.696  0.4223E-02  0.1600E+02
     19.801  0.0000E+00  0.1600E+02
     19.906  0.0000E+00  0.1600E+02
     20.012  0.0000E+00  0.1600E+02
     20.117  0.0000E+00  0.1600E+02
     20.222  0.0000E+00  0.1600E+02
     20.328  0.0000E+00  0.1600E+02
     20.433  0.0000E+00  0.1600E+02
     20.539  0.0000E+00  0.1600E+02
     20.644  0.0000E+00  0.1600E+02
     20.749  0.0000E+00  0.1600E+02
     20.855  0.0000E+00  0.1600E+02
     20.960  0.0000E+00  0.1600E+02
     21.065  0.0000E+00  0.1600E+02
     21.171  0.0000E+00  0.1600E+02
