    2    2    1    1
  0.1229972E+02  0.3264475E-09  0.3264475E-09  0.3264475E-09  0.0000000E+00
  1.000000000000000E-004
  CAR 
 unknown system                          
      8    413      8
 
  0.0000000E+00  0.0000000E+00  0.0000000E+00  0.7233796E-04
    1       -9.004932   1.000000
    2        7.364686   1.000000
    3        7.364686   1.000000
    4        7.364686   1.000000
    5       10.771102   0.000000
    6       10.771102   0.000000
    7       10.771103   0.000000
    8       13.410968   0.000000
 
  0.4166667E-01  0.0000000E+00  0.0000000E+00  0.5787037E-03
    1       -8.973597   1.000000
    2        7.048277   1.000000
    3        7.297424   1.000000
    4        7.297425   1.000000
    5       10.858526   0.000000
    6       10.858527   0.000000
    7       10.883225   0.000000
    8       13.531662   0.000000
 
  0.8333333E-01  0.0000000E+00  0.0000000E+00  0.5787037E-03
    1       -8.879707   1.000000
    2        6.274729   1.000000
    3        7.118113   1.000000
    4        7.118114   1.000000
    5       11.060416   0.000000
    6       11.092966   0.000000
    7       11.092966   0.000000
    8       13.882230   0.000000
 
  0.1250000E+00  0.0000000E+00  0.0000000E+00  0.5787037E-03
    1       -8.723910   1.000000
    2        5.289079   1.000000
    3        6.873301   1.000000
    4        6.873302   1.000000
    5       11.142882   0.000000
    6       11.411676   0.000000
    7       11.411676   0.000000
    8       14.394173   0.000000
 
  0.1666667E+00  0.0000000E+00  0.0000000E+00  0.5787037E-03
    1       -8.507288   1.000000
    2        4.223520   1.000000
    3        6.604172   1.000000
    4        6.604172   1.000000
    5       11.131157   0.000000
    6       11.746585   0.000000
    7       11.746585   0.000000
    8       14.962443   0.000000
 
  0.2083333E+00  0.0000000E+00  0.0000000E+00  0.5787037E-03
    1       -8.231756   1.000000
    2        3.142120   1.000000
    3        6.338173   1.000000
    4        6.338173   1.000000
    5       11.068714   0.000000
    6       12.037511   0.000000
    7       12.037511   0.000000
    8       15.505993   0.000000
 
  0.2500000E+00  0.0000000E+00  0.0000000E+00  0.5787037E-03
    1       -7.900450   1.000000
    2        2.080294   1.000000
    3        6.091775   1.000000
    4        6.091775   1.000000
    5       10.987476   0.000000
    6       12.241750   0.000000
    7       12.241750   0.000000
    8       15.964433   0.000000
 
  0.2916667E+00  0.0000000E+00  0.0000000E+00  0.5787037E-03
    1       -7.518716   1.000000
    2        1.061774   1.000000
    3        5.874678   1.000000
    4        5.874678   1.000000
    5       10.905666   0.000000
    6       12.345984   0.000000
    7       12.345984   0.000000
    8       16.282844   0.000000
 
  0.3333333E+00  0.0000000E+00  0.0000000E+00  0.5787037E-03
    1       -7.096086   1.000000
    2        0.107380   1.000000
    3        5.692574   1.000000
    4        5.692574   1.000000
    5       10.832871   0.000000
    6       12.367607   0.000000
    7       12.367607   0.000000
    8       16.438158   0.000000
 
  0.3750000E+00  0.0000000E+00  0.0000000E+00  0.5787037E-03
    1       -6.650628   1.000000
    2       -0.757501   1.000000
    3        5.548741   1.000000
    4        5.548741   1.000000
    5       10.773990   0.000000
    6       12.340105   0.000000
    7       12.340106   0.000000
    8       16.469045   0.000000
 
  0.4166667E+00  0.0000000E+00  0.0000000E+00  0.5787037E-03
    1       -6.218934   1.000000
    2       -1.491684   1.000000
    3        5.445038   1.000000
    4        5.445038   1.000000
    5       10.731193   0.000000
    6       12.296468   0.000000
    7       12.296469   0.000000
    8       16.442052   0.000000
 
  0.4583333E+00  0.0000000E+00  0.0000000E+00  0.5787037E-03
    1       -5.874725   1.000000
    2       -2.018412   1.000000
    3        5.382542   1.000000
    4        5.382542   1.000000
    5       10.705397   0.000000
    6       12.261011   0.000000
    7       12.261011   0.000000
    8       16.408132   0.000000
 
  0.5000000E+00  0.0000000E+00  0.0000000E+00  0.2893519E-03
    1       -5.735775   1.000000
    2       -2.218424   1.000000
    3        5.361644   1.000000
    4        5.361644   1.000000
    5       10.696778   0.000000
    6       12.247668   0.000000
    7       12.247668   0.000000
    8       16.394090   0.000000
 
  0.4166667E-01  0.4166667E-01  0.0000000E+00  0.4340278E-03
    1       -8.963140   1.000000
    2        7.154044   1.000000
    3        7.154045   1.000000
    4        7.187014   1.000000
    5       10.652285   0.000000
    6       11.026973   0.000000
    7       11.026973   0.000000
    8       13.558522   0.000000
 
  0.8333333E-01  0.4166667E-01  0.0000000E+00  0.1736111E-02
    1       -8.890076   1.000000
    2        6.532839   1.000000
    3        6.921893   1.000000
    4        7.146191   1.000000
    5       10.644579   0.000000
    6       11.282621   0.000000
    7       11.321328   0.000000
    8       13.801613   0.000000
 
  0.1250000E+00  0.4166667E-01  0.0000000E+00  0.1736111E-02
    1       -8.754894   1.000000
    2        5.616094   1.000000
    3        6.647397   1.000000
    4        6.995374   1.000000
    5       10.795971   0.000000
    6       11.469017   0.000000
    7       11.680617   0.000000
    8       14.225407   0.000000
 
  0.1666667E+00  0.4166667E-01  0.0000000E+00  0.1736111E-02
    1       -8.558469   1.000000
    2        4.580122   1.000000
    3        6.365609   1.000000
    4        6.766830   1.000000
    5       10.989234   0.000000
    6       11.593105   0.000000
    7       12.044379   0.000000
    8       14.725374   0.000000
 
  0.2083333E+00  0.4166667E-01  0.0000000E+00  0.1736111E-02
    1       -8.302452   1.000000
    2        3.507275   1.000000
    3        6.098759   1.000000
    4        6.504397   1.000000
    5       11.093794   0.000000
    6       11.751334   0.000000
    7       12.357170   0.000000
    8       15.204034   0.000000
 
  0.2500000E+00  0.4166667E-01  0.0000000E+00  0.1736111E-02
    1       -7.989460   1.000000
    2        2.441521   1.000000
    3        5.860247   1.000000
    4        6.237675   1.000000
    5       11.089740   0.000000
    6       11.938299   0.000000
    7       12.575544   0.000000
    8       15.619896   0.000000
 
  0.2916667E+00  0.4166667E-01  0.0000000E+00  0.1736111E-02
    1       -7.623994   1.000000
    2        1.410230   1.000000
    3        5.658004   1.000000
    4        5.984507   1.000000
    5       11.037672   0.000000
    6       12.078941   0.000000
    7       12.681409   0.000000
    8       15.971530   0.000000
 
  0.3333333E+00  0.4166667E-01  0.0000000E+00  0.1736111E-02
    1       -7.213848   1.000000
    2        0.435027   1.000000
    3        5.496651   1.000000
    4        5.755541   1.000000
    5       10.975141   0.000000
    6       12.148265   0.000000
    7       12.688101   0.000000
    8       16.248059   0.000000
 
  0.3750000E+00  0.4166667E-01  0.0000000E+00  0.1736111E-02
    1       -6.773545   1.000000
    2       -0.460926   1.000000
    3        5.378631   1.000000
    4        5.557348   1.000000
    5       10.918153   0.000000
    6       12.165121   0.000000
    7       12.629052   0.000000
    8       16.420583   0.000000
 
  0.4166667E+00  0.4166667E-01  0.0000000E+00  0.1736111E-02
    1       -6.331861   1.000000
    2       -1.243191   1.000000
    3        5.305050   1.000000
    4        5.394148   1.000000
    5       10.873697   0.000000
    6       12.161098   0.000000
    7       12.540258   0.000000
    8       16.494278   0.000000
 
  0.4583333E+00  0.4166667E-01  0.0000000E+00  0.1736111E-02
    1       -5.947650   1.000000
    2       -1.849363   1.000000
    3        5.268898   1.000000
    4        5.276068   1.000000
    5       10.844866   0.000000
    6       12.162834   0.000000
    7       12.449917   0.000000
    8       16.512168   0.000000
 
  0.5000000E+00  0.4166667E-01  0.0000000E+00  0.1736111E-02
    1       -5.727043   1.000000
    2       -2.171247   1.000000
    3        5.183815   1.000000
    4        5.291143   1.000000
    5       10.832805   0.000000
    6       12.187069   0.000000
    7       12.375919   0.000000
    8       16.514576   0.000000
 
 -0.4583333E+00  0.4166667E-01  0.0000000E+00  0.1736111E-02
    1       -5.774480   1.000000
    2       -2.103459   1.000000
    3        5.140582   1.000000
    4        5.349227   1.000000
    5       10.837771   0.000000
    6       12.240858   0.000000
    7       12.326441   0.000000
    8       16.520898   0.000000
 
 -0.4166667E+00  0.4166667E-01  0.0000000E+00  0.1736111E-02
    1       -6.063912   1.000000
    2       -1.672271   1.000000
    3        5.140570   1.000000
    4        5.448888   1.000000
    5       10.859635   0.000000
    6       12.300639   0.000000
    7       12.322483   0.000000
    8       16.528832   0.000000
 
 -0.3750000E+00  0.4166667E-01  0.0000000E+00  0.1736111E-02
    1       -6.476615   1.000000
    2       -0.997642   1.000000
    3        5.184674   1.000000
    4        5.588238   1.000000
    5       10.897938   0.000000
    6       12.288343   0.000000
    7       12.421033   0.000000
    8       16.514354   0.000000
 
 -0.3333333E+00  0.4166667E-01  0.0000000E+00  0.1736111E-02
    1       -6.922457   1.000000
    2       -0.172324   1.000000
    3        5.273297   1.000000
    4        5.764765   1.000000
    5       10.951683   0.000000
    6       12.269378   0.000000
    7       12.515001   0.000000
    8       16.434075   0.000000
 
 -0.2916667E+00  0.4166667E-01  0.0000000E+00  0.1736111E-02
    1       -7.354944   1.000000
    2        0.753102   1.000000
    3        5.406187   1.000000
    4        5.975010   1.000000
    5       11.018575   0.000000
    6       12.214490   0.000000
    7       12.571423   0.000000
    8       16.245030   0.000000
 
 -0.2500000E+00  0.4166667E-01  0.0000000E+00  0.1736111E-02
    1       -7.751371   1.000000
    2        1.749265   1.000000
    3        5.582069   1.000000
    4        6.213854   1.000000
    5       11.093792   0.000000
    6       12.092217   0.000000
    7       12.549755   0.000000
    8       15.940957   0.000000
 
 -0.2083333E+00  0.4166667E-01  0.0000000E+00  0.1736111E-02
    1       -8.099973   1.000000
    2        2.794229   1.000000
    3        5.798205   1.000000
    4        6.473321   1.000000
    5       11.167552   0.000000
    6       11.884665   0.000000
    7       12.417592   0.000000
    8       15.548988   0.000000
 
 -0.1666667E+00  0.4166667E-01  0.0000000E+00  0.1736111E-02
    1       -8.394350   1.000000
    2        3.864932   1.000000
    3        6.049714   1.000000
    4        6.740474   1.000000
    5       11.220792   0.000000
    6       11.603982   0.000000
    7       12.174406   0.000000
    8       15.091618   0.000000
 
 -0.1250000E+00  0.4166667E-01  0.0000000E+00  0.1736111E-02
    1       -8.630714   1.000000
    2        4.928677   1.000000
    3        6.328559   1.000000
    4        6.993850   1.000000
    5       11.218559   0.000000
    6       11.294540   0.000000
    7       11.860565   0.000000
    8       14.589899   0.000000
 
 -0.8333333E-01  0.4166667E-01  0.0000000E+00  0.1736111E-02
    1       -8.806852   1.000000
    2        5.926559   1.000000
    3        6.623782   1.000000
    4        7.199635   1.000000
    5       11.022050   0.000000
    6       11.117147   0.000000
    7       11.533224   0.000000
    8       14.099058   0.000000
 
 -0.4166667E-01  0.4166667E-01  0.0000000E+00  0.8680556E-03
    1       -8.921387   1.000000
    2        6.712394   1.000000
    3        6.948646   1.000000
    4        7.313057   1.000000
    5       10.858671   0.000000
    6       10.947765   0.000000
    7       11.200658   0.000000
    8       13.718532   0.000000
 
  0.8333333E-01  0.8333333E-01  0.0000000E+00  0.4340278E-03
    1       -8.837896   1.000000
    2        6.655218   1.000000
    3        6.655218   1.000000
    4        6.697677   1.000000
    5       10.361481   0.000000
    6       11.660371   0.000000
    7       11.660371   0.000000
    8       13.867523   0.000000
 
  0.1250000E+00  0.8333333E-01  0.0000000E+00  0.1736111E-02
    1       -8.723470   1.000000
    2        5.877042   1.000000
    3        6.360698   1.000000
    4        6.672146   1.000000
    5       10.306935   0.000000
    6       11.967737   0.000000
    7       12.054891   0.000000
    8       14.092948   0.000000
 
  0.1666667E+00  0.8333333E-01  0.0000000E+00  0.1736111E-02
    1       -8.547547   1.000000
    2        4.908267   1.000000
    3        6.068653   1.000000
    4        6.533503   1.000000
    5       10.439134   0.000000
    6       12.114432   0.000000
    7       12.451018   0.000000
    8       14.408087   0.000000
 
  0.2083333E+00  0.8333333E-01  0.0000000E+00  0.1736111E-02
    1       -8.311522   1.000000
    2        3.869531   1.000000
    3        5.798379   1.000000
    4        6.307834   1.000000
    5       10.656929   0.000000
    6       12.164829   0.000000
    7       12.796585   0.000000
    8       14.693428   0.000000
 
  0.2500000E+00  0.8333333E-01  0.0000000E+00  0.1736111E-02
    1       -8.017625   1.000000
    2        2.817470   1.000000
    3        5.561839   1.000000
    4        6.041325   1.000000
    5       10.857088   0.000000
    6       12.193254   0.000000
    7       13.046108   0.000000
    8       14.931510   0.000000
 
  0.2916667E+00  0.8333333E-01  0.0000000E+00  0.1736111E-02
    1       -7.669657   1.000000
    2        1.786313   1.000000
    3        5.366292   1.000000
    4        5.765465   1.000000
    5       10.978305   0.000000
    6       12.222836   0.000000
    7       13.174375   0.000000
    8       15.200718   0.000000
 
  0.3333333E+00  0.8333333E-01  0.0000000E+00  0.1736111E-02
    1       -7.274076   1.000000
    2        0.800592   1.000000
    3        5.216048   1.000000
    4        5.499465   1.000000
    5       11.022569   0.000000
    6       12.237414   0.000000
    7       13.187514   0.000000
    8       15.555312   0.000000
 
  0.3750000E+00  0.8333333E-01  0.0000000E+00  0.1736111E-02
    1       -6.842674   1.000000
    2       -0.116754   1.000000
    3        5.113465   1.000000
    4        5.255074   1.000000
    5       11.024615   0.000000
    6       12.227764   0.000000
    7       13.116478   0.000000
    8       15.964257   0.000000
 
  0.4166667E+00  0.8333333E-01  0.0000000E+00  0.1736111E-02
    1       -6.398227   1.000000
    2       -0.935701   1.000000
    3        5.039981   1.000000
    4        5.059471   1.000000
    5       11.015398   0.000000
    6       12.207112   0.000000
    7       12.999205   0.000000
    8       16.338563   0.000000
 
  0.4583333E+00  0.8333333E-01  0.0000000E+00  0.1736111E-02
    1       -5.987206   1.000000
    2       -1.605265   1.000000
    3        4.859599   1.000000
    4        5.053997   1.000000
    5       11.013118   0.000000
    6       12.195077   0.000000
    7       12.867601   0.000000
    8       16.602715   0.000000
 
  0.5000000E+00  0.8333333E-01  0.0000000E+00  0.1736111E-02
    1       -5.699457   1.000000
    2       -2.032765   1.000000
    3        4.718060   1.000000
    4        5.096132   1.000000
    5       11.026119   0.000000
    6       12.207260   0.000000
    7       12.743318   0.000000
    8       16.748445   0.000000
 
 -0.4583333E+00  0.8333333E-01  0.0000000E+00  0.1736111E-02
    1       -5.652768   1.000000
    2       -2.099077   1.000000
    3        4.618616   1.000000
    4        5.184196   1.000000
    5       11.056404   0.000000
    6       12.253209   0.000000
    7       12.637840   0.000000
    8       16.806035   0.000000
 
 -0.4166667E+00  0.8333333E-01  0.0000000E+00  0.1736111E-02
    1       -5.872632   1.000000
    2       -1.778461   1.000000
    3        4.563909   1.000000
    4        5.315880   1.000000
    5       11.102351   0.000000
    6       12.336398   0.000000
    7       12.553489   0.000000
    8       16.790683   0.000000
 
 -0.3750000E+00  0.8333333E-01  0.0000000E+00  0.1736111E-02
    1       -6.255376   1.000000
    2       -1.175661   1.000000
    3        4.555990   1.000000
    4        5.488072   1.000000
    5       11.160889   0.000000
    6       12.452599   0.000000
    7       12.483366   0.000000
    8       16.686781   0.000000
 
 -0.3333333E+00  0.8333333E-01  0.0000000E+00  0.1736111E-02
    1       -6.695550   1.000000
    2       -0.398487   1.000000
    3        4.596362   1.000000
    4        5.696679   1.000000
    5       11.228817   0.000000
    6       12.410859   0.000000
    7       12.586724   0.000000
    8       16.467391   0.000000
 
 -0.2916667E+00  0.8333333E-01  0.0000000E+00  0.1736111E-02
    1       -7.134538   1.000000
    2        0.490346   1.000000
    3        4.685997   1.000000
    4        5.936272   1.000000
    5       11.302674   0.000000
    6       12.310394   0.000000
    7       12.708449   0.000000
    8       16.138054   0.000000
 
 -0.2500000E+00  0.8333333E-01  0.0000000E+00  0.1736111E-02
    1       -7.543590   1.000000
    2        1.455317   1.000000
    3        4.825370   1.000000
    4        6.199213   1.000000
    5       11.377015   0.000000
    6       12.153885   0.000000
    7       12.769232   0.000000
    8       15.757950   0.000000
 
 -0.2083333E+00  0.8333333E-01  0.0000000E+00  0.1736111E-02
    1       -7.908181   1.000000
    2        2.470930   1.000000
    3        5.014706   1.000000
    4        6.474227   1.000000
    5       11.441151   0.000000
    6       11.926145   0.000000
    7       12.712731   0.000000
    8       15.399693   0.000000
 
 -0.1666667E+00  0.8333333E-01  0.0000000E+00  0.1736111E-02
    1       -8.220463   1.000000
    2        3.509784   1.000000
    3        5.255369   1.000000
    4        6.743810   1.000000
    5       11.473675   0.000000
    6       11.642086   0.000000
    7       12.515261   0.000000
    8       15.084732   0.000000
 
 -0.1250000E+00  0.8333333E-01  0.0000000E+00  0.1736111E-02
    1       -8.475944   1.000000
    2        4.526062   1.000000
    3        5.557587   1.000000
    4        6.980957   1.000000
    5       11.350372   0.000000
    6       11.437061   0.000000
    7       12.221720   0.000000
    8       14.768599   0.000000
 
 -0.8333333E-01  0.8333333E-01  0.0000000E+00  0.8680556E-03
    1       -8.671944   1.000000
    2        5.395296   1.000000
    3        5.986625   1.000000
    4        7.146974   1.000000
    5       11.120634   0.000000
    6       11.298209   0.000000
    7       11.898860   0.000000
    8       14.422008   0.000000
 
  0.1250000E+00  0.1250000E+00  0.0000000E+00  0.4340278E-03
    1       -8.629819   1.000000
    2        5.987839   1.000000
    3        6.052793   1.000000
    4        6.052793   1.000000
    5        9.998707   0.000000
    6       12.483717   0.000000
    7       12.483717   0.000000
    8       14.018652   0.000000
 
  0.1666667E+00  0.1250000E+00  0.0000000E+00  0.1736111E-02
    1       -8.474576   1.000000
    2        5.156643   1.000000
    3        5.751723   1.000000
    4        6.017387   1.000000
    5        9.933237   0.000000
    6       12.795732   0.000000
    7       12.917619   0.000000
    8       14.039147   0.000000
 
  0.2083333E+00  0.1250000E+00  0.0000000E+00  0.1736111E-02
    1       -8.258874   1.000000
    2        4.189071   1.000000
    3        5.475650   1.000000
    4        5.868791   1.000000
    5       10.067142   0.000000
    6       12.881631   0.000000
    7       13.306730   0.000000
    8       14.111144   0.000000
 
  0.2500000E+00  0.1250000E+00  0.0000000E+00  0.1736111E-02
    1       -7.984659   1.000000
    2        3.178045   1.000000
    3        5.236110   1.000000
    4        5.629065   1.000000
    5       10.295992   0.000000
    6       12.877200   0.000000
    7       13.603373   0.000000
    8       14.178524   0.000000
 
  0.2916667E+00  0.1250000E+00  0.0000000E+00  0.1736111E-02
    1       -7.655154   1.000000
    2        2.167107   1.000000
    3        5.040353   1.000000
    4        5.346318   1.000000
    5       10.514213   0.000000
    6       12.866971   0.000000
    7       13.774357   0.000000
    8       14.304341   0.000000
 
  0.3333333E+00  0.1250000E+00  0.0000000E+00  0.1736111E-02
    1       -7.275799   1.000000
    2        1.186202   1.000000
    3        4.892760   1.000000
    4        5.053392   1.000000
    5       10.661152   0.000000
    6       12.852210   0.000000
    7       13.815899   0.000000
    8       14.586088   0.000000
 
  0.3750000E+00  0.1250000E+00  0.0000000E+00  0.1736111E-02
    1       -6.856271   1.000000
    2        0.260399   1.000000
    3        4.770582   1.000000
    4        4.795870   1.000000
    5       10.738101   0.000000
    6       12.815434   0.000000
    7       13.753639   0.000000
    8       15.049286   0.000000
 
  0.4166667E+00  0.1250000E+00  0.0000000E+00  0.1736111E-02
    1       -6.414815   1.000000
    2       -0.582278   1.000000
    3        4.510683   1.000000
    4        4.750819   1.000000
    5       10.779638   0.000000
    6       12.763745   0.000000
    7       13.626316   0.000000
    8       15.631766   0.000000
 
  0.4583333E+00  0.1250000E+00  0.0000000E+00  0.1736111E-02
    1       -5.988088   1.000000
    2       -1.298882   1.000000
    3        4.282324   1.000000
    4        4.757614   1.000000
    5       10.818881   0.000000
    6       12.714480   0.000000
    7       13.469440   0.000000
    8       16.229607   0.000000
 
  0.5000000E+00  0.1250000E+00  0.0000000E+00  0.1736111E-02
    1       -5.649385   1.000000
    2       -1.812245   1.000000
    3        4.091758   1.000000
    4        4.815348   1.000000
    5       10.876139   0.000000
    6       12.681228   0.000000
    7       13.308472   0.000000
    8       16.724382   0.000000
 
 -0.4583333E+00  0.1250000E+00  0.0000000E+00  0.1736111E-02
    1       -5.514128   1.000000
    2       -2.004803   1.000000
    3        3.943793   1.000000
    4        4.922280   1.000000
    5       10.960102   0.000000
    6       12.673156   0.000000
    7       13.158156   0.000000
    8       17.018358   0.000000
 
 -0.4166667E+00  0.1250000E+00  0.0000000E+00  0.1736111E-02
    1       -5.652246   1.000000
    2       -1.805986   1.000000
    3        3.842234   1.000000
    4        5.075629   1.000000
    5       11.070797   0.000000
    6       12.696609   0.000000
    7       13.023342   0.000000
    8       17.075904   0.000000
 
 -0.3750000E+00  0.1250000E+00  0.0000000E+00  0.1736111E-02
    1       -5.992317   1.000000
    2       -1.288047   1.000000
    3        3.790179   1.000000
    4        5.271626   1.000000
    5       11.201857   0.000000
    6       12.755345   0.000000
    7       12.899538   0.000000
    8       16.904197   0.000000
 
 -0.3333333E+00  0.1250000E+00  0.0000000E+00  0.1736111E-02
    1       -6.419235   1.000000
    2       -0.568578   1.000000
    3        3.790281   1.000000
    4        5.505097   1.000000
    5       11.342402   0.000000
    6       12.772457   0.000000
    7       12.847447   0.000000
    8       16.537956   0.000000
 
 -0.2916667E+00  0.1250000E+00  0.0000000E+00  0.1736111E-02
    1       -6.860350   1.000000
    2        0.275022   1.000000
    3        3.845071   1.000000
    4        5.768926   1.000000
    5       11.479410   0.000000
    6       12.619180   0.000000
    7       12.957508   0.000000
    8       16.054617   0.000000
 
 -0.2500000E+00  0.1250000E+00  0.0000000E+00  0.1736111E-02
    1       -7.279349   1.000000
    2        1.197787   1.000000
    3        3.957906   1.000000
    4        6.053086   1.000000
    5       11.599067   0.000000
    6       12.414971   0.000000
    7       13.042664   0.000000
    8       15.561856   0.000000
 
 -0.2083333E+00  0.1250000E+00  0.0000000E+00  0.1736111E-02
    1       -7.658129   1.000000
    2        2.164974   1.000000
    3        4.135921   1.000000
    4        6.343001   1.000000
    5       11.684975   0.000000
    6       12.149636   0.000000
    7       13.023427   0.000000
    8       15.177636   0.000000
 
 -0.1666667E+00  0.1250000E+00  0.0000000E+00  0.1736111E-02
    1       -7.987065   1.000000
    2        3.127579   1.000000
    3        4.402124   1.000000
    4        6.616883   1.000000
    5       11.710659   0.000000
    6       11.844637   0.000000
    7       12.836327   0.000000
    8       14.973659   0.000000
 
 -0.1250000E+00  0.1250000E+00  0.0000000E+00  0.8680556E-03
    1       -8.260745   1.000000
    2        3.965981   1.000000
    3        4.842686   1.000000
    4        6.843096   1.000000
    5       11.554476   0.000000
    6       11.633936   0.000000
    7       12.537798   0.000000
    8       14.881452   0.000000
 
  0.1666667E+00  0.1666667E+00  0.0000000E+00  0.4340278E-03
    1       -8.340012   1.000000
    2        5.138850   1.000000
    3        5.442360   1.000000
    4        5.442360   1.000000
    5        9.625411   0.000000
    6       13.397000   0.000000
    7       13.397000   0.000000
    8       13.675004   0.000000
 
  0.2083333E+00  0.1666667E+00  0.0000000E+00  0.1736111E-02
    1       -8.144822   1.000000
    2        4.382306   1.000000
    3        5.158786   1.000000
    4        5.311538   1.000000
    5        9.568095   0.000000
    6       13.312901   0.000000
    7       13.841042   0.000000
    8       13.845864   0.000000
 
  0.2500000E+00  0.1666667E+00  0.0000000E+00  0.1736111E-02
    1       -7.890713   1.000000
    2        3.462214   1.000000
    3        4.912736   1.000000
    4        5.123350   1.000000
    5        9.713183   0.000000
    6       13.086631   0.000000
    7       14.046453   0.000000
    8       14.200396   0.000000
 
  0.2916667E+00  0.1666667E+00  0.0000000E+00  0.1736111E-02
    1       -7.580434   1.000000
    2        2.506837   1.000000
    3        4.711748   1.000000
    4        4.850126   1.000000
    5        9.947203   0.000000
    6       13.016248   0.000000
    7       14.110238   0.000000
    8       14.434125   0.000000
 
  0.3333333E+00  0.1666667E+00  0.0000000E+00  0.1736111E-02
    1       -7.218648   1.000000
    2        1.557197   1.000000
    3        4.538093   1.000000
    4        4.560553   1.000000
    5       10.157934   0.000000
    6       13.132727   0.000000
    7       14.140125   0.000000
    8       14.526399   0.000000
 
  0.3750000E+00  0.1666667E+00  0.0000000E+00  0.1736111E-02
    1       -6.813402   1.000000
    2        0.643607   1.000000
    3        4.220557   1.000000
    4        4.461998   1.000000
    5       10.293408   0.000000
    6       13.349097   0.000000
    7       14.282523   0.000000
    8       14.494381   0.000000
 
  0.4166667E+00  0.1666667E+00  0.0000000E+00  0.1736111E-02
    1       -6.379545   1.000000
    2       -0.204807   1.000000
    3        3.918277   1.000000
    4        4.417470   1.000000
    5       10.371577   0.000000
    6       13.465767   0.000000
    7       14.375634   0.000000
    8       14.711444   0.000000
 
  0.4583333E+00  0.1666667E+00  0.0000000E+00  0.1736111E-02
    1       -5.946229   1.000000
    2       -0.949613   1.000000
    3        3.644386   1.000000
    4        4.427254   1.000000
    5       10.433943   0.000000
    6       13.468046   0.000000
    7       14.209156   0.000000
    8       15.376979   0.000000
 
  0.5000000E+00  0.1666667E+00  0.0000000E+00  0.1736111E-02
    1       -5.572178   1.000000
    2       -1.526200   1.000000
    3        3.407812   1.000000
    4        4.490646   1.000000
    5       10.511607   0.000000
    6       13.435669   0.000000
    7       14.024687   0.000000
    8       16.119961   0.000000
 
 -0.4583333E+00  0.1666667E+00  0.0000000E+00  0.1736111E-02
    1       -5.360910   1.000000
    2       -1.827688   1.000000
    3        3.215026   1.000000
    4        4.605924   1.000000
    5       10.620688   0.000000
    6       13.405305   0.000000
    7       13.840316   0.000000
    8       16.784998   0.000000
 
 -0.4166667E+00  0.1666667E+00  0.0000000E+00  0.1736111E-02
    1       -5.410888   1.000000
    2       -1.754285   1.000000
    3        3.071074   1.000000
    4        4.770348   1.000000
    5       10.766551   0.000000
    6       13.391885   0.000000
    7       13.663231   0.000000
    8       17.153636   0.000000
 
 -0.3750000E+00  0.1666667E+00  0.0000000E+00  0.1736111E-02
    1       -5.694947   1.000000
    2       -1.333835   1.000000
    3        2.980224   1.000000
    4        4.979866   1.000000
    5       10.946837   0.000000
    6       13.402561   0.000000
    7       13.490230   0.000000
    8       17.052138   0.000000
 
 -0.3333333E+00  0.1666667E+00  0.0000000E+00  0.1736111E-02
    1       -6.099276   1.000000
    2       -0.683370   1.000000
    3        2.946787   1.000000
    4        5.228789   1.000000
    5       11.152719   0.000000
    6       13.307860   0.000000
    7       13.439644   0.000000
    8       16.597213   0.000000
 
 -0.2916667E+00  0.1666667E+00  0.0000000E+00  0.1736111E-02
    1       -6.536841   1.000000
    2        0.102960   1.000000
    3        2.976441   1.000000
    4        5.508985   1.000000
    5       11.368628   0.000000
    6       13.093985   0.000000
    7       13.496302   0.000000
    8       15.997176   0.000000
 
 -0.2500000E+00  0.1666667E+00  0.0000000E+00  0.1736111E-02
    1       -6.962209   1.000000
    2        0.963904   1.000000
    3        3.080390   1.000000
    4        5.808874   1.000000
    5       11.571364   0.000000
    6       12.826921   0.000000
    7       13.539218   0.000000
    8       15.406526   0.000000
 