       N       E                     dE             d eps       ncg     rms          rms(c)
DAV:   1     0.102216892908E+02    0.10222E+02   -0.40726E+03  6624   0.885E+02
DAV:   2    -0.118251588888E+02   -0.22047E+02   -0.21536E+02  9976   0.108E+02
DAV:   3    -0.120672069017E+02   -0.24205E+00   -0.24205E+00  7544   0.135E+01
DAV:   4    -0.120674591300E+02   -0.25223E-03   -0.25223E-03 10264   0.451E-01
DAV:   5    -0.120674591803E+02   -0.50299E-07   -0.50299E-07  7440   0.458E-03    0.456E+00
RMM:   6    -0.112648191143E+02    0.80264E+00   -0.87000E-01  6689   0.653E+00    0.186E+00
RMM:   7    -0.111749464834E+02    0.89873E-01   -0.16708E-01  7061   0.283E+00    0.750E-01
RMM:   8    -0.111666619396E+02    0.82845E-02   -0.23318E-02  7327   0.116E+00    0.845E-02
RMM:   9    -0.111669133483E+02   -0.25141E-03   -0.30837E-04  7822   0.149E-01    0.402E-02
RMM:  10    -0.111670046652E+02   -0.91317E-04   -0.15112E-04  7362   0.104E-01    0.939E-03
RMM:  11    -0.111670064541E+02   -0.17889E-05   -0.27257E-05  7401   0.344E-02    0.100E-02
RMM:  12    -0.111670013931E+02    0.50610E-05   -0.72837E-06  7506   0.183E-02    0.282E-04
RMM:  13    -0.111670014088E+02   -0.15670E-07   -0.96395E-08  4819   0.244E-03
   1 F= -.11167001E+02 E0= -.11167001E+02  d E =0.000000E+00
