   2   2   0   0
  0.3025399E+02  0.4406657E-09  0.4406657E-09  0.4406657E-09  0.0000000E+00
  1.000000000000000E-004
  CAR 
 unknown system                          
     13.81075157     -7.01875529  301      4.44181297      1.00000000
     -7.019  0.0000E+00  0.0000E+00
     -6.949  0.0000E+00  0.0000E+00
     -6.880  0.0000E+00  0.0000E+00
     -6.810  0.0000E+00  0.0000E+00
     -6.741  0.0000E+00  0.0000E+00
     -6.672  0.0000E+00  0.0000E+00
     -6.602  0.0000E+00  0.0000E+00
     -6.533  0.0000E+00  0.0000E+00
     -6.463  0.0000E+00  0.0000E+00
     -6.394  0.0000E+00  0.0000E+00
     -6.324  0.0000E+00  0.0000E+00
     -6.255  0.0000E+00  0.0000E+00
     -6.186  0.0000E+00  0.0000E+00
     -6.116  0.0000E+00  0.0000E+00
     -6.047  0.9774E-01  0.8226E-03
     -5.977  0.1884E+00  0.1060E-01
     -5.908  0.2586E+00  0.2586E-01
     -5.838  0.3080E+00  0.4552E-01
     -5.769  0.3651E+00  0.6897E-01
     -5.700  0.4095E+00  0.9578E-01
     -5.630  0.4613E+00  0.1260E+00
     -5.561  0.5048E+00  0.1595E+00
     -5.491  0.5537E+00  0.1962E+00
     -5.422  0.6041E+00  0.2364E+00
     -5.352  0.6559E+00  0.2802E+00
     -5.283  0.7123E+00  0.3276E+00
     -5.214  0.7741E+00  0.3792E+00
     -5.144  0.8434E+00  0.4353E+00
     -5.075  0.9210E+00  0.4965E+00
     -5.005  0.1016E+01  0.5636E+00
     -4.936  0.1136E+01  0.6382E+00
     -4.866  0.1292E+01  0.7222E+00
     -4.797  0.1564E+01  0.8200E+00
     -4.728  0.1882E+01  0.9461E+00
     -4.658  0.1859E+01  0.1075E+01
     -4.589  0.1860E+01  0.1203E+01
     -4.519  0.1839E+01  0.1331E+01
     -4.450  0.1878E+01  0.1461E+01
     -4.380  0.1913E+01  0.1592E+01
     -4.311  0.2032E+01  0.1729E+01
     -4.241  0.2430E+01  0.1882E+01
     -4.172  0.0000E+00  0.2000E+01
     -4.103  0.0000E+00  0.2000E+01
     -4.033  0.0000E+00  0.2000E+01
     -3.964  0.0000E+00  0.2000E+01
     -3.894  0.0000E+00  0.2000E+01
     -3.825  0.0000E+00  0.2000E+01
     -3.755  0.0000E+00  0.2000E+01
     -3.686  0.0000E+00  0.2000E+01
     -3.617  0.0000E+00  0.2000E+01
     -3.547  0.0000E+00  0.2000E+01
     -3.478  0.0000E+00  0.2000E+01
     -3.408  0.0000E+00  0.2000E+01
     -3.339  0.0000E+00  0.2000E+01
     -3.269  0.0000E+00  0.2000E+01
     -3.200  0.0000E+00  0.2000E+01
     -3.131  0.0000E+00  0.2000E+01
     -3.061  0.0000E+00  0.2000E+01
     -2.992  0.0000E+00  0.2000E+01
     -2.922  0.0000E+00  0.2000E+01
     -2.853  0.0000E+00  0.2000E+01
     -2.783  0.0000E+00  0.2000E+01
     -2.714  0.0000E+00  0.2000E+01
     -2.645  0.0000E+00  0.2000E+01
     -2.575  0.0000E+00  0.2000E+01
     -2.506  0.0000E+00  0.2000E+01
     -2.436  0.0000E+00  0.2000E+01
     -2.367  0.0000E+00  0.2000E+01
     -2.297  0.0000E+00  0.2000E+01
     -2.228  0.0000E+00  0.2000E+01
     -2.159  0.0000E+00  0.2000E+01
     -2.089  0.0000E+00  0.2000E+01
     -2.020  0.0000E+00  0.2000E+01
     -1.950  0.0000E+00  0.2000E+01
     -1.881  0.0000E+00  0.2000E+01
     -1.811  0.0000E+00  0.2000E+01
     -1.742  0.0000E+00  0.2000E+01
     -1.673  0.0000E+00  0.2000E+01
     -1.603  0.0000E+00  0.2000E+01
     -1.534  0.0000E+00  0.2000E+01
     -1.464  0.0000E+00  0.2000E+01
     -1.395  0.0000E+00  0.2000E+01
     -1.325  0.0000E+00  0.2000E+01
     -1.256  0.0000E+00  0.2000E+01
     -1.186  0.0000E+00  0.2000E+01
     -1.117  0.0000E+00  0.2000E+01
     -1.048  0.0000E+00  0.2000E+01
     -0.978  0.2813E-02  0.2000E+01
     -0.909  0.4214E+00  0.2015E+01
     -0.839  0.9573E+00  0.2061E+01
     -0.770  0.2627E+01  0.2177E+01
     -0.700  0.4329E+01  0.2401E+01
     -0.631  0.2575E+01  0.2673E+01
     -0.562  0.1802E+01  0.2823E+01
     -0.492  0.1417E+01  0.2932E+01
     -0.423  0.1192E+01  0.3022E+01
     -0.353  0.1019E+01  0.3099E+01
     -0.284  0.8922E+00  0.3165E+01
     -0.214  0.8073E+00  0.3223E+01
     -0.145  0.7282E+00  0.3277E+01
     -0.076  0.6494E+00  0.3325E+01
     -0.006  0.6009E+00  0.3368E+01
      0.063  0.5604E+00  0.3408E+01
      0.133  0.5196E+00  0.3446E+01
      0.202  0.4797E+00  0.3480E+01
      0.272  0.4384E+00  0.3512E+01
      0.341  0.4147E+00  0.3542E+01
      0.410  0.3921E+00  0.3570E+01
      0.480  0.3697E+00  0.3596E+01
      0.549  0.3474E+00  0.3621E+01
      0.619  0.3220E+00  0.3644E+01
      0.688  0.2986E+00  0.3666E+01
      0.758  0.2854E+00  0.3686E+01
      0.827  0.2723E+00  0.3705E+01
      0.896  0.2589E+00  0.3724E+01
      0.966  0.2441E+00  0.3741E+01
      1.035  0.2294E+00  0.3758E+01
      1.105  0.2123E+00  0.3773E+01
      1.174  0.2002E+00  0.3787E+01
      1.244  0.4867E+00  0.3805E+01
      1.313  0.9434E+00  0.3859E+01
      1.382  0.1586E+01  0.3943E+01
      1.452  0.1723E+01  0.4064E+01
      1.521  0.1445E+01  0.4176E+01
      1.591  0.1402E+01  0.4275E+01
      1.660  0.1351E+01  0.4371E+01
      1.730  0.1266E+01  0.4462E+01
      1.799  0.1231E+01  0.4548E+01
      1.869  0.1270E+01  0.4635E+01
      1.938  0.1387E+01  0.4725E+01
      2.007  0.1414E+01  0.4823E+01
      2.077  0.1438E+01  0.4921E+01
      2.146  0.1522E+01  0.5025E+01
      2.216  0.1664E+01  0.5137E+01
      2.285  0.1949E+01  0.5262E+01
      2.355  0.2003E+01  0.5403E+01
      2.424  0.1998E+01  0.5543E+01
      2.493  0.1950E+01  0.5680E+01
      2.563  0.1934E+01  0.5815E+01
      2.632  0.1902E+01  0.5948E+01
      2.702  0.1855E+01  0.6078E+01
      2.771  0.1842E+01  0.6206E+01
      2.841  0.1824E+01  0.6334E+01
      2.910  0.1787E+01  0.6459E+01
      2.979  0.1761E+01  0.6582E+01
      3.049  0.1739E+01  0.6704E+01
      3.118  0.1700E+01  0.6823E+01
      3.188  0.1695E+01  0.6941E+01
      3.257  0.1681E+01  0.7058E+01
      3.327  0.1673E+01  0.7175E+01
      3.396  0.1650E+01  0.7290E+01
      3.465  0.1635E+01  0.7404E+01
      3.535  0.1314E+01  0.7509E+01
      3.604  0.1095E+01  0.7593E+01
      3.674  0.9346E+00  0.7663E+01
      3.743  0.8162E+00  0.7724E+01
      3.813  0.7172E+00  0.7777E+01
      3.882  0.6321E+00  0.7823E+01
      3.951  0.5584E+00  0.7865E+01
      4.021  0.4772E+00  0.7901E+01
      4.090  0.4049E+00  0.7931E+01
      4.160  0.3493E+00  0.7958E+01
      4.229  0.2622E+00  0.7979E+01
      4.299  0.1476E+00  0.7993E+01
      4.368  0.8258E-02  0.8000E+01
      4.437  0.0000E+00  0.8000E+01
      4.507  0.0000E+00  0.8000E+01
      4.576  0.0000E+00  0.8000E+01
      4.646  0.0000E+00  0.8000E+01
      4.715  0.0000E+00  0.8000E+01
      4.785  0.0000E+00  0.8000E+01
      4.854  0.0000E+00  0.8000E+01
      4.923  0.0000E+00  0.8000E+01
      4.993  0.0000E+00  0.8000E+01
      5.062  0.0000E+00  0.8000E+01
      5.132  0.0000E+00  0.8000E+01
      5.201  0.0000E+00  0.8000E+01
      5.271  0.0000E+00  0.8000E+01
      5.340  0.0000E+00  0.8000E+01
      5.410  0.0000E+00  0.8000E+01
      5.479  0.0000E+00  0.8000E+01
      5.548  0.0000E+00  0.8000E+01
      5.618  0.2902E-03  0.8000E+01
      5.687  0.9641E-01  0.8002E+01
      5.757  0.2760E+00  0.8015E+01
      5.826  0.4228E+00  0.8040E+01
      5.896  0.5408E+00  0.8073E+01
      5.965  0.6814E+00  0.8115E+01
      6.034  0.8075E+00  0.8167E+01
      6.104  0.9155E+00  0.8227E+01
      6.173  0.1033E+01  0.8295E+01
      6.243  0.1165E+01  0.8371E+01
      6.312  0.1348E+01  0.8458E+01
      6.382  0.1546E+01  0.8558E+01
      6.451  0.1770E+01  0.8673E+01
      6.520  0.2048E+01  0.8805E+01
      6.590  0.2377E+01  0.8959E+01
      6.659  0.2427E+01  0.9130E+01
      6.729  0.2316E+01  0.9290E+01
      6.798  0.1826E+01  0.9439E+01
      6.868  0.1677E+01  0.9560E+01
      6.937  0.1609E+01  0.9673E+01
      7.006  0.1381E+01  0.9779E+01
      7.076  0.1231E+01  0.9870E+01
      7.145  0.9799E+00  0.9946E+01
      7.215  0.8994E+00  0.1001E+02
      7.284  0.9505E+00  0.1007E+02
      7.354  0.1109E+01  0.1014E+02
      7.423  0.1118E+01  0.1022E+02
      7.492  0.1221E+01  0.1030E+02
      7.562  0.1624E+01  0.1039E+02
      7.631  0.1163E+01  0.1049E+02
      7.701  0.1178E+01  0.1057E+02
      7.770  0.1237E+01  0.1065E+02
      7.840  0.1342E+01  0.1074E+02
      7.909  0.2442E+01  0.1086E+02
      7.978  0.2617E+01  0.1108E+02
      8.048  0.2602E+01  0.1125E+02
      8.117  0.2188E+01  0.1142E+02
      8.187  0.1900E+01  0.1156E+02
      8.256  0.1687E+01  0.1169E+02
      8.326  0.1566E+01  0.1180E+02
      8.395  0.1511E+01  0.1190E+02
      8.465  0.1417E+01  0.1201E+02
      8.534  0.1354E+01  0.1210E+02
      8.603  0.1307E+01  0.1219E+02
      8.673  0.1383E+01  0.1229E+02
      8.742  0.1581E+01  0.1239E+02
      8.812  0.1842E+01  0.1251E+02
      8.881  0.1963E+01  0.1264E+02
      8.951  0.2130E+01  0.1278E+02
      9.020  0.1722E+01  0.1292E+02
      9.089  0.1724E+01  0.1303E+02
      9.159  0.1859E+01  0.1316E+02
      9.228  0.1650E+01  0.1328E+02
      9.298  0.1687E+01  0.1340E+02
      9.367  0.1567E+01  0.1351E+02
      9.437  0.1450E+01  0.1361E+02
      9.506  0.1376E+01  0.1371E+02
      9.575  0.1340E+01  0.1381E+02
      9.645  0.1326E+01  0.1390E+02
      9.714  0.1358E+01  0.1399E+02
      9.784  0.1306E+01  0.1409E+02
      9.853  0.1411E+01  0.1418E+02
      9.923  0.1061E+01  0.1427E+02
      9.992  0.9659E+00  0.1434E+02
     10.061  0.1009E+01  0.1441E+02
     10.131  0.1111E+01  0.1448E+02
     10.200  0.1176E+01  0.1456E+02
     10.270  0.1210E+01  0.1464E+02
     10.339  0.1326E+01  0.1473E+02
     10.409  0.1388E+01  0.1483E+02
     10.478  0.1383E+01  0.1492E+02
     10.547  0.1263E+01  0.1501E+02
     10.617  0.1157E+01  0.1510E+02
     10.686  0.1050E+01  0.1517E+02
     10.756  0.9713E+00  0.1524E+02
     10.825  0.9249E+00  0.1531E+02
     10.895  0.8732E+00  0.1537E+02
     10.964  0.8663E+00  0.1543E+02
     11.033  0.1026E+01  0.1550E+02
     11.103  0.9433E+00  0.1557E+02
     11.172  0.7773E+00  0.1563E+02
     11.242  0.6342E+00  0.1568E+02
     11.311  0.4014E+00  0.1571E+02
     11.381  0.3786E+00  0.1574E+02
     11.450  0.3590E+00  0.1577E+02
     11.520  0.3376E+00  0.1579E+02
     11.589  0.3136E+00  0.1581E+02
     11.658  0.2914E+00  0.1583E+02
     11.728  0.2677E+00  0.1585E+02
     11.797  0.2510E+00  0.1587E+02
     11.867  0.2465E+00  0.1589E+02
     11.936  0.2259E+00  0.1591E+02
     12.006  0.1968E+00  0.1592E+02
     12.075  0.1704E+00  0.1593E+02
     12.144  0.1502E+00  0.1594E+02
     12.214  0.1336E+00  0.1595E+02
     12.283  0.1195E+00  0.1596E+02
     12.353  0.1099E+00  0.1597E+02
     12.422  0.9941E-01  0.1598E+02
     12.492  0.9648E-01  0.1598E+02
     12.561  0.9172E-01  0.1599E+02
     12.630  0.4890E-01  0.1600E+02
     12.700  0.2415E-01  0.1600E+02
     12.769  0.8037E-02  0.1600E+02
     12.839  0.5715E-03  0.1600E+02
     12.908  0.0000E+00  0.1600E+02
     12.978  0.0000E+00  0.1600E+02
     13.047  0.0000E+00  0.1600E+02
     13.116  0.0000E+00  0.1600E+02
     13.186  0.0000E+00  0.1600E+02
     13.255  0.0000E+00  0.1600E+02
     13.325  0.0000E+00  0.1600E+02
     13.394  0.0000E+00  0.1600E+02
     13.464  0.0000E+00  0.1600E+02
     13.533  0.0000E+00  0.1600E+02
     13.602  0.0000E+00  0.1600E+02
     13.672  0.0000E+00  0.1600E+02
     13.741  0.0000E+00  0.1600E+02
     13.811  0.0000E+00  0.1600E+02
