    2    2    1    1
  0.3025399E+02  0.4406657E-09  0.4406657E-09  0.4406657E-09  0.0000000E+00
  1.000000000000000E-004
  CAR 
 unknown system                          
      8    195      8
 
  0.0000000E+00  0.0000000E+00  0.0000000E+00  0.1714678E-03
    1       -6.071960   1.000000
    2        4.381982   1.000000
    3        4.381982   1.000000
    4        4.381982   1.000000
    5        5.666306   0.000000
    6        7.453446   0.000000
    7        7.453446   0.000000
    8        7.453446   0.000000
 
  0.5555556E-01  0.0000000E+00  0.0000000E+00  0.1371742E-02
    1       -6.044764   1.000000
    2        3.941470   1.000000
    3        4.342429   1.000000
    4        4.342429   1.000000
    5        5.973624   0.000000
    6        7.515056   0.000000
    7        7.515057   0.000000
    8        7.526419   0.000000
 
  0.1111111E+00  0.0000000E+00  0.0000000E+00  0.1371742E-02
    1       -5.964000   1.000000
    2        3.153090   1.000000
    3        4.236689   1.000000
    4        4.236689   1.000000
    5        6.256205   0.000000
    6        7.677610   0.000000
    7        7.677610   0.000000
    8        7.883797   0.000000
 
  0.1666667E+00  0.0000000E+00  0.0000000E+00  0.1371742E-02
    1       -5.832630   1.000000
    2        2.323286   1.000000
    3        4.093309   1.000000
    4        4.093309   1.000000
    5        6.240687   0.000000
    6        7.883778   0.000000
    7        7.883778   0.000000
    8        8.557356   0.000000
 
  0.2222222E+00  0.0000000E+00  0.0000000E+00  0.1371742E-02
    1       -5.656306   1.000000
    2        1.521939   1.000000
    3        3.940007   1.000000
    4        3.940007   1.000000
    5        6.101280   0.000000
    6        8.061768   0.000000
    7        8.061768   0.000000
    8        9.359418   0.000000
 
  0.2777778E+00  0.0000000E+00  0.0000000E+00  0.1371742E-02
    1       -5.445015   1.000000
    2        0.782538   1.000000
    3        3.796757   1.000000
    4        3.796757   1.000000
    5        5.942807   0.000000
    6        8.158278   0.000000
    7        8.158278   0.000000
    8       10.178368   0.000000
 
  0.3333333E+00  0.0000000E+00  0.0000000E+00  0.1371742E-02
    1       -5.215942   1.000000
    2        0.134180   1.000000
    3        3.676229   1.000000
    4        3.676229   1.000000
    5        5.803402   0.000000
    6        8.172183   0.000000
    7        8.172183   0.000000
    8       10.846706   0.000000
 
  0.3888889E+00  0.0000000E+00  0.0000000E+00  0.1371742E-02
    1       -4.997590   1.000000
    2       -0.387649   1.000000
    3        3.586027   1.000000
    4        3.586027   1.000000
    5        5.698047   0.000000
    6        8.142274   0.000000
    7        8.142274   0.000000
    8       11.006645   0.000000
 
  0.4444444E+00  0.0000000E+00  0.0000000E+00  0.1371742E-02
    1       -4.832898   1.000000
    2       -0.735866   1.000000
    3        3.530459   1.000000
    4        3.530459   1.000000
    5        5.633105   0.000000
    6        8.108506   0.000000
    7        8.108506   0.000000
    8       10.961679   0.000000
 
  0.5000000E+00  0.0000000E+00  0.0000000E+00  0.6858711E-03
    1       -4.770237   1.000000
    2       -0.859959   1.000000
    3        3.511713   1.000000
    4        3.511713   1.000000
    5        5.611217   0.000000
    6        8.094750   0.000000
    7        8.094750   0.000000
    8       10.936795   0.000000
 
  0.5555556E-01  0.5555556E-01  0.0000000E+00  0.1028807E-02
    1       -6.035671   1.000000
    2        3.930836   1.000000
    3        4.258039   1.000000
    4        4.258039   1.000000
    5        6.107717   0.000000
    6        7.340413   0.000000
    7        7.629704   0.000000
    8        7.629704   0.000000
 
  0.1111111E+00  0.5555556E-01  0.0000000E+00  0.4115226E-02
    1       -5.972679   1.000000
    2        3.326876   1.000000
    3        4.119494   1.000000
    4        4.186542   1.000000
    5        6.427168   0.000000
    6        7.323459   0.000000
    7        7.836975   0.000000
    8        7.911639   0.000000
 
  0.1666667E+00  0.5555556E-01  0.0000000E+00  0.4115226E-02
    1       -5.858017   1.000000
    2        2.548309   1.000000
    3        3.958053   1.000000
    4        4.078829   1.000000
    5        6.494012   0.000000
    6        7.482228   0.000000
    7        8.079274   0.000000
    8        8.443485   0.000000
 
  0.2222222E+00  0.5555556E-01  0.0000000E+00  0.4115226E-02
    1       -5.696296   1.000000
    2        1.758929   1.000000
    3        3.799430   1.000000
    4        3.926050   1.000000
    5        6.383872   0.000000
    6        7.710794   0.000000
    7        8.286499   0.000000
    8        9.090208   0.000000
 
  0.2777778E+00  0.5555556E-01  0.0000000E+00  0.4115226E-02
    1       -5.495857   1.000000
    2        1.011239   1.000000
    3        3.660899   1.000000
    4        3.758193   1.000000
    5        6.231390   0.000000
    6        7.892466   0.000000
    7        8.399896   0.000000
    8        9.713771   0.000000
 
  0.3333333E+00  0.5555556E-01  0.0000000E+00  0.4115226E-02
    1       -5.271068   1.000000
    2        0.339097   1.000000
    3        3.552966   1.000000
    4        3.598067   1.000000
    5        6.087756   0.000000
    6        7.980485   0.000000
    7        8.409152   0.000000
    8       10.288364   0.000000
 
  0.3888889E+00  0.5555556E-01  0.0000000E+00  0.4115226E-02
    1       -5.046089   1.000000
    2       -0.222802   1.000000
    3        3.460036   1.000000
    4        3.481523   1.000000
    5        5.972500   0.000000
    6        8.001205   0.000000
    7        8.352226   0.000000
    8       10.791004   0.000000
 
  0.4444444E+00  0.5555556E-01  0.0000000E+00  0.4115226E-02
    1       -4.859021   1.000000
    2       -0.630384   1.000000
    3        3.352901   1.000000
    4        3.449387   1.000000
    5        5.894164   0.000000
    6        8.003962   0.000000
    7        8.275481   0.000000
    8       11.027652   0.000000
 
  0.5000000E+00  0.5555556E-01  0.0000000E+00  0.4115226E-02
    1       -4.758419   1.000000
    2       -0.831739   1.000000
    3        3.282143   1.000000
    4        3.457235   1.000000
    5        5.856622   0.000000
    6        8.022251   0.000000
    7        8.209903   0.000000
    8       11.066104   0.000000
 
 -0.4444444E+00  0.5555556E-01  0.0000000E+00  0.4115226E-02
    1       -4.779602   1.000000
    2       -0.790162   1.000000
    3        3.251176   1.000000
    4        3.504047   1.000000
    5        5.861381   0.000000
    6        8.069610   0.000000
    7        8.169068   0.000000
    8       11.078813   0.000000
 
 -0.3888889E+00  0.5555556E-01  0.0000000E+00  0.4115226E-02
    1       -4.914520   1.000000
    2       -0.514077   1.000000
    3        3.261969   1.000000
    4        3.587224   1.000000
    5        5.908312   0.000000
    6        8.143086   0.000000
    7        8.151273   0.000000
    8       11.061343   0.000000
 
 -0.3333333E+00  0.5555556E-01  0.0000000E+00  0.4115226E-02
    1       -5.119403   1.000000
    2       -0.049259   1.000000
    3        3.315189   1.000000
    4        3.702400   1.000000
    5        5.995473   0.000000
    6        8.139067   0.000000
    7        8.222346   0.000000
    8       10.814274   0.000000
 
 -0.2777778E+00  0.5555556E-01  0.0000000E+00  0.4115226E-02
    1       -5.347800   1.000000
    2        0.553402   1.000000
    3        3.410068   1.000000
    4        3.842704   1.000000
    5        6.117853   0.000000
    6        8.098927   0.000000
    7        8.263748   0.000000
    8       10.234919   0.000000
 
 -0.2222222E+00  0.5555556E-01  0.0000000E+00  0.4115226E-02
    1       -5.566545   1.000000
    2        1.252923   1.000000
    3        3.544005   1.000000
    4        3.997471   1.000000
    5        6.263578   0.000000
    6        7.995037   0.000000
    7        8.200895   0.000000
    8        9.568614   0.000000
 
 -0.1666667E+00  0.5555556E-01  0.0000000E+00  0.4115226E-02
    1       -5.755239   1.000000
    2        2.014346   1.000000
    3        3.712121   1.000000
    4        4.150270   1.000000
    5        6.402715   0.000000
    6        7.826450   0.000000
    7        7.988211   0.000000
    8        8.919188   0.000000
 
 -0.1111111E+00  0.5555556E-01  0.0000000E+00  0.4115226E-02
    1       -5.901925   1.000000
    2        2.795001   1.000000
    3        3.907863   1.000000
    4        4.277148   1.000000
    5        6.452466   0.000000
    6        7.645255   0.000000
    7        7.691313   0.000000
    8        8.330226   0.000000
 
 -0.5555556E-01  0.5555556E-01  0.0000000E+00  0.2057613E-02
    1       -5.999659   1.000000
    2        3.506066   1.000000
    3        4.130454   1.000000
    4        4.348817   1.000000
    5        6.262117   0.000000
    6        7.513443   0.000000
    7        7.523880   0.000000
    8        7.852353   0.000000
 
  0.1111111E+00  0.1111111E+00  0.0000000E+00  0.1028807E-02
    1       -5.927665   1.000000
    2        3.160019   1.000000
    3        3.955993   1.000000
    4        3.955993   1.000000
    5        6.713359   0.000000
    6        7.174446   0.000000
    7        8.087316   0.000000
    8        8.087316   0.000000
 
  0.1666667E+00  0.1111111E+00  0.0000000E+00  0.4115226E-02
    1       -5.830489   1.000000
    2        2.603610   1.000000
    3        3.778527   1.000000
    4        3.816668   1.000000
    5        6.767709   0.000000
    6        7.270636   0.000000
    7        8.372909   0.000000
    8        8.478965   0.000000
 
  0.2222222E+00  0.1111111E+00  0.0000000E+00  0.4115226E-02
    1       -5.684926   1.000000
    2        1.907233   1.000000
    3        3.611607   1.000000
    4        3.660110   1.000000
    5        6.755102   0.000000
    6        7.405561   0.000000
    7        8.625926   0.000000
    8        8.898771   0.000000
 
  0.2777778E+00  0.1111111E+00  0.0000000E+00  0.4115226E-02
    1       -5.497945   1.000000
    2        1.199190   1.000000
    3        3.467295   1.000000
    4        3.471229   1.000000
    5        6.671756   0.000000
    6        7.618542   0.000000
    7        8.780360   0.000000
    8        9.155702   0.000000
 
  0.3333333E+00  0.1111111E+00  0.0000000E+00  0.4115226E-02
    1       -5.281612   1.000000
    2        0.535806   1.000000
    3        3.266223   1.000000
    4        3.367056   1.000000
    5        6.554300   0.000000
    6        7.805232   0.000000
    7        8.810300   0.000000
    8        9.436938   0.000000
 
  0.3888889E+00  0.1111111E+00  0.0000000E+00  0.4115226E-02
    1       -5.056298   1.000000
    2       -0.041543   1.000000
    3        3.080205   1.000000
    4        3.304436   1.000000
    5        6.444111   0.000000
    6        7.890229   0.000000
    7        8.747338   0.000000
    8        9.900204   0.000000
 
  0.4444444E+00  0.1111111E+00  0.0000000E+00  0.4115226E-02
    1       -4.854941   1.000000
    2       -0.488656   1.000000
    3        2.923770   1.000000
    4        3.285750   1.000000
    5        6.361513   0.000000
    6        7.917239   0.000000
    7        8.643431   0.000000
    8       10.496118   0.000000
 
  0.5000000E+00  0.1111111E+00  0.0000000E+00  0.4115226E-02
    1       -4.723139   1.000000
    2       -0.753675   1.000000
    3        2.805867   1.000000
    4        3.311133   1.000000
    5        6.315546   0.000000
    6        7.943988   0.000000
    7        8.537290   0.000000
    8       11.057735   0.000000
 
 -0.4444444E+00  0.1111111E+00  0.0000000E+00  0.4115226E-02
    1       -4.703299   1.000000
    2       -0.791444   1.000000
    3        2.732447   1.000000
    4        3.378793   1.000000
    5        6.309645   0.000000
    6        7.998492   0.000000
    7        8.448457   0.000000
    8       11.323984   0.000000
 
 -0.3888889E+00  0.1111111E+00  0.0000000E+00  0.4115226E-02
    1       -4.802820   1.000000
    2       -0.594427   1.000000
    3        2.707849   1.000000
    4        3.484937   1.000000
    5        6.343932   0.000000
    6        8.086518   0.000000
    7        8.379990   0.000000
    8       11.205429   0.000000
 
 -0.3333333E+00  0.1111111E+00  0.0000000E+00  0.4115226E-02
    1       -4.987198   1.000000
    2       -0.199964   1.000000
    3        2.735724   1.000000
    4        3.623400   1.000000
    5        6.415827   0.000000
    6        8.194882   0.000000
    7        8.318947   0.000000
    8       10.705202   0.000000
 
 -0.2777778E+00  0.1111111E+00  0.0000000E+00  0.4115226E-02
    1       -5.209013   1.000000
    2        0.337659   1.000000
    3        2.819934   1.000000
    4        3.784765   1.000000
    5        6.518930   0.000000
    6        8.236293   0.000000
    7        8.280367   0.000000
    8       10.079013   0.000000
 
 -0.2222222E+00  0.1111111E+00  0.0000000E+00  0.4115226E-02
    1       -5.430857   1.000000
    2        0.967159   1.000000
    3        2.966227   1.000000
    4        3.954864   1.000000
    5        6.638164   0.000000
    6        8.100510   0.000000
    7        8.244673   0.000000
    8        9.550971   0.000000
 
 -0.1666667E+00  0.1111111E+00  0.0000000E+00  0.4115226E-02
    1       -5.628848   1.000000
    2        1.636331   1.000000
    3        3.186015   1.000000
    4        4.112834   1.000000
    5        6.732985   0.000000
    6        7.915820   0.000000
    7        8.006377   0.000000
    8        9.191760   0.000000
 
 -0.1111111E+00  0.1111111E+00  0.0000000E+00  0.2057613E-02
    1       -5.788635   1.000000
    2        2.274890   1.000000
    3        3.500464   1.000000
    4        4.230351   1.000000
    5        6.696201   0.000000
    6        7.739740   0.000000
    7        7.746857   0.000000
    8        8.824694   0.000000
 
  0.1666667E+00  0.1666667E+00  0.0000000E+00  0.1028807E-02
    1       -5.750975   1.000000
    2        2.360596   1.000000
    3        3.588193   1.000000
    4        3.588194   1.000000
    5        6.582258   0.000000
    6        7.519345   0.000000
    7        8.710230   0.000000
    8        8.710230   0.000000
 
  0.2222222E+00  0.1666667E+00  0.0000000E+00  0.4115226E-02
    1       -5.622525   1.000000
    2        1.864701   1.000000
    3        3.404972   1.000000
    4        3.411660   1.000000
    5        6.521519   0.000000
    6        7.577281   0.000000
    7        8.995208   0.000000
    8        9.025741   0.000000
 
  0.2777778E+00  0.1666667E+00  0.0000000E+00  0.4115226E-02
    1       -5.450974   1.000000
    2        1.268740   1.000000
    3        3.186547   1.000000
    4        3.264847   1.000000
    5        6.585844   0.000000
    6        7.621066   0.000000
    7        9.013729   0.000000
    8        9.246605   0.000000
 
  0.3333333E+00  0.1666667E+00  0.0000000E+00  0.4115226E-02
    1       -5.246577   1.000000
    2        0.665575   1.000000
    3        2.940406   1.000000
    4        3.157423   1.000000
    5        6.622251   0.000000
    6        7.820328   0.000000
    7        8.960919   0.000000
    8        9.326014   0.000000
 
  0.3888889E+00  0.1666667E+00  0.0000000E+00  0.4115226E-02
    1       -5.026593   1.000000
    2        0.111686   1.000000
    3        2.699398   1.000000
    4        3.094837   1.000000
    5        6.592518   0.000000
    6        8.078200   0.000000
    7        9.081041   0.000000
    8        9.281363   0.000000
 
  0.4444444E+00  0.1666667E+00  0.0000000E+00  0.4115226E-02
    1       -4.819170   1.000000
    2       -0.343795   1.000000
    3        2.487066   1.000000
    4        3.079601   1.000000
    5        6.551534   0.000000
    6        8.185754   0.000000
    7        9.168702   0.000000
    8        9.539623   0.000000
 
  0.5000000E+00  0.1666667E+00  0.0000000E+00  0.4115226E-02
    1       -4.665248   1.000000
    2       -0.648224   1.000000
    3        2.317434   1.000000
    4        3.111927   1.000000
    5        6.535404   0.000000
    6        8.200733   0.000000
    7        9.036057   0.000000
    8       10.226212   0.000000
 
 -0.4444444E+00  0.1666667E+00  0.0000000E+00  0.4115226E-02
    1       -4.609186   1.000000
    2       -0.751629   1.000000
    3        2.199532   1.000000
    4        3.189945   1.000000
    5        6.556915   0.000000
    6        8.217589   0.000000
    7        8.909573   0.000000
    8       10.978300   0.000000
 
 -0.3888889E+00  0.1666667E+00  0.0000000E+00  0.4115226E-02
    1       -4.670922   1.000000
    2       -0.633239   1.000000
    3        2.140615   1.000000
    4        3.309531   1.000000
    5        6.617059   0.000000
    6        8.267220   0.000000
    7        8.795906   0.000000
    8       11.267282   0.000000
 
 -0.3333333E+00  0.1666667E+00  0.0000000E+00  0.4115226E-02
    1       -4.828363   1.000000
    2       -0.319868   1.000000
    3        2.148596   1.000000
    4        3.463741   1.000000
    5        6.709631   0.000000
    6        8.351693   0.000000
    7        8.683441   0.000000
    8       10.609742   0.000000
 
 -0.2777778E+00  0.1666667E+00  0.0000000E+00  0.4115226E-02
    1       -5.036860   1.000000
    2        0.131286   1.000000
    3        2.235017   1.000000
    4        3.641658   1.000000
    5        6.820633   0.000000
    6        8.442133   0.000000
    7        8.543103   0.000000
    8        9.907938   0.000000
 
 -0.2222222E+00  0.1666667E+00  0.0000000E+00  0.4115226E-02
    1       -5.256266   1.000000
    2        0.654045   1.000000
    3        2.419585   1.000000
    4        3.826658   1.000000
    5        6.919524   0.000000
    6        8.347153   0.000000
    7        8.424746   0.000000
    8        9.403389   0.000000
 
 -0.1666667E+00  0.1666667E+00  0.0000000E+00  0.2057613E-02
    1       -5.459186   1.000000
    2        1.176782   1.000000
    3        2.731866   1.000000
    4        3.994396   1.000000
    5        6.930145   0.000000
    6        8.114197   0.000000
    7        8.184507   0.000000
    8        9.256120   0.000000
 
  0.2222222E+00  0.2222222E+00  0.0000000E+00  0.1028807E-02
    1       -5.511468   1.000000
    2        1.581191   1.000000
    3        3.225383   1.000000
    4        3.225383   1.000000
    5        6.265595   0.000000
    6        7.550336   0.000000
    7        9.422835   0.000000
    8        9.422836   0.000000
 
  0.2777778E+00  0.2222222E+00  0.0000000E+00  0.4115226E-02
    1       -5.356737   1.000000
    2        1.142167   1.000000
    3        3.022739   1.000000
    4        3.069529   1.000000
    5        6.225073   0.000000
    6        7.433898   0.000000
    7        9.559121   0.000000
    8        9.739846   0.000000
 
  0.3333333E+00  0.2222222E+00  0.0000000E+00  0.4115226E-02
    1       -5.167190   1.000000
    2        0.648622   1.000000
    3        2.752295   1.000000
    4        2.954351   1.000000
    5        6.323962   0.000000
    6        7.453507   0.000000
    7        9.444603   0.000000
    8        9.905184   0.000000
 
  0.3888889E+00  0.2222222E+00  0.0000000E+00  0.4115226E-02
    1       -4.957673   1.000000
    2        0.166027   1.000000
    3        2.453589   1.000000
    4        2.885766   1.000000
    5        6.393507   0.000000
    6        7.747747   0.000000
    7        9.301365   0.000000
    8        9.909589   0.000000
 
  0.4444444E+00  0.2222222E+00  0.0000000E+00  0.4115226E-02
    1       -4.752336   1.000000
    2       -0.254187   1.000000
    3        2.172359   1.000000
    4        2.866657   1.000000
    5        6.406284   0.000000
    6        8.270248   0.000000
    7        9.207100   0.000000
    8        9.808928   0.000000
 
  0.5000000E+00  0.2222222E+00  0.0000000E+00  0.4115226E-02
    1       -4.586981   1.000000
    2       -0.560242   1.000000
    3        1.936769   1.000000
    4        2.897583   1.000000
    5        6.422555   0.000000
    6        8.741685   0.000000
    7        9.359944   0.000000
    8        9.663649   0.000000
 
 -0.4444444E+00  0.2222222E+00  0.0000000E+00  0.4115226E-02
    1       -4.503874   1.000000
    2       -0.701563   1.000000
    3        1.763322   1.000000
    4        2.976959   1.000000
    5        6.474315   0.000000
    6        8.832797   0.000000
    7        9.508587   0.000000
    8       10.032968   0.000000
 
 -0.3888889E+00  0.2222222E+00  0.0000000E+00  0.4115226E-02
    1       -4.530244   1.000000
    2       -0.650013   1.000000
    3        1.664628   1.000000
    4        3.100852   1.000000
    5        6.568794   0.000000
    6        8.843536   0.000000
    7        9.352840   0.000000
    8       10.853296   0.000000
 
 -0.3333333E+00  0.2222222E+00  0.0000000E+00  0.4115226E-02
    1       -4.656408   1.000000
    2       -0.423650   1.000000
    3        1.655588   1.000000
    4        3.262334   1.000000
    5        6.699350   0.000000
    6        8.878145   0.000000
    7        9.181090   0.000000
    8       10.542331   0.000000
 
 -0.2777778E+00  0.2222222E+00  0.0000000E+00  0.4115226E-02
    1       -4.844574   1.000000
    2       -0.082013   1.000000
    3        1.759046   1.000000
    4        3.450194   1.000000
    5        6.844817   0.000000
    6        8.932971   0.000000
    7        8.957379   0.000000
    8        9.779485   0.000000
 
 -0.2222222E+00  0.2222222E+00  0.0000000E+00  0.2057613E-02
    1       -5.054441   1.000000
    2        0.298266   1.000000
    3        2.006875   1.000000
    4        3.646962   1.000000
    5        6.955192   0.000000
    6        8.662667   0.000000
    7        8.815809   0.000000
    8        9.331384   0.000000
 
  0.2777778E+00  0.2777778E+00  0.0000000E+00  0.1028807E-02
    1       -5.219542   1.000000
    2        0.841733   1.000000
    3        2.903508   1.000000
    4        2.903508   1.000000
    5        5.988974   0.000000
    6        7.167657   0.000000
    7       10.184443   0.000000
    8       10.184445   0.000000
 
  0.3333333E+00  0.2777778E+00  0.0000000E+00  0.4115226E-02
    1       -5.047236   1.000000
    2        0.459054   1.000000
    3        2.699560   1.000000
    4        2.778036   1.000000
    5        5.982498   0.000000
    6        7.006242   0.000000
    7       10.291092   0.000000
    8       10.485465   0.000000
 
  0.3888889E+00  0.2777778E+00  0.0000000E+00  0.4115226E-02
    1       -4.853002   1.000000
    2        0.066870   1.000000
    3        2.396217   1.000000
    4        2.699746   1.000000
    5        6.099698   0.000000
    6        7.076986   0.000000
    7       10.168335   0.000000
    8       10.585933   0.000000
 
  0.4444444E+00  0.2777778E+00  0.0000000E+00  0.4115226E-02
    1       -4.657938   1.000000
    2       -0.284846   1.000000
    3        2.059264   1.000000
    4        2.672075   1.000000
    5        6.169931   0.000000
    6        7.477796   0.000000
    7       10.019222   0.000000
    8       10.526230   0.000000
 
  0.5000000E+00  0.2777778E+00  0.0000000E+00  0.4115226E-02
    1       -4.493152   1.000000
    2       -0.551706   1.000000
    3        1.749601   1.000000
    4        2.696029   1.000000
    5        6.208459   0.000000
    6        8.123796   0.000000
    7        9.889811   0.000000
    8       10.383419   0.000000
 
 -0.4444444E+00  0.2777778E+00  0.0000000E+00  0.4115226E-02
    1       -4.396350   1.000000
    2       -0.691457   1.000000
    3        1.505789   1.000000
    4        2.770471   1.000000
    5        6.272986   0.000000
    6        8.897883   0.000000
    7        9.809566   0.000000
    8       10.205694   0.000000
 
 -0.3888889E+00  0.2777778E+00  0.0000000E+00  0.4115226E-02
    1       -4.395877   1.000000
    2       -0.679813   1.000000
    3        1.355104   1.000000
    4        2.891902   1.000000
    5        6.382120   0.000000
    6        9.540311   0.000000
    7        9.987802   0.000000
    8       10.002440   0.000000
 
 -0.3333333E+00  0.2777778E+00  0.0000000E+00  0.4115226E-02
    1       -4.490909   1.000000
    2       -0.533968   1.000000
    3        1.325528   1.000000
    4        3.053867   1.000000
    5        6.533092   0.000000
    6        9.624374   0.000000
    7        9.745048   0.000000
    8       10.473710   0.000000
 
 -0.2777778E+00  0.2777778E+00  0.0000000E+00  0.2057613E-02
    1       -4.652628   1.000000
    2       -0.312918   1.000000
    3        1.451383   1.000000
    4        3.245642   1.000000
    5        6.705574   0.000000
    6        9.389447   0.000000
    7        9.577986   0.000000
    8        9.779402   0.000000
 
  0.3333333E+00  0.3333333E+00  0.0000000E+00  0.1028807E-02
    1       -4.893981   1.000000
    2        0.164275   1.000000
    3        2.641093   1.000000
    4        2.641094   1.000000
    5        5.785163   0.000000
    6        6.698349   0.000000
    7       10.971064   0.000000
    8       10.971066   0.000000
 
  0.3888889E+00  0.3333333E+00  0.0000000E+00  0.4115226E-02
    1       -4.719667   1.000000
    2       -0.153931   1.000000
    3        2.449445   1.000000
    4        2.551035   1.000000
    5        5.816901   0.000000
    6        6.572402   0.000000
    7       11.088535   0.000000
    8       11.243669   0.000000
 
  0.4444444E+00  0.3333333E+00  0.0000000E+00  0.4115226E-02
    1       -4.543424   1.000000
    2       -0.438960   1.000000
    3        2.135505   1.000000
    4        2.511977   1.000000
    5        5.937912   0.000000
    6        6.742542   0.000000
    7       10.975187   0.000000
    8       11.277424   0.000000
 
  0.5000000E+00  0.3333333E+00  0.0000000E+00  0.4115226E-02
    1       -4.392614   1.000000
    2       -0.650016   1.000000
    3        1.785966   1.000000
    4        2.525470   1.000000
    5        6.003997   0.000000
    6        7.260374   0.000000
    7       10.830446   0.000000
    8       11.159252   0.000000
 
 -0.4444444E+00  0.3333333E+00  0.0000000E+00  0.4115226E-02
    1       -4.299138   1.000000
    2       -0.756549   1.000000
    3        1.476928   1.000000
    4        2.590889   1.000000
    5        6.073721   0.000000
    6        7.991624   0.000000
    7       10.698402   0.000000
    8       10.959897   0.000000
 
 -0.3888889E+00  0.3333333E+00  0.0000000E+00  0.4115226E-02
    1       -4.287107   1.000000
    2       -0.749085   1.000000
    3        1.264335   1.000000
    4        2.705287   1.000000
    5        6.186387   0.000000
    6        8.844359   0.000000
    7       10.589337   0.000000
    8       10.683300   0.000000
 
 -0.3333333E+00  0.3333333E+00  0.0000000E+00  0.2057613E-02
    1       -4.358008   1.000000
    2       -0.655767   1.000000
    3        1.198759   1.000000
    4        2.862895   1.000000
    5        6.345147   0.000000
    6        9.744082   0.000000
    7       10.279064   0.000000
    8       10.420569   0.000000
 
  0.3888889E+00  0.3888889E+00  0.0000000E+00  0.1028807E-02
    1       -4.569682   1.000000
    2       -0.413897   1.000000
    3        2.448242   1.000000
    4        2.448242   1.000000
    5        5.668586   0.000000
    6        6.287128   0.000000
    7       11.759168   0.000000
    8       11.759169   0.000000
 
  0.4444444E+00  0.3888889E+00  0.0000000E+00  0.4115226E-02
    1       -4.421412   1.000000
    2       -0.645309   1.000000
    3        2.279639   1.000000
    4        2.396247   1.000000
    5        5.737286   0.000000
    6        6.226228   0.000000
    7       11.887161   0.000000
    8       11.985742   0.000000
 
  0.5000000E+00  0.3888889E+00  0.0000000E+00  0.4115226E-02
    1       -4.299283   1.000000
    2       -0.803615   1.000000
    3        1.977388   1.000000
    4        2.397202   1.000000
    5        5.843524   0.000000
    6        6.523980   0.000000
    7       11.779428   0.000000
    8       11.936834   0.000000
 
 -0.4444444E+00  0.3888889E+00  0.0000000E+00  0.4115226E-02
    1       -4.228801   1.000000
    2       -0.864247   1.000000
    3        1.647110   1.000000
    4        2.451031   1.000000
    5        5.916622   0.000000
    6        7.147106   0.000000
    7       11.613063   0.000000
    8       11.705874   0.000000
 
 -0.3888889E+00  0.3888889E+00  0.0000000E+00  0.2057613E-02
    1       -4.225636   1.000000
    2       -0.831615   1.000000
    3        1.382882   1.000000
    4        2.555404   1.000000
    5        6.026723   0.000000
    6        7.944790   0.000000
    7       11.289568   0.000000
    8       11.321538   0.000000
 
  0.4444444E+00  0.4444444E+00  0.0000000E+00  0.1028807E-02
    1       -4.310173   1.000000
    2       -0.826955   1.000000
    3        2.330616   1.000000
    4        2.330617   1.000000
    5        5.644861   0.000000
    6        5.981863   0.000000
    7       12.485186   0.000000
    8       12.485186   0.000000
 
  0.5000000E+00  0.4444444E+00  0.0000000E+00  0.4115226E-02
    1       -4.231402   1.000000
    2       -0.932838   1.000000
    3        2.193918   1.000000
    4        2.317907   1.000000
    5        5.733817   0.000000
    6        6.011313   0.000000
    7       12.561286   0.000000
    8       12.590511   0.000000
 
 -0.4444444E+00  0.4444444E+00  0.0000000E+00  0.2057613E-02
    1       -4.202785   1.000000
    2       -0.940817   1.000000
    3        1.924477   1.000000
    4        2.358612   1.000000
    5        5.813112   0.000000
    6        6.448230   0.000000
    7       12.293753   0.000000
    8       12.305534   0.000000
 
  0.5000000E+00  0.5000000E+00  0.0000000E+00  0.5144033E-03
    1       -4.206297   1.000000
    2       -0.982248   1.000000
    3        2.291111   1.000000
    4        2.291111   1.000000
    5        5.677466   0.000000
    6        5.837979   0.000000
    7       12.863956   0.000000
    8       12.863956   0.000000
 