Automatically generated mesh
     195
Reciprocal lattice
    0.00000000000000    0.00000000000000    0.00000000000000             1
    0.05555555555556    0.00000000000000    0.00000000000000             8
    0.11111111111111    0.00000000000000    0.00000000000000             8
    0.16666666666667    0.00000000000000    0.00000000000000             8
    0.22222222222222    0.00000000000000    0.00000000000000             8
    0.27777777777778    0.00000000000000    0.00000000000000             8
    0.33333333333333    0.00000000000000    0.00000000000000             8
    0.38888888888889    0.00000000000000    0.00000000000000             8
    0.44444444444444    0.00000000000000    0.00000000000000             8
    0.50000000000000    0.00000000000000    0.00000000000000             4
    0.05555555555556    0.05555555555556    0.00000000000000             6
    0.11111111111111    0.05555555555556    0.00000000000000            24
    0.16666666666667    0.05555555555556    0.00000000000000            24
    0.22222222222222    0.05555555555556    0.00000000000000            24
    0.27777777777778    0.05555555555556    0.00000000000000            24
    0.33333333333333    0.05555555555556    0.00000000000000            24
    0.38888888888889    0.05555555555556    0.00000000000000            24
    0.44444444444444    0.05555555555556    0.00000000000000            24
    0.50000000000000    0.05555555555556    0.00000000000000            24
   -0.44444444444444    0.05555555555556    0.00000000000000            24
   -0.38888888888889    0.05555555555556    0.00000000000000            24
   -0.33333333333333    0.05555555555556    0.00000000000000            24
   -0.27777777777778    0.05555555555556    0.00000000000000            24
   -0.22222222222222    0.05555555555556    0.00000000000000            24
   -0.16666666666667    0.05555555555556    0.00000000000000            24
   -0.11111111111111    0.05555555555556    0.00000000000000            24
   -0.05555555555556    0.05555555555556    0.00000000000000            12
    0.11111111111111    0.11111111111111    0.00000000000000             6
    0.16666666666667    0.11111111111111    0.00000000000000            24
    0.22222222222222    0.11111111111111    0.00000000000000            24
    0.27777777777778    0.11111111111111    0.00000000000000            24
    0.33333333333333    0.11111111111111    0.00000000000000            24
    0.38888888888889    0.11111111111111    0.00000000000000            24
    0.44444444444444    0.11111111111111    0.00000000000000            24
    0.50000000000000    0.11111111111111    0.00000000000000            24
   -0.44444444444444    0.11111111111111    0.00000000000000            24
   -0.38888888888889    0.11111111111111    0.00000000000000            24
   -0.33333333333333    0.11111111111111    0.00000000000000            24
   -0.27777777777778    0.11111111111111    0.00000000000000            24
   -0.22222222222222    0.11111111111111    0.00000000000000            24
   -0.16666666666667    0.11111111111111    0.00000000000000            24
   -0.11111111111111    0.11111111111111    0.00000000000000            12
    0.16666666666667    0.16666666666667    0.00000000000000             6
    0.22222222222222    0.16666666666667    0.00000000000000            24
    0.27777777777778    0.16666666666667    0.00000000000000            24
    0.33333333333333    0.16666666666667    0.00000000000000            24
    0.38888888888889    0.16666666666667    0.00000000000000            24
    0.44444444444444    0.16666666666667    0.00000000000000            24
    0.50000000000000    0.16666666666667    0.00000000000000            24
   -0.44444444444444    0.16666666666667    0.00000000000000            24
   -0.38888888888889    0.16666666666667    0.00000000000000            24
   -0.33333333333333    0.16666666666667    0.00000000000000            24
   -0.27777777777778    0.16666666666667    0.00000000000000            24
   -0.22222222222222    0.16666666666667    0.00000000000000            24
   -0.16666666666667    0.16666666666667    0.00000000000000            12
    0.22222222222222    0.22222222222222    0.00000000000000             6
    0.27777777777778    0.22222222222222    0.00000000000000            24
    0.33333333333333    0.22222222222222    0.00000000000000            24
    0.38888888888889    0.22222222222222    0.00000000000000            24
    0.44444444444444    0.22222222222222    0.00000000000000            24
    0.50000000000000    0.22222222222222    0.00000000000000            24
   -0.44444444444444    0.22222222222222    0.00000000000000            24
   -0.38888888888889    0.22222222222222    0.00000000000000            24
   -0.33333333333333    0.22222222222222    0.00000000000000            24
   -0.27777777777778    0.22222222222222    0.00000000000000            24
   -0.22222222222222    0.22222222222222    0.00000000000000            12
    0.27777777777778    0.27777777777778    0.00000000000000             6
    0.33333333333333    0.27777777777778    0.00000000000000            24
    0.38888888888889    0.27777777777778    0.00000000000000            24
    0.44444444444444    0.27777777777778    0.00000000000000            24
    0.50000000000000    0.27777777777778    0.00000000000000            24
   -0.44444444444444    0.27777777777778    0.00000000000000            24
   -0.38888888888889    0.27777777777778    0.00000000000000            24
   -0.33333333333333    0.27777777777778    0.00000000000000            24
   -0.27777777777778    0.27777777777778    0.00000000000000            12
    0.33333333333333    0.33333333333333    0.00000000000000             6
    0.38888888888889    0.33333333333333    0.00000000000000            24
    0.44444444444444    0.33333333333333    0.00000000000000            24
    0.50000000000000    0.33333333333333    0.00000000000000            24
   -0.44444444444444    0.33333333333333    0.00000000000000            24
   -0.38888888888889    0.33333333333333    0.00000000000000            24
   -0.33333333333333    0.33333333333333    0.00000000000000            12
    0.38888888888889    0.38888888888889    0.00000000000000             6
    0.44444444444444    0.38888888888889    0.00000000000000            24
    0.50000000000000    0.38888888888889    0.00000000000000            24
   -0.44444444444444    0.38888888888889    0.00000000000000            24
   -0.38888888888889    0.38888888888889    0.00000000000000            12
    0.44444444444444    0.44444444444444    0.00000000000000             6
    0.50000000000000    0.44444444444444    0.00000000000000            24
   -0.44444444444444    0.44444444444444    0.00000000000000            12
    0.50000000000000    0.50000000000000    0.00000000000000             3
    0.16666666666667    0.11111111111111    0.05555555555556            24
    0.22222222222222    0.11111111111111    0.05555555555556            48
    0.27777777777778    0.11111111111111    0.05555555555556            48
    0.33333333333333    0.11111111111111    0.05555555555556            48
    0.38888888888889    0.11111111111111    0.05555555555556            48
    0.44444444444444    0.11111111111111    0.05555555555556            48
    0.50000000000000    0.11111111111111    0.05555555555556            48
   -0.44444444444444    0.11111111111111    0.05555555555556            24
    0.22222222222222    0.16666666666667    0.05555555555556            24
    0.27777777777778    0.16666666666667    0.05555555555556            48
    0.33333333333333    0.16666666666667    0.05555555555556            48
    0.38888888888889    0.16666666666667    0.05555555555556            48
    0.44444444444444    0.16666666666667    0.05555555555556            48
    0.50000000000000    0.16666666666667    0.05555555555556            48
   -0.44444444444444    0.16666666666667    0.05555555555556            48
   -0.38888888888889    0.16666666666667    0.05555555555556            48
   -0.33333333333333    0.16666666666667    0.05555555555556            48
   -0.27777777777778    0.16666666666667    0.05555555555556            48
   -0.22222222222222    0.16666666666667    0.05555555555556            48
   -0.16666666666667    0.16666666666667    0.05555555555556            48
   -0.11111111111111    0.16666666666667    0.05555555555556            24
    0.27777777777778    0.22222222222222    0.05555555555556            24
    0.33333333333333    0.22222222222222    0.05555555555556            48
    0.38888888888889    0.22222222222222    0.05555555555556            48
    0.44444444444444    0.22222222222222    0.05555555555556            48
    0.50000000000000    0.22222222222222    0.05555555555556            48
   -0.44444444444444    0.22222222222222    0.05555555555556            48
   -0.38888888888889    0.22222222222222    0.05555555555556            48
   -0.33333333333333    0.22222222222222    0.05555555555556            48
   -0.27777777777778    0.22222222222222    0.05555555555556            48
   -0.22222222222222    0.22222222222222    0.05555555555556            48
   -0.16666666666667    0.22222222222222    0.05555555555556            24
    0.33333333333333    0.27777777777778    0.05555555555556            24
    0.38888888888889    0.27777777777778    0.05555555555556            48
    0.44444444444444    0.27777777777778    0.05555555555556            48
    0.50000000000000    0.27777777777778    0.05555555555556            48
   -0.44444444444444    0.27777777777778    0.05555555555556            48
   -0.38888888888889    0.27777777777778    0.05555555555556            48
   -0.33333333333333    0.27777777777778    0.05555555555556            48
   -0.27777777777778    0.27777777777778    0.05555555555556            48
   -0.22222222222222    0.27777777777778    0.05555555555556            24
    0.38888888888889    0.33333333333333    0.05555555555556            24
    0.44444444444444    0.33333333333333    0.05555555555556            48
    0.50000000000000    0.33333333333333    0.05555555555556            48
   -0.44444444444444    0.33333333333333    0.05555555555556            48
   -0.38888888888889    0.33333333333333    0.05555555555556            48
   -0.33333333333333    0.33333333333333    0.05555555555556            48
   -0.27777777777778    0.33333333333333    0.05555555555556            24
    0.44444444444444    0.38888888888889    0.05555555555556            24
    0.50000000000000    0.38888888888889    0.05555555555556            48
   -0.44444444444444    0.38888888888889    0.05555555555556            48
   -0.38888888888889    0.38888888888889    0.05555555555556            48
   -0.33333333333333    0.38888888888889    0.05555555555556            24
    0.50000000000000    0.44444444444444    0.05555555555556            24
   -0.44444444444444    0.44444444444444    0.05555555555556            48
   -0.38888888888889    0.44444444444444    0.05555555555556            24
   -0.44444444444444    0.50000000000000    0.05555555555556            12
    0.33333333333333    0.22222222222222    0.11111111111111            24
    0.38888888888889    0.22222222222222    0.11111111111111            48
    0.44444444444444    0.22222222222222    0.11111111111111            48
    0.50000000000000    0.22222222222222    0.11111111111111            48
   -0.44444444444444    0.22222222222222    0.11111111111111            48
   -0.38888888888889    0.22222222222222    0.11111111111111            24
    0.38888888888889    0.27777777777778    0.11111111111111            24
    0.44444444444444    0.27777777777778    0.11111111111111            48
    0.50000000000000    0.27777777777778    0.11111111111111            48
   -0.44444444444444    0.27777777777778    0.11111111111111            48
   -0.38888888888889    0.27777777777778    0.11111111111111            48
   -0.33333333333333    0.27777777777778    0.11111111111111            48
   -0.27777777777778    0.27777777777778    0.11111111111111            48
   -0.22222222222222    0.27777777777778    0.11111111111111            48
   -0.16666666666667    0.27777777777778    0.11111111111111            24
    0.44444444444444    0.33333333333333    0.11111111111111            24
    0.50000000000000    0.33333333333333    0.11111111111111            48
   -0.44444444444444    0.33333333333333    0.11111111111111            48
   -0.38888888888889    0.33333333333333    0.11111111111111            48
   -0.33333333333333    0.33333333333333    0.11111111111111            48
   -0.27777777777778    0.33333333333333    0.11111111111111            48
   -0.22222222222222    0.33333333333333    0.11111111111111            24
    0.50000000000000    0.38888888888889    0.11111111111111            24
   -0.44444444444444    0.38888888888889    0.11111111111111            48
   -0.38888888888889    0.38888888888889    0.11111111111111            48
   -0.33333333333333    0.38888888888889    0.11111111111111            48
   -0.27777777777778    0.38888888888889    0.11111111111111            24
   -0.44444444444444    0.44444444444444    0.11111111111111            24
   -0.38888888888889    0.44444444444444    0.11111111111111            48
   -0.33333333333333    0.44444444444444    0.11111111111111            24
   -0.38888888888889    0.50000000000000    0.11111111111111            12
    0.50000000000000    0.33333333333333    0.16666666666667            24
   -0.44444444444444    0.33333333333333    0.16666666666667            48
   -0.38888888888889    0.33333333333333    0.16666666666667            48
   -0.33333333333333    0.33333333333333    0.16666666666667            24
   -0.44444444444444    0.38888888888889    0.16666666666667            24
   -0.38888888888889    0.38888888888889    0.16666666666667            48
   -0.33333333333333    0.38888888888889    0.16666666666667            48
   -0.27777777777778    0.38888888888889    0.16666666666667            48
   -0.22222222222222    0.38888888888889    0.16666666666667            24
   -0.38888888888889    0.44444444444444    0.16666666666667            24
   -0.33333333333333    0.44444444444444    0.16666666666667            48
   -0.27777777777778    0.44444444444444    0.16666666666667            24
   -0.33333333333333    0.50000000000000    0.16666666666667            12
   -0.33333333333333    0.44444444444444    0.22222222222222            24
   -0.27777777777778    0.44444444444444    0.22222222222222            24
   -0.27777777777778    0.50000000000000    0.22222222222222            12
Tetrahedra
       806    0.00002857796068
        24         1         2         2        11
        48         2        11        12        27
        48         2         3        12        27
        24         2         2        11        27
        48         3        12        13        26
        48         3         4        13        26
        48         3        12        26        27
        48         4        13        14        25
        48         4         5        14        25
        48         4        13        25        26
        48         5        14        15        24
        48         5         6        15        24
        48         5        14        24        25
        48         6        15        16        23
        48         6         7        16        23
        48         6        15        23        24
        48         7        16        17        22
        48         7         8        17        22
        48         7        16        22        23
        48         8        17        18        21
        48         8         9        18        21
        48         8        17        21        22
        48         9        18        19        20
        48         9        10        19        20
        48         9        18        20        21
        48        10        19        19        20
        24        11        12        12        28
        24        11        12        12        27
        48        12        28        29        92
        48        12        13        29        92
        48        12        13        26        92
        24        12        12        28        92
        24        12        12        27        92
        48        12        26        27        92
        48        13        29        30        93
        48        13        14        30        93
        48        13        14        25        93
        48        13        29        92        93
        48        13        26        92        93
        48        13        25        26        93
        48        14        30        31        94
        48        14        15        31        94
        48        14        15        24        94
        48        14        30        93        94
        48        14        25        93        94
        48        14        24        25        94
        48        15        31        32        95
        48        15        16        32        95
        48        15        16        23        95
        48        15        31        94        95
        48        15        24        94        95
        48        15        23        24        95
        48        16        32        33        96
        48        16        17        33        96
        48        16        17        22        96
        48        16        32        95        96
        48        16        23        95        96
        48        16        22        23        96
        48        17        33        34        97
        48        17        18        34        97
        48        17        18        21        97
        48        17        33        96        97
        48        17        22        96        97
        48        17        21        22        97
        48        18        34        35        98
        48        18        19        35        98
        48        18        19        20        98
        48        18        34        97        98
        48        18        21        97        98
        48        18        20        21        98
        48        19        35        36        99
        48        19        20        36        99
        48        19        19        20        99
        48        19        35        98        99
        48        19        20        98        99
        48        20        36        37        98
        48        20        21        37        98
        48        20        36        98        99
        48        21        37        38        97
        48        21        22        38        97
        48        21        37        97        98
        48        22        38        39        96
        48        22        23        39        96
        48        22        38        96        97
        48        23        39        40        95
        48        23        24        40        95
        48        23        39        95        96
        48        24        40        41        94
        48        24        25        41        94
        48        24        40        94        95
        48        25        41        42        93
        48        25        26        42        93
        48        25        41        93        94
        24        26        26        42        92
        24        26        26        27        92
        48        26        42        92        93
        24        28        29        29        43
        24        28        29        29        92
        48        29        43        44       100
        48        29        30        44       100
        48        29        30        93       100
        24        29        29        43       100
        24        29        29        92       100
        48        29        92        93       100
        48        30        44        45       101
        48        30        31        45       101
        48        30        31        94       101
        48        30        44       100       101
        48        30        93       100       101
        48        30        93        94       101
        48        31        45        46       102
        48        31        32        46       102
        48        31        32        95       102
        48        31        45       101       102
        48        31        94       101       102
        48        31        94        95       102
        48        32        46        47       103
        48        32        33        47       103
        48        32        33        96       103
        48        32        46       102       103
        48        32        95       102       103
        48        32        95        96       103
        48        33        47        48       104
        48        33        34        48       104
        48        33        34        97       104
        48        33        47       103       104
        48        33        96       103       104
        48        33        96        97       104
        48        34        48        49       105
        48        34        35        49       105
        48        34        35        98       105
        48        34        48       104       105
        48        34        97       104       105
        48        34        97        98       105
        48        35        49        50       106
        48        35        36        50       106
        48        35        36        99       106
        48        35        49       105       106
        48        35        98       105       106
        48        35        98        99       106
        48        36        50        51       107
        48        36        37        51       107
        48        36        37        98       107
        48        36        50       106       107
        48        36        99       106       107
        48        36        98        99       107
        48        37        51        52       108
        48        37        38        52       108
        48        37        38        97       108
        48        37        51       107       108
        48        37        98       107       108
        48        37        97        98       108
        48        38        52        53       109
        48        38        39        53       109
        48        38        39        96       109
        48        38        52       108       109
        48        38        97       108       109
        48        38        96        97       109
        48        39        53        54       110
        48        39        40        54       110
        48        39        40        95       110
        48        39        53       109       110
        48        39        96       109       110
        48        39        95        96       110
        48        40        54        55       111
        48        40        41        55       111
        48        40        41        94       111
        48        40        54       110       111
        48        40        95       110       111
        48        40        94        95       111
        24        41        41        55       112
        24        41        41        42       112
        48        41        42        93       112
        48        41        55       111       112
        48        41        94       111       112
        48        41        93        94       112
        24        42        93        93       112
        24        42        92        93        93
        24        43        44        44        56
        24        43        44        44       100
        48        44        56        57       113
        48        44        45        57       113
        48        44        45       101       113
        24        44        44        56       113
        24        44        44       100       113
        48        44       100       101       113
        48        45        57        58       114
        48        45        46        58       114
        48        45        46       102       114
        48        45        57       113       114
        48        45       101       113       114
        48        45       101       102       114
        48        46        58        59       115
        48        46        47        59       115
        48        46        47       103       115
        48        46        58       114       115
        48        46       102       114       115
        48        46       102       103       115
        48        47        59        60       116
        48        47        48        60       116
        48        47        48       104       116
        48        47        59       115       116
        48        47       103       115       116
        48        47       103       104       116
        48        48        60        61       117
        48        48        49        61       117
        48        48        49       105       117
        48        48        60       116       117
        48        48       104       116       117
        48        48       104       105       117
        48        49        61        62       118
        48        49        50        62       118
        48        49        50       106       118
        48        49        61       117       118
        48        49       105       117       118
        48        49       105       106       118
        48        50        62        63       119
        48        50        51        63       119
        48        50        51       107       119
        48        50        62       118       119
        48        50       106       118       119
        48        50       106       107       119
        48        51        63        64       120
        48        51        52        64       120
        48        51        52       108       120
        48        51        63       119       120
        48        51       107       119       120
        48        51       107       108       120
        48        52        64        65       121
        48        52        53        65       121
        48        52        53       109       121
        48        52        64       120       121
        48        52       108       120       121
        48        52       108       109       121
        48        53        65        66       122
        48        53        54        66       122
        48        53        54       110       122
        48        53        65       121       122
        48        53       109       121       122
        48        53       109       110       122
        24        54        54        66       123
        24        54        54        55       123
        48        54        55       111       123
        48        54        66       122       123
        48        54       110       122       123
        48        54       110       111       123
        24        55       111       111       123
        24        55       111       111       112
        24        56        57        57        67
        24        56        57        57       113
        48        57        67        68       124
        48        57        58        68       124
        48        57        58       114       124
        24        57        57        67       124
        24        57        57       113       124
        48        57       113       114       124
        48        58        68        69       125
        48        58        59        69       125
        48        58        59       115       125
        48        58        68       124       125
        48        58       114       124       125
        48        58       114       115       125
        48        59        69        70       126
        48        59        60        70       126
        48        59        60       116       126
        48        59        69       125       126
        48        59       115       125       126
        48        59       115       116       126
        48        60        70        71       127
        48        60        61        71       127
        48        60        61       117       127
        48        60        70       126       127
        48        60       116       126       127
        48        60       116       117       127
        48        61        71        72       128
        48        61        62        72       128
        48        61        62       118       128
        48        61        71       127       128
        48        61       117       127       128
        48        61       117       118       128
        48        62        72        73       129
        48        62        63        73       129
        48        62        63       119       129
        48        62        72       128       129
        48        62       118       128       129
        48        62       118       119       129
        48        63        73        74       130
        48        63        64        74       130
        48        63        64       120       130
        48        63        73       129       130
        48        63       119       129       130
        48        63       119       120       130
        48        64        74        75       131
        48        64        65        75       131
        48        64        65       121       131
        48        64        74       130       131
        48        64       120       130       131
        48        64       120       121       131
        24        65        65        75       132