       N       E                     dE             d eps       ncg     rms          rms(c)
DAV:   1     0.134096268277E+02    0.13410E+02   -0.28122E+03  3120   0.733E+02
DAV:   2    -0.780393936613E+01   -0.21214E+02   -0.20851E+02  4424   0.829E+01
DAV:   3    -0.827244126717E+01   -0.46850E+00   -0.46850E+00  3976   0.141E+01
DAV:   4    -0.827539249071E+01   -0.29512E-02   -0.29512E-02  4784   0.143E+00
DAV:   5    -0.827540266448E+01   -0.10174E-04   -0.10174E-04  4128   0.691E-02    0.206E+00
RMM:   6    -0.821566066007E+01    0.59742E-01   -0.52490E-02  3122   0.129E+00    0.124E+00
RMM:   7    -0.819772861999E+01    0.17932E-01   -0.63379E-02  3189   0.153E+00    0.220E-01
RMM:   8    -0.819839506562E+01   -0.66645E-03   -0.36762E-03  3243   0.434E-01    0.501E-02
RMM:   9    -0.819877944029E+01   -0.38437E-03   -0.62153E-04  3305   0.173E-01    0.152E-02
RMM:  10    -0.819878514813E+01   -0.57078E-05   -0.52037E-05  3657   0.531E-02    0.456E-03
RMM:  11    -0.819878824834E+01   -0.31002E-05   -0.10295E-05  3518   0.246E-02    0.197E-03
RMM:  12    -0.819878866147E+01   -0.41313E-06   -0.53409E-07  2618   0.671E-03
   1 F= -.81987887E+01 E0= -.81987887E+01  d E =0.000000E+00
