 ----------------------------------------------------
    OOO  PPPP  EEEEE N   N M   M PPPP
   O   O P   P E     NN  N MM MM P   P
   O   O PPPP  EEEEE N N N M M M PPPP   -- VERSION
   O   O P     E     N  NN M   M P
    OOO  P     EEEEE N   N M   M P
 ----------------------------------------------------
 running  128 mpi-ranks, with    1 threads/rank
 distrk:  each k-point on   32 cores,    4 groups
 distr:  one band on   16 cores,    2 groups
 vasp.6.3.2 27Jun22 (build Jun 30 2023 15:13:53) complex                         
 POSCAR found type information on POSCAR NaCl
 POSCAR found :  2 types and       2 ions
 Reading from existing POTCAR
 scaLAPACK will be used
 Reading from existing POTCAR
 LDA part: xc-table for Pade appr. of Perdew
 -----------------------------------------------------------------------------
|                                                                             |
|           W    W    AA    RRRRR   N    N  II  N    N   GGGG   !!!           |
|           W    W   A  A   R    R  NN   N  II  NN   N  G    G  !!!           |
|           W    W  A    A  R    R  N N  N  II  N N  N  G       !!!           |
|           W WW W  AAAAAA  RRRRR   N  N N  II  N  N N  G  GGG   !            |
|           WW  WW  A    A  R   R   N   NN  II  N   NN  G    G                |
|           W    W  A    A  R    R  N    N  II  N    N   GGGG   !!!           |
|                                                                             |
|     The requested file  could not be found or opened for reading            |
|     k-point information. Automatic k-point generation is used as a          |
|     fallback, which may lead to unwanted results.                           |
|                                                                             |
 -----------------------------------------------------------------------------

 INCAR ok, starting setup
 POSCAR ok, starting setup
 FFT: planning ... GRIDC
 FFT: planning ... GRID_SOFT
 FFT: planning ... GRID
 WAVECAR not read
 entering main loop
       N       E                     dE             d eps       ncg     rms          rms(c)
DAV:   1     0.898093893714E+02    0.89809E+02   -0.66924E+03  2736   0.869E+02
DAV:   2    -0.364209139198E+00   -0.90174E+02   -0.82672E+02  3080   0.254E+02
DAV:   3    -0.689506211983E+01   -0.65309E+01   -0.64941E+01  3536   0.585E+01
DAV:   4    -0.697670402645E+01   -0.81642E-01   -0.81622E-01  3136   0.704E+00
DAV:   5    -0.697829370178E+01   -0.15897E-02   -0.15896E-02  3560   0.999E-01    0.215E+00
DAV:   6    -0.678273483376E+01    0.19556E+00   -0.27456E-01  3488   0.287E+00    0.159E+00
DAV:   7    -0.677133612711E+01    0.11399E-01   -0.73816E-02  3600   0.144E+00    0.110E+00
DAV:   8    -0.677719646372E+01   -0.58603E-02   -0.10288E-02  2944   0.759E-01    0.332E-01
DAV:   9    -0.677702787433E+01    0.16859E-03   -0.24976E-04  3432   0.104E-01    0.175E-01
DAV:  10    -0.677713679460E+01   -0.10892E-03   -0.29601E-04  2984   0.117E-01    0.645E-02
DAV:  11    -0.677712846807E+01    0.83265E-05   -0.12980E-05  3712   0.315E-02    0.182E-02
DAV:  12    -0.677712831192E+01    0.15615E-06   -0.24380E-06  3008   0.127E-02    0.186E-03
DAV:  13    -0.677712896257E+01   -0.65065E-06   -0.36627E-07  3024   0.359E-03    0.325E-03
DAV:  14    -0.677712878770E+01    0.17487E-06   -0.24363E-08  2648   0.846E-04    0.295E-04
DAV:  15    -0.677712876649E+01    0.21217E-07   -0.27491E-09  1600   0.375E-04
   1 F= -.67771288E+01 E0= -.67771288E+01  d E =0.000000E+00
 PROFILE, used timers:     367
