 ----------------------------------------------------
    OOO  PPPP  EEEEE N   N M   M PPPP
   O   O P   P E     NN  N MM MM P   P
   O   O PPPP  EEEEE N N N M M M PPPP   -- VERSION
   O   O P     E     N  NN M   M P
    OOO  P     EEEEE N   N M   M P
 ----------------------------------------------------
 running  128 mpi-ranks, with    1 threads/rank
 distrk:  each k-point on   32 cores,    4 groups
 distr:  one band on   16 cores,    2 groups
 vasp.6.3.2 27Jun22 (build Jun 30 2023 15:13:53) complex                         
 POSCAR found type information on POSCAR CuO 
 POSCAR found :  2 types and       2 ions
 Reading from existing POTCAR
 scaLAPACK will be used
 Reading from existing POTCAR
 LDA part: xc-table for Pade appr. of Perdew
 -----------------------------------------------------------------------------
|                                                                             |
|           W    W    AA    RRRRR   N    N  II  N    N   GGGG   !!!           |
|           W    W   A  A   R    R  NN   N  II  NN   N  G    G  !!!           |
|           W    W  A    A  R    R  N N  N  II  N N  N  G       !!!           |
|           W WW W  AAAAAA  RRRRR   N  N N  II  N  N N  G  GGG   !            |
|           WW  WW  A    A  R   R   N   NN  II  N   NN  G    G                |
|           W    W  A    A  R    R  N    N  II  N    N   GGGG   !!!           |
|                                                                             |
|     The requested file  could not be found or opened for reading            |
|     k-point information. Automatic k-point generation is used as a          |
|     fallback, which may lead to unwanted results.                           |
|                                                                             |
 -----------------------------------------------------------------------------

 INCAR ok, starting setup
 POSCAR ok, starting setup
 FFT: planning ... GRIDC
 FFT: planning ... GRID_SOFT
 FFT: planning ... GRID
 WAVECAR not read
 entering main loop
       N       E                     dE             d eps       ncg     rms          rms(c)
DAV:   1     0.965596250971E+02    0.96560E+02   -0.92450E+03 13712   0.178E+03
DAV:   2    -0.245574525548E+00   -0.96805E+02   -0.87914E+02 13344   0.293E+02
DAV:   3    -0.536712207053E+01   -0.51215E+01   -0.49852E+01 15272   0.676E+01
DAV:   4    -0.541572793228E+01   -0.48606E-01   -0.48592E-01 14424   0.646E+00
DAV:   5    -0.541633498789E+01   -0.60706E-03   -0.60705E-03 16120   0.750E-01    0.269E+01
DAV:   6    -0.977012808510E+01   -0.43538E+01   -0.20333E+01 16432   0.131E+02    0.117E+01
DAV:   7    -0.811895266161E+01    0.16512E+01   -0.55755E+00 15608   0.903E+01    0.170E+00
DAV:   8    -0.816281633611E+01   -0.43864E-01   -0.38595E-01 14608   0.676E+00    0.709E-01
DAV:   9    -0.816186628714E+01    0.95005E-03   -0.89606E-03 18312   0.324E+00    0.359E-01
DAV:  10    -0.816439807499E+01   -0.25318E-02   -0.19438E-03 17944   0.834E-01    0.211E-01
DAV:  11    -0.816537674920E+01   -0.97867E-03   -0.30349E-04 18920   0.648E-01    0.220E-01
DAV:  12    -0.816585806652E+01   -0.48132E-03   -0.67584E-05 19400   0.298E-01    0.229E-01
DAV:  13    -0.816475258037E+01    0.11055E-02   -0.44704E-04 17256   0.976E-01    0.223E-01
DAV:  14    -0.816853327256E+01   -0.37807E-02   -0.21647E-03 17392   0.216E+00    0.413E-01
DAV:  15    -0.816333208411E+01    0.52012E-02   -0.40941E-03 17368   0.311E+00    0.206E-01
DAV:  16    -0.816169035522E+01    0.16417E-02   -0.13032E-03 19512   0.138E+00    0.190E-01
DAV:  17    -0.816161161797E+01    0.78737E-04   -0.10150E-04 18904   0.167E-01    0.192E-01
DAV:  18    -0.816150567174E+01    0.10595E-03   -0.50265E-06 19480   0.856E-02    0.199E-01
DAV:  19    -0.816192406985E+01   -0.41840E-03   -0.62236E-05 17880   0.339E-01    0.191E-01
DAV:  20    -0.816234336960E+01   -0.41930E-03   -0.72135E-05 19112   0.348E-01    0.190E-01
DAV:  21    -0.817163097760E+01   -0.92876E-02   -0.12682E-02 17840   0.499E+00    0.511E-01
DAV:  22    -0.816451156028E+01    0.71194E-02   -0.52036E-03 17880   0.332E+00    0.237E-01
DAV:  23    -0.817415734085E+01   -0.96458E-02   -0.71849E-03 17592   0.386E+00    0.573E-01
DAV:  24    -0.816568481858E+01    0.84725E-02   -0.44811E-03 17520   0.313E+00    0.259E-01
DAV:  25    -0.817000505818E+01   -0.43202E-02   -0.13933E-03 17384   0.170E+00    0.487E-01
DAV:  26    -0.816881354997E+01    0.11915E-02   -0.11586E-04 18128   0.426E-01    0.460E-01
DAV:  27    -0.818235563118E+01   -0.13542E-01   -0.72095E-03 17944   0.384E+00    0.814E-01
DAV:  28    -0.816977586804E+01    0.12580E-01   -0.55621E-03 17784   0.341E+00    0.492E-01
DAV:  29    -0.817616607698E+01   -0.63902E-02   -0.15640E-03 17640   0.179E+00    0.626E-01
DAV:  30    -0.817101802166E+01    0.51481E-02   -0.10846E-03 17352   0.155E+00    0.524E-01
DAV:  31    -0.817105799932E+01   -0.39978E-04   -0.57617E-05 16760   0.141E-01    0.531E-01
DAV:  32    -0.816982894578E+01    0.12291E-02   -0.86467E-05 17792   0.419E-01    0.515E-01
DAV:  33    -0.817025896892E+01   -0.43002E-03   -0.12112E-05 18480   0.128E-01    0.524E-01
DAV:  34    -0.816886930413E+01    0.13897E-02   -0.11321E-04 17600   0.507E-01    0.493E-01
DAV:  35    -0.816657382126E+01    0.22955E-02   -0.56878E-04 18360   0.107E+00    0.351E-01
DAV:  36    -0.816456597032E+01    0.20079E-02   -0.10406E-03 18960   0.136E+00    0.288E-01
DAV:  37    -0.816055468566E+01    0.40113E-02   -0.43459E-03 18240   0.290E+00    0.290E-01
DAV:  38    -0.815791062685E+01    0.26441E-02   -0.18465E-03 19768   0.157E+00    0.357E-01
DAV:  39    -0.815687428159E+01    0.10363E-02   -0.29807E-04 19920   0.610E-01    0.337E-01
DAV:  40    -0.815708824695E+01   -0.21397E-03   -0.24379E-05 18376   0.124E-01    0.343E-01
DAV:  41    -0.815609273066E+01    0.99552E-03   -0.37525E-04 17704   0.835E-01    0.260E-01
DAV:  42    -0.815648451098E+01   -0.39178E-03   -0.14724E-04 17600   0.509E-01    0.302E-01
DAV:  43    -0.815719094687E+01   -0.70644E-03   -0.15866E-03 17584   0.170E+00    0.363E-01
DAV:  44    -0.815583341161E+01    0.13575E-02   -0.61356E-04 17568   0.101E+00    0.217E-01
DAV:  45    -0.815879246729E+01   -0.29591E-02   -0.16032E-03 17584   0.168E+00    0.412E-01
DAV:  46    -0.815558050906E+01    0.32120E-02   -0.16101E-03 17296   0.166E+00    0.187E-01
DAV:  47    -0.815696884381E+01   -0.13883E-02   -0.52606E-04 17400   0.969E-01    0.334E-01
DAV:  48    -0.815549502671E+01    0.14738E-02   -0.95244E-04 17208   0.129E+00    0.176E-01
DAV:  49    -0.815862121187E+01   -0.31262E-02   -0.23718E-03 18640   0.197E+00    0.294E-01
DAV:  50    -0.816067402020E+01   -0.20528E-02   -0.89176E-04 19904   0.112E+00    0.234E-01
DAV:  51    -0.816169489056E+01   -0.10209E-02   -0.33121E-04 19584   0.725E-01    0.202E-01
DAV:  52    -0.816199437176E+01   -0.29948E-03   -0.54821E-05 20288   0.234E-01    0.196E-01
DAV:  53    -0.815806415436E+01    0.39302E-02   -0.30244E-03 17712   0.243E+00    0.312E-01
DAV:  54    -0.815578465346E+01    0.22795E-02   -0.14781E-03 19248   0.146E+00    0.237E-01
DAV:  55    -0.815587356658E+01   -0.88913E-04   -0.94710E-05 15128   0.111E-01    0.233E-01
DAV:  56    -0.815637402243E+01   -0.50046E-03   -0.90989E-05 17928   0.402E-01    0.290E-01
DAV:  57    -0.815587324242E+01    0.50078E-03   -0.14864E-04 17256   0.531E-01    0.231E-01
DAV:  58    -0.815584176282E+01    0.31480E-04   -0.85081E-05 19176   0.353E-01    0.217E-01
DAV:  59    -0.815590384533E+01   -0.62083E-04   -0.22947E-05 19688   0.163E-01    0.224E-01
DAV:  60    -0.815583343490E+01    0.70410E-04   -0.48343E-06 18136   0.820E-02
 -----------------------------------------------------------------------------
|                                                                             |
|           W    W    AA    RRRRR   N    N  II  N    N   GGGG   !!!           |
|           W    W   A  A   R    R  NN   N  II  NN   N  G    G  !!!           |
|           W    W  A    A  R    R  N N  N  II  N N  N  G       !!!           |
|           W WW W  AAAAAA  RRRRR   N  N N  II  N  N N  G  GGG   !            |
|           WW  WW  A    A  R   R   N   NN  II  N   NN  G    G                |
|           W    W  A    A  R    R  N    N  II  N    N   GGGG   !!!           |
|                                                                             |
|     The electronic self-consistency was not achieved in the given           |
|     number of steps (NELM). The forces and other quantities evaluated       |
|     might not be reliable so examine the results carefully. If you find     |
|     spurious results, we suggest increasing NELM, if you were close to      |
|     convergence or switching to a different ALGO or adjusting the           |
|     density mixing parameters otherwise.                                    |
|                                                                             |
 -----------------------------------------------------------------------------

   1 F= -.81558334E+01 E0= -.81543733E+01  d E =-.815583E+01  mag=     0.0371
 summed vel is now    0.000000000000000         0.000000000000000      
    0.000000000000000     
quench:  g(F)=  0.451E-61 g(S)=  0.318E-01 dE (1.order)=-0.637E-01
 bond charge predicted
       N       E                     dE             d eps       ncg     rms          rms(c)
DAV:   1    -0.854106429922E+01   -0.38516E+00   -0.51552E+00 13448   0.571E+01    0.479E+00
DAV:   2    -0.824142203075E+01    0.29964E+00   -0.13468E+00 13400   0.426E+01    0.186E+00
DAV:   3    -0.817184131293E+01    0.69581E-01   -0.25547E-01 15416   0.223E+01    0.123E+00
DAV:   4    -0.815557603706E+01    0.16265E-01   -0.24157E-02 18680   0.575E+00    0.531E-01
DAV:   5    -0.815309030728E+01    0.24857E-02   -0.78298E-03 19816   0.283E+00    0.112E-01
DAV:   6    -0.815362812671E+01   -0.53782E-03   -0.89121E-04 18648   0.664E-01    0.132E-01
DAV:   7    -0.815294949291E+01    0.67863E-03   -0.31914E-04 17856   0.772E-01    0.146E-01
DAV:   8    -0.815313574561E+01   -0.18625E-03   -0.28846E-05 18344   0.225E-01    0.148E-01
DAV:   9    -0.815382115497E+01   -0.68541E-03   -0.32645E-04 17576   0.832E-01    0.153E-01
DAV:  10    -0.814924139612E+01    0.45798E-02   -0.69718E-03 17320   0.387E+00    0.309E-01
DAV:  11    -0.816135144575E+01   -0.12110E-01   -0.38620E-02 17424   0.888E+00    0.442E-01
DAV:  12    -0.816100128229E+01    0.35016E-03   -0.13475E-03 17496   0.683E-01    0.424E-01
DAV:  13    -0.816066476795E+01    0.33651E-03   -0.32165E-05 20024   0.169E-01    0.420E-01
DAV:  14    -0.816416131390E+01   -0.34965E-02   -0.79147E-04 18904   0.119E+00    0.513E-01
DAV:  15    -0.816375286448E+01    0.40845E-03   -0.38972E-05 18896   0.185E-01    0.503E-01
DAV:  16    -0.816336569510E+01    0.38717E-03   -0.64809E-05 17616   0.386E-01    0.517E-01
DAV:  17    -0.816331728482E+01    0.48410E-04   -0.14140E-05 17536   0.604E-02    0.520E-01
DAV:  18    -0.816162631222E+01    0.16910E-02   -0.22171E-04 17296   0.754E-01    0.508E-01
DAV:  19    -0.816159731615E+01    0.28996E-04   -0.26688E-05 18360   0.208E-01    0.490E-01
DAV:  20    -0.816314855550E+01   -0.15512E-02   -0.21700E-04 17064   0.724E-01    0.498E-01
DAV:  21    -0.816158148881E+01    0.15671E-02   -0.22633E-04 16960   0.773E-01    0.494E-01
DAV:  22    -0.815670901495E+01    0.48725E-02   -0.26649E-03 17456   0.253E+00    0.397E-01
DAV:  23    -0.814864000426E+01    0.80690E-02   -0.29445E-02 17792   0.788E+00    0.494E-01
DAV:  24    -0.815918741285E+01   -0.10547E-01   -0.14451E-02 19304   0.446E+00    0.745E-01
DAV:  25    -0.815906516791E+01    0.12224E-03   -0.10870E-03 18312   0.945E-01    0.685E-01
DAV:  26    -0.814637328758E+01    0.12692E-01   -0.13040E-02 15952   0.440E+00    0.234E-01
DAV:  27    -0.815180521189E+01   -0.54319E-02   -0.13392E-02 18552   0.456E+00    0.169E-01
DAV:  28    -0.815025301867E+01    0.15522E-02   -0.18272E-03 18160   0.163E+00    0.242E-01
DAV:  29    -0.814673375207E+01    0.35193E-02   -0.33605E-03 17216   0.250E+00    0.213E-01
DAV:  30    -0.814759712866E+01   -0.86338E-03   -0.10614E-03 19336   0.119E+00    0.307E-01
DAV:  31    -0.814755612205E+01    0.41007E-04   -0.53347E-05 16112   0.112E-01    0.299E-01
DAV:  32    -0.814839507787E+01   -0.83896E-03   -0.42543E-03 16728   0.273E+00    0.274E-01
DAV:  33    -0.814952858450E+01   -0.11335E-02   -0.66103E-03 16824   0.367E+00    0.397E-01
DAV:  34    -0.814655655638E+01    0.29720E-02   -0.37327E-03 16224   0.255E+00    0.185E-01
DAV:  35    -0.814623671544E+01    0.31984E-03   -0.20504E-04 17360   0.516E-01    0.856E-02
DAV:  36    -0.814621374541E+01    0.22970E-04   -0.29104E-05 19008   0.217E-01    0.793E-02
DAV:  37    -0.814617795995E+01    0.35785E-04   -0.55359E-05 18896   0.306E-01    0.595E-02
DAV:  38    -0.814622866284E+01   -0.50703E-04   -0.10657E-04 16656   0.447E-01    0.890E-02
DAV:  39    -0.814618142275E+01    0.47240E-04   -0.12038E-04 17032   0.483E-01    0.652E-02
DAV:  40    -0.814622018939E+01   -0.38767E-04   -0.14309E-04 16728   0.521E-01    0.855E-02
DAV:  41    -0.814615514648E+01    0.65043E-04   -0.10560E-04 16928   0.453E-01    0.485E-02
DAV:  42    -0.814616186137E+01   -0.67149E-05   -0.66251E-05 16680   0.356E-01    0.528E-02
DAV:  43    -0.814613013514E+01    0.31726E-04   -0.29076E-05 17048   0.236E-01    0.174E-02
DAV:  44    -0.814612887537E+01    0.12598E-05   -0.52970E-06 17328   0.971E-02    0.121E-02
DAV:  45    -0.814612747373E+01    0.14016E-05   -0.82582E-07 18056   0.336E-02    0.496E-03
DAV:  46    -0.814612821180E+01   -0.73808E-06   -0.49521E-07 17048   0.283E-02    0.876E-03
DAV:  47    -0.814612732294E+01    0.88887E-06   -0.46801E-07 15600   0.290E-02    0.345E-03
DAV:  48    -0.814612745430E+01   -0.13137E-06   -0.24964E-07 13416   0.193E-02    0.421E-03
DAV:  49    -0.814612772769E+01   -0.27338E-06   -0.12042E-07  7680   0.106E-02    0.575E-03
DAV:  50    -0.814612738270E+01    0.34499E-06   -0.45412E-07 13888   0.298E-02    0.279E-03
DAV:  51    -0.814612786447E+01   -0.48177E-06   -0.15043E-07 11904   0.141E-02    0.665E-03
DAV:  52    -0.814612757732E+01    0.28715E-06   -0.34764E-08  6936   0.758E-03    0.478E-03
DAV:  53    -0.814612737134E+01    0.20598E-06   -0.34144E-08  7824   0.786E-03    0.268E-03
DAV:  54    -0.814612730619E+01    0.65148E-07   -0.36189E-08  7128   0.755E-03
   2 F= -.81461273E+01 E0= -.81446825E+01  d E =0.970613E-02  mag=     0.0002
 summed vel is now    0.000000000000000         0.000000000000000      
    0.000000000000000     
quench:  g(F)=  0.544E-61 g(S)=  0.634E-02 dE (1.order)=-0.634E-02
 bond charge predicted
       N       E                     dE             d eps       ncg     rms          rms(c)
DAV:   1    -0.817000419891E+01   -0.23877E-01   -0.25998E-01 13112   0.132E+01    0.103E+00
DAV:   2    -0.815582741538E+01    0.14177E-01   -0.61180E-02 13928   0.968E+00    0.399E-01
DAV:   3    -0.815260271815E+01    0.32247E-02   -0.11523E-02 15824   0.458E+00    0.264E-01
DAV:   4    -0.815169098837E+01    0.91173E-03   -0.12049E-03 18360   0.131E+00    0.962E-02
DAV:   5    -0.815149975131E+01    0.19124E-03   -0.27579E-04 19256   0.351E-01    0.315E-02
DAV:   6    -0.815152213687E+01   -0.22386E-04   -0.22531E-05 18384   0.990E-02    0.531E-02
DAV:   7    -0.815148624108E+01    0.35896E-04   -0.15544E-05 18360   0.167E-01    0.635E-03
DAV:   8    -0.815148766213E+01   -0.14210E-05   -0.76519E-07 16032   0.147E-02    0.324E-03
DAV:   9    -0.815148824729E+01   -0.58517E-06   -0.15503E-07 11912   0.135E-02    0.934E-04
DAV:  10    -0.815148832124E+01   -0.73946E-07   -0.57308E-08  6984   0.266E-03
   3 F= -.81514883E+01 E0= -.81500379E+01  d E =-.536102E-02  mag=    -0.0000
 summed vel is now    0.000000000000000         0.000000000000000      
    0.000000000000000     
quench:  g(F)=  0.818E-60 g(S)=  0.303E-02 dE (1.order)=-0.104E-01
 bond charge predicted
       N       E                     dE             d eps       ncg     rms          rms(c)
DAV:   1    -0.826196563594E+01   -0.11048E+00   -0.14966E+00 12984   0.316E+01    0.247E+00
DAV:   2    -0.818218592154E+01    0.79780E-01   -0.35781E-01 14088   0.237E+01    0.978E-01
DAV:   3    -0.816287423594E+01    0.19312E-01   -0.68646E-02 15864   0.110E+01    0.636E-01
DAV:   4    -0.815758701213E+01    0.52872E-02   -0.71496E-03 18176   0.318E+00    0.229E-01
DAV:   5    -0.815646530740E+01    0.11217E-02   -0.16276E-03 19248   0.803E-01    0.436E-02
DAV:   6    -0.815644404331E+01    0.21264E-04   -0.11628E-04 15800   0.120E-01    0.111E-02
DAV:   7    -0.815644555216E+01   -0.15089E-05   -0.65174E-06 14624   0.356E-02    0.433E-03
DAV:   8    -0.815644656578E+01   -0.10136E-05   -0.32360E-07 16144   0.195E-02    0.597E-03
DAV:   9    -0.815644626343E+01    0.30235E-06   -0.22528E-07 13136   0.172E-02    0.161E-03
DAV:  10    -0.815644625029E+01    0.13138E-07   -0.46667E-08  6712   0.319E-03
   4 F= -.81564463E+01 E0= -.81549864E+01  d E =-.495793E-02  mag=    -0.0000
 summed vel is now    0.000000000000000         0.000000000000000      
    0.000000000000000     
quench:  g(F)=  0.248E-60 g(S)=  0.453E-05 dE (1.order)=-0.453E-05
 reached required accuracy - stopping structural energy minimisation
 PROFILE, used timers:     372
