   2   2   0   0
  0.2208115E+02  0.3967548E-09  0.3967548E-09  0.3967548E-09  0.0000000E+00
   1.0000000000000000E-004
  CAR 
 unknown system                          
     21.98584652    -23.52960767  301     -0.64134413      1.00000000
    -23.530  0.0000E+00  0.0000E+00
    -23.378  0.0000E+00  0.0000E+00
    -23.226  0.0000E+00  0.0000E+00
    -23.074  0.0000E+00  0.0000E+00
    -22.923  0.0000E+00  0.0000E+00
    -22.771  0.0000E+00  0.0000E+00
    -22.619  0.0000E+00  0.0000E+00
    -22.468  0.0000E+00  0.0000E+00
    -22.316  0.0000E+00  0.0000E+00
    -22.164  0.0000E+00  0.0000E+00
    -22.012  0.0000E+00  0.0000E+00
    -21.861  0.0000E+00  0.0000E+00
    -21.709  0.0000E+00  0.0000E+00
    -21.557  0.0000E+00  0.0000E+00
    -21.406  0.3955E+02  0.6000E+01
    -21.254  0.0000E+00  0.6000E+01
    -21.102  0.0000E+00  0.6000E+01
    -20.950  0.0000E+00  0.6000E+01
    -20.799  0.0000E+00  0.6000E+01
    -20.647  0.0000E+00  0.6000E+01
    -20.495  0.0000E+00  0.6000E+01
    -20.344  0.0000E+00  0.6000E+01
    -20.192  0.0000E+00  0.6000E+01
    -20.040  0.0000E+00  0.6000E+01
    -19.888  0.0000E+00  0.6000E+01
    -19.737  0.0000E+00  0.6000E+01
    -19.585  0.0000E+00  0.6000E+01
    -19.433  0.0000E+00  0.6000E+01
    -19.281  0.0000E+00  0.6000E+01
    -19.130  0.0000E+00  0.6000E+01
    -18.978  0.0000E+00  0.6000E+01
    -18.826  0.0000E+00  0.6000E+01
    -18.675  0.0000E+00  0.6000E+01
    -18.523  0.0000E+00  0.6000E+01
    -18.371  0.0000E+00  0.6000E+01
    -18.219  0.0000E+00  0.6000E+01
    -18.068  0.0000E+00  0.6000E+01
    -17.916  0.0000E+00  0.6000E+01
    -17.764  0.0000E+00  0.6000E+01
    -17.613  0.0000E+00  0.6000E+01
    -17.461  0.0000E+00  0.6000E+01
    -17.309  0.0000E+00  0.6000E+01
    -17.157  0.0000E+00  0.6000E+01
    -17.006  0.0000E+00  0.6000E+01
    -16.854  0.0000E+00  0.6000E+01
    -16.702  0.0000E+00  0.6000E+01
    -16.551  0.0000E+00  0.6000E+01
    -16.399  0.0000E+00  0.6000E+01
    -16.247  0.0000E+00  0.6000E+01
    -16.095  0.0000E+00  0.6000E+01
    -15.944  0.0000E+00  0.6000E+01
    -15.792  0.0000E+00  0.6000E+01
    -15.640  0.0000E+00  0.6000E+01
    -15.489  0.0000E+00  0.6000E+01
    -15.337  0.0000E+00  0.6000E+01
    -15.185  0.0000E+00  0.6000E+01
    -15.033  0.0000E+00  0.6000E+01
    -14.882  0.0000E+00  0.6000E+01
    -14.730  0.0000E+00  0.6000E+01
    -14.578  0.0000E+00  0.6000E+01
    -14.427  0.0000E+00  0.6000E+01
    -14.275  0.0000E+00  0.6000E+01
    -14.123  0.0000E+00  0.6000E+01
    -13.971  0.0000E+00  0.6000E+01
    -13.820  0.0000E+00  0.6000E+01
    -13.668  0.0000E+00  0.6000E+01
    -13.516  0.0000E+00  0.6000E+01
    -13.364  0.0000E+00  0.6000E+01
    -13.213  0.1672E+01  0.6089E+01
    -13.061  0.5215E+01  0.6446E+01
    -12.909  0.8958E+01  0.8000E+01
    -12.758  0.0000E+00  0.8000E+01
    -12.606  0.0000E+00  0.8000E+01
    -12.454  0.0000E+00  0.8000E+01
    -12.302  0.0000E+00  0.8000E+01
    -12.151  0.0000E+00  0.8000E+01
    -11.999  0.0000E+00  0.8000E+01
    -11.847  0.0000E+00  0.8000E+01
    -11.696  0.0000E+00  0.8000E+01
    -11.544  0.0000E+00  0.8000E+01
    -11.392  0.0000E+00  0.8000E+01
    -11.240  0.0000E+00  0.8000E+01
    -11.089  0.0000E+00  0.8000E+01
    -10.937  0.0000E+00  0.8000E+01
    -10.785  0.0000E+00  0.8000E+01
    -10.634  0.0000E+00  0.8000E+01
    -10.482  0.0000E+00  0.8000E+01
    -10.330  0.0000E+00  0.8000E+01
    -10.178  0.0000E+00  0.8000E+01
    -10.027  0.0000E+00  0.8000E+01
     -9.875  0.0000E+00  0.8000E+01
     -9.723  0.0000E+00  0.8000E+01
     -9.572  0.0000E+00  0.8000E+01
     -9.420  0.0000E+00  0.8000E+01
     -9.268  0.0000E+00  0.8000E+01
     -9.116  0.0000E+00  0.8000E+01
     -8.965  0.0000E+00  0.8000E+01
     -8.813  0.0000E+00  0.8000E+01
     -8.661  0.0000E+00  0.8000E+01
     -8.510  0.0000E+00  0.8000E+01
     -8.358  0.0000E+00  0.8000E+01
     -8.206  0.0000E+00  0.8000E+01
     -8.054  0.0000E+00  0.8000E+01
     -7.903  0.0000E+00  0.8000E+01
     -7.751  0.0000E+00  0.8000E+01
     -7.599  0.0000E+00  0.8000E+01
     -7.447  0.0000E+00  0.8000E+01
     -7.296  0.0000E+00  0.8000E+01
     -7.144  0.0000E+00  0.8000E+01
     -6.992  0.0000E+00  0.8000E+01
     -6.841  0.0000E+00  0.8000E+01
     -6.689  0.0000E+00  0.8000E+01
     -6.537  0.0000E+00  0.8000E+01
     -6.385  0.0000E+00  0.8000E+01
     -6.234  0.0000E+00  0.8000E+01
     -6.082  0.0000E+00  0.8000E+01
     -5.930  0.0000E+00  0.8000E+01
     -5.779  0.0000E+00  0.8000E+01
     -5.627  0.0000E+00  0.8000E+01
     -5.475  0.0000E+00  0.8000E+01
     -5.323  0.0000E+00  0.8000E+01
     -5.172  0.0000E+00  0.8000E+01
     -5.020  0.0000E+00  0.8000E+01
     -4.868  0.0000E+00  0.8000E+01
     -4.717  0.0000E+00  0.8000E+01
     -4.565  0.0000E+00  0.8000E+01
     -4.413  0.0000E+00  0.8000E+01
     -4.261  0.0000E+00  0.8000E+01
     -4.110  0.0000E+00  0.8000E+01
     -3.958  0.0000E+00  0.8000E+01
     -3.806  0.0000E+00  0.8000E+01
     -3.655  0.0000E+00  0.8000E+01
     -3.503  0.0000E+00  0.8000E+01
     -3.351  0.0000E+00  0.8000E+01
     -3.199  0.0000E+00  0.8000E+01
     -3.048  0.0000E+00  0.8000E+01
     -2.896  0.0000E+00  0.8000E+01
     -2.744  0.0000E+00  0.8000E+01
     -2.592  0.0000E+00  0.8000E+01
     -2.441  0.1409E+01  0.8103E+01
     -2.289  0.2734E+01  0.8348E+01
     -2.137  0.7486E+01  0.9115E+01
     -1.986  0.1822E+01  0.9604E+01
     -1.834  0.9701E+00  0.9750E+01
     -1.682  0.2203E+01  0.1001E+02
     -1.530  0.2266E+01  0.1034E+02
     -1.379  0.2557E+01  0.1071E+02
     -1.227  0.6464E+01  0.1133E+02
     -1.075  0.6774E+01  0.1223E+02
     -0.924  0.8873E+01  0.1321E+02
     -0.772  0.3103E+01  0.1382E+02
     -0.620  0.6960E+00  0.1400E+02
     -0.468  0.0000E+00  0.1400E+02
     -0.317  0.0000E+00  0.1400E+02
     -0.165  0.0000E+00  0.1400E+02
     -0.013  0.0000E+00  0.1400E+02
      0.138  0.0000E+00  0.1400E+02
      0.290  0.0000E+00  0.1400E+02
      0.442  0.0000E+00  0.1400E+02
      0.594  0.0000E+00  0.1400E+02
      0.745  0.0000E+00  0.1400E+02
      0.897  0.0000E+00  0.1400E+02
      1.049  0.0000E+00  0.1400E+02
      1.200  0.0000E+00  0.1400E+02
      1.352  0.0000E+00  0.1400E+02
      1.504  0.0000E+00  0.1400E+02
      1.656  0.0000E+00  0.1400E+02
      1.807  0.0000E+00  0.1400E+02
      1.959  0.0000E+00  0.1400E+02
      2.111  0.0000E+00  0.1400E+02
      2.262  0.0000E+00  0.1400E+02
      2.414  0.0000E+00  0.1400E+02
      2.566  0.0000E+00  0.1400E+02
      2.718  0.0000E+00  0.1400E+02
      2.869  0.0000E+00  0.1400E+02
      3.021  0.0000E+00  0.1400E+02
      3.173  0.0000E+00  0.1400E+02
      3.325  0.0000E+00  0.1400E+02
      3.476  0.0000E+00  0.1400E+02
      3.628  0.0000E+00  0.1400E+02
      3.780  0.0000E+00  0.1400E+02
      3.931  0.0000E+00  0.1400E+02
      4.083  0.0000E+00  0.1400E+02
      4.235  0.0000E+00  0.1400E+02
      4.387  0.0000E+00  0.1400E+02
      4.538  0.1312E-03  0.1400E+02
      4.690  0.2582E-01  0.1400E+02
      4.842  0.4370E-01  0.1401E+02
      4.993  0.6146E-01  0.1402E+02
      5.145  0.7953E-01  0.1403E+02
      5.297  0.9543E-01  0.1404E+02
      5.449  0.1143E+00  0.1405E+02
      5.600  0.1347E+00  0.1407E+02
      5.752  0.1577E+00  0.1410E+02
      5.904  0.1847E+00  0.1412E+02
      6.055  0.2162E+00  0.1415E+02
      6.207  0.2520E+00  0.1419E+02
      6.359  0.3060E+00  0.1423E+02
      6.511  0.3829E+00  0.1428E+02
      6.662  0.5582E+00  0.1435E+02
      6.814  0.7521E+00  0.1446E+02
      6.966  0.7863E+00  0.1457E+02
      7.117  0.1181E+01  0.1472E+02
      7.269  0.1242E+01  0.1491E+02
      7.421  0.1298E+01  0.1510E+02
      7.573  0.1490E+01  0.1531E+02
      7.724  0.1441E+01  0.1553E+02
      7.876  0.1426E+01  0.1575E+02
      8.028  0.1323E+01  0.1596E+02
      8.179  0.1163E+01  0.1615E+02
      8.331  0.8889E+00  0.1631E+02
      8.483  0.8834E+00  0.1644E+02
      8.635  0.1451E+01  0.1660E+02
      8.786  0.1658E+01  0.1689E+02
      8.938  0.1299E+01  0.1710E+02
      9.090  0.1786E+01  0.1734E+02
      9.242  0.2005E+01  0.1761E+02
      9.393  0.2437E+01  0.1796E+02
      9.545  0.2627E+01  0.1831E+02
      9.697  0.2333E+01  0.1871E+02
      9.848  0.1857E+01  0.1902E+02
     10.000  0.1417E+01  0.1928E+02
     10.152  0.1116E+01  0.1946E+02
     10.304  0.9150E+00  0.1962E+02
     10.455  0.8462E+00  0.1974E+02
     10.607  0.1176E+01  0.1989E+02
     10.759  0.1717E+01  0.2010E+02
     10.910  0.1479E+01  0.2034E+02
     11.062  0.1331E+01  0.2053E+02
     11.214  0.1736E+01  0.2076E+02
     11.366  0.1832E+01  0.2105E+02
     11.517  0.1401E+01  0.2131E+02
     11.669  0.1226E+01  0.2150E+02
     11.821  0.1180E+01  0.2169E+02
     11.972  0.1005E+01  0.2185E+02
     12.124  0.8754E+00  0.2199E+02
     12.276  0.8035E+00  0.2212E+02
     12.428  0.7420E+00  0.2224E+02
     12.579  0.8250E+00  0.2235E+02
     12.731  0.8856E+00  0.2249E+02
     12.883  0.8586E+00  0.2262E+02
     13.034  0.8607E+00  0.2275E+02
     13.186  0.1022E+01  0.2289E+02
     13.338  0.1268E+01  0.2306E+02
     13.490  0.1807E+01  0.2330E+02
     13.641  0.1895E+01  0.2359E+02
     13.793  0.1418E+01  0.2384E+02
     13.945  0.1156E+01  0.2403E+02
     14.097  0.1075E+01  0.2419E+02
     14.248  0.9049E+00  0.2434E+02
     14.400  0.8439E+00  0.2447E+02
     14.552  0.8685E+00  0.2460E+02
     14.703  0.8897E+00  0.2474E+02
     14.855  0.9866E+00  0.2488E+02
     15.007  0.1813E+01  0.2510E+02
     15.159  0.2237E+01  0.2540E+02
     15.310  0.1567E+01  0.2570E+02
     15.462  0.1527E+01  0.2592E+02
     15.614  0.1193E+01  0.2614E+02
     15.765  0.7067E+00  0.2628E+02
     15.917  0.7093E+00  0.2638E+02
     16.069  0.1468E+01  0.2652E+02
     16.221  0.2422E+01  0.2683E+02
     16.372  0.2521E+01  0.2719E+02
     16.524  0.1710E+01  0.2750E+02
     16.676  0.1860E+01  0.2776E+02
     16.827  0.1655E+01  0.2803E+02
     16.979  0.1574E+01  0.2826E+02
     17.131  0.1711E+01  0.2850E+02
     17.283  0.1793E+01  0.2877E+02
     17.434  0.1709E+01  0.2904E+02
     17.586  0.1837E+01  0.2931E+02
     17.738  0.1886E+01  0.2959E+02
     17.889  0.1841E+01  0.2987E+02
     18.041  0.1814E+01  0.3015E+02
     18.193  0.1605E+01  0.3041E+02
     18.345  0.1311E+01  0.3062E+02
     18.496  0.1924E+01  0.3085E+02
     18.648  0.2299E+01  0.3118E+02
     18.800  0.1946E+01  0.3151E+02
     18.951  0.1371E+01  0.3176E+02
     19.103  0.5802E+00  0.3191E+02
     19.255  0.1739E+00  0.3196E+02
     19.407  0.9714E-01  0.3198E+02
     19.558  0.5600E-01  0.3199E+02
     19.710  0.2240E-01  0.3200E+02
     19.862  0.1619E-02  0.3200E+02
     20.014  0.0000E+00  0.3200E+02
     20.165  0.0000E+00  0.3200E+02
     20.317  0.0000E+00  0.3200E+02
     20.469  0.0000E+00  0.3200E+02
     20.620  0.0000E+00  0.3200E+02
     20.772  0.0000E+00  0.3200E+02
     20.924  0.0000E+00  0.3200E+02
     21.076  0.0000E+00  0.3200E+02
     21.227  0.0000E+00  0.3200E+02
     21.379  0.0000E+00  0.3200E+02
     21.531  0.0000E+00  0.3200E+02
     21.682  0.0000E+00  0.3200E+02
     21.834  0.0000E+00  0.3200E+02
     21.986  0.0000E+00  0.3200E+02
