       N       E                     dE             d eps       ncg     rms          rms(c)
DAV:   1     0.122638720507E+03    0.12264E+03   -0.52242E+03  5576   0.439E+02
DAV:   2     0.216780578280E+01   -0.12047E+03   -0.10782E+03  5592   0.183E+02
DAV:   3    -0.685647447817E+01   -0.90243E+01   -0.89019E+01  6656   0.396E+01
DAV:   4    -0.696466858065E+01   -0.10819E+00   -0.10814E+00  6392   0.433E+00
DAV:   5    -0.696539129589E+01   -0.72272E-03   -0.72270E-03  6608   0.370E-01    0.216E+00
DAV:   6    -0.677557057359E+01    0.18982E+00   -0.13166E-01  6936   0.144E+00    0.154E+00
DAV:   7    -0.676487596048E+01    0.10695E-01   -0.48280E-02  7736   0.765E-01    0.117E+00
DAV:   8    -0.677050235093E+01   -0.56264E-02   -0.10624E-02  6312   0.413E-01    0.548E-01
DAV:   9    -0.677012361035E+01    0.37874E-03   -0.51536E-04  6504   0.826E-02    0.202E-01
DAV:  10    -0.677017820537E+01   -0.54595E-04   -0.78798E-05  6464   0.344E-02    0.189E-02
DAV:  11    -0.677018434840E+01   -0.61430E-05   -0.53316E-06  6744   0.774E-03    0.117E-02
DAV:  12    -0.677018443271E+01   -0.84313E-07   -0.30326E-07  6472   0.303E-03
   1 F= -.67701844E+01 E0= -.67701844E+01  d E =0.000000E+00
