 ----------------------------------------------------
    OOO  PPPP  EEEEE N   N M   M PPPP
   O   O P   P E     NN  N MM MM P   P
   O   O PPPP  EEEEE N N N M M M PPPP   -- VERSION
   O   O P     E     N  NN M   M P
    OOO  P     EEEEE N   N M   M P
 ----------------------------------------------------
 running  128 mpi-ranks, with    1 threads/rank
 distrk:  each k-point on   32 cores,    4 groups
 distr:  one band on   16 cores,    2 groups
 vasp.6.3.2 27Jun22 (build Jun 30 2023 15:13:53) complex                         
 POSCAR found type information on POSCAR NaCl
 POSCAR found :  2 types and       2 ions
 Reading from existing POTCAR
 scaLAPACK will be used
 Reading from existing POTCAR
 LDA part: xc-table for Pade appr. of Perdew
 -----------------------------------------------------------------------------
|                                                                             |
|           W    W    AA    RRRRR   N    N  II  N    N   GGGG   !!!           |
|           W    W   A  A   R    R  NN   N  II  NN   N  G    G  !!!           |
|           W    W  A    A  R    R  N N  N  II  N N  N  G       !!!           |
|           W WW W  AAAAAA  RRRRR   N  N N  II  N  N N  G  GGG   !            |
|           WW  WW  A    A  R   R   N   NN  II  N   NN  G    G                |
|           W    W  A    A  R    R  N    N  II  N    N   GGGG   !!!           |
|                                                                             |
|     The requested file  could not be found or opened for reading            |
|     k-point information. Automatic k-point generation is used as a          |
|     fallback, which may lead to unwanted results.                           |
|                                                                             |
 -----------------------------------------------------------------------------

 INCAR ok, starting setup
 POSCAR ok, starting setup
 FFT: planning ... GRIDC
 FFT: planning ... GRID_SOFT
 FFT: planning ... GRID
 WAVECAR not read
 entering main loop
       N       E                     dE             d eps       ncg     rms          rms(c)
DAV:   1     0.936195802287E+02    0.93620E+02   -0.67999E+03  2712   0.875E+02
DAV:   2    -0.243718133187E+00   -0.93863E+02   -0.85977E+02  3128   0.259E+02
DAV:   3    -0.687961845628E+01   -0.66359E+01   -0.65971E+01  3456   0.588E+01
DAV:   4    -0.696409939673E+01   -0.84481E-01   -0.84457E-01  3184   0.725E+00
DAV:   5    -0.696572260118E+01   -0.16232E-02   -0.16232E-02  3488   0.101E+00    0.216E+00
DAV:   6    -0.677618148656E+01    0.18954E+00   -0.26247E-01  3456   0.287E+00    0.160E+00
DAV:   7    -0.676489671255E+01    0.11285E-01   -0.72933E-02  3640   0.146E+00    0.111E+00
DAV:   8    -0.677051368570E+01   -0.56170E-02   -0.10065E-02  2872   0.761E-01    0.343E-01
DAV:   9    -0.677034081759E+01    0.17287E-03   -0.25625E-04  3440   0.107E-01    0.171E-01
DAV:  10    -0.677043920905E+01   -0.98391E-04   -0.25462E-04  2976   0.114E-01    0.584E-02
DAV:  11    -0.677043244732E+01    0.67617E-05   -0.11589E-05  3720   0.311E-02    0.151E-02
DAV:  12    -0.677043249743E+01   -0.50113E-07   -0.19561E-06  3040   0.120E-02    0.184E-03
DAV:  13    -0.677043306674E+01   -0.56930E-06   -0.30888E-07  3136   0.328E-03    0.332E-03
DAV:  14    -0.677043288627E+01    0.18047E-06   -0.26482E-08  2528   0.853E-04    0.259E-04
DAV:  15    -0.677043287624E+01    0.10027E-07   -0.24118E-09  1680   0.366E-04
   1 F= -.67704329E+01 E0= -.67704329E+01  d E =0.000000E+00
 PROFILE, used timers:     367
