   3   3   0   0
  0.2838852E+02  0.4938476E-09  0.4938476E-09  0.4938476E-09  0.5000000E-15
  1.000000000000000E-004
  CAR
 unknown system
     11.84058836    -34.54979833  301      7.80779105      1.00000000
    -34.550  0.0000E+00  0.0000E+00
    -34.395  0.0000E+00  0.0000E+00
    -34.241  0.0000E+00  0.0000E+00
    -34.086  0.0000E+00  0.0000E+00
    -33.931  0.0000E+00  0.0000E+00
    -33.777  0.0000E+00  0.0000E+00
    -33.622  0.0000E+00  0.0000E+00
    -33.467  0.0000E+00  0.0000E+00
    -33.313  0.0000E+00  0.0000E+00
    -33.158  0.0000E+00  0.0000E+00
    -33.003  0.0000E+00  0.0000E+00
    -32.849  0.0000E+00  0.0000E+00
    -32.694  0.0000E+00  0.0000E+00
    -32.540  0.0000E+00  0.0000E+00
    -32.385  0.1293E+02  0.2000E+01
    -32.230  0.0000E+00  0.2000E+01
    -32.076  0.0000E+00  0.2000E+01
    -31.921  0.0000E+00  0.2000E+01
    -31.766  0.0000E+00  0.2000E+01
    -31.612  0.0000E+00  0.2000E+01
    -31.457  0.0000E+00  0.2000E+01
    -31.302  0.0000E+00  0.2000E+01
    -31.148  0.0000E+00  0.2000E+01
    -30.993  0.0000E+00  0.2000E+01
    -30.839  0.0000E+00  0.2000E+01
    -30.684  0.0000E+00  0.2000E+01
    -30.529  0.0000E+00  0.2000E+01
    -30.375  0.0000E+00  0.2000E+01
    -30.220  0.0000E+00  0.2000E+01
    -30.065  0.0000E+00  0.2000E+01
    -29.911  0.0000E+00  0.2000E+01
    -29.756  0.0000E+00  0.2000E+01
    -29.601  0.0000E+00  0.2000E+01
    -29.447  0.0000E+00  0.2000E+01
    -29.292  0.0000E+00  0.2000E+01
    -29.138  0.0000E+00  0.2000E+01
    -28.983  0.0000E+00  0.2000E+01
    -28.828  0.0000E+00  0.2000E+01
    -28.674  0.0000E+00  0.2000E+01
    -28.519  0.0000E+00  0.2000E+01
    -28.364  0.0000E+00  0.2000E+01
    -28.210  0.0000E+00  0.2000E+01
    -28.055  0.0000E+00  0.2000E+01
    -27.901  0.0000E+00  0.2000E+01
    -27.746  0.0000E+00  0.2000E+01
    -27.591  0.0000E+00  0.2000E+01
    -27.437  0.0000E+00  0.2000E+01
    -27.282  0.0000E+00  0.2000E+01
    -27.127  0.0000E+00  0.2000E+01
    -26.973  0.0000E+00  0.2000E+01
    -26.818  0.0000E+00  0.2000E+01
    -26.663  0.0000E+00  0.2000E+01
    -26.509  0.0000E+00  0.2000E+01
    -26.354  0.0000E+00  0.2000E+01
    -26.200  0.0000E+00  0.2000E+01
    -26.045  0.0000E+00  0.2000E+01
    -25.890  0.0000E+00  0.2000E+01
    -25.736  0.0000E+00  0.2000E+01
    -25.581  0.0000E+00  0.2000E+01
    -25.426  0.0000E+00  0.2000E+01
    -25.272  0.0000E+00  0.2000E+01
    -25.117  0.0000E+00  0.2000E+01
    -24.962  0.0000E+00  0.2000E+01
    -24.808  0.0000E+00  0.2000E+01
    -24.653  0.0000E+00  0.2000E+01
    -24.499  0.0000E+00  0.2000E+01
    -24.344  0.0000E+00  0.2000E+01
    -24.189  0.0000E+00  0.2000E+01
    -24.035  0.0000E+00  0.2000E+01
    -23.880  0.0000E+00  0.2000E+01
    -23.725  0.0000E+00  0.2000E+01
    -23.571  0.0000E+00  0.2000E+01
    -23.416  0.0000E+00  0.2000E+01
    -23.261  0.0000E+00  0.2000E+01
    -23.107  0.0000E+00  0.2000E+01
    -22.952  0.0000E+00  0.2000E+01
    -22.798  0.0000E+00  0.2000E+01
    -22.643  0.0000E+00  0.2000E+01
    -22.488  0.0000E+00  0.2000E+01
    -22.334  0.0000E+00  0.2000E+01
    -22.179  0.0000E+00  0.2000E+01
    -22.024  0.0000E+00  0.2000E+01
    -21.870  0.0000E+00  0.2000E+01
    -21.715  0.0000E+00  0.2000E+01
    -21.560  0.0000E+00  0.2000E+01
    -21.406  0.0000E+00  0.2000E+01
    -21.251  0.0000E+00  0.2000E+01
    -21.097  0.0000E+00  0.2000E+01
    -20.942  0.0000E+00  0.2000E+01
    -20.787  0.0000E+00  0.2000E+01
    -20.633  0.0000E+00  0.2000E+01
    -20.478  0.0000E+00  0.2000E+01
    -20.323  0.0000E+00  0.2000E+01
    -20.169  0.0000E+00  0.2000E+01
    -20.014  0.0000E+00  0.2000E+01
    -19.860  0.0000E+00  0.2000E+01
    -19.705  0.0000E+00  0.2000E+01
    -19.550  0.0000E+00  0.2000E+01
    -19.396  0.0000E+00  0.2000E+01
    -19.241  0.0000E+00  0.2000E+01
    -19.086  0.0000E+00  0.2000E+01
    -18.932  0.0000E+00  0.2000E+01
    -18.777  0.0000E+00  0.2000E+01
    -18.622  0.0000E+00  0.2000E+01
    -18.468  0.0000E+00  0.2000E+01
    -18.313  0.0000E+00  0.2000E+01
    -18.159  0.0000E+00  0.2000E+01
    -18.004  0.0000E+00  0.2000E+01
    -17.849  0.0000E+00  0.2000E+01
    -17.695  0.0000E+00  0.2000E+01
    -17.540  0.0000E+00  0.2000E+01
    -17.385  0.0000E+00  0.2000E+01
    -17.231  0.0000E+00  0.2000E+01
    -17.076  0.0000E+00  0.2000E+01
    -16.921  0.0000E+00  0.2000E+01
    -16.767  0.0000E+00  0.2000E+01
    -16.612  0.0000E+00  0.2000E+01
    -16.458  0.0000E+00  0.2000E+01
    -16.303  0.0000E+00  0.2000E+01
    -16.148  0.0000E+00  0.2000E+01
    -15.994  0.0000E+00  0.2000E+01
    -15.839  0.0000E+00  0.2000E+01
    -15.684  0.0000E+00  0.2000E+01
    -15.530  0.0000E+00  0.2000E+01
    -15.375  0.0000E+00  0.2000E+01
    -15.220  0.0000E+00  0.2000E+01
    -15.066  0.2483E+02  0.5840E+01
    -14.911  0.0000E+00  0.1200E+02
    -14.757  0.0000E+00  0.1200E+02
    -14.602  0.0000E+00  0.1200E+02
    -14.447  0.0000E+00  0.1200E+02
    -14.293  0.0000E+00  0.1200E+02
    -14.138  0.0000E+00  0.1200E+02
    -13.983  0.0000E+00  0.1200E+02
    -13.829  0.0000E+00  0.1200E+02
    -13.674  0.0000E+00  0.1200E+02
    -13.519  0.0000E+00  0.1200E+02
    -13.365  0.0000E+00  0.1200E+02
    -13.210  0.0000E+00  0.1200E+02
    -13.056  0.0000E+00  0.1200E+02
    -12.901  0.0000E+00  0.1200E+02
    -12.746  0.0000E+00  0.1200E+02
    -12.592  0.0000E+00  0.1200E+02
    -12.437  0.0000E+00  0.1200E+02
    -12.282  0.0000E+00  0.1200E+02
    -12.128  0.0000E+00  0.1200E+02
    -11.973  0.0000E+00  0.1200E+02
    -11.819  0.0000E+00  0.1200E+02
    -11.664  0.0000E+00  0.1200E+02
    -11.509  0.0000E+00  0.1200E+02
    -11.355  0.0000E+00  0.1200E+02
    -11.200  0.0000E+00  0.1200E+02
    -11.045  0.0000E+00  0.1200E+02
    -10.891  0.0000E+00  0.1200E+02
    -10.736  0.0000E+00  0.1200E+02
    -10.581  0.3832E-12  0.1200E+02
    -10.427  0.1101E+02  0.1387E+02
    -10.272  0.1054E+02  0.1800E+02
    -10.118  0.0000E+00  0.1800E+02
     -9.963  0.0000E+00  0.1800E+02
     -9.808  0.0000E+00  0.1800E+02
     -9.654  0.0000E+00  0.1800E+02
     -9.499  0.0000E+00  0.1800E+02
     -9.344  0.0000E+00  0.1800E+02
     -9.190  0.0000E+00  0.1800E+02
     -9.035  0.0000E+00  0.1800E+02
     -8.880  0.0000E+00  0.1800E+02
     -8.726  0.0000E+00  0.1800E+02
     -8.571  0.0000E+00  0.1800E+02
     -8.417  0.0000E+00  0.1800E+02
     -8.262  0.0000E+00  0.1800E+02
     -8.107  0.0000E+00  0.1800E+02
     -7.953  0.0000E+00  0.1800E+02
     -7.798  0.0000E+00  0.1800E+02
     -7.643  0.0000E+00  0.1800E+02
     -7.489  0.0000E+00  0.1800E+02
     -7.334  0.0000E+00  0.1800E+02
     -7.179  0.0000E+00  0.1800E+02
     -7.025  0.0000E+00  0.1800E+02
     -6.870  0.0000E+00  0.1800E+02
     -6.716  0.0000E+00  0.1800E+02
     -6.561  0.0000E+00  0.1800E+02
     -6.406  0.0000E+00  0.1800E+02
     -6.252  0.0000E+00  0.1800E+02
     -6.097  0.0000E+00  0.1800E+02
     -5.942  0.0000E+00  0.1800E+02
     -5.788  0.0000E+00  0.1800E+02
     -5.633  0.0000E+00  0.1800E+02
     -5.478  0.0000E+00  0.1800E+02
     -5.324  0.0000E+00  0.1800E+02
     -5.169  0.0000E+00  0.1800E+02
     -5.015  0.0000E+00  0.1800E+02
     -4.860  0.0000E+00  0.1800E+02
     -4.705  0.0000E+00  0.1800E+02
     -4.551  0.0000E+00  0.1800E+02
     -4.396  0.0000E+00  0.1800E+02
     -4.241  0.0000E+00  0.1800E+02
     -4.087  0.3344E-01  0.1801E+02
     -3.932  0.2583E+00  0.1805E+02
     -3.778  0.5143E+00  0.1814E+02
     -3.623  0.7085E+00  0.1828E+02
     -3.468  0.2692E+01  0.1888E+02
     -3.314  0.2614E+01  0.1988E+02
     -3.159  0.0000E+00  0.2000E+02
     -3.004  0.0000E+00  0.2000E+02
     -2.850  0.0000E+00  0.2000E+02
     -2.695  0.0000E+00  0.2000E+02
     -2.540  0.0000E+00  0.2000E+02
     -2.386  0.0000E+00  0.2000E+02
     -2.231  0.0000E+00  0.2000E+02
     -2.077  0.0000E+00  0.2000E+02
     -1.922  0.0000E+00  0.2000E+02
     -1.767  0.0000E+00  0.2000E+02
     -1.613  0.0000E+00  0.2000E+02
     -1.458  0.0000E+00  0.2000E+02
     -1.303  0.0000E+00  0.2000E+02
     -1.149  0.0000E+00  0.2000E+02
     -0.994  0.0000E+00  0.2000E+02
     -0.839  0.0000E+00  0.2000E+02
     -0.685  0.0000E+00  0.2000E+02
     -0.530  0.0000E+00  0.2000E+02
     -0.376  0.0000E+00  0.2000E+02
     -0.221  0.0000E+00  0.2000E+02
     -0.066  0.0000E+00  0.2000E+02
      0.088  0.0000E+00  0.2000E+02
      0.243  0.0000E+00  0.2000E+02
      0.398  0.0000E+00  0.2000E+02
      0.552  0.0000E+00  0.2000E+02
      0.707  0.0000E+00  0.2000E+02
      0.862  0.0000E+00  0.2000E+02
      1.016  0.0000E+00  0.2000E+02
      1.171  0.0000E+00  0.2000E+02
      1.325  0.0000E+00  0.2000E+02
      1.480  0.0000E+00  0.2000E+02
      1.635  0.0000E+00  0.2000E+02
      1.789  0.0000E+00  0.2000E+02
      1.944  0.0000E+00  0.2000E+02
      2.099  0.1483E+00  0.2002E+02
      2.253  0.4011E+00  0.2013E+02
      2.408  0.2807E+01  0.2071E+02
      2.563  0.8494E+00  0.2107E+02
      2.717  0.9695E+00  0.2143E+02
      2.872  0.1232E+01  0.2168E+02
      3.026  0.8271E+00  0.2185E+02
      3.181  0.2462E+01  0.2235E+02
      3.336  0.2847E+01  0.2358E+02
      3.490  0.3594E+01  0.2450E+02
      3.645  0.3051E+01  0.2533E+02
      3.800  0.1496E+01  0.2601E+02
      3.954  0.3057E+00  0.2607E+02
      4.109  0.6532E+01  0.2716E+02
      4.263  0.4783E+01  0.2896E+02
      4.418  0.3139E+01  0.3041E+02
      4.573  0.2200E+01  0.3109E+02
      4.727  0.1181E+01  0.3158E+02
      4.882  0.8868E+00  0.3184E+02
      5.037  0.7218E+00  0.3205E+02
      5.191  0.1207E+01  0.3228E+02
      5.346  0.7355E+00  0.3255E+02
      5.501  0.1131E+01  0.3281E+02
      5.655  0.4978E+00  0.3311E+02
      5.810  0.8046E+00  0.3333E+02
      5.964  0.4232E+00  0.3362E+02
      6.119  0.2941E+01  0.3409E+02
      6.274  0.3546E+01  0.3555E+02
      6.428  0.3301E+00  0.3585E+02
      6.583  0.2353E+00  0.3596E+02
      6.738  0.1535E+00  0.3600E+02
      6.892  0.4723E-03  0.3600E+02
      7.047  0.4704E-01  0.3602E+02
      7.202  0.1050E+00  0.3604E+02
      7.356  0.1329E+00  0.3607E+02
      7.511  0.3536E+00  0.3623E+02
      7.665  0.1076E+01  0.3647E+02
      7.820  0.1832E+01  0.3707E+02
      7.975  0.2081E+01  0.3761E+02
      8.129  0.1463E+01  0.3799E+02
      8.284  0.7049E+00  0.3817E+02
      8.439  0.2355E+00  0.3833E+02
      8.593  0.1016E+01  0.3850E+02
      8.748  0.1672E+01  0.3887E+02
      8.903  0.2532E+01  0.3961E+02
      9.057  0.2204E+01  0.4044E+02
      9.212  0.2063E+01  0.4102E+02
      9.366  0.6014E+01  0.4240E+02
      9.521  0.8442E+01  0.4449E+02
      9.676  0.4420E+01  0.4669E+02
      9.830  0.0000E+00  0.4800E+02
      9.985  0.0000E+00  0.4800E+02
     10.140  0.0000E+00  0.4800E+02
     10.294  0.0000E+00  0.4800E+02
     10.449  0.0000E+00  0.4800E+02
     10.604  0.0000E+00  0.4800E+02
     10.758  0.0000E+00  0.4800E+02
     10.913  0.0000E+00  0.4800E+02
     11.067  0.0000E+00  0.4800E+02
     11.222  0.0000E+00  0.4800E+02
     11.377  0.0000E+00  0.4800E+02
     11.531  0.0000E+00  0.4800E+02
     11.686  0.0000E+00  0.4800E+02
     11.841  0.0000E+00  0.4800E+02
