    3    3    1    1
  0.2838852E+02  0.4938476E-09  0.4938476E-09  0.4938476E-09  0.5000000E-15
  1.000000000000000E-004
  CAR
 unknown system
     37     84     24

  0.0000000E+00  0.0000000E+00  0.0000000E+00  0.4551661E-03
    1      -32.441144   1.000000
    2      -15.075730   1.000000
    3      -15.075730   1.000000
    4      -15.046264   1.000000
    5      -15.046264   1.000000
    6      -15.046264   1.000000
    7      -10.349737   1.000000
    8      -10.349737   1.000000
    9      -10.349737   1.000000
   10       -4.138560   1.000000
   11        3.730037   1.000000
   12        3.730037   1.000000
   13        3.730037   1.000000
   14        3.989392   1.000000
   15        3.989392   1.000000
   16        5.717412   1.000000
   17        6.809002   1.000000
   18        6.809002   1.000000
   19        6.809002   1.000000
   20        8.064187   0.000000
   21        8.064187   0.000000
   22        8.064187   0.000000
   23        8.815447   0.000000
   24        9.640443   0.000000

  0.7692308E-01  0.1462860E-17 -0.2229877E-17  0.3641329E-02
    1      -32.440932   1.000000
    2      -15.076249   1.000000
    3      -15.076249   1.000000
    4      -15.046358   1.000000
    5      -15.046147   1.000000
    6      -15.046147   1.000000
    7      -10.361693   1.000000
    8      -10.348324   1.000000
    9      -10.348324   1.000000
   10       -4.088001   1.000000
   11        3.592056   1.000000
   12        3.633777   1.000000
   13        3.633777   1.000000
   14        4.080072   1.000000
   15        4.080072   1.000000
   16        5.531568   1.000000
   17        6.729348   1.000000
   18        6.729348   1.000000
   19        6.908723   1.000000
   20        8.153328   0.000000
   21        8.154084   0.000000
   22        8.154084   0.000000
   23        9.009316   0.000000
   24        9.647780   0.000000

  0.1538462E+00  0.7585658E-17  0.2995722E-17  0.3641329E-02
    1      -32.440341   1.000000
    2      -15.077713   1.000000
    3      -15.077713   1.000000
    4      -15.046647   1.000000
    5      -15.045825   1.000000
    6      -15.045825   1.000000
    7      -10.393936   1.000000
    8      -10.344430   1.000000
    9      -10.344430   1.000000
   10       -3.947427   1.000000
   11        3.253516   1.000000
   12        3.490388   1.000000
   13        3.490388   1.000000
   14        4.197967   1.000000
   15        4.197967   1.000000
   16        5.157302   1.000000
   17        6.562296   1.000000
   18        6.562296   1.000000
   19        7.025514   1.000000
   20        8.365939   0.000000
   21        8.365939   0.000000
   22        8.536697   0.000000
   23        9.349355   0.000000
   24        9.670554   0.000000

  0.2307692E+00  0.5634373E-17 -0.7935424E-17  0.3641329E-02
    1      -32.439506   1.000000
    2      -15.079783   1.000000
    3      -15.079783   1.000000
    4      -15.047102   1.000000
    5      -15.045343   1.000000
    6      -15.045343   1.000000
    7      -10.437282   1.000000
    8      -10.338953   1.000000
    9      -10.338953   1.000000
   10       -3.747864   1.000000
   11        2.848806   1.000000
   12        3.377665   1.000000
   13        3.377665   1.000000
   14        4.248388   1.000000
   15        4.248388   1.000000
   16        4.784024   1.000000
   17        6.412080   1.000000
   18        6.412080   1.000000
   19        7.115259   1.000000
   20        8.620344   0.000000
   21        8.620344   0.000000
   22        9.084567   0.000000
   23        9.606525   0.000000
   24        9.668153   0.000000

  0.3076923E+00  0.1517132E-16  0.5991443E-17  0.3641329E-02
    1      -32.438621   1.000000
    2      -15.081997   1.000000
    3      -15.081997   1.000000
    4      -15.047639   1.000000
    5      -15.044816   1.000000
    6      -15.044816   1.000000
    7      -10.480795   1.000000
    8      -10.333168   1.000000
    9      -10.333168   1.000000
   10       -3.533948   1.000000
   11        2.478019   1.000000
   12        3.310822   1.000000
   13        3.310822   1.000000
   14        4.216190   1.000000
   15        4.216190   1.000000
   16        4.491810   1.000000
   17        6.325435   1.000000
   18        6.325435   1.000000
   19        7.234960   1.000000
   20        8.864382   0.000000
   21        8.864382   0.000000
   22        9.519414   0.000000
   23        9.633900   0.000000
   24        9.634056   0.000000

  0.3846154E+00 -0.7707254E-17  0.3872170E-17  0.3641329E-02
    1      -32.437889   1.000000
    2      -15.083841   1.000000
    3      -15.083841   1.000000
    4      -15.048130   1.000000
    5      -15.044361   1.000000
    6      -15.044360   1.000000
    7      -10.515046   1.000000
    8      -10.328390   1.000000
    9      -10.328390   1.000000
   10       -3.354839   1.000000
   11        2.202207   1.000000
   12        3.286037   1.000000
   13        3.286037   1.000000
   14        4.137052   1.000000
   15        4.137052   1.000000
   16        4.303982   1.000000
   17        6.294026   1.000000
   18        6.294026   1.000000
   19        7.391585   1.000000
   20        9.051514   0.000000
   21        9.051514   0.000000
   22        9.598863   0.000000
   23        9.598923   0.000000
   24        9.654367   0.000000

  0.4615385E+00 -0.8523350E-17  0.3921249E-17  0.3641329E-02
    1      -32.437472   1.000000
    2      -15.084880   1.000000
    3      -15.084880   1.000000
    4      -15.048435   1.000000
    5      -15.044100   1.000000
    6      -15.044100   1.000000
    7      -10.533695   1.000000
    8      -10.325699   1.000000
    9      -10.325699   1.000000
   10       -3.252960   1.000000
   11        2.056292   1.000000
   12        3.284647   1.000000
   13        3.284647   1.000000
   14        4.072939   1.000000
   15        4.072939   1.000000
   16        4.215451   1.000000
   17        6.288313   1.000000
   18        6.288313   1.000000
   19        7.527471   1.000000
   20        9.150685   0.000000
   21        9.150685   0.000000
   22        9.571389   0.000000
   23        9.576204   0.000000
   24        9.576212   0.000000

  0.7692308E-01  0.7692308E-01 -0.2559565E-17  0.2730997E-02
    1      -32.440863   1.000000
    2      -15.077212   1.000000
    3      -15.075539   1.000000
    4      -15.046498   1.000000
    5      -15.046053   1.000000
    6      -15.046053   1.000000
    7      -10.358743   1.000000
    8      -10.351355   1.000000
    9      -10.351355   1.000000
   10       -4.072502   1.000000
   11        3.374703   1.000000
   12        3.744018   1.000000
   13        3.744018   1.000000
   14        4.005436   1.000000
   15        4.109295   1.000000
   16        5.520269   1.000000
   17        6.617121   1.000000
   18        6.617121   1.000000
   19        7.127302   1.000000
   20        7.894312   0.000000
   21        8.304960   0.000000
   22        8.304960   0.000000
   23        9.044074   0.000000
   24        9.631543   0.000000

  0.1538462E+00  0.7692308E-01 -0.2366142E-17  0.1092399E-01
    1      -32.440399   1.000000
    2      -15.078861   1.000000
    3      -15.075899   1.000000
    4      -15.046759   1.000000
    5      -15.045803   1.000000
    6      -15.045746   1.000000
    7      -10.382659   1.000000
    8      -10.351396   1.000000
    9      -10.346889   1.000000
   10       -3.966015   1.000000
   11        3.098399   1.000000
   12        3.634651   1.000000
   13        3.674375   1.000000
   14        4.088553   1.000000
   15        4.195195   1.000000
   16        5.280269   1.000000
   17        6.436166   1.000000
   18        6.454104   1.000000
   19        7.345165   1.000000
   20        7.914552   0.000000
   21        8.524724   0.000000
   22        8.586544   0.000000
   23        9.296883   0.000000
   24        9.631400   0.000000

  0.2307692E+00  0.7692308E-01 -0.3006865E-18  0.1092399E-01
    1      -32.439649   1.000000
    2      -15.080832   1.000000
    3      -15.077277   1.000000
    4      -15.047096   1.000000
    5      -15.045467   1.000000
    6      -15.045273   1.000000
    7      -10.421947   1.000000
    8      -10.348461   1.000000
    9      -10.340438   1.000000
   10       -3.792849   1.000000
   11        2.805534   1.000000
   12        3.436083   1.000000
   13        3.566051   1.000000
   14        4.161761   1.000000
   15        4.278101   1.000000
   16        4.940555   1.000000
   17        6.263636   1.000000
   18        6.324367   1.000000
   19        7.409221   1.000000
   20        8.232568   0.000000
   21        8.748370   0.000000
   22        8.989838   0.000000
   23        9.552088   0.000000
   24        9.618993   0.000000

  0.3076923E+00  0.7692308E-01 -0.2516072E-18  0.1092399E-01
    1      -32.438783   1.000000
    2      -15.082679   1.000000
    3      -15.079347   1.000000
    4      -15.047507   1.000000
    5      -15.045062   1.000000
    6      -15.044739   1.000000
    7      -10.464729   1.000000
    8      -10.343237   1.000000
    9      -10.335038   1.000000
   10       -3.592615   1.000000
   11        2.518796   1.000000
   12        3.290908   1.000000
   13        3.479060   1.000000
   14        4.156507   1.000000
   15        4.290344   1.000000
   16        4.622576   1.000000
   17        6.165874   1.000000
   18        6.261278   1.000000
   19        7.418827   1.000000
   20        8.627580   0.000000
   21        8.947816   0.000000
   22        9.390601   0.000000
   23        9.608476   0.000000
   24        9.651356   0.000000

  0.3846154E+00  0.7692308E-01  0.4457410E-17  0.1092399E-01
    1      -32.438002   1.000000
    2      -15.083983   1.000000
    3      -15.081627   1.000000
    4      -15.047922   1.000000
    5      -15.044654   1.000000
    6      -15.044269   1.000000
    7      -10.501252   1.000000
    8      -10.336920   1.000000
    9      -10.331907   1.000000
   10       -3.411310   1.000000
   11        2.282120   1.000000
   12        3.230060   1.000000
   13        3.412150   1.000000
   14        4.104552   1.000000
   15        4.234456   1.000000
   16        4.388451   1.000000
   17        6.133560   1.000000
   18        6.248259   1.000000
   19        7.485126   1.000000
   20        8.925973   0.000000
   21        9.098924   0.000000
   22        9.547748   0.000000
   23        9.588729   0.000000
   24        9.683292   0.000000

  0.4615385E+00  0.7692308E-01  0.4506489E-17  0.1092399E-01
    1      -32.437485   1.000000
    2      -15.084458   1.000000
    3      -15.083582   1.000000
    4      -15.048218   1.000000
    5      -15.044351   1.000000
    6      -15.044000   1.000000
    7      -10.524440   1.000000
    8      -10.331689   1.000000
    9      -10.330947   1.000000
   10       -3.290430   1.000000
   11        2.133825   1.000000
   12        3.241823   1.000000
   13        3.346260   1.000000
   14        4.073729   1.000000
   15        4.152205   1.000000
   16        4.252824   1.000000
   17        6.132451   1.000000
   18        6.252123   1.000000
   19        7.594782   1.000000
   20        9.072200   0.000000
   21        9.181363   0.000000
   22        9.535430   0.000000
   23        9.566780   0.000000
   24        9.664159   0.000000

 -0.4615385E+00  0.7692308E-01  0.3713488E-17  0.1092399E-01
    1      -32.437347   1.000000
    2      -15.084762   1.000000
    3      -15.083972   1.000000
    4      -15.048287   1.000000
    5      -15.044221   1.000000
    6      -15.043986   1.000000
    7      -10.530393   1.000000
    8      -10.334352   1.000000
    9      -10.326666   1.000000
   10       -3.257334   1.000000
   11        2.094567   1.000000
   12        3.272657   1.000000
   13        3.300411   1.000000
   14        4.084632   1.000000
   15        4.107468   1.000000
   16        4.221151   1.000000
   17        6.128369   1.000000
   18        6.256005   1.000000
   19        7.646730   1.000000
   20        9.103594   0.000000
   21        9.178031   0.000000
   22        9.539703   0.000000
   23        9.557530   0.000000
   24        9.630264   0.000000

 -0.3846154E+00  0.7692308E-01  0.1433681E-16  0.1092399E-01
    1      -32.437621   1.000000
    2      -15.084901   1.000000
    3      -15.082639   1.000000
    4      -15.048094   1.000000
    5      -15.044320   1.000000
    6      -15.044235   1.000000
    7      -10.518245   1.000000
    8      -10.339218   1.000000
    9      -10.325053   1.000000
   10       -3.319573   1.000000
   11        2.171293   1.000000
   12        3.210820   1.000000
   13        3.378069   1.000000
   14        4.068639   1.000000
   15        4.194157   1.000000
   16        4.288101   1.000000
   17        6.102128   1.000000
   18        6.266331   1.000000
   19        7.578072   1.000000
   20        9.072752   0.000000
   21        9.116275   0.000000
   22        9.551556   0.000000
   23        9.569198   0.000000
   24        9.682736   0.000000

 -0.3076923E+00  0.7692308E-01  0.1643294E-17  0.1092399E-01
    1      -32.438246   1.000000
    2      -15.083982   1.000000
    3      -15.080755   1.000000
    4      -15.047713   1.000000
    5      -15.044678   1.000000
    6      -15.044616   1.000000
    7      -10.490036   1.000000
    8      -10.345094   1.000000
    9      -10.326485   1.000000
   10       -3.463406   1.000000
   11        2.360057   1.000000
   12        3.188088   1.000000
   13        3.463009   1.000000
   14        4.103925   1.000000
   15        4.287669   1.000000
   16        4.452691   1.000000
   17        6.059434   1.000000
   18        6.307124   1.000000
   19        7.481689   1.000000
   20        8.869841   0.000000
   21        9.021694   0.000000
   22        9.534899   0.000000
   23        9.592166   0.000000
   24        9.683001   0.000000

 -0.2307692E+00  0.7692308E-01  0.1692374E-17  0.1092399E-01
    1      -32.439076   1.000000
    2      -15.082217   1.000000
    3      -15.078757   1.000000
    4      -15.047260   1.000000
    5      -15.045196   1.000000
    6      -15.045040   1.000000
    7      -10.450922   1.000000
    8      -10.350508   1.000000
    9      -10.330657   1.000000
   10       -3.656049   1.000000
   11        2.643054   1.000000
   12        3.221509   1.000000
   13        3.564284   1.000000
   14        4.136719   1.000000
   15        4.336091   1.000000
   16        4.715787   1.000000
   17        6.041854   1.000000
   18        6.405120   1.000000
   19        7.426411   1.000000
   20        8.606337   0.000000
   21        8.773267   0.000000
   22        9.291489   0.000000
   23        9.614987   0.000000
   24        9.664939   0.000000

 -0.1538462E+00  0.7692308E-01  0.6401390E-17  0.1092399E-01
    1      -32.439923   1.000000
    2      -15.080011   1.000000
    3      -15.077107   1.000000
    4      -15.046852   1.000000
    5      -15.045677   1.000000
    6      -15.045494   1.000000
    7      -10.409304   1.000000
    8      -10.353877   1.000000
    9      -10.336618   1.000000
   10       -3.852985   1.000000
   11        2.983297   1.000000
   12        3.315403   1.000000
   13        3.684975   1.000000
   14        4.107834   1.000000
   15        4.308421   1.000000
   16        5.043709   1.000000
   17        6.126670   1.000000
   18        6.557941   1.000000
   19        7.379638   1.000000
   20        8.345548   0.000000
   21        8.381769   0.000000
   22        8.934333   0.000000
   23        9.479790   0.000000
   24        9.637357   0.000000

 -0.7692308E-01  0.7692308E-01  0.2925721E-17  0.5461994E-02
    1      -32.440593   1.000000
    2      -15.077864   1.000000
    3      -15.076210   1.000000
    4      -15.046544   1.000000
    5      -15.046011   1.000000
    6      -15.045882   1.000000
    7      -10.376422   1.000000
    8      -10.353209   1.000000
    9      -10.343004   1.000000
   10       -4.008851   1.000000
   11        3.324110   1.000000
   12        3.461560   1.000000
   13        3.756016   1.000000
   14        4.049011   1.000000
   15        4.210926   1.000000
   16        5.343873   1.000000
   17        6.388525   1.000000
   18        6.701629   1.000000
   19        7.185810   1.000000
   20        8.120602   0.000000
   21        8.166603   0.000000
   22        8.561617   0.000000
   23        9.214254   0.000000
   24        9.654406   0.000000

  0.1538462E+00  0.1538462E+00 -0.5119130E-17  0.2730997E-02
    1      -32.440084   1.000000
    2      -15.080282   1.000000
    3      -15.075011   1.000000
    4      -15.047156   1.000000
    5      -15.045455   1.000000
    6      -15.045455   1.000000
    7      -10.383016   1.000000
    8      -10.355922   1.000000
    9      -10.355922   1.000000
   10       -3.904922   1.000000
   11        2.827901   1.000000
   12        3.773693   1.000000
   13        3.773693   1.000000
   14        4.050726   1.000000
   15        4.124875   1.000000
   16        5.273190   1.000000
   17        6.309882   1.000000
   18        6.309882   1.000000
   19        7.459916   1.000000
   20        7.836905   0.000019
   21        8.727505   0.000000
   22        8.727505   0.000000
   23        9.388013   0.000000
   24        9.597583   0.000000

  0.2307692E+00  0.1538462E+00 -0.1883800E-17  0.1092399E-01
    1      -32.439469   1.000000
    2      -15.081640   1.000000
    3      -15.075279   1.000000
    4      -15.047548   1.000000
    5      -15.045095   1.000000
    6      -15.044999   1.000000
    7      -10.410614   1.000000
    8      -10.356978   1.000000
    9      -10.352743   1.000000
   10       -3.780330   1.000000
   11        2.598455   1.000000
   12        3.653966   1.000000
   13        3.729972   1.000000
   14        4.106076   1.000000
   15        4.174093   1.000000
   16        5.096394   1.000000
   17        6.113754   1.000000
   18        6.202586   1.000000
   19        7.631840   1.000000
   20        7.947303   0.000000
   21        8.911569   0.000000
   22        8.986292   0.000000
   23        9.557281   0.000000
   24        9.575658   0.000000

  0.3076923E+00  0.1538462E+00  0.1690029E-17  0.1092399E-01
    1      -32.438695   1.000000
    2      -15.082627   1.000000
    3      -15.076639   1.000000
    4      -15.047828   1.000000
    5      -15.044810   1.000000
    6      -15.044457   1.000000
    7      -10.447956   1.000000
    8      -10.354349   1.000000
    9      -10.348035   1.000000
   10       -3.623415   1.000000
   11        2.433823   1.000000
   12        3.448456   1.000000
   13        3.648233   1.000000
   14        4.127341   1.000000
   15        4.246177   1.000000
   16        4.829924   1.000000
   17        5.926231   1.000000
   18        6.161840   1.000000
   19        7.683654   1.000000
   20        8.346424   0.000000
   21        9.061592   0.000000
   22        9.283676   0.000000
   23        9.561628   0.000000
   24        9.665419   0.000000

  0.3846154E+00  0.1538462E+00 -0.1100349E-16  0.1092399E-01
    1      -32.437941   1.000000
    2      -15.083038   1.000000
    3      -15.078769   1.000000
    4      -15.047982   1.000000
    5      -15.044648   1.000000
    6      -15.043984   1.000000
    7      -10.482204   1.000000
    8      -10.348650   1.000000
    9      -10.346796   1.000000
   10       -3.471436   1.000000
   11        2.334277   1.000000
   12        3.296156   1.000000
   13        3.555618   1.000000
   14        4.109077   1.000000
   15        4.259064   1.000000
   16        4.565759   1.000000
   17        5.836014   1.000000
   18        6.165562   1.000000
   19        7.670931   1.000000
   20        8.788620   0.000000
   21        9.174744   0.000000
   22        9.476183   0.000000
   23        9.553790   0.000000
   24        9.694017   0.000000

  0.4615385E+00  0.1538462E+00  0.2923376E-17  0.1092399E-01
    1      -32.437376   1.000000
    2      -15.082776   1.000000
    3      -15.081158   1.000000
    4      -15.048006   1.000000
    5      -15.044587   1.000000
    6      -15.043694   1.000000
    7      -10.505998   1.000000
    8      -10.349579   1.000000
    9      -10.341175   1.000000
   10       -3.357330   1.000000
   11        2.281653   1.000000
   12        3.238905   1.000000
   13        3.440682   1.000000
   14        4.112073   1.000000
   15        4.216067   1.000000
   16        4.375945   1.000000
   17        5.809666   1.000000
   18        6.175070   1.000000
   19        7.724725   1.000000
   20        8.987474   0.000000
   21        9.244156   0.000000
   22        9.506406   0.000000
   23        9.543135   0.000000
   24        9.709073   0.000000

 -0.4615385E+00  0.1538462E+00 -0.1505095E-16  0.1092399E-01
    1      -32.437131   1.000000
    2      -15.083254   1.000000
    3      -15.081922   1.000000
    4      -15.047901   1.000000
    5      -15.044603   1.000000
    6      -15.043670   1.000000
    7      -10.515321   1.000000
    8      -10.355459   1.000000
    9      -10.333614   1.000000
   10       -3.303121   1.000000
   11        2.256571   1.000000
   12        3.277126   1.000000
   13        3.311651   1.000000
   14        4.145376   1.000000
   15        4.168258   1.000000
   16        4.299815   1.000000
   17        5.793640   1.000000
   18        6.175050   1.000000
   19        7.814062   0.187570
   20        8.972978   0.000000
   21        9.251507   0.000000
   22        9.531578   0.000000
   23        9.545941   0.000000
   24        9.684442   0.000000

 -0.3846154E+00  0.1538462E+00  0.2179455E-17  0.1092399E-01
    1      -32.437262   1.000000
    2      -15.084578   1.000000
    3      -15.080644   1.000000
    4      -15.047686   1.000000
    5      -15.044675   1.000000
    6      -15.043907   1.000000
    7      -10.509198   1.000000
    8      -10.362569   1.000000
    9      -10.327685   1.000000
   10       -3.319063   1.000000
   11        2.260624   1.000000
   12        3.199046   1.000000
   13        3.384684   1.000000
   14        4.084337   1.000000
   15        4.261874   1.000000
   16        4.344965   1.000000
   17        5.747373   1.000000
   18        6.178598   1.000000
   19        7.844053   0.000000
   20        9.006410   0.000000
   21        9.164225   0.000000
   22        9.535479   0.000000
   23        9.559074   0.000000
   24        9.690771   0.000000

 -0.3076923E+00  0.1538462E+00 -0.6989317E-17  0.1092399E-01
    1      -32.437739   1.000000
    2      -15.084860   1.000000
    3      -15.079227   1.000000
    4      -15.047445   1.000000
    5      -15.044789   1.000000
    6      -15.044339   1.000000
    7      -10.489471   1.000000
    8      -10.368455   1.000000
    9      -10.324745   1.000000
   10       -3.404130   1.000000
   11        2.317960   1.000000
   12        3.131171   1.000000
   13        3.529481   1.000000
   14        4.057518   1.000000
   15        4.353913   1.000000
   16        4.495194   1.000000
   17        5.665145   1.000000
   18        6.214557   1.000000
   19        7.827825   0.002304
   20        8.976636   0.000000
   21        9.030061   0.000000
   22        9.539424   0.000000
   23        9.554086   0.000000
   24        9.718341   0.000000

 -0.2307692E+00  0.1538462E+00  0.1092606E-18  0.1092399E-01
    1      -32.438455   1.000000
    2      -15.084028   1.000000
    3      -15.077980   1.000000
    4      -15.047237   1.000000
    5      -15.044944   1.000000
    6      -15.044854   1.000000
    7      -10.460982   1.000000
    8      -10.370350   1.000000
    9      -10.325495   1.000000
   10       -3.543250   1.000000
   11        2.456936   1.000000
   12        3.125347   1.000000
   13        3.678221   1.000000
   14        4.050245   1.000000
   15        4.402499   1.000000
   16        4.720895   1.000000
   17        5.604531   1.000000
   18        6.307140   1.000000
   19        7.820351   0.037844
   20        8.728059   0.000000
   21        8.853115   0.000000
   22        9.448594   0.000000
   23        9.577772   0.000000
   24        9.722900   0.000000

 -0.1538462E+00  0.1538462E+00 -0.9059511E-17  0.5461994E-02
    1      -32.439244   1.000000
    2      -15.082293   1.000000
    3      -15.077216   1.000000
    4      -15.047058   1.000000
    5      -15.045339   1.000000
    6      -15.045175   1.000000
    7      -10.431679   1.000000
    8      -10.365443   1.000000
    9      -10.329778   1.000000
   10       -3.706031   1.000000
   11        2.686782   1.000000
   12        3.188101   1.000000
   13        3.773912   1.000000
   14        4.041569   1.000000
   15        4.384974   1.000000
   16        4.928063   1.000000
   17        5.724234   1.000000
   18        6.444412   1.000000
   19        7.739351   1.000000
   20        8.489062   0.000000
   21        8.518520   0.000000
   22        9.247384   0.000000
   23        9.603818   0.000000
   24        9.627185   0.000000

  0.2307692E+00  0.2307692E+00 -0.7678695E-17  0.2730997E-02
    1      -32.439011   1.000000
    2      -15.082008   1.000000
    3      -15.074281   1.000000
    4      -15.048109   1.000000
    5      -15.044558   1.000000
    6      -15.044558   1.000000
    7      -10.415850   1.000000
    8      -10.362556   1.000000
    9      -10.362556   1.000000
   10       -3.716955   1.000000
   11        2.433569   1.000000
   12        3.789171   1.000000
   13        3.789171   1.000000
   14        4.018166   1.000000
   15        4.116825   1.000000
   16        5.089573   1.000000
   17        6.114194   1.000000
   18        6.114194   1.000000
   19        7.414896   1.000000
   20        8.168430   0.000000
   21        9.052238   0.000000
   22        9.052238   0.000000
   23        9.530081   0.000000
   24        9.628875   0.000000

  0.3076923E+00  0.2307692E+00 -0.4553022E-17  0.1092399E-01
    1      -32.438374   1.000000
    2      -15.081843   1.000000
    3      -15.074516   1.000000
    4      -15.048510   1.000000
    5      -15.044148   1.000000
    6      -15.044027   1.000000
    7      -10.440255   1.000000
    8      -10.363945   1.000000
    9      -10.362954   1.000000
   10       -3.622588   1.000000
   11        2.360000   1.000000
   12        3.635464   1.000000
   13        3.752669   1.000000
   14        4.073304   1.000000
   15        4.147259   1.000000
   16        4.950244   1.000000
   17        5.945940   1.000000
   18        6.090295   1.000000
   19        7.563557   1.000000
   20        8.345096   0.000000
   21        9.159493   0.000000
   22        9.218887   0.000000
   23        9.499447   0.000000
   24        9.655453   0.000000

  0.3846154E+00  0.2307692E+00 -0.1019704E-16  0.1092399E-01
    1      -32.437711   1.000000
    2      -15.081193   1.000000
    3      -15.075937   1.000000
    4      -15.048632   1.000000
    5      -15.044014   1.000000
    6      -15.043551   1.000000
    7      -10.467165   1.000000
    8      -10.364495   1.000000
    9      -10.360854   1.000000
   10       -3.521756   1.000000
   11        2.379616   1.000000
   12        3.432500   1.000000
   13        3.667883   1.000000
   14        4.155433   1.000000
   15        4.165044   1.000000
   16        4.744941   1.000000
   17        5.718097   1.000000
   18        6.105726   1.000000
   19        7.704119   1.000000
   20        8.692587   0.000000
   21        9.241322   0.000000
   22        9.399763   0.000000
   23        9.500776   0.000000
   24        9.674586   0.000000

  0.4615385E+00  0.2307692E+00 -0.6623216E-17  0.1092399E-01
    1      -32.437172   1.000000
    2      -15.080220   1.000000
    3      -15.078176   1.000000
    4      -15.048426   1.000000
    5      -15.044175   1.000000
    6      -15.043247   1.000000
    7      -10.486351   1.000000
    8      -10.371229   1.000000
    9      -10.353994   1.000000
   10       -3.435254   1.000000
   11        2.454209   1.000000
   12        3.298542   1.000000
   13        3.541046   1.000000
   14        4.177733   1.000000
   15        4.199928   1.000000
   16        4.546163   1.000000
   17        5.560924   1.000000
   18        6.113869   1.000000
   19        7.771032   1.000000
   20        8.949895   0.000000
   21        9.301430   0.000000
   22        9.470765   0.000000
   23        9.514688   0.000000
   24        9.720075   0.000000

 -0.4615385E+00  0.2307692E+00 -0.7416216E-17  0.1092399E-01
    1      -32.436876   1.000000
    2      -15.080708   1.000000
    3      -15.079168   1.000000
    4      -15.047929   1.000000
    5      -15.044582   1.000000
    6      -15.043211   1.000000
    7      -10.493855   1.000000
    8      -10.381972   1.000000
    9      -10.344911   1.000000
   10       -3.376482   1.000000
   11        2.506404   1.000000
   12        3.262682   1.000000
   13        3.389906   1.000000
   14        4.162157   1.000000
   15        4.237687   1.000000
   16        4.448600   1.000000
   17        5.467364   1.000000
   18        6.099554   1.000000
   19        7.880646   0.000000
   20        8.918624   0.000000
   21        9.329306   0.000000
   22        9.514536   0.000000
   23        9.516608   0.000000
   24        9.698361   0.000000

 -0.3846154E+00  0.2307692E+00  0.9814192E-17  0.1092399E-01
    1      -32.436895   1.000000
    2      -15.082964   1.000000
    3      -15.078276   1.000000
    4      -15.047292   1.000000
    5      -15.045072   1.000000
    6      -15.043441   1.000000
    7      -10.490055   1.000000
    8      -10.392737   1.000000
    9      -10.335660   1.000000
   10       -3.354056   1.000000
   11        2.477081   1.000000
   12        3.247780   1.000000
   13        3.325355   1.000000
   14        4.107374   1.000000
   15        4.321145   1.000000
   16        4.477265   1.000000
   17        5.394965   1.000000
   18        6.084761   1.000000
   19        8.009121   0.000000
   20        8.867784   0.000000
   21        9.285692   0.000000
   22        9.510420   0.000000