 vasp.6.0.8 29Jun18 (build Jun 13 2019 12:54:44) complex

 executed on      IFC18_CrayMPICH date 2021.12.05  14:21:48
 running   64 mpi-ranks, with    1 threads/rank
 distrk:  each k-point on   16 cores,    4 groups
 distr:  one band on NCORES_PER_BAND=   4 cores,    4 groups


--------------------------------------------------------------------------------------------------------


 INCAR:
 POTCAR:    PAW_PBE Th 07Sep2000
 POTCAR:    PAW_PBE Bi_d 06Sep2000
 POTCAR:    PAW_PBE Pt 04Feb2005
 POTCAR:    PAW_PBE Th 07Sep2000
   VRHFIN =Th:  [Xe,5d,4f]
   LEXCH  = PE
   EATOM  =   984.7553 eV,   72.3775 Ry

   TITEL  = PAW_PBE Th 07Sep2000
   LULTRA =        F    use ultrasoft PP ?
   IUNSCR =        1    unscreen: 0-lin 1-nonlin 2-no
   RPACOR =    2.200    partial core radius
   POMASS =  232.039; ZVAL   =   12.000    mass and valenz
   RCORE  =    2.800    outmost cutoff radius
   RWIGS  =    3.000; RWIGS  =    1.588    wigner-seitz radius (au A)
   ENMAX  =  247.306; ENMIN  =  185.480 eV
   RCLOC  =    2.211    cutoff for local pot
   LCOR   =        T    correct aug charges
   LPAW   =        T    paw PP
   EAUG   =  535.431
   DEXC   =    0.000
   RMAX   =    2.862    core radius for proj-oper
   RAUG   =    1.300    factor for augmentation sphere
   RDEP   =    2.926    radius for radial grids
   RDEPT  =    2.250    core radius for aug-charge

   Atomic configuration
   18 entries
     n  l   j            E        occ.
     1  0  0.50   -109990.1879   2.0000
     2  0  0.50    -20388.0147   2.0000
     2  1  1.50    -17049.6156   6.0000
     3  0  0.50     -5106.5436   2.0000
     3  1  1.50     -4175.1262   6.0000
     3  2  2.50     -3342.8437  10.0000
     4  0  0.50     -1280.8211   2.0000
     4  1  1.50      -976.4859   6.0000
     4  2  2.50      -661.8358  10.0000
     4  3  3.50      -324.9124  14.0000
     5  0  0.50      -278.7726   2.0000
     5  1  1.50      -186.2212   6.0000
     5  2  2.50       -86.9031  10.0000
     6  0  0.50       -43.3059   2.0000
     7  0  0.50        -4.0783   2.0000
     6  1  1.50       -21.4071   6.0000
     6  2  1.50        -2.3664   1.0000
     5  3  2.50        -1.2804   1.0000
   Description
     l       E           TYP  RCUT    TYP  RCUT
     0    -43.3059201     23  2.800
     0     -4.0782900     23  2.800
     1    -21.4071032     23  2.500
     1    -22.7676858     23  2.500
     2     -2.3664170     23  2.500
     2      3.0546543     23  2.500
     3     -1.2803910     23  2.800
     3      0.1360583     23  2.800
  local pseudopotential read in
  partial core-charges read in
  partial kinetic energy density read in
  atomic valenz-charges read in
  non local Contribution for L=           0  read in
    real space projection operators read in
  non local Contribution for L=           0  read in
    real space projection operators read in
  non local Contribution for L=           1  read in
    real space projection operators read in
  non local Contribution for L=           1  read in
    real space projection operators read in
  non local Contribution for L=           2  read in
    real space projection operators read in
  non local Contribution for L=           2  read in
    real space projection operators read in
  non local Contribution for L=           3  read in
    real space projection operators read in
  non local Contribution for L=           3  read in
    real space projection operators read in
    PAW grid and wavefunctions read in

   number of l-projection  operators is LMAX  =           8
   number of lm-projection operators is LMMAX =          32

 POTCAR:    PAW_PBE Bi_d 06Sep2000
   VRHFIN =Bi:
   LEXCH  = PE
   EATOM  =  1959.2045 eV,  143.9975 Ry

   TITEL  = PAW_PBE Bi_d 06Sep2000
   LULTRA =        F    use ultrasoft PP ?
   IUNSCR =        1    unscreen: 0-lin 1-nonlin 2-no
   RPACOR =    2.200    partial core radius
   POMASS =  208.980; ZVAL   =   15.000    mass and valenz
   RCORE  =    2.500    outmost cutoff radius
   RWIGS  =    3.090; RWIGS  =    1.635    wigner-seitz radius (au A)
   ENMAX  =  242.839; ENMIN  =  182.129 eV
   ICORE  =        3    local potential
   LCOR   =        T    correct aug charges
   LPAW   =        T    paw PP
   EAUG   =  442.899
   DEXC   =    0.000
   RMAX   =    2.551    core radius for proj-oper
   RAUG   =    1.300    factor for augmentation sphere
   RDEP   =    2.650    radius for radial grids
   RDEPT  =    2.039    core radius for aug-charge

   Atomic configuration
   16 entries
     n  l   j            E        occ.
     1  0  0.50    -90639.6581   2.0000
     2  0  0.50    -16282.4666   2.0000
     2  1  1.50    -13922.8286   6.0000
     3  0  0.50     -3930.4763   2.0000
     3  1  1.50     -3256.7013   6.0000
     3  2  2.50     -2581.6168  10.0000
     4  0  0.50      -902.2614   2.0000
     4  1  1.50      -681.5915   6.0000
     4  2  2.50      -429.8249  10.0000
     4  3  3.50      -152.6004  14.0000
     5  0  0.50      -157.7156   2.0000
     5  1  1.50       -95.8054   6.0000
     5  2  2.50       -27.0806  10.0000
     6  0  0.50       -14.4732   2.0000
     6  1  1.50        -4.5702   3.0000
     5  3  2.50        -2.7212   0.0000
   Description
     l       E           TYP  RCUT    TYP  RCUT
     2    -27.0805982     23  2.500
     2     -1.3605826     23  2.500
     0    -14.4732271     23  2.500
     0      6.8029130     23  2.500
     1     -4.5701651     23  2.500
     1     13.6058260     23  2.500
     3     -1.3605826      7  2.500
  local pseudopotential read in
  partial core-charges read in
  partial kinetic energy density read in
  atomic valenz-charges read in
  non local Contribution for L=           2  read in
    real space projection operators read in
  non local Contribution for L=           2  read in
    real space projection operators read in
  non local Contribution for L=           0  read in
    real space projection operators read in
  non local Contribution for L=           0  read in
    real space projection operators read in
  non local Contribution for L=           1  read in
    real space projection operators read in
  non local Contribution for L=           1  read in
    real space projection operators read in
    PAW grid and wavefunctions read in

   number of l-projection  operators is LMAX  =           6
   number of lm-projection operators is LMMAX =          18

 POTCAR:    PAW_PBE Pt 04Feb2005
   VRHFIN =Pt: s1d9
   LEXCH  = PE
   EATOM  =   729.1176 eV,   53.5886 Ry

   TITEL  = PAW_PBE Pt 04Feb2005
   LULTRA =        F    use ultrasoft PP ?
   IUNSCR =        1    unscreen: 0-lin 1-nonlin 2-no
   RPACOR =    2.330    partial core radius
   POMASS =  195.080; ZVAL   =   10.000    mass and valenz
   RCORE  =    2.600    outmost cutoff radius
   RWIGS  =    2.750; RWIGS  =    1.455    wigner-seitz radius (au A)
   ENMAX  =  230.283; ENMIN  =  172.712 eV
   ICORE  =        3    local potential
   LCOR   =        T    correct aug charges
   LPAW   =        T    paw PP
   EAUG   =  358.966
   DEXC   =    0.000
   RMAX   =    2.658    core radius for proj-oper
   RAUG   =    1.300    factor for augmentation sphere
   RDEP   =    2.761    radius for radial grids
   RDEPT  =    2.203    core radius for aug-charge

   Atomic configuration
   16 entries
     n  l   j            E        occ.
     1  0  0.50    -78401.1885   2.0000
     2  0  0.50    -13770.7750   2.0000
     2  1  1.50    -11931.0468   6.0000
     3  0  0.50     -3234.7234   2.0000
     3  1  1.50     -2699.2216   6.0000
     3  2  2.50     -2119.5714  10.0000
     4  0  0.50      -695.1528   2.0000
     4  1  1.50      -519.6034   6.0000
     4  2  2.50      -306.6786  10.0000
     4  3  3.50       -70.1041  14.0000
     5  0  0.50      -101.7747   2.0000
     5  1  1.50       -55.9873   6.0000
     5  2  2.50        -6.1423   9.0000
     6  0  0.50        -5.6573   1.0000
     6  1  1.50        -6.8029   0.0000
     5  3  2.50        -1.3606   0.0000
   Description
     l       E           TYP  RCUT    TYP  RCUT
     2     -6.1423404     23  2.500
     2     -7.5029230     23  2.500
     0     -5.6573207     23  2.500
     0      0.7416693     23  2.500
     1     -2.7211652     23  2.600
     1     20.4087390     23  2.600
     3     -1.3605826     23  2.500
  local pseudopotential read in
  partial core-charges read in
  partial kinetic energy density read in
  atomic valenz-charges read in
  non local Contribution for L=           2  read in
    real space projection operators read in
  non local Contribution for L=           2  read in
    real space projection operators read in
  non local Contribution for L=           0  read in
    real space projection operators read in
  non local Contribution for L=           0  read in
    real space projection operators read in
  non local Contribution for L=           1  read in
    real space projection operators read in
  non local Contribution for L=           1  read in
    real space projection operators read in
    PAW grid and wavefunctions read in

   number of l-projection  operators is LMAX  =           6
   number of lm-projection operators is LMMAX =          18

 WARNING: PSMAXN for non-local potential too small
          PSMAXN should be >   13.5545592237991       NTYP=           1

 -----------------------------------------------------------------------------
|                                                                             |
|  ADVICE TO THIS USER RUNNING 'VASP/VAMP'   (HEAR YOUR MASTER'S VOICE ...):  |
|                                                                             |
|      You enforced a specific xc-type in the INCAR file,                     |
|      a different type was found on the POTCAR file                          |
|          I HOPE YOU KNOW, WHAT YOU ARE  DOING                               |
|                                                                             |
 -----------------------------------------------------------------------------

  PAW_PBE Th 07Sep2000                  :
 energy of atom  1       EATOM= -984.7553
 kinetic energy error for atom=    0.0005 (will be added to EATOM!!)
  PAW_PBE Bi_d 06Sep2000                :
 energy of atom  2       EATOM=-1959.2045
 kinetic energy error for atom=    0.0012 (will be added to EATOM!!)
  PAW_PBE Pt 04Feb2005                  :
 energy of atom  3       EATOM= -729.1176
 kinetic energy error for atom=    0.0010 (will be added to EATOM!!)


 POSCAR: Th1 Bi1 Pt1
  positions in direct lattice
  No initial velocities read in
 exchange correlation table for  LEXCH =       14
   RHO(1)=    0.500       N(1)  =     2000
   RHO(2)=  100.500       N(2)  =     4000



--------------------------------------------------------------------------------------------------------


 ion  position               nearest neighbor table
   1  0.250  0.250  0.250-   3 3.02   3 3.02   3 3.02   3 3.02   2 3.49   2 3.49   2 3.49   2 3.49
                             2 3.49   2 3.49
   2  0.750  0.750  0.750-   3 3.02   3 3.02   3 3.02   3 3.02   1 3.49   1 3.49   1 3.49   1 3.49
                             1 3.49   1 3.49
   3  0.000  0.000  0.000-   2 3.02   1 3.02   2 3.02   1 3.02   2 3.02   2 3.02   1 3.02   1 3.02


  LATTYP: Found a face centered cubic cell.
 ALAT       =     6.9840603028

  Lattice vectors:

 A1 = (   0.0000000000,   3.4920301514,   3.4920301514)
 A2 = (   3.4920301514,   0.0000000000,   3.4920301514)
 A3 = (   3.4920301514,   3.4920301514,   0.0000000000)


Analysis of symmetry for initial positions (statically):
=====================================================================
 Subroutine PRICEL returns:
 Original cell was already a primitive cell.


 Routine SETGRP: Setting up the symmetry group for a
 face centered cubic supercell.


 Subroutine GETGRP returns: Found 24 space group operations
 (whereof 24 operations were pure point group operations)
 out of a pool of 48 trial point group operations.


The static configuration has the point symmetry T_d .


Analysis of symmetry for dynamics (positions and initial velocities):
=====================================================================
 Subroutine PRICEL returns:
 Original cell was already a primitive cell.


 Routine SETGRP: Setting up the symmetry group for a
 face centered cubic supercell.


 Subroutine GETGRP returns: Found 24 space group operations
 (whereof 24 operations were pure point group operations)
 out of a pool of 48 trial point group operations.


The dynamic configuration has the point symmetry T_d .


 Subroutine INISYM returns: Found 24 space group operations
 (whereof 24 operations are pure point group operations),
 and found     1 'primitive' translations


----------------------------------------------------------------------------------------

                                     Primitive cell

  volume of cell :      85.1655

  direct lattice vectors                    reciprocal lattice vectors
     0.000000000  3.492030151  3.492030151    -0.143183185  0.143183185  0.143183185
     3.492030151  0.000000000  3.492030151     0.143183185 -0.143183185  0.143183185
     3.492030151  3.492030151  0.000000000     0.143183185  0.143183185 -0.143183185

  length of vectors
     4.938476400  4.938476400  4.938476400     0.248000552  0.248000552  0.248000552

  position of ions in fractional coordinates (direct lattice)
     0.250000000  0.250000000  0.250000000
     0.750000000  0.750000000  0.750000000
     0.000000000  0.000000000  0.000000000

  ion indices of the primitive-cell ions
   primitive index   ion index
                 1           1
                 2           2
                 3           3

----------------------------------------------------------------------------------------



 KPOINTS: KPOINTS

Automatic generation of k-mesh.
Space group operators:
 irot       det(A)        alpha          n_x          n_y          n_z        tau_x        tau_y        tau_z
    1     1.000000     0.000000     1.000000     0.000000     0.000000     0.000000     0.000000     0.000000
    2     1.000000   120.000000    -0.577350    -0.577350    -0.577350     0.000000     0.000000     0.000000
    3     1.000000   120.000000     0.577350     0.577350     0.577350     0.000000     0.000000     0.000000
    4    -1.000000    90.000000    -0.000000    -0.000000    -1.000000     0.000000     0.000000     0.000000
    5    -1.000000   180.000000     0.000000     0.707107     0.707107     0.000000     0.000000     0.000000
    6    -1.000000    90.000000    -0.000000     1.000000    -0.000000     0.000000     0.000000     0.000000
    7     1.000000   180.000000     0.000000     0.000000     1.000000     0.000000     0.000000     0.000000
    8     1.000000   120.000000    -0.577350     0.577350     0.577350     0.000000     0.000000     0.000000
    9     1.000000   120.000000    -0.577350     0.577350    -0.577350     0.000000     0.000000     0.000000
   10    -1.000000    90.000000     0.000000     0.000000     1.000000     0.000000     0.000000     0.000000
   11    -1.000000    90.000000    -1.000000     0.000000     0.000000     0.000000     0.000000     0.000000
   12    -1.000000   180.000000     0.707107     0.000000     0.707107     0.000000     0.000000     0.000000
   13     1.000000   120.000000     0.577350    -0.577350     0.577350     0.000000     0.000000     0.000000
   14     1.000000   120.000000    -0.577350    -0.577350     0.577350     0.000000     0.000000     0.000000
   15     1.000000   180.000000     1.000000     0.000000     0.000000     0.000000     0.000000     0.000000
   16    -1.000000    90.000000     0.000000    -1.000000     0.000000     0.000000     0.000000     0.000000
   17    -1.000000   180.000000     0.707107     0.707107    -0.000000     0.000000     0.000000     0.000000
   18    -1.000000    90.000000     1.000000     0.000000     0.000000     0.000000     0.000000     0.000000
   19     1.000000   120.000000     0.577350    -0.577350    -0.577350     0.000000     0.000000     0.000000
   20     1.000000   180.000000    -0.000000    -1.000000     0.000000     0.000000     0.000000     0.000000
   21     1.000000   120.000000     0.577350     0.577350    -0.577350     0.000000     0.000000     0.000000
   22    -1.000000   180.000000    -0.000000    -0.707107     0.707107     0.000000     0.000000     0.000000
   23    -1.000000   180.000000     0.707107    -0.707107     0.000000     0.000000     0.000000     0.000000
   24    -1.000000   180.000000     0.707107     0.000000    -0.707107     0.000000     0.000000     0.000000

 Subroutine IBZKPT returns following result:
 ===========================================

 Found     84 irreducible k-points:

 Following reciprocal coordinates:
            Coordinates               Weight
  0.000000  0.000000  0.000000      1.000000
  0.076923  0.000000 -0.000000      8.000000
  0.153846  0.000000  0.000000      8.000000
  0.230769  0.000000 -0.000000      8.000000
  0.307692  0.000000  0.000000      8.000000
  0.384615 -0.000000  0.000000      8.000000
  0.461538 -0.000000  0.000000      8.000000
  0.076923  0.076923 -0.000000      6.000000
  0.153846  0.076923 -0.000000     24.000000
  0.230769  0.076923 -0.000000     24.000000
  0.307692  0.076923 -0.000000     24.000000
  0.384615  0.076923  0.000000     24.000000
  0.461538  0.076923  0.000000     24.000000
 -0.461538  0.076923  0.000000     24.000000
 -0.384615  0.076923  0.000000     24.000000
 -0.307692  0.076923  0.000000     24.000000
 -0.230769  0.076923  0.000000     24.000000
 -0.153846  0.076923  0.000000     24.000000
 -0.076923  0.076923  0.000000     12.000000
  0.153846  0.153846 -0.000000      6.000000
  0.230769  0.153846 -0.000000     24.000000
  0.307692  0.153846  0.000000     24.000000
  0.384615  0.153846 -0.000000     24.000000
  0.461538  0.153846  0.000000     24.000000
 -0.461538  0.153846 -0.000000     24.000000
 -0.384615  0.153846  0.000000     24.000000
 -0.307692  0.153846 -0.000000     24.000000
 -0.230769  0.153846  0.000000     24.000000
 -0.153846  0.153846 -0.000000     12.000000
  0.230769  0.230769 -0.000000      6.000000
  0.307692  0.230769 -0.000000     24.000000
  0.384615  0.230769 -0.000000     24.000000
  0.461538  0.230769 -0.000000     24.000000
 -0.461538  0.230769 -0.000000     24.000000
 -0.384615  0.230769  0.000000     24.000000
 -0.307692  0.230769  0.000000     24.000000
 -0.230769  0.230769  0.000000     12.000000
  0.307692  0.307692 -0.000000      6.000000
  0.384615  0.307692 -0.000000     24.000000
  0.461538  0.307692 -0.000000     24.000000
 -0.461538  0.307692  0.000000     24.000000
 -0.384615  0.307692 -0.000000     24.000000
 -0.307692  0.307692 -0.000000     12.000000
  0.384615  0.384615 -0.000000      6.000000
  0.461538  0.384615 -0.000000     24.000000
 -0.461538  0.384615  0.000000     24.000000
 -0.384615  0.384615 -0.000000     12.000000
  0.461538  0.461538 -0.000000      6.000000
 -0.461538  0.461538 -0.000000     12.000000
  0.230769  0.153846  0.076923     24.000000
  0.307692  0.153846  0.076923     48.000000
  0.384615  0.153846  0.076923     48.000000
  0.461538  0.153846  0.076923     48.000000
 -0.461538  0.153846  0.076923     48.000000
  0.307692  0.230769  0.076923     24.000000
  0.384615  0.230769  0.076923     48.000000
  0.461538  0.230769  0.076923     48.000000
 -0.461538  0.230769  0.076923     48.000000
 -0.384615  0.230769  0.076923     48.000000
 -0.307692  0.230769  0.076923     48.000000
 -0.230769  0.230769  0.076923     48.000000
 -0.153846  0.230769  0.076923     24.000000
  0.384615  0.307692  0.076923     24.000000
  0.461538  0.307692  0.076923     48.000000
 -0.461538  0.307692  0.076923     48.000000
 -0.384615  0.307692  0.076923     48.000000
 -0.307692  0.307692  0.076923     48.000000
 -0.230769  0.307692  0.076923     24.000000
  0.461538  0.384615  0.076923     24.000000
 -0.461538  0.384615  0.076923     48.000000
 -0.384615  0.384615  0.076923     48.000000
 -0.307692  0.384615  0.076923     24.000000
 -0.461538  0.461538  0.076923     24.000000
 -0.384615  0.461538  0.076923     24.000000
  0.461538  0.307692  0.153846     24.000000
 -0.461538  0.307692  0.153846     48.000000
 -0.384615  0.307692  0.153846     48.000000
 -0.461538  0.384615  0.153846     24.000000
 -0.384615  0.384615  0.153846     48.000000
 -0.307692  0.384615  0.153846     48.000000
 -0.230769  0.384615  0.153846     24.000000
 -0.384615  0.461538  0.153846     24.000000
 -0.307692  0.461538  0.153846     24.000000
 -0.307692  0.461538  0.230769     24.000000

 Following cartesian coordinates:
            Coordinates               Weight
  0.000000  0.000000  0.000000      1.000000
 -0.011230  0.011230  0.011230      8.000000
 -0.022460  0.022460  0.022460      8.000000
 -0.033690  0.033690  0.033690      8.000000
 -0.044920  0.044920  0.044920      8.000000
 -0.056151  0.056151  0.056151      8.000000
 -0.067381  0.067381  0.067381      8.000000
 -0.000000 -0.000000  0.022460      6.000000
 -0.011230  0.011230  0.033690     24.000000
 -0.022460  0.022460  0.044920     24.000000
 -0.033690  0.033690  0.056151     24.000000
 -0.044920  0.044920  0.067381     24.000000
 -0.056151  0.056151  0.078611     24.000000
  0.078611 -0.078611 -0.056151     24.000000
  0.067381 -0.067381 -0.044920     24.000000
  0.056151 -0.056151 -0.033690     24.000000
  0.044920 -0.044920 -0.022460     24.000000
  0.033690 -0.033690 -0.011230     24.000000
  0.022460 -0.022460 -0.000000     12.000000
  0.000000 -0.000000  0.044920      6.000000
 -0.011230  0.011230  0.056151     24.000000
 -0.022460  0.022460  0.067381     24.000000
 -0.033690  0.033690  0.078611     24.000000
 -0.044920  0.044920  0.089841     24.000000
  0.089841 -0.089841 -0.044920     24.000000
  0.078611 -0.078611 -0.033690     24.000000
  0.067381 -0.067381 -0.022460     24.000000
  0.056151 -0.056151 -0.011230     24.000000
  0.044920 -0.044920 -0.000000     12.000000
  0.000000 -0.000000  0.067381      6.000000
 -0.011230  0.011230  0.078611     24.000000
 -0.022460  0.022460  0.089841     24.000000
 -0.033690  0.033690  0.101071     24.000000
  0.101071 -0.101071 -0.033690     24.000000
  0.089841 -0.089841 -0.022460     24.000000
  0.078611 -0.078611 -0.011230     24.000000
  0.067381 -0.067381 -0.000000     12.000000
  0.000000 -0.000000  0.089841      6.000000
 -0.011230  0.011230  0.101071     24.000000
 -0.022460  0.022460  0.112301     24.000000
  0.112301 -0.112301 -0.022460     24.000000
  0.101071 -0.101071 -0.011230     24.000000
  0.089841 -0.089841 -0.000000     12.000000
  0.000000 -0.000000  0.112301      6.000000
 -0.011230  0.011230  0.123531     24.000000
  0.123531 -0.123531 -0.011230     24.000000
  0.112301 -0.112301 -0.000000     12.000000
  0.000000 -0.000000  0.134761      6.000000
  0.134761 -0.134761 -0.000000     12.000000
  0.000000  0.022460  0.044920     24.000000
 -0.011230  0.033690  0.056151     48.000000
 -0.022460  0.044920  0.067381     48.000000
 -0.033690  0.056151  0.078611     48.000000
  0.101071 -0.078611 -0.056151     48.000000
  0.000000  0.022460  0.067381     24.000000
 -0.011230  0.033690  0.078611     48.000000
 -0.022460  0.044920  0.089841     48.000000
  0.112301 -0.089841 -0.044920     48.000000
  0.101071 -0.078611 -0.033690     48.000000
  0.089841 -0.067381 -0.022460     48.000000
  0.078611 -0.056151 -0.011230     48.000000
  0.067381 -0.044920 -0.000000     24.000000
  0.000000  0.022460  0.089841     24.000000
 -0.011230  0.033690  0.101071     48.000000
  0.123531 -0.101071 -0.033690     48.000000
  0.112301 -0.089841 -0.022460     48.000000
  0.101071 -0.078611 -0.011230     48.000000
  0.089841 -0.067381 -0.000000     24.000000
  0.000000  0.022460  0.112301     24.000000
  0.134761 -0.112301 -0.022460     48.000000
  0.123531 -0.101071 -0.011230     48.000000
  0.112301 -0.089841 -0.000000     24.000000
  0.145991 -0.123531 -0.011230     24.000000
  0.134761 -0.112301 -0.000000     24.000000
 -0.000000  0.044920  0.089841     24.000000
  0.134761 -0.089841 -0.044920     48.000000
  0.123531 -0.078611 -0.033690     48.000000
  0.145991 -0.101071 -0.033690     24.000000
  0.134761 -0.089841 -0.022460     48.000000
  0.123531 -0.078611 -0.011230     48.000000
  0.112301 -0.067381 -0.000000     24.000000
  0.145991 -0.101071 -0.011230     24.000000
  0.134761 -0.089841 -0.000000     24.000000
  0.145991 -0.078611 -0.011230     24.000000



--------------------------------------------------------------------------------------------------------




 Dimension of arrays:
   k-points           NKPTS =     84   k-points in BZ     NKDIM =     84   number of bands    NBANDS=     24
   number of dos      NEDOS =    301   number of ions     NIONS =      3
   non local maximal  LDIM  =      8   non local SUM 2l+1 LMDIM =     32
   total plane-waves  NPLWV = 110592
   max r-space proj   IRMAX =      1   max aug-charges    IRDMAX= 629326
   dimension x,y,z NGX =    48 NGY =   48 NGZ =   48
   dimension x,y,z NGXF=    96 NGYF=   96 NGZF=   96
   support grid    NGXF=   192 NGYF=  192 NGZF=  192
   ions per type =               1   1   1
   NGX,Y,Z   is equivalent  to a cutoff of  16.16, 16.16, 16.16 a.u.
   NGXF,Y,Z  is equivalent  to a cutoff of  32.32, 32.32, 32.32 a.u.

 SYSTEM =  unknown system
 POSCAR =  Th1 Bi1 Pt1

 Startparameter for this run:
   NWRITE =      2    write-flag & timer
   PREC   = acc       normal or accurate (medium, high low for compatibility)
   ISTART =      0    job   : 0-new  1-cont  2-samecut
   ICHARG =      2    charge: 1-file 2-atom 10-const
   ISPIN  =      1    spin polarized calculation?
   LNONCOLLINEAR =      F non collinear calculations
   LSORBIT =      F    spin-orbit coupling
   INIWAV =      1    electr: 0-lowe 1-rand  2-diag
   LASPH  =      F    aspherical Exc in radial PAW
   METAGGA=      F    non-selfconsistent MetaGGA calc.

 Electronic Relaxation 1
   ENCUT  =  700.0 eV  51.45 Ry    7.17 a.u.  10.65 10.65 10.65*2*pi/ulx,y,z
   ENINI  =  700.0     initial cutoff
   ENAUG  =  535.4 eV  augmentation charge cutoff
   NELM   =     60;   NELMIN=  5; NELMDL= -5     # of ELM steps
   EDIFF  = 0.1E-06   stopping-criterion for ELM
   LREAL  =      F    real-space projection
   NLSPLINE    = F    spline interpolate recip. space projectors
   LCOMPAT=      F    compatible to vasp.4.4
   GGA_COMPAT  = T    GGA compatible to vasp.4.4-vasp.4.6
   LMAXPAW     = -100 max onsite density
   LMAXMIX     =    2 max onsite mixed and CHGCAR
   VOSKOWN=      0    Vosko Wilk Nusair interpolation
   ROPT   =    0.00000   0.00000   0.00000
 Ionic relaxation
   EDIFFG = 0.1E-05   stopping-criterion for IOM
   NSW    =      0    number of steps for IOM
   NBLOCK =      1;   KBLOCK =      1    inner block; outer block
   IBRION =     -1    ionic relax: 0-MD 1-quasi-New 2-CG
   NFREE  =      0    steps in history (QN), initial steepest desc. (CG)
   ISIF   =      3    stress and relaxation
   IWAVPR =     10    prediction:  0-non 1-charg 2-wave 3-comb
   ISYM   =      2    0-nonsym 1-usesym 2-fastsym
   LCORR  =      T    Harris-Foulkes like correction to forces

   POTIM  = 0.5000    time-step for ionic-motion
   TEIN   =    0.0    initial temperature
   TEBEG  =    0.0;   TEEND  =   0.0 temperature during run
   SMASS  =  -3.00    Nose mass-parameter (am)
   estimated Nose-frequenzy (Omega)   =  0.10E-29 period in steps = 0.13E+47 mass=  -0.557E-27a.u.
   SCALEE = 1.0000    scale energy and forces
   NPACO  =    256;   APACO  = 16.0  distance and # of slots for P.C.
   PSTRESS=    0.0 pullay stress

  Mass of Ions in am
   POMASS = 232.04208.98195.08
  Ionic Valenz
   ZVAL   =  12.00 15.00 10.00
  Atomic Wigner-Seitz radii
   RWIGS  =  -1.00 -1.00 -1.00
  virtual crystal weights
   VCA    =   1.00  1.00  1.00
   NELECT =      37.0000    total number of electrons
   NUPDOWN=      -1.0000    fix difference up-down

 DOS related values:
   EMIN   =  10.00;   EMAX   =-10.00  energy-range for DOS
   EFERMI =   0.00
   ISMEAR =     0;   SIGMA  =   0.01  broadening in eV -4-tet -1-fermi 0-gaus

 Electronic relaxation 2 (details)
   IALGO  =     38    algorithm
   LDIAG  =      T    sub-space diagonalisation (order eigenvalues)
   LSUBROT=      F    optimize rotation matrix (better conditioning)
   TURBO    =      0    0=normal 1=particle mesh
   IRESTART =      0    0=no restart 2=restart with 2 vectors
   NREBOOT  =      0    no. of reboots
   NMIN     =      0    reboot dimension
   EREF     =   0.00    reference energy to select bands
   IMIX   =      4    mixing-type and parameters
     AMIX     =   0.40;   BMIX     =  1.00
     AMIX_MAG =   1.60;   BMIX_MAG =  1.00
     AMIN     =   0.10
     WC   =   100.;   INIMIX=   1;  MIXPRE=   1;  MAXMIX= -45

 Intra band minimization:
   WEIMIN = 0.0000     energy-eigenvalue tresh-hold
   EBREAK =  0.10E-08  absolut break condition
   DEPER  =   0.30     relativ break condition

   TIME   =   0.40     timestep for ELM

  volume/ion in A,a.u.               =      28.39       191.58
  Fermi-wavevector in a.u.,A,eV,Ry     =   1.239902  2.343075 20.917017  1.537357
  Thomas-Fermi vector in A             =   2.374366

 Write flags
   LWAVE        =      F    write WAVECAR
   LDOWNSAMPLE  =      F    k-point downsampling of WAVECAR
   LCHARG       =      F    write CHGCAR
   LVTOT        =      F    write LOCPOT, total local potential
   LVHAR        =      F    write LOCPOT, Hartree potential only
   LELF         =      F    write electronic localiz. function (ELF)
   LORBIT       =      0    0 simple, 1 ext, 2 COOP (PROOUT), +10 PAW based schemes


 Dipole corrections
   LMONO  =      F    monopole corrections only (constant potential shift)
   LDIPOL =      F    correct potential (dipole corrections)
   IDIPOL =      0    1-x, 2-y, 3-z, 4-all directions
   EPSILON=  1.0000000 bulk dielectric constant

 Exchange correlation treatment:
   GGA     =    PS    GGA type
   LEXCH   =    14    internal setting for exchange type
   VOSKOWN=      0    Vosko Wilk Nusair interpolation
   LHFCALC =     F    Hartree Fock is set to
   LHFONE  =     F    Hartree Fock one center treatment
   AEXX    =    0.0000 exact exchange contribution

 Linear response parameters
   LEPSILON=     F    determine dielectric tensor
   LRPA    =     F    only Hartree local field effects (RPA)
   LNABLA  =     F    use nabla operator in PAW spheres
   LVEL    =     F    velocity operator in full k-point grid
   LINTERFAST=   F  fast interpolation
   KINTER  =     0    interpolate to denser k-point grid
   CSHIFT  =0.1000    complex shift for real part using Kramers Kronig
   OMEGAMAX=  -1.0    maximum frequency
   DEG_THRESHOLD= 0.2000000E-02 threshold for treating states as degnerate
   RTIME   =   -0.100 relaxation time in fs
  (WPLASMAI=    0.000 imaginary part of plasma frequency in eV, 0.658/RTIME)
   DFIELD  = 0.0000000 0.0000000 0.0000000 field for delta impulse in time

 Orbital magnetization related:
   ORBITALMAG=     F  switch on orbital magnetization
   LCHIMAG   =     F  perturbation theory with respect to B field
   DQ        =  0.001000  dq finite difference perturbation B field
   LLRAUG    =     F  two centre corrections for induced B field



--------------------------------------------------------------------------------------------------------


 Static calculation
 charge density and potential will be updated during run
 non-spin polarized calculation
 Variant of blocked Davidson
 Davidson routine will perform the subspace rotation
 perform sub-space diagonalisation
    after iterative eigenvector-optimisation
 modified Broyden-mixing scheme, WC =      100.0
 initial mixing is a Kerker type mixing with AMIX =  0.4000 and BMIX =      1.0000
 Hartree-type preconditioning will be used
 using additional bands            5
 reciprocal scheme for non local part
 use partial core corrections
 calculate Harris-corrections to forces
   (improved forces if not selfconsistent)
 use gradient corrections
 use of overlap-Matrix (Vanderbilt PP)
 Gauss-broadening in eV      SIGMA  =   0.01


--------------------------------------------------------------------------------------------------------


  energy-cutoff  :      700.00
  volume of cell :       85.17
      direct lattice vectors                 reciprocal lattice vectors
     0.000000000  3.492030151  3.492030151    -0.143183185  0.143183185  0.143183185
     3.492030151  0.000000000  3.492030151     0.143183185 -0.143183185  0.143183185
     3.492030151  3.492030151  0.000000000     0.143183185  0.143183185 -0.143183185

  length of vectors
     4.938476400  4.938476400  4.938476400     0.248000552  0.248000552  0.248000552



 k-points in units of 2pi/SCALE and weight: KPOINTS
   0.00000000  0.00000000  0.00000000       0.000
  -0.01123011  0.01123011  0.01123011       0.004
  -0.02246022  0.02246022  0.02246022       0.004
  -0.03369033  0.03369033  0.03369033       0.004
  -0.04492043  0.04492043  0.04492043       0.004
  -0.05615054  0.05615054  0.05615054       0.004
  -0.06738065  0.06738065  0.06738065       0.004
  -0.00000000 -0.00000000  0.02246022       0.003
  -0.01123011  0.01123011  0.03369033       0.011
  -0.02246022  0.02246022  0.04492043       0.011
  -0.03369033  0.03369033  0.05615054       0.011
  -0.04492043  0.04492043  0.06738065       0.011
  -0.05615054  0.05615054  0.07861076       0.011
   0.07861076 -0.07861076 -0.05615054       0.011
   0.06738065 -0.06738065 -0.04492043       0.011
   0.05615054 -0.05615054 -0.03369033       0.011
   0.04492043 -0.04492043 -0.02246022       0.011
   0.03369033 -0.03369033 -0.01123011       0.011
   0.02246022 -0.02246022 -0.00000000       0.005
   0.00000000 -0.00000000  0.04492043       0.003
  -0.01123011  0.01123011  0.05615054       0.011
  -0.02246022  0.02246022  0.06738065       0.011
  -0.03369033  0.03369033  0.07861076       0.011
  -0.04492043  0.04492043  0.08984087       0.011
   0.08984087 -0.08984087 -0.04492043       0.011
   0.07861076 -0.07861076 -0.03369033       0.011
   0.06738065 -0.06738065 -0.02246022       0.011
   0.05615054 -0.05615054 -0.01123011       0.011
   0.04492043 -0.04492043 -0.00000000       0.005
   0.00000000 -0.00000000  0.06738065       0.003
  -0.01123011  0.01123011  0.07861076       0.011
  -0.02246022  0.02246022  0.08984087       0.011
  -0.03369033  0.03369033  0.10107098       0.011
   0.10107098 -0.10107098 -0.03369033       0.011
   0.08984087 -0.08984087 -0.02246022       0.011
   0.07861076 -0.07861076 -0.01123011       0.011
   0.06738065 -0.06738065 -0.00000000       0.005
   0.00000000 -0.00000000  0.08984087       0.003
  -0.01123011  0.01123011  0.10107098       0.011
  -0.02246022  0.02246022  0.11230109       0.011
   0.11230109 -0.11230109 -0.02246022       0.011
   0.10107098 -0.10107098 -0.01123011       0.011
   0.08984087 -0.08984087 -0.00000000       0.005
   0.00000000 -0.00000000  0.11230109       0.003
  -0.01123011  0.01123011  0.12353119       0.011
   0.12353119 -0.12353119 -0.01123011       0.011
   0.11230109 -0.11230109 -0.00000000       0.005
   0.00000000 -0.00000000  0.13476130       0.003
   0.13476130 -0.13476130 -0.00000000       0.005
   0.00000000  0.02246022  0.04492043       0.011
  -0.01123011  0.03369033  0.05615054       0.022
  -0.02246022  0.04492043  0.06738065       0.022
  -0.03369033  0.05615054  0.07861076       0.022
   0.10107098 -0.07861076 -0.05615054       0.022
   0.00000000  0.02246022  0.06738065       0.011
  -0.01123011  0.03369033  0.07861076       0.022
  -0.02246022  0.04492043  0.08984087       0.022
   0.11230109 -0.08984087 -0.04492043       0.022
   0.10107098 -0.07861076 -0.03369033       0.022
   0.08984087 -0.06738065 -0.02246022       0.022
   0.07861076 -0.05615054 -0.01123011       0.022
   0.06738065 -0.04492043 -0.00000000       0.011
   0.00000000  0.02246022  0.08984087       0.011
  -0.01123011  0.03369033  0.10107098       0.022
   0.12353119 -0.10107098 -0.03369033       0.022
   0.11230109 -0.08984087 -0.02246022       0.022
   0.10107098 -0.07861076 -0.01123011       0.022
   0.08984087 -0.06738065 -0.00000000       0.011
   0.00000000  0.02246022  0.11230109       0.011
   0.13476130 -0.11230109 -0.02246022       0.022
   0.12353119 -0.10107098 -0.01123011       0.022
   0.11230109 -0.08984087 -0.00000000       0.011
   0.14599141 -0.12353119 -0.01123011       0.011
   0.13476130 -0.11230109 -0.00000000       0.011
  -0.00000000  0.04492043  0.08984087       0.011
   0.13476130 -0.08984087 -0.04492043       0.022
   0.12353119 -0.07861076 -0.03369033       0.022
   0.14599141 -0.10107098 -0.03369033       0.011
   0.13476130 -0.08984087 -0.02246022       0.022
   0.12353119 -0.07861076 -0.01123011       0.022
   0.11230109 -0.06738065 -0.00000000       0.011
   0.14599141 -0.10107098 -0.01123011       0.011
   0.13476130 -0.08984087 -0.00000000       0.011
   0.14599141 -0.07861076 -0.01123011       0.011

 k-points in reciprocal lattice and weights: KPOINTS
   0.00000000  0.00000000  0.00000000       0.000
   0.07692308  0.00000000 -0.00000000       0.004
   0.15384615  0.00000000  0.00000000       0.004
   0.23076923  0.00000000 -0.00000000       0.004
   0.30769231  0.00000000  0.00000000       0.004
   0.38461538 -0.00000000  0.00000000       0.004
   0.46153846 -0.00000000  0.00000000       0.004
   0.07692308  0.07692308 -0.00000000       0.003
   0.15384615  0.07692308 -0.00000000       0.011
   0.23076923  0.07692308 -0.00000000       0.011
   0.30769231  0.07692308 -0.00000000       0.011
   0.38461538  0.07692308  0.00000000       0.011
   0.46153846  0.07692308  0.00000000       0.011
  -0.46153846  0.07692308  0.00000000       0.011
  -0.38461538  0.07692308  0.00000000       0.011
  -0.30769231  0.07692308  0.00000000       0.011
  -0.23076923  0.07692308  0.00000000       0.011
  -0.15384615  0.07692308  0.00000000       0.011
  -0.07692308  0.07692308  0.00000000       0.005
   0.15384615  0.15384615 -0.00000000       0.003
   0.23076923  0.15384615 -0.00000000       0.011
   0.30769231  0.15384615  0.00000000       0.011
   0.38461538  0.15384615 -0.00000000       0.011
   0.46153846  0.15384615  0.00000000       0.011
  -0.46153846  0.15384615 -0.00000000       0.011
  -0.38461538  0.15384615  0.00000000       0.011
  -0.30769231  0.15384615 -0.00000000       0.011
  -0.23076923  0.15384615  0.00000000       0.011
  -0.15384615  0.15384615 -0.00000000       0.005
   0.23076923  0.23076923 -0.00000000       0.003
   0.30769231  0.23076923 -0.00000000       0.011
   0.38461538  0.23076923 -0.00000000       0.011
   0.46153846  0.23076923 -0.00000000       0.011
  -0.46153846  0.23076923 -0.00000000       0.011
  -0.38461538  0.23076923  0.00000000       0.011
  -0.30769231  0.23076923  0.00000000       0.011
  -0.23076923  0.23076923  0.00000000       0.005
   0.30769231  0.30769231 -0.00000000       0.003
   0.38461538  0.30769231 -0.00000000       0.011
   0.46153846  0.30769231 -0.00000000       0.011
  -0.46153846  0.30769231  0.00000000       0.011
  -0.38461538  0.30769231 -0.00000000       0.011
  -0.30769231  0.30769231 -0.00000000       0.005
   0.38461538  0.38461538 -0.00000000       0.003
   0.46153846  0.38461538 -0.00000000       0.011
  -0.46153846  0.38461538  0.00000000       0.011
  -0.38461538  0.38461538 -0.00000000       0.005
   0.46153846  0.46153846 -0.00000000       0.003
  -0.46153846  0.46153846 -0.00000000       0.005
   0.23076923  0.15384615  0.07692308       0.011
   0.30769231  0.15384615  0.07692308       0.022
   0.38461538  0.15384615  0.07692308       0.022
   0.46153846  0.15384615  0.07692308       0.022
  -0.46153846  0.15384615  0.07692308       0.022
   0.30769231  0.23076923  0.07692308       0.011
   0.38461538  0.23076923  0.07692308       0.022
   0.46153846  0.23076923  0.07692308       0.022
  -0.46153846  0.23076923  0.07692308       0.022
  -0.38461538  0.23076923  0.07692308       0.022
  -0.30769231  0.23076923  0.07692308       0.022
  -0.23076923  0.23076923  0.07692308       0.022
  -0.15384615  0.23076923  0.07692308       0.011
   0.38461538  0.30769231  0.07692308       0.011
   0.46153846  0.30769231  0.07692308       0.022
  -0.46153846  0.30769231  0.07692308       0.022
  -0.38461538  0.30769231  0.07692308       0.022
  -0.30769231  0.30769231  0.07692308       0.022
  -0.23076923  0.30769231  0.07692308       0.011
   0.46153846  0.38461538  0.07692308       0.011
  -0.46153846  0.38461538  0.07692308       0.022
  -0.38461538  0.38461538  0.07692308       0.022
  -0.30769231  0.38461538  0.07692308       0.011
  -0.46153846  0.46153846  0.07692308       0.011
  -0.38461538  0.46153846  0.07692308       0.011
   0.46153846  0.30769231  0.15384615       0.011
  -0.46153846  0.30769231  0.15384615       0.022
  -0.38461538  0.30769231  0.15384615       0.022
  -0.46153846  0.38461538  0.15384615       0.011
  -0.38461538  0.38461538  0.15384615       0.022
  -0.30769231  0.38461538  0.15384615       0.022
  -0.23076923  0.38461538  0.15384615       0.011
  -0.38461538  0.46153846  0.15384615       0.011
  -0.30769231  0.46153846  0.15384615       0.011
  -0.30769231  0.46153846  0.23076923       0.011

 position of ions in fractional coordinates (direct lattice)
   0.25000000  0.25000000  0.25000000
   0.75000000  0.75000000  0.75000000
   0.00000000  0.00000000  0.00000000

 position of ions in cartesian coordinates  (Angst):
   1.74601508  1.74601508  1.74601508
   5.23804523  5.23804523  5.23804523
   0.00000000  0.00000000  0.00000000



--------------------------------------------------------------------------------------------------------


 k-point  1 :   0.0000 0.0000 0.0000  plane waves:    3647
 k-point  2 :   0.0769 0.0000-0.0000  plane waves:    3599
 k-point  3 :   0.1538 0.0000 0.0000  plane waves:    3605
 k-point  4 :   0.2308 0.0000-0.0000  plane waves:    3590
 k-point  5 :   0.3077 0.0000 0.0000  plane waves:    3591
 k-point  6 :   0.3846-0.0000 0.0000  plane waves:    3597
 k-point  7 :   0.4615-0.0000 0.0000  plane waves:    3591
 k-point  8 :   0.0769 0.0769-0.0000  plane waves:    3603
 k-point  9 :   0.1538 0.0769-0.0000  plane waves:    3595
 k-point 10 :   0.2308 0.0769-0.0000  plane waves:    3591
 k-point 11 :   0.3077 0.0769-0.0000  plane waves:    3597
 k-point 12 :   0.3846 0.0769 0.0000  plane waves:    3584
 k-point 13 :   0.4615 0.0769 0.0000  plane waves:    3574
 k-point 14 :  -0.4615 0.0769 0.0000  plane waves:    3593
 k-point 15 :  -0.3846 0.0769 0.0000  plane waves:    3585
 k-point 16 :  -0.3077 0.0769 0.0000  plane waves:    3601
 k-point 17 :  -0.2308 0.0769 0.0000  plane waves:    3593
 k-point 18 :  -0.1538 0.0769 0.0000  plane waves:    3597
 k-point 19 :  -0.0769 0.0769 0.0000  plane waves:    3591
 k-point 20 :   0.1538 0.1538-0.0000  plane waves:    3595
 k-point 21 :   0.2308 0.1538-0.0000  plane waves:    3591
 k-point 22 :   0.3077 0.1538 0.0000  plane waves:    3582
 k-point 23 :   0.3846 0.1538-0.0000  plane waves:    3572
 k-point 24 :   0.4615 0.1538 0.0000  plane waves:    3576
 k-point 25 :  -0.4615 0.1538-0.0000  plane waves:    3589
 k-point 26 :  -0.3846 0.1538 0.0000  plane waves:    3586
 k-point 27 :  -0.3077 0.1538-0.0000  plane waves:    3579
 k-point 28 :  -0.2308 0.1538 0.0000  plane waves:    3585
 k-point 29 :  -0.1538 0.1538-0.0000  plane waves:    3593
 k-point 30 :   0.2308 0.2308-0.0000  plane waves:    3591
 k-point 31 :   0.3077 0.2308-0.0000  plane waves:    3573
 k-point 32 :   0.3846 0.2308-0.0000  plane waves:    3580
 k-point 33 :   0.4615 0.2308-0.0000  plane waves:    3569
 k-point 34 :  -0.4615 0.2308-0.0000  plane waves:    3582
 k-point 35 :  -0.3846 0.2308 0.0000  plane waves:    3587
 k-point 36 :  -0.3077 0.2308 0.0000  plane waves:    3574
 k-point 37 :  -0.2308 0.2308 0.0000  plane waves:    3589
 k-point 38 :   0.3077 0.3077-0.0000  plane waves:    3559
 k-point 39 :   0.3846 0.3077-0.0000  plane waves:    3572
 k-point 40 :   0.4615 0.3077-0.0000  plane waves:    3574
 k-point 41 :  -0.4615 0.3077 0.0000  plane waves:    3576
 k-point 42 :  -0.3846 0.3077-0.0000  plane waves:    3581
 k-point 43 :  -0.3077 0.3077-0.0000  plane waves:    3575
 k-point 44 :   0.3846 0.3846-0.0000  plane waves:    3567
 k-point 45 :   0.4615 0.3846-0.0000  plane waves:    3575
 k-point 46 :  -0.4615 0.3846 0.0000  plane waves:    3569
 k-point 47 :  -0.3846 0.3846-0.0000  plane waves:    3576
 k-point 48 :   0.4615 0.4615-0.0000  plane waves:    3563
 k-point 49 :  -0.4615 0.4615-0.0000  plane waves:    3560
 k-point 50 :   0.2308 0.1538 0.0769  plane waves:    3602
 k-point 51 :   0.3077 0.1538 0.0769  plane waves:    3586
 k-point 52 :   0.3846 0.1538 0.0769  plane waves:    3583
 k-point 53 :   0.4615 0.1538 0.0769  plane waves:    3584
 k-point 54 :  -0.4615 0.1538 0.0769  plane waves:    3589
 k-point 55 :   0.3077 0.2308 0.0769  plane waves:    3582
 k-point 56 :   0.3846 0.2308 0.0769  plane waves:    3586
 k-point 57 :   0.4615 0.2308 0.0769  plane waves:    3579
 k-point 58 :  -0.4615 0.2308 0.0769  plane waves:    3587
 k-point 59 :  -0.3846 0.2308 0.0769  plane waves:    3588
 k-point 60 :  -0.3077 0.2308 0.0769  plane waves:    3592
 k-point 61 :  -0.2308 0.2308 0.0769  plane waves:    3579
 k-point 62 :  -0.1538 0.2308 0.0769  plane waves:    3587
 k-point 63 :   0.3846 0.3077 0.0769  plane waves:    3571
 k-point 64 :   0.4615 0.3077 0.0769  plane waves:    3580
 k-point 65 :  -0.4615 0.3077 0.0769  plane waves:    3581
 k-point 66 :  -0.3846 0.3077 0.0769  plane waves:    3585
 k-point 67 :  -0.3077 0.3077 0.0769  plane waves:    3581
 k-point 68 :  -0.2308 0.3077 0.0769  plane waves:    3576
 k-point 69 :   0.4615 0.3846 0.0769  plane waves:    3573
 k-point 70 :  -0.4615 0.3846 0.0769  plane waves:    3573
 k-point 71 :  -0.3846 0.3846 0.0769  plane waves:    3569
 k-point 72 :  -0.3077 0.3846 0.0769  plane waves:    3567
 k-point 73 :  -0.4615 0.4615 0.0769  plane waves:    3576
 k-point 74 :  -0.3846 0.4615 0.0769  plane waves:    3571
 k-point 75 :   0.4615 0.3077 0.1538  plane waves:    3577
 k-point 76 :  -0.4615 0.3077 0.1538  plane waves:    3577
 k-point 77 :  -0.3846 0.3077 0.1538  plane waves:    3584
 k-point 78 :  -0.4615 0.3846 0.1538  plane waves:    3579
 k-point 79 :  -0.3846 0.3846 0.1538  plane waves:    3583
 k-point 80 :  -0.3077 0.3846 0.1538  plane waves:    3583
 k-point 81 :  -0.2308 0.3846 0.1538  plane waves:    3585
 k-point 82 :  -0.3846 0.4615 0.1538  plane waves:    3584
 k-point 83 :  -0.3077 0.4615 0.1538  plane waves:    3594
 k-point 84 :  -0.3077 0.4615 0.2308  plane waves:    3581

 maximum and minimum number of plane-waves per node :       927      880

 maximum number of plane-waves:      3647
 maximum index in each direction:
   IXMAX=   11   IYMAX=   10   IZMAX=   10
   IXMIN=  -11   IYMIN=  -11   IZMIN=  -10


 parallel 3D FFT for wavefunctions:
    minimum data exchange during FFTs selected (reduces bandwidth)
 parallel 3D FFT for charge:
    minimum data exchange during FFTs selected (reduces bandwidth)


 total amount of memory used by VASP MPI-rank0   111362. kBytes
=======================================================================

   base      :      30000. kBytes
   nonl-proj :      59911. kBytes
   fftplans  :       8952. kBytes
   grid      :       4709. kBytes
   one-center:         49. kBytes
   wavefun   :       7741. kBytes

     INWAV:  cpu time    0.0002: real time    0.0059
 Broyden mixing: mesh for mixing (old mesh)
   NGX = 21   NGY = 21   NGZ = 21
  (NGX  = 96   NGY  = 96   NGZ  = 96)
  gives a total of   9261 points

 initial charge density was supplied:
 charge density of overlapping atoms calculated
 number of electron      37.0000000 magnetization
 keeping initial charge density in first step


--------------------------------------------------------------------------------------------------------


 Maximum index for augmentation-charges        38523 (set IRDMAX)


--------------------------------------------------------------------------------------------------------


 First call to EWALD:  gamma=   0.403
 Maximum number of real-space cells 3x 3x 3
 Maximum number of reciprocal cells 3x 3x 3

    FEWALD:  cpu time    0.0052: real time    0.0056


--------------------------------------- Iteration      1(   1)  ---------------------------------------


    POTLOK:  cpu time    0.0561: real time    0.1317
    SETDIJ:  cpu time    0.1354: real time    0.1356
     EDDAV:  cpu time    1.6966: real time    1.7037
       DOS:  cpu time    0.0037: real time    0.0048
    --------------------------------------------
      LOOP:  cpu time    1.8922: real time    1.9792

 eigenvalue-minimisations  :  4032
 total energy-change (2. order) : 0.4421106E+03  (-0.2042658E+04)
 number of electron      37.0000000 magnetization
 augmentation part       37.0000000 magnetization

 Free energy of the ion-electron system (eV)
  ---------------------------------------------------
  alpha Z        PSCENC =       201.74311303
  Ewald energy   TEWEN  =     -3067.60820040
  -Hartree energ DENC   =      -782.82313613
  -exchange      EXHF   =         0.00000000
  -V(xc)+E(xc)   XCENC  =        67.69381802
  PAW double counting   =      3147.30828992    -3070.62761383
  entropy T*S    EENTRO =        -0.00023239
  eigenvalues    EBANDS =       271.75112359
  atomic energy  EATOM  =      3674.67342263
  Solvation  Ediel_sol  =         0.00000000
  ---------------------------------------------------
  free energy    TOTEN  =       442.11058445 eV

  energy without entropy =      442.11081684  energy(sigma->0) =      442.11070065


--------------------------------------------------------------------------------------------------------




--------------------------------------- Iteration      1(   2)  ---------------------------------------


     EDDAV:  cpu time    1.7421: real time    1.7653
       DOS:  cpu time    0.0032: real time    0.0034
    --------------------------------------------
      LOOP:  cpu time    1.7452: real time    1.7674

 eigenvalue-minimisations  :  4232
 total energy-change (2. order) :-0.3977343E+03  (-0.3899861E+03)
 number of electron      37.0000000 magnetization
 augmentation part       37.0000000 magnetization

 Free energy of the ion-electron system (eV)
  ---------------------------------------------------
  alpha Z        PSCENC =       201.74311303
  Ewald energy   TEWEN  =     -3067.60820040
  -Hartree energ DENC   =      -782.82313613
  -exchange      EXHF   =         0.00000000
  -V(xc)+E(xc)   XCENC  =        67.69381802
  PAW double counting   =      3147.30828992    -3070.62761383
  entropy T*S    EENTRO =        -0.00022061
  eigenvalues    EBANDS =      -125.98321449
  atomic energy  EATOM  =      3674.67342263
  Solvation  Ediel_sol  =         0.00000000
  ---------------------------------------------------
  free energy    TOTEN  =        44.37625816 eV

  energy without entropy =       44.37647876  energy(sigma->0) =       44.37636846


--------------------------------------------------------------------------------------------------------




--------------------------------------- Iteration      1(   3)  ---------------------------------------


     EDDAV:  cpu time    2.1103: real time    2.1523
       DOS:  cpu time    0.0031: real time    0.0035
    --------------------------------------------
      LOOP:  cpu time    2.1135: real time    2.1554

 eigenvalue-minimisations  :  5536
 total energy-change (2. order) :-0.6296777E+02  (-0.6222865E+02)
 number of electron      37.0000000 magnetization
 augmentation part       37.0000000 magnetization

 Free energy of the ion-electron system (eV)
  ---------------------------------------------------
  alpha Z        PSCENC =       201.74311303
  Ewald energy   TEWEN  =     -3067.60820040
  -Hartree energ DENC   =      -782.82313613
  -exchange      EXHF   =         0.00000000
  -V(xc)+E(xc)   XCENC  =        67.69381802
  PAW double counting   =      3147.30828992    -3070.62761383
  entropy T*S    EENTRO =        -0.00020487
  eigenvalues    EBANDS =      -188.95100394
  atomic energy  EATOM  =      3674.67342263
  Solvation  Ediel_sol  =         0.00000000
  ---------------------------------------------------
  free energy    TOTEN  =       -18.59151556 eV

  energy without entropy =      -18.59131069  energy(sigma->0) =      -18.59141313


--------------------------------------------------------------------------------------------------------




--------------------------------------- Iteration      1(   4)  ---------------------------------------


     EDDAV:  cpu time    2.6285: real time    2.6568
       DOS:  cpu time    0.0030: real time    0.0031
    --------------------------------------------
      LOOP:  cpu time    2.6315: real time    2.6592

 eigenvalue-minimisations  :  7264
 total energy-change (2. order) :-0.4200849E+01  (-0.4185367E+01)
 number of electron      37.0000000 magnetization
 augmentation part       37.0000000 magnetization

 Free energy of the ion-electron system (eV)
  ---------------------------------------------------
  alpha Z        PSCENC =       201.74311303
  Ewald energy   TEWEN  =     -3067.60820040
  -Hartree energ DENC   =      -782.82313613
  -exchange      EXHF   =         0.00000000
  -V(xc)+E(xc)   XCENC  =        67.69381802
  PAW double counting   =      3147.30828992    -3070.62761383
  entropy T*S    EENTRO =        -0.00021801
  eigenvalues    EBANDS =      -193.15183966
  atomic energy  EATOM  =      3674.67342263
  Solvation  Ediel_sol  =         0.00000000
  ---------------------------------------------------
  free energy    TOTEN  =       -22.79236441 eV

  energy without entropy =      -22.79214641  energy(sigma->0) =      -22.79225541


--------------------------------------------------------------------------------------------------------




--------------------------------------- Iteration      1(   5)  ---------------------------------------


     EDDAV:  cpu time    2.1510: real time    2.1786
       DOS:  cpu time    0.0030: real time    0.0032
    CHARGE:  cpu time    0.4596: real time    0.4614
    MIXING:  cpu time    0.0119: real time    0.0122
    --------------------------------------------
      LOOP:  cpu time    2.6255: real time    2.6586

 eigenvalue-minimisations  :  5552
 total energy-change (2. order) :-0.1309127E+00  (-0.1308510E+00)
 number of electron      37.0000000 magnetization
 augmentation part        6.0063920 magnetization

 Broyden mixing:
  rms(total) = 0.29918E+01    rms(broyden)= 0.29918E+01
  rms(prec ) = 0.33351E+01
  weight for this iteration     100.00

 Free energy of the ion-electron system (eV)
  ---------------------------------------------------
  alpha Z        PSCENC =       201.74311303
  Ewald energy   TEWEN  =     -3067.60820040
  -Hartree energ DENC   =      -782.82313613
  -exchange      EXHF   =         0.00000000
  -V(xc)+E(xc)   XCENC  =        67.69381802
  PAW double counting   =      3147.30828992    -3070.62761383
  entropy T*S    EENTRO =        -0.00026266
  eigenvalues    EBANDS =      -193.28270772
  atomic energy  EATOM  =      3674.67342263
  Solvation  Ediel_sol  =         0.00000000
  ---------------------------------------------------
  free energy    TOTEN  =       -22.92327713 eV

  energy without entropy =      -22.92301447  energy(sigma->0) =      -22.92314580


--------------------------------------------------------------------------------------------------------




--------------------------------------- Iteration      1(   6)  ---------------------------------------


    POTLOK:  cpu time    0.0818: real time    0.1220
    SETDIJ:  cpu time    0.1163: real time    0.1164
     EDDAV:  cpu time    1.9956: real time    1.9961
       DOS:  cpu time    0.0030: real time    0.0033
    CHARGE:  cpu time    0.4435: real time    0.4436
    MIXING:  cpu time    0.0055: real time    0.0057
    --------------------------------------------
      LOOP:  cpu time    2.6458: real time    2.6853

 eigenvalue-minimisations  :  5096
 total energy-change (2. order) : 0.9782587E+00  (-0.1919758E+00)
 number of electron      37.0000000 magnetization
 augmentation part        6.0581633 magnetization

 Broyden mixing:
  rms(total) = 0.18754E+01    rms(broyden)= 0.18754E+01
  rms(prec ) = 0.19947E+01
  weight for this iteration     100.00

 eigenvalues of (default mixing * dielectric matrix)
  average eigenvalue GAMMA=   2.6010
  2.6010

 Free energy of the ion-electron system (eV)
  ---------------------------------------------------
  alpha Z        PSCENC =       201.74311303
  Ewald energy   TEWEN  =     -3067.60820040
  -Hartree energ DENC   =      -767.59450732
  -exchange      EXHF   =         0.00000000
  -V(xc)+E(xc)   XCENC  =        67.23126694
  PAW double counting   =      3396.67223427    -3324.20882033
  entropy T*S    EENTRO =        -0.00026212
  eigenvalues    EBANDS =      -202.85326514
  atomic energy  EATOM  =      3674.67342263
  Solvation  Ediel_sol  =         0.00000000
  ---------------------------------------------------
  free energy    TOTEN  =       -21.94501844 eV

  energy without entropy =      -21.94475632  energy(sigma->0) =      -21.94488738


--------------------------------------------------------------------------------------------------------




--------------------------------------- Iteration      1(   7)  ---------------------------------------


    POTLOK:  cpu time    0.0627: real time    0.0896
    SETDIJ:  cpu time    0.1212: real time    0.1213
     EDDAV:  cpu time    2.2416: real time    2.2420
       DOS:  cpu time    0.0031: real time    0.0034
    CHARGE:  cpu time    0.3835: real time    0.3842
    MIXING:  cpu time    0.0071: real time    0.0074
    --------------------------------------------
      LOOP:  cpu time    2.8191: real time    2.8482

 eigenvalue-minimisations  :  6080
 total energy-change (2. order) : 0.1090142E+00  (-0.2592971E+00)
 number of electron      37.0000000 magnetization
 augmentation part        6.0125524 magnetization

 Broyden mixing:
  rms(total) = 0.64005E+00    rms(broyden)= 0.64005E+00
  rms(prec ) = 0.77326E+00
  weight for this iteration     100.00

 eigenvalues of (default mixing * dielectric matrix)
  average eigenvalue GAMMA=   2.1350
  1.0220  3.2480

 Free energy of the ion-electron system (eV)
  ---------------------------------------------------
  alpha Z        PSCENC =       201.74311303
  Ewald energy   TEWEN  =     -3067.60820040
  -Hartree energ DENC   =      -753.88988764
  -exchange      EXHF   =         0.00000000
  -V(xc)+E(xc)   XCENC  =        66.98596241
  PAW double counting   =      3723.96755612    -3656.03052903
  entropy T*S    EENTRO =        -0.00031919
  eigenvalues    EBANDS =      -211.67712219
  atomic energy  EATOM  =      3674.67342263
  Solvation  Ediel_sol  =         0.00000000
  ---------------------------------------------------
  free energy    TOTEN  =       -21.83600426 eV

  energy without entropy =      -21.83568507  energy(sigma->0) =      -21.83584467


--------------------------------------------------------------------------------------------------------




--------------------------------------- Iteration      1(   8)  ---------------------------------------


    POTLOK:  cpu time    0.0657: real time    0.1068
    SETDIJ:  cpu time    0.1230: real time    0.1232
     EDDAV:  cpu time    1.9790: real time    1.9793
       DOS:  cpu time    0.0031: real time    0.0033
    CHARGE:  cpu time    0.3927: real time    0.3929
    MIXING:  cpu time    0.0081: real time    0.0087
    --------------------------------------------
      LOOP:  cpu time    2.5716: real time    2.6137

 eigenvalue-minimisations  :  5008
 total energy-change (2. order) : 0.5305959E-01  (-0.3299857E-01)
 number of electron      37.0000000 magnetization
 augmentation part        5.9634306 magnetization

 Broyden mixing:
  rms(total) = 0.49411E+00    rms(broyden)= 0.49411E+00
  rms(prec ) = 0.53914E+00
  weight for this iteration     100.00

 eigenvalues of (default mixing * dielectric matrix)
  average eigenvalue GAMMA=   1.8824
  3.5515  0.9238  1.1720

 Free energy of the ion-electron system (eV)
  ---------------------------------------------------
  alpha Z        PSCENC =       201.74311303
  Ewald energy   TEWEN  =     -3067.60820040
  -Hartree energ DENC   =      -754.40439850
  -exchange      EXHF   =         0.00000000
  -V(xc)+E(xc)   XCENC  =        67.00108709
  PAW double counting   =      3742.41165962    -3674.46264911
  entropy T*S    EENTRO =        -0.00030836
  eigenvalues    EBANDS =      -211.13667069
  atomic energy  EATOM  =      3674.67342263
  Solvation  Ediel_sol  =         0.00000000
  ---------------------------------------------------
  free energy    TOTEN  =       -21.78294468 eV

  energy without entropy =      -21.78263632  energy(sigma->0) =      -21.78279050


--------------------------------------------------------------------------------------------------------




--------------------------------------- Iteration      1(   9)  ---------------------------------------


    POTLOK:  cpu time    0.0669: real time    0.0934
    SETDIJ:  cpu time    0.1211: real time    0.1215
     EDDAV:  cpu time    2.2267: real time    2.2271
       DOS:  cpu time    0.0032: real time    0.0039
    CHARGE:  cpu time    0.3900: real time    0.3902
    MIXING:  cpu time    0.0052: real time    0.0053
    --------------------------------------------
      LOOP:  cpu time    2.8132: real time    2.8428

 eigenvalue-minimisations  :  6040
 total energy-change (2. order) : 0.1269602E-01  (-0.2170872E-01)
 number of electron      37.0000000 magnetization
 augmentation part        5.9503511 magnetization

 Broyden mixing:
  rms(total) = 0.30361E+00    rms(broyden)= 0.30361E+00
  rms(prec ) = 0.31527E+00
  weight for this iteration     100.00

 eigenvalues of (default mixing * dielectric matrix)
  average eigenvalue GAMMA=   1.4069
  2.4864  1.2536  1.2536  0.6342

 Free energy of the ion-electron system (eV)
  ---------------------------------------------------
  alpha Z        PSCENC =       201.74311303
  Ewald energy   TEWEN  =     -3067.60820040
  -Hartree energ DENC   =      -756.75666302
  -exchange      EXHF   =         0.00000000
  -V(xc)+E(xc)   XCENC  =        67.03491791
  PAW double counting   =      3823.07457398    -3754.99719148
  entropy T*S    EENTRO =        -0.00021598
  eigenvalues    EBANDS =      -208.93400533
  atomic energy  EATOM  =      3674.67342263
  Solvation  Ediel_sol  =         0.00000000
  ---------------------------------------------------
  free energy    TOTEN  =       -21.77024866 eV

  energy without entropy =      -21.77003268  energy(sigma->0) =      -21.77014067


--------------------------------------------------------------------------------------------------------




--------------------------------------- Iteration      1(  10)  ---------------------------------------


    POTLOK:  cpu time    0.0753: real time    0.1068
    SETDIJ:  cpu time    0.1190: real time    0.1191
     EDDAV:  cpu time    1.9580: real time    1.9583
       DOS:  cpu time    0.0031: real time    0.0046
    CHARGE:  cpu time    0.3933: real time    0.3935
    MIXING:  cpu time    0.0082: real time    0.0082
    --------------------------------------------
      LOOP:  cpu time    2.5568: real time    2.5890

 eigenvalue-minimisations  :  4952
 total energy-change (2. order) : 0.4866500E-02  (-0.3177062E-02)
 number of electron      37.0000000 magnetization
 augmentation part        5.9586402 magnetization

 Broyden mixing:
  rms(total) = 0.65673E-01    rms(broyden)= 0.65673E-01
  rms(prec ) = 0.71472E-01
  weight for this iteration     100.00

 eigenvalues of (default mixing * dielectric matrix)
  average eigenvalue GAMMA=   1.4361
  2.4451  1.8526  1.3101  0.9449  0.6280

 Free energy of the ion-electron system (eV)
  ---------------------------------------------------
  alpha Z        PSCENC =       201.74311303
  Ewald energy   TEWEN  =     -3067.60820040
  -Hartree energ DENC   =      -756.97081040
  -exchange      EXHF   =         0.00000000
  -V(xc)+E(xc)   XCENC  =        67.02407669
  PAW double counting   =      3771.90165219    -3703.53984876
  entropy T*S    EENTRO =        -0.00021921
  eigenvalues    EBANDS =      -208.98856795
  atomic energy  EATOM  =      3674.67342263
  Solvation  Ediel_sol  =         0.00000000
  ---------------------------------------------------
  free energy    TOTEN  =       -21.76538216 eV

  energy without entropy =      -21.76516295  energy(sigma->0) =      -21.76527255


--------------------------------------------------------------------------------------------------------




--------------------------------------- Iteration      1(  11)  ---------------------------------------


    POTLOK:  cpu time    0.0984: real time    0.1486
    SETDIJ:  cpu time    0.1219: real time    0.1220
     EDDAV:  cpu time    2.1039: real time    2.1042
       DOS:  cpu time    0.0032: real time    0.0036
    CHARGE:  cpu time    0.3812: real time    0.3814
    MIXING:  cpu time    0.0115: real time    0.0117
    --------------------------------------------
      LOOP:  cpu time    2.7202: real time    2.7714

 eigenvalue-minimisations  :  5576
 total energy-change (2. order) :-0.1083847E-05  (-0.2607258E-03)
 number of electron      37.0000000 magnetization
 augmentation part        5.9616353 magnetization

 Broyden mixing:
  rms(total) = 0.21762E-01    rms(broyden)= 0.21762E-01
  rms(prec ) = 0.27296E-01
  weight for this iteration     100.00

 eigenvalues of (default mixing * dielectric matrix)
  average eigenvalue GAMMA=   1.3688
  2.5511  1.9948  0.6260  1.0161  1.0161  1.0090

 Free energy of the ion-electron system (eV)
  ---------------------------------------------------
  alpha Z        PSCENC =       201.74311303
  Ewald energy   TEWEN  =     -3067.60820040
  -Hartree energ DENC   =      -757.22097933
  -exchange      EXHF   =         0.00000000
  -V(xc)+E(xc)   XCENC  =        67.01879599
  PAW double counting   =      3778.68111644    -3710.25808319
  entropy T*S    EENTRO =        -0.00021326
  eigenvalues    EBANDS =      -208.79435515
  atomic energy  EATOM  =      3674.67342263
  Solvation  Ediel_sol  =         0.00000000
  ---------------------------------------------------
  free energy    TOTEN  =       -21.76538324 eV

  energy without entropy =      -21.76516998  energy(sigma->0) =      -21.76527661


--------------------------------------------------------------------------------------------------------




--------------------------------------- Iteration      1(  12)  ---------------------------------------


    POTLOK:  cpu time    0.0744: real time    0.1547
    SETDIJ:  cpu time    0.1242: real time    0.1243
     EDDAV:  cpu time    2.2385: real time    2.2388
       DOS:  cpu time    0.0032: real time    0.0048
    CHARGE:  cpu time    0.3934: real time    0.3936
    MIXING:  cpu time    0.0075: real time    0.0085
    --------------------------------------------
      LOOP:  cpu time    2.8412: real time    2.9265

 eigenvalue-minimisations  :  5968
 total energy-change (2. order) : 0.1250401E-03  (-0.8547055E-04)
 number of electron      37.0000000 magnetization
 augmentation part        5.9628748 magnetization

 Broyden mixing:
  rms(total) = 0.17196E-02    rms(broyden)= 0.17196E-02
  rms(prec ) = 0.29383E-02
  weight for this iteration     100.00

 eigenvalues of (default mixing * dielectric matrix)
  average eigenvalue GAMMA=   1.3814
  2.3417  2.3417  1.2038  1.2038  0.6224  0.9781  0.9781

 Free energy of the ion-electron system (eV)
  ---------------------------------------------------
  alpha Z        PSCENC =       201.74311303
  Ewald energy   TEWEN  =     -3067.60820040
  -Hartree energ DENC   =      -757.24256038
  -exchange      EXHF   =         0.00000000
  -V(xc)+E(xc)   XCENC  =        67.01892204
  PAW double counting   =      3779.71793313    -3711.25960247
  entropy T*S    EENTRO =        -0.00021344
  eigenvalues    EBANDS =      -208.80807234
  atomic energy  EATOM  =      3674.67342263
  Solvation  Ediel_sol  =         0.00000000
  ---------------------------------------------------
  free energy    TOTEN  =       -21.76525820 eV

  energy without entropy =      -21.76504476  energy(sigma->0) =      -21.76515148


--------------------------------------------------------------------------------------------------------




--------------------------------------- Iteration      1(  13)  ---------------------------------------


    POTLOK:  cpu time    0.0819: real time    0.1022
    SETDIJ:  cpu time    0.1181: real time    0.1182
     EDDAV:  cpu time    2.3056: real time    2.3059
       DOS:  cpu time    0.0030: real time    0.0037
    CHARGE:  cpu time    0.3831: real time    0.3834
    MIXING:  cpu time    0.0085: real time    0.0086
    --------------------------------------------
      LOOP:  cpu time    2.9002: real time    2.9217

 eigenvalue-minimisations  :  6192
 total energy-change (2. order) :-0.5279585E-05  (-0.8370820E-05)
 number of electron      37.0000000 magnetization
 augmentation part        5.9631460 magnetization

 Broyden mixing:
  rms(total) = 0.24964E-02    rms(broyden)= 0.24964E-02
  rms(prec ) = 0.33004E-02
  weight for this iteration     100.00

 eigenvalues of (default mixing * dielectric matrix)
  average eigenvalue GAMMA=   1.3959
  2.5509  1.9455  1.7870  1.3243  0.6242  0.9555  0.9900  0.9900

 Free energy of the ion-electron system (eV)
  ---------------------------------------------------
  alpha Z        PSCENC =       201.74311303
  Ewald energy   TEWEN  =     -3067.60820040
  -Hartree energ DENC   =      -757.25705761
  -exchange      EXHF   =         0.00000000
  -V(xc)+E(xc)   XCENC  =        67.01836694
  PAW double counting   =      3779.47520797    -3710.99503121
  entropy T*S    EENTRO =        -0.00021421
  eigenvalues    EBANDS =      -208.81487063
  atomic energy  EATOM  =      3674.67342263
  Solvation  Ediel_sol  =         0.00000000
  ---------------------------------------------------
  free energy    TOTEN  =       -21.76526348 eV

  energy without entropy =      -21.76504928  energy(sigma->0) =      -21.76515638


--------------------------------------------------------------------------------------------------------




--------------------------------------- Iteration      1(  14)  ---------------------------------------


    POTLOK:  cpu time    0.0565: real time    0.1130
    SETDIJ:  cpu time    0.1198: real time    0.1200
     EDDAV:  cpu time    2.0059: real time    2.0064
       DOS:  cpu time    0.0031: real time    0.0036
    CHARGE:  cpu time    0.4038: real time    0.4040
    MIXING:  cpu time    0.0084: real time    0.0085
    --------------------------------------------
      LOOP:  cpu time    2.5975: real time    2.6565

 eigenvalue-minimisations  :  5104
 total energy-change (2. order) : 0.1553253E-05  (-0.8922857E-06)
 number of electron      37.0000000 magnetization
 augmentation part        5.9634438 magnetization

 Broyden mixing:
  rms(total) = 0.17054E-02    rms(broyden)= 0.17054E-02
  rms(prec ) = 0.18807E-02
  weight for this iteration     100.00

 eigenvalues of (default mixing * dielectric matrix)
  average eigenvalue GAMMA=   1.4603
  2.7365  2.2384  2.2384  1.3531  1.0344  1.0344  0.6232  1.0334  0.8511

 Free energy of the ion-electron system (eV)
  ---------------------------------------------------
  alpha Z        PSCENC =       201.74311303
  Ewald energy   TEWEN  =     -3067.60820040
  -Hartree energ DENC   =      -757.24248034
  -exchange      EXHF   =         0.00000000
  -V(xc)+E(xc)   XCENC  =        67.01836466
  PAW double counting   =      3779.47877594    -3711.00143705
  entropy T*S    EENTRO =        -0.00021422
  eigenvalues    EBANDS =      -208.82660618
  atomic energy  EATOM  =      3674.67342263
  Solvation  Ediel_sol  =         0.00000000
  ---------------------------------------------------
  free energy    TOTEN  =       -21.76526193 eV

  energy without entropy =      -21.76504771  energy(sigma->0) =      -21.76515482


--------------------------------------------------------------------------------------------------------




--------------------------------------- Iteration      1(  15)  ---------------------------------------


    POTLOK:  cpu time    0.0464: real time    0.0909
    SETDIJ:  cpu time    0.1216: real time    0.1218
     EDDAV:  cpu time    2.4258: real time    2.4261
       DOS:  cpu time    0.0032: real time    0.0041
    CHARGE:  cpu time    0.3872: real time    0.3874
    MIXING:  cpu time    0.0155: real time    0.0156
    --------------------------------------------
      LOOP:  cpu time    2.9997: real time    3.0438

 eigenvalue-minimisations  :  6568
 total energy-change (2. order) : 0.1681915E-06  (-0.2655326E-06)
 number of electron      37.0000000 magnetization
 augmentation part        5.9632571 magnetization

 Broyden mixing:
  rms(total) = 0.60631E-03    rms(broyden)= 0.60628E-03
  rms(prec ) = 0.63659E-03
  weight for this iteration     100.00

 eigenvalues of (default mixing * dielectric matrix)
  average eigenvalue GAMMA=   1.3890
  2.7477  2.1900  2.1900  1.3387  1.0208  1.0208  1.1220  0.6229  0.8660  0.7712

 Free energy of the ion-electron system (eV)
  ---------------------------------------------------
  alpha Z        PSCENC =       201.74311303
  Ewald energy   TEWEN  =     -3067.60820040
  -Hartree energ DENC   =      -757.24512953
  -exchange      EXHF   =         0.00000000
  -V(xc)+E(xc)   XCENC  =        67.01871016
  PAW double counting   =      3779.22781702    -3710.75099655
  entropy T*S    EENTRO =        -0.00021452
  eigenvalues    EBANDS =      -208.82378361
  atomic energy  EATOM  =      3674.67342263
  Solvation  Ediel_sol  =         0.00000000
  ---------------------------------------------------
  free energy    TOTEN  =       -21.76526176 eV

  energy without entropy =      -21.76504724  energy(sigma->0) =      -21.76515450


--------------------------------------------------------------------------------------------------------




--------------------------------------- Iteration      1(  16)  ---------------------------------------


    POTLOK:  cpu time    0.0578: real time    0.0909
    SETDIJ:  cpu time    0.1203: real time    0.1206
     EDDAV:  cpu time    1.5688: real time    1.5690
       DOS:  cpu time    0.0030: real time    0.0033
    --------------------------------------------
      LOOP:  cpu time    1.7501: real time    1.7835

 eigenvalue-minimisations  :  3520
 total energy-change (2. order) :-0.1640728E-07  (-0.6854498E-08)
 number of electron      37.0000000 magnetization
 augmentation part        5.9632571 magnetization

 Free energy of the ion-electron system (eV)
  ---------------------------------------------------
  alpha Z        PSCENC =       201.74311303
  Ewald energy   TEWEN  =     -3067.60820040
  -Hartree energ DENC   =      -757.24481020
  -exchange      EXHF   =         0.00000000
  -V(xc)+E(xc)   XCENC  =        67.01864901
  PAW double counting   =      3779.26882889    -3710.79141237
  entropy T*S    EENTRO =        -0.00021453
  eigenvalues    EBANDS =      -208.82463784
  atomic energy  EATOM  =      3674.67342263
  Solvation  Ediel_sol  =         0.00000000
  ---------------------------------------------------
  free energy    TOTEN  =       -21.76526178 eV

  energy without entropy =      -21.76504725  energy(sigma->0) =      -21.76515451


--------------------------------------------------------------------------------------------------------




 average (electrostatic) potential at core
  the test charge radii are     1.1985  1.0856  1.2059
  (the norm of the test charge is              1.0000)
       1 -58.1193       2-102.9606       3 -66.3257



 E-fermi :   7.8078     XC(G=0): -10.7474     alpha+bet :-13.2099


 k-point     1 :       0.0000    0.0000    0.0000
  band No.  band energies     occupation
      1     -32.4411      2.00000
      2     -15.0757      2.00000
      3     -15.0757      2.00000
      4     -15.0463      2.00000
      5     -15.0463      2.00000
      6     -15.0463      2.00000
      7     -10.3497      2.00000
      8     -10.3497      2.00000
      9     -10.3497      2.00000
     10      -4.1386      2.00000
     11       3.7300      2.00000
     12       3.7300      2.00000
     13       3.7300      2.00000
     14       3.9894      2.00000
     15       3.9894      2.00000
     16       5.7174      2.00000
     17       6.8090      2.00000
     18       6.8090      2.00000
     19       6.8090      2.00000
     20       8.0642      0.00000
     21       8.0642      0.00000
     22       8.0642      0.00000
     23       8.8154      0.00000
     24       9.6404      0.00000

 k-point     2 :       0.0769    0.0000   -0.0000
  band No.  band energies     occupation
      1     -32.4409      2.00000
      2     -15.0762      2.00000
      3     -15.0762      2.00000
      4     -15.0464      2.00000
      5     -15.0461      2.00000
      6     -15.0461      2.00000
      7     -10.3617      2.00000
      8     -10.3483      2.00000
      9     -10.3483      2.00000
     10      -4.0880      2.00000
     11       3.5921      2.00000
     12       3.6338      2.00000
     13       3.6338      2.00000
     14       4.0801      2.00000
     15       4.0801      2.00000
     16       5.5316      2.00000
     17       6.7293      2.00000
     18       6.7293      2.00000
     19       6.9087      2.00000
     20       8.1533      0.00000
     21       8.1541      0.00000
     22       8.1541      0.00000
     23       9.0093      0.00000
     24       9.6478      0.00000

 k-point     3 :       0.1538    0.0000    0.0000
  band No.  band energies     occupation
      1     -32.4403      2.00000
      2     -15.0777      2.00000
      3     -15.0777      2.00000
      4     -15.0466      2.00000
      5     -15.0458      2.00000
      6     -15.0458      2.00000
      7     -10.3939      2.00000
      8     -10.3444      2.00000
      9     -10.3444      2.00000
     10      -3.9474      2.00000
     11       3.2535      2.00000
     12       3.4904      2.00000
     13       3.4904      2.00000
     14       4.1980      2.00000
     15       4.1980      2.00000
     16       5.1573      2.00000
     17       6.5623      2.00000
     18       6.5623      2.00000
     19       7.0255      2.00000
     20       8.3659      0.00000
     21       8.3659      0.00000
     22       8.5367      0.00000
     23       9.3494      0.00000
     24       9.6706      0.00000

 k-point     4 :       0.2308    0.0000   -0.0000
  band No.  band energies     occupation
      1     -32.4395      2.00000
      2     -15.0798      2.00000
      3     -15.0798      2.00000
      4     -15.0471      2.00000
      5     -15.0453      2.00000
      6     -15.0453      2.00000
      7     -10.4373      2.00000
      8     -10.3390      2.00000
      9     -10.3390      2.00000
     10      -3.7479      2.00000
     11       2.8488      2.00000
     12       3.3777      2.00000
     13       3.3777      2.00000
     14       4.2484      2.00000
     15       4.2484      2.00000
     16       4.7840      2.00000
     17       6.4121      2.00000
     18       6.4121      2.00000
     19       7.1153      2.00000
     20       8.6203      0.00000
     21       8.6203      0.00000
     22       9.0846      0.00000
     23       9.6065      0.00000
     24       9.6682      0.00000

 k-point     5 :       0.3077    0.0000    0.0000
  band No.  band energies     occupation
      1     -32.4386      2.00000
      2     -15.0820      2.00000
      3     -15.0820      2.00000
      4     -15.0476      2.00000
      5     -15.0448      2.00000
      6     -15.0448      2.00000
      7     -10.4808      2.00000
      8     -10.3332      2.00000
      9     -10.3332      2.00000
     10      -3.5339      2.00000
     11       2.4780      2.00000
[...]
  212              fftbas_plan_mpi                       0.099273                     12   6
  213                dfftw_execute                         0.039678                   36   7
  214                map_backward                          0.006838                   12   7
  215                  map_gather                            0.001767                  6   8
  216                  m_alltoallv_z                         0.002604                  6   8
  217                  map_scatter                           0.002162                  6   8
  218                map_forward                           0.049354                   12   7
  219                  map_gather                            0.028424                  6   8
  220                  m_alltoallv_z                         0.008296                  6   8
  221                  map_scatter                           0.012332                  6   8
  222            M_sumb_d                              0.001714                        6   5
  223          M_sumb_d                              0.000029                          1   4
  224        setdij_                               2.091062                           20   3
  225          fft3d_mpi                             0.363046                         40   4
  226            fftbas_plan_mpi                       0.334584                       40   5
  227              dfftw_execute                         0.133233                    120   6
  228              map_backward                          0.026332                     40   6
  229                map_gather                            0.005187                   20   7
  230                m_alltoallv_z                         0.012807                   20   7
  231                map_scatter                           0.007363                   20   7
  232              map_forward                           0.164037                     40   6
  233                map_gather                            0.090067                   20   7
  234                m_alltoallv_z                         0.033991                   20   7
  235                map_scatter                           0.038941                   20   7
  236          M_sumb_d                              0.019419                         20   4
  237        set_dd_magatom                        0.000003                            1   3
  238        set_dd_paw                            0.007988                            1   3
  239          set_rsgf_all                          0.000004                          1   4
  240          M_sumb_d                              0.007834                          8   4
  241        strkin                                0.001370                            1   3
  242          M_sumb_d                              0.000629                          1   4
  243        strelo                                0.003809                            1   3
  244          M_sumb_d                              0.000419                          2   4
  245        strenl                                1.251550                            1   3
  246          spher                                 0.931438                         19   4
  247          phase                                 0.014751                        189   4
  248          proj1                                 0.267518                       1134   4
  249            crexp_mul_wave                        0.035872                     3402   5
  250            M_sumb_d                              0.070421                     1134   5
  251          M_sumb_d                              0.014824                          1   4
  252        M_sumb_d                              0.000220                            6   3
  253        fft3d_mpi                             0.022388                           11   3
  254          fftbas_plan_mpi                       0.020691                         11   4
  255            dfftw_execute                         0.007692                       33   5
  256            map_forward                           0.004368                       10   5
  257              map_gather                            0.001325                      5   6
  258              m_alltoallv_z                         0.001586                      5   6
  259              map_scatter                           0.001195                      5   6
  260            map_backward                          0.005883                       12   5
  261              map_gather                            0.001494                      6   6
  262              m_alltoallv_z                         0.001882                      6   6
  263              map_scatter                           0.002211                      6   6
  264        ggaall_grid                           0.002654                            1   3
  265        forhar                                0.010419                            2   3
  266          M_sumb_d                              0.000309                          2   4
  267        strehar                               0.004164                            1   3
  268          M_sumb_d                              0.000114                          1   4
  269        chggra                                0.009225                            1   3
  270          fft3d_mpi                             0.005797                          3   4
  271            fftbas_plan_mpi                       0.005337                        3   5
  272              dfftw_execute                         0.002019                      9   6
  273              map_backward                          0.000948                      2   6
  274                map_gather                            0.000247                    1   7
  275                m_alltoallv_z                         0.000294                    1   7
  276                map_scatter                           0.000353                    1   7
  277              map_forward                           0.001553                      4   6
  278                map_gather                            0.000480                    2   7
  279                m_alltoallv_z                         0.000555                    2   7
  280                map_scatter                           0.000418                    2   7
  281          M_sumb_d                              0.000144                          3   4
  282        brmix                                 0.006814                            1   3
  283          M_sumb_d                              0.000279                          6   4
  284          brpre                                 0.000058                          1   4
  285          setg0                                 0.002458                          1   4
  286          broyd                                 0.002364                          1   4
  287            M_sumb_d                              0.000658                       18   5
  288            brget                                 0.000304                       64   5
  289            brsav                                 0.000070                       16   5
  290          M_bcast_z                             0.000198                          1   4
  291          M_bcast_d                             0.000059                          1   4
  292        M_bcast_d                             0.000462                            2   3
  293      potlok                                0.039883                              1   2
  294        fft3d_mpi                             0.026107                           13   3
  295          fftbas_plan_mpi                       0.024065                         13   4
  296            dfftw_execute                         0.008918                       39   5
  297            map_forward                           0.005535                       14   5
  298              map_gather                            0.001690                      8   6
  299              m_alltoallv_z                         0.002053                      8   6
  300              map_scatter                           0.001432                      8   6
  301            map_backward                          0.006597                       12   5
  302              map_gather                            0.001954                      6   6
  303              m_alltoallv_z                         0.002180                      6   6
  304              map_scatter                           0.002144                      6   6
  305        ggaall_grid                           0.002778                            1   3
  306        M_sumb_d                              0.000318                            6   3
  307        M_bcast_d                             0.000195                            1   3
  308      potlok_metagga                        0.000004                              1   2
  309      set_dd_magatom                        0.000003                              1   2
  310      set_dd_paw                            0.000469                              1   2
  311        set_rsgf_all                          0.000004                            1   3
  312        M_sumb_d                              0.000261                            8   3
  313      densta                                0.002469                              1   2
  314        M_sumb_d                              0.000864                           42   3
  315      lprj_proall                           0.000007                              1   2

 Flat profile
 ============

             routine name                   CPU           calls
 ---------------------------------------------------------------
 total_time                             14.984885           1
 dfftw_execute                           7.494821       49464
 eddav                                   5.126098          16
 setdij_                                 3.595265          40
 fftbas_plan_mpi                         3.568476       16490
 set_charge                              2.863025          12
 M_sumb_d                                2.838461       45942
 m_alltoallv_z                           2.069382       16513
 elmin                                   1.630426           1
 pdssyex_zheevx                          1.497458         336
 M_alltoall_d                            1.383760       54936
 vhamil                                  1.266047        7470
 spher                                   1.066420          20
 proj1                                   1.054651        6714
 fftwav_mpi                              1.033616        8730
 map_forward                             1.005744       17738
 orth1                                   0.952628       11226
 gemm                                    0.951564       22410
 map_gather                              0.899822       16513
 map_scatter                             0.849919       16513
 M_bcast_z                               0.537405        6286
 vnlac0                                  0.508462        7470
 redis_pw                                0.474547       21108
 hamiltmu                                0.423516        3735
 redis_proj                              0.408823       26583
 w1_copy                                 0.358140       22410
 fft3d_mpi                               0.317775       16488
 eccp                                    0.302378        2016
 work_mul_crexp                          0.294866       22410
 map_backward                            0.273282       15238
 fftext_mpi                              0.264229        7470
 crpa_reader                             0.229457           1
 crexp_mul_wave                          0.228447       20142
 pw_charge                               0.175188        1260
 kinhamil                                0.157258        7470
 overl                                   0.146156       12945
 potlok                                  0.129958          13
 M_bcast_d                               0.122413        3767
 overl1                                  0.090396        7470
 apply_precond                           0.086738        5454
 setup_precond                           0.072106        2016
 lincom                                  0.063127         357
 w1_projall                              0.060207        2727
 force_and_stress                        0.058984           1
 fornl                                   0.053857           1
 phase                                   0.043581         568
 soft_charge                             0.038353          12
 brmix                                   0.037843          12
 ggaall_grid                             0.037163          14
 truncate_high_frequency_w1              0.032396        9486
 densta                                  0.025854          17
 setg0                                   0.024824          13
 strenl                                  0.023019           1
 forhar                                  0.010110           2
 broyd                                   0.008407          12
 depsum                                  0.005306          12
 forloc                                  0.005160           1
 brgrid                                  0.004100           1
 strehar                                 0.004050           1
 strelo                                  0.003390           1
 chggra                                  0.003284           1
 set_dd_paw                              0.003063          14
 orthch                                  0.002201           1
 brget                                   0.002041         432
 choleski                                0.001925          21
 proj                                    0.001595          21
 brsav                                   0.000928         128
 brpre                                   0.000860          12
 strkin                                  0.000741           1
 fordep                                  0.000131           1
 potlok_metagga                          0.000112          13
 vectorpot                               0.000072          13
 set_rsgf_all                            0.000066          14
 set_dd_magatom                          0.000049          14
 set_kineden                             0.000037          11
 rotate_active_occupied_orbital          0.000016           1
 lprj_proall                             0.000007           1
 redis_pw_over_bands                     0.000003           1
 ---------------------------------------------------------------
  summed up times    62.2908709049225

 Accumulative profile
 ====================

             routine name                   CPU           calls
 ---------------------------------------------------------------
 total_time                             62.290871           1
 elmin                                  41.408092           1
 eddav                                  33.306994          16
 fft3d_mpi                              16.401059       16488
 fftbas_plan_mpi                        16.161446       16490
 hamiltmu                               10.968097        3735
 fftwav_mpi                              9.442325        8730
 dfftw_execute                           7.494821       49464
 kinhamil                                6.951871        7470
 fftext_mpi                              6.794613        7470
 set_charge                              4.790520          12
 force_and_stress                        4.584390           1
 setdij_                                 4.393324          40
 map_forward                             3.131198       17738
 M_sumb_d                                2.838461       45942
 vnlac0                                  2.236267        7470
 m_alltoallv_z                           2.069382       16513
 map_backward                            1.966951       15238
 proj1                                   1.733796        6714
 soft_charge                             1.627090          12
 pdssyex_zheevx                          1.497458         336
 w1_projall                              1.496268        2727
 M_alltoall_d                            1.383760       54936
 vhamil                                  1.266047        7470
 strenl                                  1.251550           1
 redis_pw                                1.217191       21108
 spher                                   1.066420          20
 redis_proj                              1.049939       26583
 orth1                                   0.952628       11226
 gemm                                    0.951564       22410
 map_gather                              0.899822       16513
 map_scatter                             0.849919       16513
 fordep                                  0.644144           1
 M_bcast_z                               0.537405        6286
 potlok                                  0.506744          13
 eccp                                    0.423415        2016
 w1_copy                                 0.358140       22410
 work_mul_crexp                          0.294866       22410
 crpa_reader                             0.229457           1
 crexp_mul_wave                          0.228447       20142
 pw_charge                               0.175188        1260
 set_dd_paw                              0.147766          14
 overl                                   0.146156       12945
 M_bcast_d                               0.122413        3767
 setup_precond                           0.121012        2016
 brmix                                   0.101827          12
 overl1                                  0.090396        7470
 apply_precond                           0.086738        5454
 fornl                                   0.076246           1
 lincom                                  0.063127         357
 phase                                   0.043581         568
 orthch                                  0.039881           1
 densta                                  0.039381          17
 ggaall_grid                             0.037163          14
 truncate_high_frequency_w1              0.032396        9486
 proj                                    0.031812          21
 setg0                                   0.024824          13
 broyd                                   0.016762          12
 forhar                                  0.010419           2
 depsum                                  0.009394          12
 chggra                                  0.009225           1
 forloc                                  0.008958           1
 strehar                                 0.004164           1
 brgrid                                  0.004100           1
 strelo                                  0.003809           1
 brget                                   0.002041         432
 choleski                                0.001925          21
 strkin                                  0.001370           1
 brsav                                   0.000928         128
 brpre                                   0.000860          12
 potlok_metagga                          0.000112          13
 vectorpot                               0.000072          13
 set_rsgf_all                            0.000066          14
 set_dd_magatom                          0.000049          14
 set_kineden                             0.000037          11
 rotate_active_occupied_orbital          0.000016           1
 lprj_proall                             0.000007           1
 redis_pw_over_bands                     0.000003           1
 ---------------------------------------------------------------

Profiling took   1.344568  1.574368  0.005946  0.004406 seconds
Profiling took   1.349582 seconds
