 ----------------------------------------------------
    OOO  PPPP  EEEEE N   N M   M PPPP
   O   O P   P E     NN  N MM MM P   P
   O   O PPPP  EEEEE N N N M M M PPPP   -- VERSION
   O   O P     E     N  NN M   M P
    OOO  P     EEEEE N   N M   M P
 ----------------------------------------------------
 running   64 mpi-ranks, with    1 threads/rank
 distrk:  each k-point on   16 cores,    4 groups
 distr:  one band on    4 cores,    4 groups
 using from now: INCAR
 vasp.6.0.8 29Jun18 (build Jun 13 2019 12:54:44) complex

 POSCAR found type information on POSCAR  Th Bi Pt
 POSCAR found :  3 types and       3 ions
 scaLAPACK will be used
 WARNING: PSMAXN for non-local potential too small

 -----------------------------------------------------------------------------
|                                                                             |
|  ADVICE TO THIS USER RUNNING 'VASP/VAMP'   (HEAR YOUR MASTER'S VOICE ...):  |
|                                                                             |
|      You enforced a specific xc-type in the INCAR file,                     |
|      a different type was found on the POTCAR file                          |
|          I HOPE YOU KNOW, WHAT YOU ARE  DOING                               |
|                                                                             |
 -----------------------------------------------------------------------------

 LDA part: xc-table for Pade appr. of Perdew
 POSCAR, INCAR and KPOINTS ok, starting setup
 FFT: planning ...
 WAVECAR not read
 entering main loop
       N       E                     dE             d eps       ncg     rms          rms(c)
 ELPA: falling back to scaLAPACK
 ELPA: falling back to scaLAPACK
 ELPA: falling back to scaLAPACK
 ELPA: falling back to scaLAPACK
DAV:   1     0.442110584450E+03    0.44211E+03   -0.20427E+04  4032   0.200E+03
DAV:   2     0.443762581552E+02   -0.39773E+03   -0.38999E+03  4232   0.491E+02
DAV:   3    -0.185915155606E+02   -0.62968E+02   -0.62229E+02  5536   0.164E+02
DAV:   4    -0.227923644148E+02   -0.42008E+01   -0.41854E+01  7264   0.436E+01
DAV:   5    -0.229232771345E+02   -0.13091E+00   -0.13085E+00  5552   0.613E+00    0.299E+01
DAV:   6    -0.219450184396E+02    0.97826E+00   -0.19198E+00  5096   0.812E+00    0.188E+01
DAV:   7    -0.218360042610E+02    0.10901E+00   -0.25930E+00  6080   0.845E+00    0.640E+00
DAV:   8    -0.217829446759E+02    0.53060E-01   -0.32999E-01  5008   0.280E+00    0.494E+00
DAV:   9    -0.217702486581E+02    0.12696E-01   -0.21709E-01  6040   0.221E+00    0.304E+00
DAV:  10    -0.217653821577E+02    0.48665E-02   -0.31771E-02  4952   0.107E+00    0.657E-01
DAV:  11    -0.217653832415E+02   -0.10838E-05   -0.26073E-03  5576   0.327E-01    0.218E-01
DAV:  12    -0.217652582015E+02    0.12504E-03   -0.85471E-04  5968   0.156E-01    0.172E-02
DAV:  13    -0.217652634811E+02   -0.52796E-05   -0.83708E-05  6192   0.500E-02    0.250E-02
DAV:  14    -0.217652619278E+02    0.15533E-05   -0.89229E-06  5104   0.176E-02    0.171E-02
DAV:  15    -0.217652617596E+02    0.16819E-06   -0.26553E-06  6568   0.783E-03    0.606E-03
DAV:  16    -0.217652617760E+02   -0.16407E-07   -0.68545E-08  3520   0.197E-03
   1 F= -.21765262E+02 E0= -.21765155E+02  d E =-.214531E-03
