<?xml version="1.0" encoding="ISO-8859-1"?>
<modeling>
 <generator>
  <i name="program" type="string">vasp </i>
  <i name="version" type="string">6.0.8  </i>
  <i name="subversion" type="string">29Jun18 (build Jun 13 2019 12:54:44) complex                          parallel </i>
  <i name="platform" type="string">IFC18_CrayMPICH </i>
  <i name="date" type="string">2021 12 05 </i>
  <i name="time" type="string">14:21:48 </i>
 </generator>
 <incar>
  <i type="int" name="KPAR">     4</i>
  <i type="int" name="NPAR">     4</i>
  <i type="int" name="ISTART">     0</i>
  <i type="string" name="PREC"> ACC</i>
  <i type="string" name="ALGO"> Normal</i>
  <i type="logical" name="ADDGRID"> T  </i>
  <i type="int" name="ISPIN">     1</i>
  <i type="int" name="NELMIN">     5</i>
  <i type="int" name="IBRION">    -1</i>
  <i name="EDIFF">      0.00000010</i>
  <i type="int" name="NSW">     0</i>
  <i type="int" name="ISIF">     3</i>
  <i name="ENCUT">    700.00000000</i>
  <i type="logical" name="LREAL"> F  </i>
  <i type="int" name="ISMEAR">     0</i>
  <i name="SIGMA">      0.01000000</i>
  <i type="logical" name="LWAVE"> F  </i>
  <i type="logical" name="LCHARG"> F  </i>
  <i type="logical" name="LVTOT"> F  </i>
  <i type="string" name="ALGO"> Normal</i>
  <i type="string" name="GGA"> PS</i>
  <i name="EDIFF">      0.00000010</i>
  <i type="int" name="ISPIN">     1</i>
 </incar>
 <structure name="primitive_cell" >
  <crystal>
   <varray name="basis" >
    <v>       0.00000000       3.49203015       3.49203015 </v>
    <v>       3.49203015       0.00000000       3.49203015 </v>
    <v>       3.49203015       3.49203015       0.00000000 </v>
   </varray>
   <i name="volume">     85.16554900 </i>
   <varray name="rec_basis" >
    <v>      -0.14318319       0.14318319       0.14318319 </v>
    <v>       0.14318319      -0.14318319       0.14318319 </v>
    <v>       0.14318319       0.14318319      -0.14318319 </v>
   </varray>
  </crystal>
  <varray name="positions" >
   <v>       0.25000000       0.25000000       0.25000000 </v>
   <v>       0.75000000       0.75000000       0.75000000 </v>
   <v>       0.00000000       0.00000000       0.00000000 </v>
  </varray>
 </structure>
 <varray name="primitive_index" >
  <v type="int" >        1 </v>
  <v type="int" >        2 </v>
  <v type="int" >        3 </v>
 </varray>
 <kpoints>
  <generation param="Gamma">
   <v type="int" name="divisions">      13       13       13 </v>
   <v name="usershift">      0.00000000       0.00000000       0.00000000 </v>
   <v name="genvec1">      0.07692308       0.00000000      -0.00000000 </v>
   <v name="genvec2">      0.00000000       0.07692308       0.00000000 </v>
   <v name="genvec3">     -0.00000000      -0.00000000       0.07692308 </v>
   <v name="shift">      0.00000000       0.00000000       0.00000000 </v>
  </generation>
  <varray name="kpointlist" >
   <v>       0.00000000       0.00000000       0.00000000 </v>
   <v>       0.07692308       0.00000000      -0.00000000 </v>
   <v>       0.15384615       0.00000000       0.00000000 </v>
   <v>       0.23076923       0.00000000      -0.00000000 </v>
   <v>       0.30769231       0.00000000       0.00000000 </v>
   <v>       0.38461538      -0.00000000       0.00000000 </v>
   <v>       0.46153846      -0.00000000       0.00000000 </v>
   <v>       0.07692308       0.07692308      -0.00000000 </v>
   <v>       0.15384615       0.07692308      -0.00000000 </v>
   <v>       0.23076923       0.07692308      -0.00000000 </v>
   <v>       0.30769231       0.07692308      -0.00000000 </v>
   <v>       0.38461538       0.07692308       0.00000000 </v>
   <v>       0.46153846       0.07692308       0.00000000 </v>
   <v>      -0.46153846       0.07692308       0.00000000 </v>
   <v>      -0.38461538       0.07692308       0.00000000 </v>
   <v>      -0.30769231       0.07692308       0.00000000 </v>
   <v>      -0.23076923       0.07692308       0.00000000 </v>
   <v>      -0.15384615       0.07692308       0.00000000 </v>
   <v>      -0.07692308       0.07692308       0.00000000 </v>
   <v>       0.15384615       0.15384615      -0.00000000 </v>
   <v>       0.23076923       0.15384615      -0.00000000 </v>
   <v>       0.30769231       0.15384615       0.00000000 </v>
   <v>       0.38461538       0.15384615      -0.00000000 </v>
   <v>       0.46153846       0.15384615       0.00000000 </v>
   <v>      -0.46153846       0.15384615      -0.00000000 </v>
   <v>      -0.38461538       0.15384615       0.00000000 </v>
   <v>      -0.30769231       0.15384615      -0.00000000 </v>
   <v>      -0.23076923       0.15384615       0.00000000 </v>
   <v>      -0.15384615       0.15384615      -0.00000000 </v>
   <v>       0.23076923       0.23076923      -0.00000000 </v>
   <v>       0.30769231       0.23076923      -0.00000000 </v>
   <v>       0.38461538       0.23076923      -0.00000000 </v>
   <v>       0.46153846       0.23076923      -0.00000000 </v>
   <v>      -0.46153846       0.23076923      -0.00000000 </v>
   <v>      -0.38461538       0.23076923       0.00000000 </v>
   <v>      -0.30769231       0.23076923       0.00000000 </v>
   <v>      -0.23076923       0.23076923       0.00000000 </v>
   <v>       0.30769231       0.30769231      -0.00000000 </v>
   <v>       0.38461538       0.30769231      -0.00000000 </v>
   <v>       0.46153846       0.30769231      -0.00000000 </v>
   <v>      -0.46153846       0.30769231       0.00000000 </v>
   <v>      -0.38461538       0.30769231      -0.00000000 </v>
   <v>      -0.30769231       0.30769231      -0.00000000 </v>
   <v>       0.38461538       0.38461538      -0.00000000 </v>
   <v>       0.46153846       0.38461538      -0.00000000 </v>
   <v>      -0.46153846       0.38461538       0.00000000 </v>
   <v>      -0.38461538       0.38461538      -0.00000000 </v>
   <v>       0.46153846       0.46153846      -0.00000000 </v>
   <v>      -0.46153846       0.46153846      -0.00000000 </v>
   <v>       0.23076923       0.15384615       0.07692308 </v>
   <v>       0.30769231       0.15384615       0.07692308 </v>
   <v>       0.38461538       0.15384615       0.07692308 </v>
   <v>       0.46153846       0.15384615       0.07692308 </v>
   <v>      -0.46153846       0.15384615       0.07692308 </v>
   <v>       0.30769231       0.23076923       0.07692308 </v>
   <v>       0.38461538       0.23076923       0.07692308 </v>
   <v>       0.46153846       0.23076923       0.07692308 </v>
   <v>      -0.46153846       0.23076923       0.07692308 </v>
   <v>      -0.38461538       0.23076923       0.07692308 </v>
   <v>      -0.30769231       0.23076923       0.07692308 </v>
   <v>      -0.23076923       0.23076923       0.07692308 </v>
   <v>      -0.15384615       0.23076923       0.07692308 </v>
   <v>       0.38461538       0.30769231       0.07692308 </v>
   <v>       0.46153846       0.30769231       0.07692308 </v>
   <v>      -0.46153846       0.30769231       0.07692308 </v>
   <v>      -0.38461538       0.30769231       0.07692308 </v>
   <v>      -0.30769231       0.30769231       0.07692308 </v>
   <v>      -0.23076923       0.30769231       0.07692308 </v>
   <v>       0.46153846       0.38461538       0.07692308 </v>
   <v>      -0.46153846       0.38461538       0.07692308 </v>
   <v>      -0.38461538       0.38461538       0.07692308 </v>
   <v>      -0.30769231       0.38461538       0.07692308 </v>
   <v>      -0.46153846       0.46153846       0.07692308 </v>
   <v>      -0.38461538       0.46153846       0.07692308 </v>
   <v>       0.46153846       0.30769231       0.15384615 </v>
   <v>      -0.46153846       0.30769231       0.15384615 </v>
   <v>      -0.38461538       0.30769231       0.15384615 </v>
   <v>      -0.46153846       0.38461538       0.15384615 </v>
   <v>      -0.38461538       0.38461538       0.15384615 </v>
   <v>      -0.30769231       0.38461538       0.15384615 </v>
   <v>      -0.23076923       0.38461538       0.15384615 </v>
   <v>      -0.38461538       0.46153846       0.15384615 </v>
   <v>      -0.30769231       0.46153846       0.15384615 </v>
   <v>      -0.30769231       0.46153846       0.23076923 </v>
  </varray>
  <varray name="weights" >
   <v>       0.00045517 </v>
   <v>       0.00364133 </v>
   <v>       0.00364133 </v>
   <v>       0.00364133 </v>
   <v>       0.00364133 </v>
   <v>       0.00364133 </v>
   <v>       0.00364133 </v>
   <v>       0.00273100 </v>
   <v>       0.01092399 </v>
   <v>       0.01092399 </v>
   <v>       0.01092399 </v>
   <v>       0.01092399 </v>
   <v>       0.01092399 </v>
   <v>       0.01092399 </v>
   <v>       0.01092399 </v>
   <v>       0.01092399 </v>
   <v>       0.01092399 </v>
   <v>       0.01092399 </v>
   <v>       0.00546199 </v>
   <v>       0.00273100 </v>
   <v>       0.01092399 </v>
   <v>       0.01092399 </v>
   <v>       0.01092399 </v>
   <v>       0.01092399 </v>
   <v>       0.01092399 </v>
   <v>       0.01092399 </v>
   <v>       0.01092399 </v>
   <v>       0.01092399 </v>
   <v>       0.00546199 </v>
   <v>       0.00273100 </v>
   <v>       0.01092399 </v>
   <v>       0.01092399 </v>
   <v>       0.01092399 </v>
   <v>       0.01092399 </v>
   <v>       0.01092399 </v>
   <v>       0.01092399 </v>
   <v>       0.00546199 </v>
   <v>       0.00273100 </v>
   <v>       0.01092399 </v>
   <v>       0.01092399 </v>
   <v>       0.01092399 </v>
   <v>       0.01092399 </v>
   <v>       0.00546199 </v>
   <v>       0.00273100 </v>
   <v>       0.01092399 </v>
   <v>       0.01092399 </v>
   <v>       0.00546199 </v>
   <v>       0.00273100 </v>
   <v>       0.00546199 </v>
   <v>       0.01092399 </v>
   <v>       0.02184797 </v>
   <v>       0.02184797 </v>
   <v>       0.02184797 </v>
   <v>       0.02184797 </v>
   <v>       0.01092399 </v>
   <v>       0.02184797 </v>
   <v>       0.02184797 </v>
   <v>       0.02184797 </v>
   <v>       0.02184797 </v>
   <v>       0.02184797 </v>
   <v>       0.02184797 </v>
   <v>       0.01092399 </v>
   <v>       0.01092399 </v>
   <v>       0.02184797 </v>
   <v>       0.02184797 </v>
   <v>       0.02184797 </v>
   <v>       0.02184797 </v>
   <v>       0.01092399 </v>
   <v>       0.01092399 </v>
   <v>       0.02184797 </v>
   <v>       0.02184797 </v>
   <v>       0.01092399 </v>
   <v>       0.01092399 </v>
   <v>       0.01092399 </v>
   <v>       0.01092399 </v>
   <v>       0.02184797 </v>
   <v>       0.02184797 </v>
   <v>       0.01092399 </v>
   <v>       0.02184797 </v>
   <v>       0.02184797 </v>
   <v>       0.01092399 </v>
   <v>       0.01092399 </v>
   <v>       0.01092399 </v>
   <v>       0.01092399 </v>
  </varray>
 </kpoints>
 <parameters>
  <separator name="general" >
   <i type="string" name="SYSTEM">unknown system</i>
   <i type="logical" name="LCOMPAT"> F  </i>
  </separator>
  <separator name="electronic" >
   <i type="string" name="PREC">acc</i>
   <i name="ENMAX">    700.00000000</i>
   <i name="ENAUG">    535.43100000</i>
   <i name="EDIFF">      0.00000010</i>
   <i type="int" name="IALGO">    38</i>
   <i type="int" name="IWAVPR">    10</i>
   <i type="int" name="NBANDS">    24</i>
   <i type="int" name="NBANDSLOW">    -1</i>
   <i type="int" name="NBANDSHIGH">    -1</i>
   <i name="NELECT">     37.00000000</i>
   <i type="int" name="TURBO">     0</i>
   <i type="int" name="IRESTART">     0</i>
   <i type="int" name="NREBOOT">     0</i>
   <i type="int" name="NMIN">     0</i>
   <i name="EREF">      0.00000000</i>
   <separator name="electronic smearing" >
    <i type="int" name="ISMEAR">     0</i>
    <i name="SIGMA">      0.01000000</i>
    <i name="KSPACING">      0.50000000</i>
    <i type="logical" name="KGAMMA"> T  </i>
    <i type="logical" name="KBLOWUP"> T  </i>
   </separator>
   <separator name="electronic projectors" >
    <i type="logical" name="LREAL"> F  </i>
    <v name="ROPT">      0.00000000      0.00000000      0.00000000</v>
    <i type="int" name="LMAXPAW">  -100</i>
    <i type="int" name="LMAXMIX">     2</i>
    <i type="logical" name="NLSPLINE"> F  </i>
   </separator>
   <separator name="electronic startup" >
    <i type="int" name="ISTART">     0</i>
    <i type="int" name="ICHARG">     2</i>
    <i type="int" name="INIWAV">     1</i>
   </separator>
   <separator name="electronic spin" >
    <i type="int" name="ISPIN">     1</i>
    <i type="logical" name="LNONCOLLINEAR"> F  </i>
    <v name="MAGMOM">      1.00000000      1.00000000      1.00000000</v>
    <i name="NUPDOWN">     -1.00000000</i>
    <i type="logical" name="LSORBIT"> F  </i>
    <v name="SAXIS">      0.00000000      0.00000000      1.00000000</v>
    <i type="logical" name="LSPIRAL"> F  </i>
    <v name="QSPIRAL">      0.00000000      0.00000000      0.00000000</v>
    <i type="logical" name="LZEROZ"> F  </i>
   </separator>
   <separator name="electronic exchange-correlation" >
    <i type="logical" name="LASPH"> F  </i>
    <i type="logical" name="LMETAGGA"> F  </i>
   </separator>
   <separator name="electronic convergence" >
    <i type="int" name="NELM">    60</i>
    <i type="int" name="NELMDL">    -5</i>
    <i type="int" name="NELMIN">     5</i>
    <i name="ENINI">    700.00000000</i>
    <separator name="electronic convergence detail" >
     <i type="logical" name="LDIAG"> T  </i>
     <i type="logical" name="LSUBROT"> F  </i>
     <i name="WEIMIN">      0.00000000</i>
     <i name="EBREAK">      0.00000000</i>
     <i name="DEPER">      0.30000000</i>
     <i type="int" name="NRMM">     4</i>
     <i name="TIME">      0.40000000</i>
    </separator>
   </separator>
   <separator name="electronic mixer" >
    <i name="AMIX">      0.40000000</i>
    <i name="BMIX">      1.00000000</i>
    <i name="AMIN">      0.10000000</i>
    <i name="AMIX_MAG">      1.60000000</i>
    <i name="BMIX_MAG">      1.00000000</i>
    <separator name="electronic mixer details" >
     <i type="int" name="IMIX">     4</i>
     <i type="logical" name="MIXFIRST"> F  </i>
     <i type="int" name="MAXMIX">   -45</i>
     <i name="WC">    100.00000000</i>
     <i type="int" name="INIMIX">     1</i>
     <i type="int" name="MIXPRE">     1</i>
     <i type="int" name="MREMOVE">     5</i>
    </separator>
   </separator>
   <separator name="electronic dipolcorrection" >
    <i type="logical" name="LDIPOL"> F  </i>
    <i type="logical" name="LMONO"> F  </i>
    <i type="int" name="IDIPOL">     0</i>
    <i name="EPSILON">      1.00000000</i>
    <v name="DIPOL">   -100.00000000   -100.00000000   -100.00000000</v>
    <i name="EFIELD">      0.00000000</i>
   </separator>
  </separator>
  <separator name="grids" >
   <i type="int" name="NGX">    48</i>
   <i type="int" name="NGY">    48</i>
   <i type="int" name="NGZ">    48</i>
   <i type="int" name="NGXF">    96</i>
   <i type="int" name="NGYF">    96</i>
   <i type="int" name="NGZF">    96</i>
   <i type="logical" name="ADDGRID"> T  </i>
  </separator>
  <separator name="ionic" >
   <i type="int" name="NSW">     0</i>
   <i type="int" name="IBRION">    -1</i>
   <i type="int" name="MDALGO">     0</i>
   <i type="int" name="ISIF">     3</i>
   <i name="PSTRESS">      0.00000000</i>
   <i name="EDIFFG">      0.00000100</i>
   <i type="int" name="NFREE">     0</i>
   <i name="POTIM">      0.50000000</i>
   <i name="SMASS">     -3.00000000</i>
   <i name="SCALEE">      1.00000000</i>
  </separator>
  <separator name="ionic md" >
   <i name="TEBEG">      0.00010000</i>
   <i name="TEEND">      0.00010000</i>
   <i type="int" name="NBLOCK">     1</i>
   <i type="int" name="KBLOCK">     1</i>
   <i type="int" name="NPACO">   256</i>
   <i name="APACO">     16.00000000</i>
  </separator>
  <separator name="symmetry" >
   <i type="int" name="ISYM">     2</i>
   <i name="SYMPREC">      0.00001000</i>
  </separator>
  <separator name="dos" >
   <i type="int" name="LORBIT">     0</i>
   <v name="RWIGS">     -1.00000000     -1.00000000     -1.00000000</v>
   <i type="int" name="NEDOS">   301</i>
   <i name="EMIN">     10.00000000</i>
   <i name="EMAX">    -10.00000000</i>
   <i name="EFERMI">      0.00000000</i>
  </separator>
  <separator name="writing" >
   <i type="int" name="NWRITE">     2</i>
   <i type="logical" name="LWAVE"> F  </i>
   <i type="logical" name="LDOWNSAMPLE"> F  </i>
   <i type="logical" name="LCHARG"> F  </i>
   <i type="logical" name="LPARD"> F  </i>
   <i type="logical" name="LVTOT"> F  </i>
   <i type="logical" name="LVHAR"> F  </i>
   <i type="logical" name="LELF"> F  </i>
   <i type="logical" name="LOPTICS"> F  </i>
   <v name="STM">      0.00000000      0.00000000      0.00000000      0.00000000      0.00000000      0.00000000      0.00000000</v>
  </separator>
  <separator name="performance" >
   <i type="int" name="NPAR">     4</i>
   <i type="int" name="NSIM">     4</i>
   <i type="int" name="NBLK">    -1</i>
   <i type="logical" name="LPLANE"> T  </i>
   <i type="logical" name="LSCALAPACK"> T  </i>
   <i type="logical" name="LSCAAWARE"> F  </i>
   <i type="logical" name="LSCALU"> F  </i>
   <i type="logical" name="LASYNC"> F  </i>
   <i type="logical" name="LORBITALREAL"> F  </i>
  </separator>
  <separator name="miscellaneous" >
   <i type="int" name="IDIOT">     3</i>
   <i type="int" name="PHON_NSTRUCT">    -1</i>
   <i type="logical" name="LMUSIC"> F  </i>
   <v name="POMASS">    232.03900000    208.98000000    195.08000000</v>
   <v name="DARWINR">      0.00000000      0.00000000      0.00000000</v>
   <v name="DARWINV">      1.00000000      1.00000000      1.00000000</v>
   <i type="logical" name="LCORR"> T  </i>
  </separator>
  <i type="logical" name="GGA_COMPAT"> T  </i>
  <i type="logical" name="LBERRY"> F  </i>
  <i type="int" name="ICORELEVEL">     0</i>
  <i type="logical" name="LDAU"> F  </i>
  <i type="int" name="I_CONSTRAINED_M">     0</i>
  <separator name="electronic exchange-correlation" >
   <i type="string" name="GGA">PS</i>
   <i type="int" name="VOSKOWN">     0</i>
   <i type="logical" name="LHFCALC"> F  </i>
   <i type="string" name="PRECFOCK"></i>
   <i type="logical" name="LSYMGRAD"> F  </i>
   <i type="logical" name="LHFONE"> F  </i>
   <i type="logical" name="LRHFCALC"> F  </i>
   <i type="logical" name="LTHOMAS"> F  </i>
   <i type="logical" name="LMODELHF"> F  </i>
   <i type="logical" name="LFOCKACE"> F  </i>
   <i name="ENCUT4O">     -1.00000000</i>
   <i type="int" name="EXXOEP">     0</i>
   <i type="int" name="FOURORBIT">     0</i>
   <i name="AEXX">      0.00000000</i>
   <i name="HFALPHA">      0.00000000</i>
   <i name="MCALPHA">      0.00000000</i>
   <i name="ALDAX">      1.00000000</i>
   <i name="AGGAX">      1.00000000</i>
   <i name="ALDAC">      1.00000000</i>
   <i name="AGGAC">      1.00000000</i>
   <i type="int" name="NKREDX">     1</i>
   <i type="int" name="NKREDY">     1</i>
   <i type="int" name="NKREDZ">     1</i>
   <i type="logical" name="SHIFTRED"> F  </i>
   <i type="logical" name="ODDONLY"> F  </i>
   <i type="logical" name="EVENONLY"> F  </i>
   <i type="int" name="LMAXFOCK">     0</i>
   <i type="int" name="NMAXFOCKAE">     0</i>
   <i type="logical" name="LFOCKAEDFT"> F  </i>
   <i name="HFSCREEN">      0.00000000</i>
   <i name="HFSCREENC">      0.00000000</i>
   <i type="int" name="NBANDSGWLOW">     0</i>
  </separator>
  <separator name="vdW DFT" >
   <i type="logical" name="LUSE_VDW"> F  </i>
   <i name="Zab_VDW">     -0.84910000</i>
   <i name="PARAM1">      0.12340000</i>
   <i name="PARAM2">      1.00000000</i>
   <i name="PARAM3">      0.00000000</i>
  </separator>
  <separator name="model GW" >
   <i type="int" name="MODEL_GW">     0</i>
   <i name="MODEL_EPS0">     17.03310980</i>
   <i name="MODEL_ALPHA">      1.00000000</i>
  </separator>
  <separator name="linear response parameters" >
   <i type="logical" name="LEPSILON"> F  </i>
   <i type="logical" name="LRPA"> F  </i>
   <i type="logical" name="LNABLA"> F  </i>
   <i type="logical" name="LVEL"> F  </i>
   <i type="int" name="KINTER">     0</i>
   <i name="CSHIFT">      0.10000000</i>
   <i name="OMEGAMAX">     -1.00000000</i>
   <i name="DEG_THRESHOLD">      0.00200000</i>
   <i name="RTIME">     -0.10000000</i>
   <i name="WPLASMAI">      0.00000000</i>
   <v name="DFIELD">      0.00000000      0.00000000      0.00000000</v>
   <v name="WPLASMA">      0.00000000      0.00000000      0.00000000      0.00000000      0.00000000      0.00000000      0.00000000      0.00000000      0.00000000</v>
  </separator>
  <separator name="orbital magnetization" >
   <i type="logical" name="NUCIND"> F  </i>
   <v name="MAGPOS">      0.00000000      0.00000000      0.00000000</v>
   <i type="logical" name="LNICSALL"> T  </i>
   <i type="logical" name="ORBITALMAG"> F  </i>
   <i type="logical" name="LMAGBLOCH"> F  </i>
   <i type="logical" name="LCHIMAG"> F  </i>
   <i type="logical" name="LGAUGE"> T  </i>
   <i type="int" name="MAGATOM">     0</i>
   <v name="MAGDIPOL">      0.00000000      0.00000000      0.00000000</v>
   <v name="AVECCONST">      0.00000000      0.00000000      0.00000000</v>
  </separator>
  <separator name="response functions" >
   <i type="logical" name="LFINITE_TEMPERATURE"> F  </i>
   <i type="logical" name="LADDER"> F  </i>
   <i type="logical" name="LRPAFORCE"> F  </i>
   <i type="logical" name="LFXC"> F  </i>
   <i type="logical" name="LHARTREE"> T  </i>
   <i type="int" name="IBSE">     0</i>
   <v type="int" name="KPOINT">    -1     0     0     0</v>
   <i type="logical" name="LTCTC"> F  </i>
   <i type="logical" name="LTCTE"> F  </i>
   <i type="logical" name="LTETE"> F  </i>
   <i type="logical" name="LTRIPLET"> F  </i>
   <i type="logical" name="LFXCEPS"> F  </i>
   <i type="logical" name="LFXHEG"> F  </i>
   <i type="int" name="NATURALO">     2</i>
   <i type="logical" name="L2ORDER"> F  </i>
   <i type="logical" name="LDMP1"> F  </i>
   <i type="logical" name="LMP2LT"> F  </i>
   <i type="logical" name="LSMP2LT"> F  </i>
   <i type="logical" name="LUSEW"> F  </i>
   <i name="ENCUTGW">     -2.00000000</i>
   <i name="ENCUTGWSOFT">     -2.00000000</i>
   <i name="ENCUTLF">     -1.00000000</i>
   <i type="int" name="LMAXMP2">    -1</i>
   <i name="SCISSOR">      0.00000000</i>
   <i type="int" name="NOMEGA">     0</i>
   <i type="int" name="NOMEGAR">     0</i>
   <i type="int" name="NBANDSGW">    -1</i>
   <i type="int" name="NBANDSO">    -1</i>
   <i type="int" name="NBANDSV">    -1</i>
   <i type="int" name="NELM">     1</i>
   <i type="int" name="NELMHF">     1</i>
   <i type="int" name="DIM">     3</i>
   <i type="int" name="IESPILON">     4</i>
   <i type="int" name="ANTIRES">     0</i>
   <i name="OMEGAMAX">    -30.00000000</i>
   <i name="OMEGAMIN">    -30.00000000</i>
   <i name="OMEGATL">   -200.00000000</i>
   <i type="int" name="OMEGAGRID">   145</i>
   <i name="CSHIFT">     -0.10000000</i>
   <i type="logical" name="LSELFENERGY"> F  </i>
   <i type="logical" name="LSPECTRAL"> F  </i>
   <i type="logical" name="LSPECTRALGW"> F  </i>
   <i type="logical" name="LSINGLES"> F  </i>
   <i type="logical" name="LFERMIGW"> F  </i>
   <i type="logical" name="ODDONLYGW"> F  </i>
   <i type="logical" name="EVENONLYGW"> F  </i>
   <i type="int" name="NKREDLFX">     1</i>
   <i type="int" name="NKREDLFY">     1</i>
   <i type="int" name="NKREDLFZ">     1</i>
   <i type="int" name="MAXMEM">  2800</i>
   <i type="int" name="TELESCOPE">     0</i>
   <i type="int" name="NTAUPAR">     1</i>
   <i type="int" name="NOMEGAPAR">    -1</i>
   <i name="LAMBDA">      1.00000000</i>
  </separator>
  <separator name="External order field" >
   <i name="OFIELD_KAPPA">      0.00000000</i>
   <v name="OFIELD_K">      0.00000000      0.00000000      0.00000000</v>
   <i name="OFIELD_Q6_NEAR">      0.00000000</i>
   <i name="OFIELD_Q6_FAR">      0.00000000</i>
   <i name="OFIELD_A">      0.00000000</i>
  </separator>
 </parameters>
 <atominfo>
  <atoms>       3 </atoms>
  <types>       3 </types>
  <array name="atoms" >
   <dimension dim="1">ion</dimension>
   <field type="string">element</field>
   <field type="int">atomtype</field>
   <set>
    <rc><c>Th</c><c>   1</c></rc>
    <rc><c>Bi</c><c>   2</c></rc>
    <rc><c>Pt</c><c>   3</c></rc>
   </set>
  </array>
  <array name="atomtypes" >
   <dimension dim="1">type</dimension>
   <field type="int">atomspertype</field>
   <field type="string">element</field>
   <field>mass</field>
   <field>valence</field>
   <field type="string">pseudopotential</field>
   <set>
    <rc><c>   1</c><c>Th</c><c>    232.03900000</c><c>     12.00000000</c><c>  PAW_PBE Th 07Sep2000                  </c></rc>
    <rc><c>   1</c><c>Bi</c><c>    208.98000000</c><c>     15.00000000</c><c>  PAW_PBE Bi_d 06Sep2000                </c></rc>
    <rc><c>   1</c><c>Pt</c><c>    195.08000000</c><c>     10.00000000</c><c>  PAW_PBE Pt 04Feb2005                  </c></rc>
   </set>
  </array>
 </atominfo>
 <structure name="initialpos" >
  <crystal>
   <varray name="basis" >
    <v>       0.00000000       3.49203015       3.49203015 </v>
    <v>       3.49203015       0.00000000       3.49203015 </v>
    <v>       3.49203015       3.49203015       0.00000000 </v>
   </varray>
   <i name="volume">     85.16554900 </i>
   <varray name="rec_basis" >
    <v>      -0.14318319       0.14318319       0.14318319 </v>
    <v>       0.14318319      -0.14318319       0.14318319 </v>
    <v>       0.14318319       0.14318319      -0.14318319 </v>
   </varray>
  </crystal>
  <varray name="positions" >
   <v>       0.25000000       0.25000000       0.25000000 </v>
   <v>       0.75000000       0.75000000       0.75000000 </v>
   <v>       0.00000000       0.00000000       0.00000000 </v>
  </varray>
 </structure>
 <calculation>
  <scstep>
   <time name="dav">    1.70    1.70</time>
   <time name="total">    1.89    1.98</time>
   <energy>
    <i name="alphaZ">    201.74311303 </i>
    <i name="ewald">  -3067.60820040 </i>
    <i name="hartreedc">   -782.82313613 </i>
    <i name="XCdc">     67.69381802 </i>
    <i name="pawpsdc">   3147.30828992 </i>
    <i name="pawaedc">  -3070.62761383 </i>
    <i name="eentropy">     -0.00023239 </i>
    <i name="bandstr">    271.75112359 </i>
    <i name="atom">   3674.67342263 </i>
    <i name="e_fr_energy">    442.11058445 </i>
    <i name="e_wo_entrp">    442.11081684 </i>
    <i name="e_0_energy">    442.11070065 </i>
   </energy>
  </scstep>
  <scstep>
   <time name="dav">    1.74    1.77</time>
   <time name="total">    1.75    1.77</time>
   <energy>
    <i name="e_fr_energy">     44.37625816 </i>
    <i name="e_wo_entrp">     44.37647876 </i>
    <i name="e_0_energy">     44.37636846 </i>
   </energy>
  </scstep>
  <scstep>
   <time name="dav">    2.11    2.15</time>
   <time name="total">    2.11    2.16</time>
   <energy>
    <i name="e_fr_energy">    -18.59151556 </i>
    <i name="e_wo_entrp">    -18.59131069 </i>
    <i name="e_0_energy">    -18.59141313 </i>
   </energy>
  </scstep>
  <scstep>
   <time name="dav">    2.63    2.66</time>
   <time name="total">    2.63    2.66</time>
   <energy>
    <i name="e_fr_energy">    -22.79236441 </i>
    <i name="e_wo_entrp">    -22.79214641 </i>
    <i name="e_0_energy">    -22.79225541 </i>
   </energy>
  </scstep>
  <scstep>
   <time name="dav">    2.15    2.18</time>
   <time name="total">    2.63    2.66</time>
   <energy>
    <i name="e_fr_energy">    -22.92327713 </i>
    <i name="e_wo_entrp">    -22.92301447 </i>
    <i name="e_0_energy">    -22.92314580 </i>
   </energy>
  </scstep>
  <scstep>
   <time name="dav">    2.00    2.00</time>
   <time name="total">    2.65    2.69</time>
   <energy>
    <i name="e_fr_energy">    -21.94501844 </i>
    <i name="e_wo_entrp">    -21.94475632 </i>
    <i name="e_0_energy">    -21.94488738 </i>
   </energy>
  </scstep>
  <scstep>
   <time name="dav">    2.24    2.24</time>
   <time name="total">    2.82    2.85</time>
   <energy>
    <i name="e_fr_energy">    -21.83600426 </i>
    <i name="e_wo_entrp">    -21.83568507 </i>
    <i name="e_0_energy">    -21.83584467 </i>
   </energy>
  </scstep>
  <scstep>
   <time name="dav">    1.98    1.98</time>
   <time name="total">    2.57    2.61</time>
   <energy>
    <i name="e_fr_energy">    -21.78294468 </i>
    <i name="e_wo_entrp">    -21.78263632 </i>
    <i name="e_0_energy">    -21.78279050 </i>
   </energy>
  </scstep>
  <scstep>
   <time name="dav">    2.23    2.23</time>
   <time name="total">    2.81    2.84</time>
   <energy>
    <i name="e_fr_energy">    -21.77024866 </i>
    <i name="e_wo_entrp">    -21.77003268 </i>
    <i name="e_0_energy">    -21.77014067 </i>
   </energy>
  </scstep>
  <scstep>
   <time name="dav">    1.96    1.96</time>
   <time name="total">    2.56    2.59</time>
   <energy>
    <i name="e_fr_energy">    -21.76538216 </i>
    <i name="e_wo_entrp">    -21.76516295 </i>
    <i name="e_0_energy">    -21.76527255 </i>
   </energy>
  </scstep>
  <scstep>
   <time name="dav">    2.10    2.10</time>
   <time name="total">    2.72    2.77</time>
   <energy>
    <i name="e_fr_energy">    -21.76538324 </i>
    <i name="e_wo_entrp">    -21.76516998 </i>
    <i name="e_0_energy">    -21.76527661 </i>
   </energy>
  </scstep>
  <scstep>
   <time name="dav">    2.24    2.24</time>
   <time name="total">    2.84    2.93</time>
   <energy>
    <i name="e_fr_energy">    -21.76525820 </i>
    <i name="e_wo_entrp">    -21.76504476 </i>
    <i name="e_0_energy">    -21.76515148 </i>
   </energy>
  </scstep>
  <scstep>
   <time name="dav">    2.31    2.31</time>
   <time name="total">    2.90    2.92</time>
   <energy>
    <i name="e_fr_energy">    -21.76526348 </i>
    <i name="e_wo_entrp">    -21.76504928 </i>
    <i name="e_0_energy">    -21.76515638 </i>
   </energy>
  </scstep>
  <scstep>
   <time name="dav">    2.01    2.01</time>
   <time name="total">    2.60    2.66</time>
   <energy>
    <i name="e_fr_energy">    -21.76526193 </i>
    <i name="e_wo_entrp">    -21.76504771 </i>
    <i name="e_0_energy">    -21.76515482 </i>
   </energy>
  </scstep>
  <scstep>
   <time name="dav">    2.43    2.43</time>
   <time name="total">    3.00    3.04</time>
   <energy>
    <i name="e_fr_energy">    -21.76526176 </i>
    <i name="e_wo_entrp">    -21.76504724 </i>
    <i name="e_0_energy">    -21.76515450 </i>
   </energy>
  </scstep>
  <scstep>
   <time name="dav">    1.57    1.57</time>
   <time name="total">    1.75    1.78</time>
   <energy>
    <i name="alphaZ">    201.74311303 </i>
    <i name="ewald">  -3067.60820040 </i>
    <i name="hartreedc">   -757.24481020 </i>
    <i name="XCdc">     67.01864901 </i>
    <i name="pawpsdc">   3779.26882889 </i>
    <i name="pawaedc">  -3710.79141237 </i>
    <i name="eentropy">     -0.00021453 </i>
    <i name="bandstr">   -208.82463784 </i>
    <i name="atom">   3674.67342263 </i>
    <i name="e_fr_energy">    -21.76526178 </i>
    <i name="e_wo_entrp">    -21.76504725 </i>
    <i name="e_0_energy">    -21.76515451 </i>
   </energy>
  </scstep>
  <structure>
   <crystal>
    <varray name="basis" >
     <v>       0.00000000       3.49203015       3.49203015 </v>
     <v>       3.49203015       0.00000000       3.49203015 </v>
     <v>       3.49203015       3.49203015       0.00000000 </v>
    </varray>
    <i name="volume">     85.16554900 </i>
    <varray name="rec_basis" >
     <v>      -0.14318319       0.14318319       0.14318319 </v>
     <v>       0.14318319      -0.14318319       0.14318319 </v>
     <v>       0.14318319       0.14318319      -0.14318319 </v>
    </varray>
   </crystal>
   <varray name="positions" >
    <v>       0.25000000       0.25000000       0.25000000 </v>
    <v>       0.75000000       0.75000000       0.75000000 </v>
    <v>       0.00000000       0.00000000       0.00000000 </v>
   </varray>
  </structure>
  <varray name="forces" >
   <v>      -0.00000000      -0.00000000      -0.00000000 </v>
   <v>      -0.00000000      -0.00000000      -0.00000000 </v>
   <v>       0.00000000       0.00000000       0.00000000 </v>
  </varray>
  <varray name="stress" >
   <v>     -53.92467781       0.00000000       0.00000000 </v>
   <v>       0.00000000     -53.92467781       0.00000000 </v>
   <v>       0.00000000      -0.00000000     -53.92467781 </v>
  </varray>
  <energy>
   <i name="e_fr_energy">    -21.76526178 </i>
   <i name="e_wo_entrp">    -21.76515451 </i>
   <i name="e_0_energy">     -0.00021453 </i>
  </energy>
  <time name="totalsc">   45.11   46.21</time>
  <eigenvalues>
   <array>
    <dimension dim="1">band</dimension>
    <dimension dim="2">kpoint</dimension>
    <dimension dim="3">spin</dimension>
    <field>eigene</field>
    <field>occ</field>
    <set>
     <set comment="spin 1">
      <set comment="kpoint 1">
       <r>  -32.4411    1.0000 </r>
       <r>  -15.0757    1.0000 </r>
       <r>  -15.0757    1.0000 </r>
       <r>  -15.0463    1.0000 </r>
       <r>  -15.0463    1.0000 </r>
       <r>  -15.0463    1.0000 </r>
       <r>  -10.3497    1.0000 </r>
       <r>  -10.3497    1.0000 </r>
       <r>  -10.3497    1.0000 </r>
       <r>   -4.1386    1.0000 </r>
       <r>    3.7300    1.0000 </r>
       <r>    3.7300    1.0000 </r>
       <r>    3.7300    1.0000 </r>
       <r>    3.9894    1.0000 </r>
       <r>    3.9894    1.0000 </r>
       <r>    5.7174    1.0000 </r>
       <r>    6.8090    1.0000 </r>
       <r>    6.8090    1.0000 </r>
       <r>    6.8090    1.0000 </r>
       <r>    8.0642    0.0000 </r>
       <r>    8.0642    0.0000 </r>
       <r>    8.0642    0.0000 </r>
       <r>    8.8154    0.0000 </r>
       <r>    9.6404    0.0000 </r>
      </set>
      <set comment="kpoint 2">
       <r>  -32.4409    1.0000 </r>
       <r>  -15.0762    1.0000 </r>
       <r>  -15.0762    1.0000 </r>
       <r>  -15.0464    1.0000 </r>
       <r>  -15.0461    1.0000 </r>
       <r>  -15.0461    1.0000 </r>
       <r>  -10.3617    1.0000 </r>
       <r>  -10.3483    1.0000 </r>
       <r>  -10.3483    1.0000 </r>
       <r>   -4.0880    1.0000 </r>
       <r>    3.5921    1.0000 </r>
       <r>    3.6338    1.0000 </r>
       <r>    3.6338    1.0000 </r>
       <r>    4.0801    1.0000 </r>
       <r>    4.0801    1.0000 </r>
       <r>    5.5316    1.0000 </r>
       <r>    6.7293    1.0000 </r>
       <r>    6.7293    1.0000 </r>
       <r>    6.9087    1.0000 </r>
       <r>    8.1533    0.0000 </r>
       <r>    8.1541    0.0000 </r>
       <r>    8.1541    0.0000 </r>
       <r>    9.0093    0.0000 </r>
       <r>    9.6478    0.0000 </r>
      </set>
      <set comment="kpoint 3">
       <r>  -32.4403    1.0000 </r>
       <r>  -15.0777    1.0000 </r>
       <r>  -15.0777    1.0000 </r>
       <r>  -15.0466    1.0000 </r>
       <r>  -15.0458    1.0000 </r>
       <r>  -15.0458    1.0000 </r>
       <r>  -10.3939    1.0000 </r>
       <r>  -10.3444    1.0000 </r>
       <r>  -10.3444    1.0000 </r>
       <r>   -3.9474    1.0000 </r>
       <r>    3.2535    1.0000 </r>
       <r>    3.4904    1.0000 </r>
       <r>    3.4904    1.0000 </r>
       <r>    4.1980    1.0000 </r>
       <r>    4.1980    1.0000 </r>
       <r>    5.1573    1.0000 </r>
       <r>    6.5623    1.0000 </r>
       <r>    6.5623    1.0000 </r>
       <r>    7.0255    1.0000 </r>
       <r>    8.3659    0.0000 </r>
       <r>    8.3659    0.0000 </r>
       <r>    8.5367    0.0000 </r>
       <r>    9.3494    0.0000 </r>
       <r>    9.6706    0.0000 </r>
      </set>
      <set comment="kpoint 4">
       <r>  -32.4395    1.0000 </r>
       <r>  -15.0798    1.0000 </r>
       <r>  -15.0798    1.0000 </r>
       <r>  -15.0471    1.0000 </r>
       <r>  -15.0453    1.0000 </r>
       <r>  -15.0453    1.0000 </r>
       <r>  -10.4373    1.0000 </r>
       <r>  -10.3390    1.0000 </r>
       <r>  -10.3390    1.0000 </r>
       <r>   -3.7479    1.0000 </r>
       <r>    2.8488    1.0000 </r>
       <r>    3.3777    1.0000 </r>
       <r>    3.3777    1.0000 </r>
       <r>    4.2484    1.0000 </r>
       <r>    4.2484    1.0000 </r>
       <r>    4.7840    1.0000 </r>
       <r>    6.4121    1.0000 </r>
       <r>    6.4121    1.0000 </r>
       <r>    7.1153    1.0000 </r>
       <r>    8.6203    0.0000 </r>
       <r>    8.6203    0.0000 </r>
       <r>    9.0846    0.0000 </r>
       <r>    9.6065    0.0000 </r>
       <r>    9.6682    0.0000 </r>
      </set>
      <set comment="kpoint 5">
       <r>  -32.4386    1.0000 </r>
       <r>  -15.0820    1.0000 </r>
       <r>  -15.0820    1.0000 </r>
       <r>  -15.0476    1.0000 </r>
       <r>  -15.0448    1.0000 </r>
       <r>  -15.0448    1.0000 </r>
       <r>  -10.4808    1.0000 </r>
       <r>  -10.3332    1.0000 </r>
       <r>  -10.3332    1.0000 </r>
       <r>   -3.5339    1.0000 </r>
       <r>    2.4780    1.0000 </r>
       <r>    3.3108    1.0000 </r>
       <r>    3.3108    1.0000 </r>
       <r>    4.2162    1.0000 </r>
       <r>    4.2162    1.0000 </r>
       <r>    4.4918    1.0000 </r>
       <r>    6.3254    1.0000 </r>
       <r>    6.3254    1.0000 </r>
       <r>    7.2350    1.0000 </r>
       <r>    8.8644    0.0000 </r>
       <r>    8.8644    0.0000 </r>
       <r>    9.5194    0.0000 </r>
       <r>    9.6339    0.0000 </r>
       <r>    9.6341    0.0000 </r>
      </set>
      <set comment="kpoint 6">
       <r>  -32.4379    1.0000 </r>
       <r>  -15.0838    1.0000 </r>
       <r>  -15.0838    1.0000 </r>
       <r>  -15.0481    1.0000 </r>
       <r>  -15.0444    1.0000 </r>
       <r>  -15.0444    1.0000 </r>
       <r>  -10.5150    1.0000 </r>
       <r>  -10.3284    1.0000 </r>
       <r>  -10.3284    1.0000 </r>
       <r>   -3.3548    1.0000 </r>
       <r>    2.2022    1.0000 </r>
       <r>    3.2860    1.0000 </r>
       <r>    3.2860    1.0000 </r>
       <r>    4.1371    1.0000 </r>
       <r>    4.1371    1.0000 </r>
       <r>    4.3040    1.0000 </r>
       <r>    6.2940    1.0000 </r>
       <r>    6.2940    1.0000 </r>
       <r>    7.3916    1.0000 </r>
       <r>    9.0515    0.0000 </r>
       <r>    9.0515    0.0000 </r>
       <r>    9.5989    0.0000 </r>
       <r>    9.5989    0.0000 </r>
       <r>    9.6544    0.0000 </r>
      </set>
      <set comment="kpoint 7">
       <r>  -32.4375    1.0000 </r>
       <r>  -15.0849    1.0000 </r>
       <r>  -15.0849    1.0000 </r>
       <r>  -15.0484    1.0000 </r>
       <r>  -15.0441    1.0000 </r>
       <r>  -15.0441    1.0000 </r>
       <r>  -10.5337    1.0000 </r>
       <r>  -10.3257    1.0000 </r>
       <r>  -10.3257    1.0000 </r>
       <r>   -3.2530    1.0000 </r>
       <r>    2.0563    1.0000 </r>
       <r>    3.2846    1.0000 </r>
       <r>    3.2846    1.0000 </r>
       <r>    4.0729    1.0000 </r>
       <r>    4.0729    1.0000 </r>
       <r>    4.2155    1.0000 </r>
       <r>    6.2883    1.0000 </r>
       <r>    6.2883    1.0000 </r>
       <r>    7.5275    1.0000 </r>
       <r>    9.1507    0.0000 </r>
       <r>    9.1507    0.0000 </r>
       <r>    9.5714    0.0000 </r>
       <r>    9.5762    0.0000 </r>
       <r>    9.5762    0.0000 </r>
      </set>
      <set comment="kpoint 8">
       <r>  -32.4409    1.0000 </r>
       <r>  -15.0772    1.0000 </r>
       <r>  -15.0755    1.0000 </r>
       <r>  -15.0465    1.0000 </r>
       <r>  -15.0461    1.0000 </r>
       <r>  -15.0461    1.0000 </r>
       <r>  -10.3587    1.0000 </r>
       <r>  -10.3514    1.0000 </r>
       <r>  -10.3514    1.0000 </r>
       <r>   -4.0725    1.0000 </r>
       <r>    3.3747    1.0000 </r>
       <r>    3.7440    1.0000 </r>
       <r>    3.7440    1.0000 </r>
       <r>    4.0054    1.0000 </r>
       <r>    4.1093    1.0000 </r>
       <r>    5.5203    1.0000 </r>
       <r>    6.6171    1.0000 </r>
       <r>    6.6171    1.0000 </r>
       <r>    7.1273    1.0000 </r>
       <r>    7.8943    0.0000 </r>
       <r>    8.3050    0.0000 </r>
       <r>    8.3050    0.0000 </r>
       <r>    9.0441    0.0000 </r>
       <r>    9.6315    0.0000 </r>
      </set>
      <set comment="kpoint 9">
       <r>  -32.4404    1.0000 </r>
       <r>  -15.0789    1.0000 </r>
       <r>  -15.0759    1.0000 </r>
       <r>  -15.0468    1.0000 </r>
       <r>  -15.0458    1.0000 </r>
       <r>  -15.0457    1.0000 </r>
       <r>  -10.3827    1.0000 </r>
       <r>  -10.3514    1.0000 </r>
       <r>  -10.3469    1.0000 </r>
       <r>   -3.9660    1.0000 </r>
       <r>    3.0984    1.0000 </r>
       <r>    3.6347    1.0000 </r>
       <r>    3.6744    1.0000 </r>
       <r>    4.0886    1.0000 </r>
       <r>    4.1952    1.0000 </r>
       <r>    5.2803    1.0000 </r>
       <r>    6.4362    1.0000 </r>
       <r>    6.4541    1.0000 </r>
       <r>    7.3452    1.0000 </r>
       <r>    7.9146    0.0000 </r>
       <r>    8.5247    0.0000 </r>
       <r>    8.5865    0.0000 </r>
       <r>    9.2969    0.0000 </r>
       <r>    9.6314    0.0000 </r>
      </set>
      <set comment="kpoint 10">
       <r>  -32.4396    1.0000 </r>
       <r>  -15.0808    1.0000 </r>
       <r>  -15.0773    1.0000 </r>
       <r>  -15.0471    1.0000 </r>
       <r>  -15.0455    1.0000 </r>
       <r>  -15.0453    1.0000 </r>
       <r>  -10.4219    1.0000 </r>
       <r>  -10.3485    1.0000 </r>
       <r>  -10.3404    1.0000 </r>
       <r>   -3.7928    1.0000 </r>
       <r>    2.8055    1.0000 </r>
       <r>    3.4361    1.0000 </r>
       <r>    3.5661    1.0000 </r>
       <r>    4.1618    1.0000 </r>
       <r>    4.2781    1.0000 </r>
       <r>    4.9406    1.0000 </r>
       <r>    6.2636    1.0000 </r>
       <r>    6.3244    1.0000 </r>
       <r>    7.4092    1.0000 </r>
       <r>    8.2326    0.0000 </r>
       <r>    8.7484    0.0000 </r>
       <r>    8.9898    0.0000 </r>
       <r>    9.5521    0.0000 </r>
       <r>    9.6190    0.0000 </r>
      </set>
      <set comment="kpoint 11">
       <r>  -32.4388    1.0000 </r>
       <r>  -15.0827    1.0000 </r>
       <r>  -15.0793    1.0000 </r>
       <r>  -15.0475    1.0000 </r>
       <r>  -15.0451    1.0000 </r>
       <r>  -15.0447    1.0000 </r>
       <r>  -10.4647    1.0000 </r>
       <r>  -10.3432    1.0000 </r>
       <r>  -10.3350    1.0000 </r>
       <r>   -3.5926    1.0000 </r>
       <r>    2.5188    1.0000 </r>
       <r>    3.2909    1.0000 </r>
       <r>    3.4791    1.0000 </r>
       <r>    4.1565    1.0000 </r>
       <r>    4.2903    1.0000 </r>
       <r>    4.6226    1.0000 </r>
       <r>    6.1659    1.0000 </r>
       <r>    6.2613    1.0000 </r>
       <r>    7.4188    1.0000 </r>
       <r>    8.6276    0.0000 </r>
       <r>    8.9478    0.0000 </r>
       <r>    9.3906    0.0000 </r>
       <r>    9.6085    0.0000 </r>
       <r>    9.6514    0.0000 </r>
      </set>
      <set comment="kpoint 12">
       <r>  -32.4380    1.0000 </r>
       <r>  -15.0840    1.0000 </r>
       <r>  -15.0816    1.0000 </r>
       <r>  -15.0479    1.0000 </r>
       <r>  -15.0447    1.0000 </r>
       <r>  -15.0443    1.0000 </r>
       <r>  -10.5013    1.0000 </r>
       <r>  -10.3369    1.0000 </r>
       <r>  -10.3319    1.0000 </r>
       <r>   -3.4113    1.0000 </r>
       <r>    2.2821    1.0000 </r>
       <r>    3.2301    1.0000 </r>
       <r>    3.4122    1.0000 </r>
       <r>    4.1046    1.0000 </r>
       <r>    4.2345    1.0000 </r>
       <r>    4.3885    1.0000 </r>
       <r>    6.1336    1.0000 </r>
       <r>    6.2483    1.0000 </r>
       <r>    7.4851    1.0000 </r>
       <r>    8.9260    0.0000 </r>
       <r>    9.0989    0.0000 </r>
       <r>    9.5477    0.0000 </r>
       <r>    9.5887    0.0000 </r>
       <r>    9.6833    0.0000 </r>
      </set>
      <set comment="kpoint 13">
       <r>  -32.4375    1.0000 </r>
       <r>  -15.0845    1.0000 </r>
       <r>  -15.0836    1.0000 </r>
       <r>  -15.0482    1.0000 </r>
       <r>  -15.0444    1.0000 </r>
       <r>  -15.0440    1.0000 </r>
       <r>  -10.5244    1.0000 </r>
       <r>  -10.3317    1.0000 </r>
       <r>  -10.3309    1.0000 </r>
       <r>   -3.2904    1.0000 </r>
       <r>    2.1338    1.0000 </r>
       <r>    3.2418    1.0000 </r>
       <r>    3.3463    1.0000 </r>
       <r>    4.0737    1.0000 </r>
       <r>    4.1522    1.0000 </r>
       <r>    4.2528    1.0000 </r>
       <r>    6.1325    1.0000 </r>
       <r>    6.2521    1.0000 </r>
       <r>    7.5948    1.0000 </r>
       <r>    9.0722    0.0000 </r>
       <r>    9.1814    0.0000 </r>
       <r>    9.5354    0.0000 </r>
       <r>    9.5668    0.0000 </r>
       <r>    9.6642    0.0000 </r>
      </set>
      <set comment="kpoint 14">
       <r>  -32.4373    1.0000 </r>
       <r>  -15.0848    1.0000 </r>
       <r>  -15.0840    1.0000 </r>
       <r>  -15.0483    1.0000 </r>
       <r>  -15.0442    1.0000 </r>
       <r>  -15.0440    1.0000 </r>
       <r>  -10.5304    1.0000 </r>
       <r>  -10.3344    1.0000 </r>
       <r>  -10.3267    1.0000 </r>
       <r>   -3.2573    1.0000 </r>
       <r>    2.0946    1.0000 </r>
       <r>    3.2727    1.0000 </r>
       <r>    3.3004    1.0000 </r>
       <r>    4.0846    1.0000 </r>
       <r>    4.1075    1.0000 </r>
       <r>    4.2212    1.0000 </r>
       <r>    6.1284    1.0000 </r>
       <r>    6.2560    1.0000 </r>
       <r>    7.6467    1.0000 </r>
       <r>    9.1036    0.0000 </r>
       <r>    9.1780    0.0000 </r>
       <r>    9.5397    0.0000 </r>
       <r>    9.5575    0.0000 </r>
       <r>    9.6303    0.0000 </r>
      </set>
      <set comment="kpoint 15">
       <r>  -32.4376    1.0000 </r>
       <r>  -15.0849    1.0000 </r>
       <r>  -15.0826    1.0000 </r>
       <r>  -15.0481    1.0000 </r>
       <r>  -15.0443    1.0000 </r>
       <r>  -15.0442    1.0000 </r>
       <r>  -10.5182    1.0000 </r>
       <r>  -10.3392    1.0000 </r>
       <r>  -10.3251    1.0000 </r>
       <r>   -3.3196    1.0000 </r>
       <r>    2.1713    1.0000 </r>
       <r>    3.2108    1.0000 </r>
       <r>    3.3781    1.0000 </r>
       <r>    4.0686    1.0000 </r>
       <r>    4.1942    1.0000 </r>
       <r>    4.2881    1.0000 </r>
       <r>    6.1021    1.0000 </r>
       <r>    6.2663    1.0000 </r>
       <r>    7.5781    1.0000 </r>
       <r>    9.0728    0.0000 </r>
       <r>    9.1163    0.0000 </r>
       <r>    9.5516    0.0000 </r>
       <r>    9.5692    0.0000 </r>
       <r>    9.6827    0.0000 </r>
      </set>
      <set comment="kpoint 16">
       <r>  -32.4382    1.0000 </r>
       <r>  -15.0840    1.0000 </r>
       <r>  -15.0808    1.0000 </r>
       <r>  -15.0477    1.0000 </r>
       <r>  -15.0447    1.0000 </r>
       <r>  -15.0446    1.0000 </r>
       <r>  -10.4900    1.0000 </r>
       <r>  -10.3451    1.0000 </r>
       <r>  -10.3265    1.0000 </r>
       <r>   -3.4634    1.0000 </r>
       <r>    2.3601    1.0000 </r>
       <r>    3.1881    1.0000 </r>
       <r>    3.4630    1.0000 </r>
       <r>    4.1039    1.0000 </r>
       <r>    4.2877    1.0000 </r>
       <r>    4.4527    1.0000 </r>
       <r>    6.0594    1.0000 </r>
       <r>    6.3071    1.0000 </r>
       <r>    7.4817    1.0000 </r>
       <r>    8.8698    0.0000 </r>
       <r>    9.0217    0.0000 </r>
       <r>    9.5349    0.0000 </r>
       <r>    9.5922    0.0000 </r>
       <r>    9.6830    0.0000 </r>
      </set>
      <set comment="kpoint 17">
       <r>  -32.4391    1.0000 </r>
       <r>  -15.0822    1.0000 </r>
       <r>  -15.0788    1.0000 </r>
       <r>  -15.0473    1.0000 </r>
       <r>  -15.0452    1.0000 </r>
       <r>  -15.0450    1.0000 </r>
       <r>  -10.4509    1.0000 </r>
       <r>  -10.3505    1.0000 </r>
       <r>  -10.3307    1.0000 </r>
       <r>   -3.6560    1.0000 </r>
       <r>    2.6431    1.0000 </r>
       <r>    3.2215    1.0000 </r>
       <r>    3.5643    1.0000 </r>
       <r>    4.1367    1.0000 </r>
       <r>    4.3361    1.0000 </r>
       <r>    4.7158    1.0000 </r>
       <r>    6.0419    1.0000 </r>
       <r>    6.4051    1.0000 </r>
       <r>    7.4264    1.0000 </r>
       <r>    8.6063    0.0000 </r>
       <r>    8.7733    0.0000 </r>
       <r>    9.2915    0.0000 </r>
       <r>    9.6150    0.0000 </r>
       <r>    9.6649    0.0000 </r>
      </set>
      <set comment="kpoint 18">
       <r>  -32.4399    1.0000 </r>
       <r>  -15.0800    1.0000 </r>
       <r>  -15.0771    1.0000 </r>
       <r>  -15.0469    1.0000 </r>
       <r>  -15.0457    1.0000 </r>
       <r>  -15.0455    1.0000 </r>
       <r>  -10.4093    1.0000 </r>
       <r>  -10.3539    1.0000 </r>
       <r>  -10.3366    1.0000 </r>
       <r>   -3.8530    1.0000 </r>
       <r>    2.9833    1.0000 </r>
       <r>    3.3154    1.0000 </r>
       <r>    3.6850    1.0000 </r>
       <r>    4.1078    1.0000 </r>
       <r>    4.3084    1.0000 </r>
       <r>    5.0437    1.0000 </r>
       <r>    6.1267    1.0000 </r>
       <r>    6.5579    1.0000 </r>
       <r>    7.3796    1.0000 </r>
       <r>    8.3455    0.0000 </r>
       <r>    8.3818    0.0000 </r>
       <r>    8.9343    0.0000 </r>
       <r>    9.4798    0.0000 </r>
       <r>    9.6374    0.0000 </r>
      </set>
      <set comment="kpoint 19">
       <r>  -32.4406    1.0000 </r>
       <r>  -15.0779    1.0000 </r>
       <r>  -15.0762    1.0000 </r>
       <r>  -15.0465    1.0000 </r>
       <r>  -15.0460    1.0000 </r>
       <r>  -15.0459    1.0000 </r>
       <r>  -10.3764    1.0000 </r>
       <r>  -10.3532    1.0000 </r>
       <r>  -10.3430    1.0000 </r>
       <r>   -4.0089    1.0000 </r>
       <r>    3.3241    1.0000 </r>
       <r>    3.4616    1.0000 </r>
       <r>    3.7560    1.0000 </r>
       <r>    4.0490    1.0000 </r>
       <r>    4.2109    1.0000 </r>
       <r>    5.3439    1.0000 </r>
       <r>    6.3885    1.0000 </r>
       <r>    6.7016    1.0000 </r>
       <r>    7.1858    1.0000 </r>
       <r>    8.1206    0.0000 </r>
       <r>    8.1666    0.0000 </r>
       <r>    8.5616    0.0000 </r>
       <r>    9.2143    0.0000 </r>
       <r>    9.6544    0.0000 </r>
      </set>
      <set comment="kpoint 20">
       <r>  -32.4401    1.0000 </r>
       <r>  -15.0803    1.0000 </r>
       <r>  -15.0750    1.0000 </r>
       <r>  -15.0472    1.0000 </r>
       <r>  -15.0455    1.0000 </r>
       <r>  -15.0455    1.0000 </r>
       <r>  -10.3830    1.0000 </r>
       <r>  -10.3559    1.0000 </r>
       <r>  -10.3559    1.0000 </r>
       <r>   -3.9049    1.0000 </r>
       <r>    2.8279    1.0000 </r>
       <r>    3.7737    1.0000 </r>
       <r>    3.7737    1.0000 </r>
       <r>    4.0507    1.0000 </r>
       <r>    4.1249    1.0000 </r>
       <r>    5.2732    1.0000 </r>
       <r>    6.3099    1.0000 </r>
       <r>    6.3099    1.0000 </r>
       <r>    7.4599    1.0000 </r>
       <r>    7.8369    0.0000 </r>
       <r>    8.7275    0.0000 </r>
       <r>    8.7275    0.0000 </r>
       <r>    9.3880    0.0000 </r>
       <r>    9.5976    0.0000 </r>
      </set>
      <set comment="kpoint 21">
       <r>  -32.4395    1.0000 </r>
       <r>  -15.0816    1.0000 </r>
       <r>  -15.0753    1.0000 </r>
       <r>  -15.0475    1.0000 </r>
       <r>  -15.0451    1.0000 </r>
       <r>  -15.0450    1.0000 </r>
       <r>  -10.4106    1.0000 </r>
       <r>  -10.3570    1.0000 </r>
       <r>  -10.3527    1.0000 </r>
       <r>   -3.7803    1.0000 </r>
       <r>    2.5985    1.0000 </r>
       <r>    3.6540    1.0000 </r>
       <r>    3.7300    1.0000 </r>
       <r>    4.1061    1.0000 </r>
       <r>    4.1741    1.0000 </r>
       <r>    5.0964    1.0000 </r>
       <r>    6.1138    1.0000 </r>
       <r>    6.2026    1.0000 </r>
       <r>    7.6318    1.0000 </r>
       <r>    7.9473    0.0000 </r>
       <r>    8.9116    0.0000 </r>
       <r>    8.9863    0.0000 </r>
       <r>    9.5573    0.0000 </r>
       <r>    9.5757    0.0000 </r>
      </set>
      <set comment="kpoint 22">
       <r>  -32.4387    1.0000 </r>
       <r>  -15.0826    1.0000 </r>
       <r>  -15.0766    1.0000 </r>
       <r>  -15.0478    1.0000 </r>
       <r>  -15.0448    1.0000 </r>
       <r>  -15.0445    1.0000 </r>
       <r>  -10.4480    1.0000 </r>
       <r>  -10.3543    1.0000 </r>
       <r>  -10.3480    1.0000 </r>
       <r>   -3.6234    1.0000 </r>
       <r>    2.4338    1.0000 </r>
       <r>    3.4485    1.0000 </r>
       <r>    3.6482    1.0000 </r>
       <r>    4.1273    1.0000 </r>
       <r>    4.2462    1.0000 </r>
       <r>    4.8299    1.0000 </r>
       <r>    5.9262    1.0000 </r>
       <r>    6.1618    1.0000 </r>
       <r>    7.6837    1.0000 </r>
       <r>    8.3464    0.0000 </r>
       <r>    9.0616    0.0000 </r>
       <r>    9.2837    0.0000 </r>
       <r>    9.5616    0.0000 </r>
       <r>    9.6654    0.0000 </r>
      </set>
      <set comment="kpoint 23">
       <r>  -32.4379    1.0000 </r>
       <r>  -15.0830    1.0000 </r>
       <r>  -15.0788    1.0000 </r>
       <r>  -15.0480    1.0000 </r>
       <r>  -15.0446    1.0000 </r>
       <r>  -15.0440    1.0000 </r>
       <r>  -10.4822    1.0000 </r>
       <r>  -10.3486    1.0000 </r>
       <r>  -10.3468    1.0000 </r>
       <r>   -3.4714    1.0000 </r>
       <r>    2.3343    1.0000 </r>
       <r>    3.2962    1.0000 </r>
       <r>    3.5556    1.0000 </r>
       <r>    4.1091    1.0000 </r>
       <r>    4.2591    1.0000 </r>
       <r>    4.5658    1.0000 </r>
       <r>    5.8360    1.0000 </r>
       <r>    6.1656    1.0000 </r>
       <r>    7.6709    1.0000 </r>
       <r>    8.7886    0.0000 </r>
       <r>    9.1747    0.0000 </r>
       <r>    9.4762    0.0000 </r>
       <r>    9.5538    0.0000 </r>
       <r>    9.6940    0.0000 </r>
      </set>
      <set comment="kpoint 24">
       <r>  -32.4374    1.0000 </r>
       <r>  -15.0828    1.0000 </r>
       <r>  -15.0812    1.0000 </r>
       <r>  -15.0480    1.0000 </r>
       <r>  -15.0446    1.0000 </r>
       <r>  -15.0437    1.0000 </r>
       <r>  -10.5060    1.0000 </r>
       <r>  -10.3496    1.0000 </r>
       <r>  -10.3412    1.0000 </r>
       <r>   -3.3573    1.0000 </r>
       <r>    2.2817    1.0000 </r>
       <r>    3.2389    1.0000 </r>
       <r>    3.4407    1.0000 </r>
       <r>    4.1121    1.0000 </r>
       <r>    4.2161    1.0000 </r>
       <r>    4.3759    1.0000 </r>
       <r>    5.8097    1.0000 </r>
       <r>    6.1751    1.0000 </r>
       <r>    7.7247    1.0000 </r>
       <r>    8.9875    0.0000 </r>
       <r>    9.2442    0.0000 </r>
       <r>    9.5064    0.0000 </r>
       <r>    9.5431    0.0000 </r>
       <r>    9.7091    0.0000 </r>
      </set>
      <set comment="kpoint 25">
       <r>  -32.4371    1.0000 </r>
       <r>  -15.0833    1.0000 </r>
       <r>  -15.0819    1.0000 </r>
       <r>  -15.0479    1.0000 </r>
       <r>  -15.0446    1.0000 </r>
       <r>  -15.0437    1.0000 </r>
       <r>  -10.5153    1.0000 </r>
       <r>  -10.3555    1.0000 </r>
       <r>  -10.3336    1.0000 </r>
       <r>   -3.3031    1.0000 </r>
       <r>    2.2566    1.0000 </r>
       <r>    3.2771    1.0000 </r>
       <r>    3.3117    1.0000 </r>
       <r>    4.1454    1.0000 </r>
       <r>    4.1683    1.0000 </r>
       <r>    4.2998    1.0000 </r>
       <r>    5.7936    1.0000 </r>
       <r>    6.1751    1.0000 </r>
       <r>    7.8141    0.1876 </r>
       <r>    8.9730    0.0000 </r>
       <r>    9.2515    0.0000 </r>
       <r>    9.5316    0.0000 </r>
       <r>    9.5459    0.0000 </r>
       <r>    9.6844    0.0000 </r>
      </set>
      <set comment="kpoint 26">
       <r>  -32.4373    1.0000 </r>
       <r>  -15.0846    1.0000 </r>
       <r>  -15.0806    1.0000 </r>
       <r>  -15.0477    1.0000 </r>
       <r>  -15.0447    1.0000 </r>
       <r>  -15.0439    1.0000 </r>
       <r>  -10.5092    1.0000 </r>
       <r>  -10.3626    1.0000 </r>
       <r>  -10.3277    1.0000 </r>
       <r>   -3.3191    1.0000 </r>
       <r>    2.2606    1.0000 </r>
       <r>    3.1990    1.0000 </r>
       <r>    3.3847    1.0000 </r>
       <r>    4.0843    1.0000 </r>
       <r>    4.2619    1.0000 </r>
       <r>    4.3450    1.0000 </r>
       <r>    5.7474    1.0000 </r>
       <r>    6.1786    1.0000 </r>
       <r>    7.8441    0.0000 </r>
       <r>    9.0064    0.0000 </r>
       <r>    9.1642    0.0000 </r>
       <r>    9.5355    0.0000 </r>
       <r>    9.5591    0.0000 </r>
       <r>    9.6908    0.0000 </r>
      </set>
      <set comment="kpoint 27">
       <r>  -32.4377    1.0000 </r>
       <r>  -15.0849    1.0000 </r>
       <r>  -15.0792    1.0000 </r>
       <r>  -15.0474    1.0000 </r>
       <r>  -15.0448    1.0000 </r>
       <r>  -15.0443    1.0000 </r>
       <r>  -10.4895    1.0000 </r>
       <r>  -10.3685    1.0000 </r>
       <r>  -10.3247    1.0000 </r>
       <r>   -3.4041    1.0000 </r>
       <r>    2.3180    1.0000 </r>
       <r>    3.1312    1.0000 </r>
       <r>    3.5295    1.0000 </r>
       <r>    4.0575    1.0000 </r>
       <r>    4.3539    1.0000 </r>
       <r>    4.4952    1.0000 </r>
       <r>    5.6651    1.0000 </r>
       <r>    6.2146    1.0000 </r>
       <r>    7.8278    0.0023 </r>
       <r>    8.9766    0.0000 </r>
       <r>    9.0301    0.0000 </r>
       <r>    9.5394    0.0000 </r>
       <r>    9.5541    0.0000 </r>
       <r>    9.7183    0.0000 </r>
      </set>
      <set comment="kpoint 28">
       <r>  -32.4385    1.0000 </r>
       <r>  -15.0840    1.0000 </r>
       <r>  -15.0780    1.0000 </r>
       <r>  -15.0472    1.0000 </r>
       <r>  -15.0449    1.0000 </r>
       <r>  -15.0449    1.0000 </r>
       <r>  -10.4610    1.0000 </r>
       <r>  -10.3703    1.0000 </r>
       <r>  -10.3255    1.0000 </r>
       <r>   -3.5432    1.0000 </r>
       <r>    2.4569    1.0000 </r>
       <r>    3.1253    1.0000 </r>
       <r>    3.6782    1.0000 </r>
       <r>    4.0502    1.0000 </r>
       <r>    4.4025    1.0000 </r>
       <r>    4.7209    1.0000 </r>
       <r>    5.6045    1.0000 </r>
       <r>    6.3071    1.0000 </r>
       <r>    7.8204    0.0378 </r>
       <r>    8.7281    0.0000 </r>
       <r>    8.8531    0.0000 </r>
       <r>    9.4486    0.0000 </r>
       <r>    9.5778    0.0000 </r>
       <r>    9.7229    0.0000 </r>
      </set>
      <set comment="kpoint 29">
       <r>  -32.4392    1.0000 </r>
       <r>  -15.0823    1.0000 </r>
       <r>  -15.0772    1.0000 </r>
       <r>  -15.0471    1.0000 </r>
       <r>  -15.0453    1.0000 </r>
       <r>  -15.0452    1.0000 </r>
       <r>  -10.4317    1.0000 </r>
       <r>  -10.3654    1.0000 </r>
       <r>  -10.3298    1.0000 </r>
       <r>   -3.7060    1.0000 </r>
       <r>    2.6868    1.0000 </r>
       <r>    3.1881    1.0000 </r>
       <r>    3.7739    1.0000 </r>
       <r>    4.0416    1.0000 </r>
       <r>    4.3850    1.0000 </r>
       <r>    4.9281    1.0000 </r>
       <r>    5.7242    1.0000 </r>
       <r>    6.4444    1.0000 </r>
       <r>    7.7394    1.0000 </r>
       <r>    8.4891    0.0000 </r>
       <r>    8.5185    0.0000 </r>
       <r>    9.2474    0.0000 </r>
       <r>    9.6038    0.0000 </r>
       <r>    9.6272    0.0000 </r>
      </set>
      <set comment="kpoint 30">
       <r>  -32.4390    1.0000 </r>
       <r>  -15.0820    1.0000 </r>
       <r>  -15.0743    1.0000 </r>
       <r>  -15.0481    1.0000 </r>
       <r>  -15.0446    1.0000 </r>
       <r>  -15.0446    1.0000 </r>
       <r>  -10.4159    1.0000 </r>
       <r>  -10.3626    1.0000 </r>
       <r>  -10.3626    1.0000 </r>
       <r>   -3.7170    1.0000 </r>
       <r>    2.4336    1.0000 </r>
       <r>    3.7892    1.0000 </r>
       <r>    3.7892    1.0000 </r>
       <r>    4.0182    1.0000 </r>
       <r>    4.1168    1.0000 </r>
       <r>    5.0896    1.0000 </r>
       <r>    6.1142    1.0000 </r>
       <r>    6.1142    1.0000 </r>
       <r>    7.4149    1.0000 </r>
       <r>    8.1684    0.0000 </r>
       <r>    9.0522    0.0000 </r>
       <r>    9.0522    0.0000 </r>
       <r>    9.5301    0.0000 </r>
       <r>    9.6289    0.0000 </r>
      </set>
      <set comment="kpoint 31">
       <r>  -32.4384    1.0000 </r>
       <r>  -15.0818    1.0000 </r>
       <r>  -15.0745    1.0000 </r>
       <r>  -15.0485    1.0000 </r>
       <r>  -15.0441    1.0000 </r>
       <r>  -15.0440    1.0000 </r>
       <r>  -10.4403    1.0000 </r>
       <r>  -10.3639    1.0000 </r>
       <r>  -10.3630    1.0000 </r>
       <r>   -3.6226    1.0000 </r>
       <r>    2.3600    1.0000 </r>
       <r>    3.6355    1.0000 </r>
       <r>    3.7527    1.0000 </r>
       <r>    4.0733    1.0000 </r>
       <r>    4.1473    1.0000 </r>
       <r>    4.9502    1.0000 </r>
       <r>    5.9459    1.0000 </r>
       <r>    6.0903    1.0000 </r>
       <r>    7.5636    1.0000 </r>
       <r>    8.3451    0.0000 </r>
       <r>    9.1595    0.0000 </r>
       <r>    9.2189    0.0000 </r>
       <r>    9.4994    0.0000 </r>
       <r>    9.6555    0.0000 </r>
      </set>
      <set comment="kpoint 32">
       <r>  -32.4377    1.0000 </r>
       <r>  -15.0812    1.0000 </r>
       <r>  -15.0759    1.0000 </r>
       <r>  -15.0486    1.0000 </r>
       <r>  -15.0440    1.0000 </r>
       <r>  -15.0436    1.0000 </r>
       <r>  -10.4672    1.0000 </r>
       <r>  -10.3645    1.0000 </r>
       <r>  -10.3609    1.0000 </r>
       <r>   -3.5218    1.0000 </r>
       <r>    2.3796    1.0000 </r>
       <r>    3.4325    1.0000 </r>
       <r>    3.6679    1.0000 </r>
       <r>    4.1554    1.0000 </r>
       <r>    4.1650    1.0000 </r>
       <r>    4.7449    1.0000 </r>
       <r>    5.7181    1.0000 </r>
       <r>    6.1057    1.0000 </r>
       <r>    7.7041    1.0000 </r>
       <r>    8.6926    0.0000 </r>
       <r>    9.2413    0.0000 </r>
       <r>    9.3998    0.0000 </r>
       <r>    9.5008    0.0000 </r>
       <r>    9.6746    0.0000 </r>
      </set>
      <set comment="kpoint 33">
       <r>  -32.4372    1.0000 </r>
       <r>  -15.0802    1.0000 </r>
       <r>  -15.0782    1.0000 </r>
       <r>  -15.0484    1.0000 </r>
       <r>  -15.0442    1.0000 </r>
       <r>  -15.0432    1.0000 </r>
       <r>  -10.4864    1.0000 </r>
       <r>  -10.3712    1.0000 </r>
       <r>  -10.3540    1.0000 </r>
       <r>   -3.4353    1.0000 </r>
       <r>    2.4542    1.0000 </r>
       <r>    3.2985    1.0000 </r>
       <r>    3.5410    1.0000 </r>
       <r>    4.1777    1.0000 </r>
       <r>    4.1999    1.0000 </r>
       <r>    4.5462    1.0000 </r>
       <r>    5.5609    1.0000 </r>
       <r>    6.1139    1.0000 </r>
       <r>    7.7710    1.0000 </r>
       <r>    8.9499    0.0000 </r>
       <r>    9.3014    0.0000 </r>
       <r>    9.4708    0.0000 </r>
       <r>    9.5147    0.0000 </r>
       <r>    9.7201    0.0000 </r>
      </set>
      <set comment="kpoint 34">
       <r>  -32.4369    1.0000 </r>
       <r>  -15.0807    1.0000 </r>
       <r>  -15.0792    1.0000 </r>
       <r>  -15.0479    1.0000 </r>
       <r>  -15.0446    1.0000 </r>
       <r>  -15.0432    1.0000 </r>
       <r>  -10.4939    1.0000 </r>
       <r>  -10.3820    1.0000 </r>
       <r>  -10.3449    1.0000 </r>
       <r>   -3.3765    1.0000 </r>
       <r>    2.5064    1.0000 </r>
       <r>    3.2627    1.0000 </r>
       <r>    3.3899    1.0000 </r>
       <r>    4.1622    1.0000 </r>
       <r>    4.2377    1.0000 </r>
       <r>    4.4486    1.0000 </r>
       <r>    5.4674    1.0000 </r>
       <r>    6.0996    1.0000 </r>
       <r>    7.8806    0.0000 </r>
       <r>    8.9186    0.0000 </r>
       <r>    9.3293    0.0000 </r>
       <r>    9.5145    0.0000 </r>
       <r>    9.5166    0.0000 </r>
       <r>    9.6984    0.0000 </r>
      </set>
      <set comment="kpoint 35">
       <r>  -32.4369    1.0000 </r>
       <r>  -15.0830    1.0000 </r>
       <r>  -15.0783    1.0000 </r>
       <r>  -15.0473    1.0000 </r>
       <r>  -15.0451    1.0000 </r>
       <r>  -15.0434    1.0000 </r>
       <r>  -10.4901    1.0000 </r>
       <r>  -10.3927    1.0000 </r>
       <r>  -10.3357    1.0000 </r>
       <r>   -3.3541    1.0000 </r>
       <r>    2.4771    1.0000 </r>
       <r>    3.2478    1.0000 </r>
       <r>    3.3254    1.0000 </r>
       <r>    4.1074    1.0000 </r>
       <r>    4.3211    1.0000 </r>
       <r>    4.4773    1.0000 </r>
       <r>    5.3950    1.0000 </r>
       <r>    6.0848    1.0000 </r>
       <r>    8.0091    0.0000 </r>
       <r>    8.8678    0.0000 </r>
       <r>    9.2857    0.0000 </r>
       <r>    9.5104    0.0000 </r>
       <r>    9.5504    0.0000 </r>
       <r>    9.6865    0.0000 </r>
      </set>
      <set comment="kpoint 36">
       <r>  -32.4372    1.0000 </r>
       <r>  -15.0844    1.0000 </r>
       <r>  -15.0777    1.0000 </r>
       <r>  -15.0469    1.0000 </r>
       <r>  -15.0453    1.0000 </r>
       <r>  -15.0439    1.0000 </r>
       <r>  -10.4795    1.0000 </r>
       <r>  -10.3973    1.0000 </r>
       <r>  -10.3283    1.0000 </r>
       <r>   -3.3749    1.0000 </r>
       <r>    2.4047    1.0000 </r>
       <r>    3.1444    1.0000 </r>
       <r>    3.4533    1.0000 </r>
       <r>    4.0743    1.0000 </r>
       <r>    4.3949    1.0000 </r>
       <r>    4.6001    1.0000 </r>
       <r>    5.3243    1.0000 </r>
       <r>    6.1058    1.0000 </r>
       <r>    8.0694    0.0000 </r>
       <r>    8.9090    0.0000 </r>
       <r>    9.1410    0.0000 </r>
       <r>    9.5242    0.0000 </r>
       <r>    9.5690    0.0000 </r>
       <r>    9.6959    0.0000 </r>
      </set>
      <set comment="kpoint 37">
       <r>  -32.4378    1.0000 </r>
       <r>  -15.0848    1.0000 </r>
       <r>  -15.0776    1.0000 </r>
       <r>  -15.0470    1.0000 </r>
       <r>  -15.0451    1.0000 </r>
       <r>  -15.0444    1.0000 </r>
       <r>  -10.4692    1.0000 </r>
       <r>  -10.3892    1.0000 </r>
       <r>  -10.3247    1.0000 </r>
       <r>   -3.4412    1.0000 </r>
       <r>    2.3781    1.0000 </r>
       <r>    3.1000    1.0000 </r>
       <r>    3.6006    1.0000 </r>
       <r>    4.0516    1.0000 </r>
       <r>    4.4261    1.0000 </r>
       <r>    4.7184    1.0000 </r>
       <r>    5.3425    1.0000 </r>
       <r>    6.1859    1.0000 </r>
       <r>    8.0301    0.0000 </r>
       <r>    8.9069    0.0000 </r>
       <r>    8.9321    0.0000 </r>
       <r>    9.5423    0.0000 </r>
       <r>    9.5481    0.0000 </r>
       <r>    9.7287    0.0000 </r>
      </set>
      <set comment="kpoint 38">
       <r>  -32.4379    1.0000 </r>
       <r>  -15.0805    1.0000 </r>
       <r>  -15.0735    1.0000 </r>
       <r>  -15.0491    1.0000 </r>
       <r>  -15.0435    1.0000 </r>
       <r>  -15.0435    1.0000 </r>
       <r>  -10.4494    1.0000 </r>
       <r>  -10.3699    1.0000 </r>
       <r>  -10.3699    1.0000 </r>
       <r>   -3.5963    1.0000 </r>
       <r>    2.3711    1.0000 </r>
       <r>    3.7688    1.0000 </r>
       <r>    3.7688    1.0000 </r>
       <r>    3.8595    1.0000 </r>
       <r>    4.1902    1.0000 </r>
       <r>    4.8893    1.0000 </r>
       <r>    6.0820    1.0000 </r>
       <r>    6.0820    1.0000 </r>
       <r>    7.4150    1.0000 </r>
       <r>    8.4803    0.0000 </r>
       <r>    9.2327    0.0000 </r>
       <r>    9.2327    0.0000 </r>
       <r>    9.4343    0.0000 </r>
       <r>    9.6266    0.0000 </r>
      </set>
      <set comment="kpoint 39">
       <r>  -32.4374    1.0000 </r>
       <r>  -15.0789    1.0000 </r>
       <r>  -15.0738    1.0000 </r>
       <r>  -15.0494    1.0000 </r>
       <r>  -15.0432    1.0000 </r>
       <r>  -15.0430    1.0000 </r>
       <r>  -10.4664    1.0000 </r>
       <r>  -10.3739    1.0000 </r>
       <r>  -10.3707    1.0000 </r>
       <r>   -3.5548    1.0000 </r>
       <r>    2.4772    1.0000 </r>
       <r>    3.5758    1.0000 </r>
       <r>    3.7227    1.0000 </r>
       <r>    3.9611    1.0000 </r>
       <r>    4.2157    1.0000 </r>
       <r>    4.7390    1.0000 </r>
       <r>    5.9415    1.0000 </r>
       <r>    6.1115    1.0000 </r>
       <r>    7.5596    1.0000 </r>
       <r>    8.6899    0.0000 </r>
       <r>    9.2891    0.0000 </r>
       <r>    9.3294    0.0000 </r>
       <r>    9.4171    0.0000 </r>
       <r>    9.5996    0.0000 </r>
      </set>
      <set comment="kpoint 40">
       <r>  -32.4369    1.0000 </r>
       <r>  -15.0774    1.0000 </r>
       <r>  -15.0753    1.0000 </r>
       <r>  -15.0493    1.0000 </r>
       <r>  -15.0433    1.0000 </r>
       <r>  -15.0427    1.0000 </r>
       <r>  -10.4779    1.0000 </r>
       <r>  -10.3836    1.0000 </r>
       <r>  -10.3665    1.0000 </r>
       <r>   -3.5065    1.0000 </r>
       <r>    2.6431    1.0000 </r>
       <r>    3.3951    1.0000 </r>
       <r>    3.6245    1.0000 </r>
       <r>    4.0809    1.0000 </r>
       <r>    4.2418    1.0000 </r>
       <r>    4.5700    1.0000 </r>
       <r>    5.6492    1.0000 </r>
       <r>    6.1191    1.0000 </r>
       <r>    7.7025    1.0000 </r>
       <r>    8.9735    0.0000 </r>
       <r>    9.3357    0.0000 </r>
       <r>    9.4236    0.0000 </r>
       <r>    9.4609    0.0000 </r>
       <r>    9.6989    0.0000 </r>
      </set>
      <set comment="kpoint 41">
       <r>  -32.4366    1.0000 </r>
       <r>  -15.0777    1.0000 </r>
       <r>  -15.0763    1.0000 </r>
       <r>  -15.0487    1.0000 </r>
       <r>  -15.0438    1.0000 </r>
       <r>  -15.0427    1.0000 </r>
       <r>  -10.4783    1.0000 </r>
       <r>  -10.4003    1.0000 </r>
       <r>  -10.3579    1.0000 </r>
       <r>   -3.4570    1.0000 </r>
       <r>    2.7803    1.0000 </r>
       <r>    3.2882    1.0000 </r>
       <r>    3.4882    1.0000 </r>
       <r>    4.1262    1.0000 </r>
       <r>    4.2903    1.0000 </r>
       <r>    4.4885    1.0000 </r>
       <r>    5.3750    1.0000 </r>
       <r>    6.0846    1.0000 </r>
       <r>    7.8179    0.0773 </r>
       <r>    8.9852    0.0000 </r>
       <r>    9.3706    0.0000 </r>
       <r>    9.4605    0.0000 </r>
       <r>    9.5038    0.0000 </r>
       <r>    9.6987    0.0000 </r>
      </set>
      <set comment="kpoint 42">
       <r>  -32.4366    1.0000 </r>
       <r>  -15.0804    1.0000 </r>
       <r>  -15.0761    1.0000 </r>
       <r>  -15.0478    1.0000 </r>
       <r>  -15.0446    1.0000 </r>
       <r>  -15.0429    1.0000 </r>
       <r>  -10.4691    1.0000 </r>
       <r>  -10.4189    1.0000 </r>
       <r>  -10.3471    1.0000 </r>
       <r>   -3.4118    1.0000 </r>
       <r>    2.7625    1.0000 </r>
       <r>    3.2737    1.0000 </r>
       <r>    3.3432    1.0000 </r>
       <r>    4.1009    1.0000 </r>
       <r>    4.3505    1.0000 </r>
       <r>    4.5571    1.0000 </r>
       <r>    5.1865    1.0000 </r>
       <r>    6.0422    1.0000 </r>
       <r>    7.9762    0.0000 </r>
       <r>    8.8815    0.0000 </r>
       <r>    9.3751    0.0000 </r>
       <r>    9.4839    0.0000 </r>
       <r>    9.5054    0.0000 </r>
       <r>    9.6910    0.0000 </r>
      </set>
      <set comment="kpoint 43">
       <r>  -32.4368    1.0000 </r>
       <r>  -15.0828    1.0000 </r>
       <r>  -15.0766    1.0000 </r>
       <r>  -15.0469    1.0000 </r>
       <r>  -15.0454    1.0000 </r>
       <r>  -15.0434    1.0000 </r>
       <r>  -10.4666    1.0000 </r>
       <r>  -10.4209    1.0000 </r>
       <r>  -10.3364    1.0000 </r>
       <r>   -3.3803    1.0000 </r>
       <r>    2.5889    1.0000 </r>
       <r>    3.2205    1.0000 </r>
       <r>    3.3445    1.0000 </r>
       <r>    4.0878    1.0000 </r>
       <r>    4.3934    1.0000 </r>
       <r>    4.6467    1.0000 </r>
       <r>    5.1394    1.0000 </r>
       <r>    6.0410    1.0000 </r>
       <r>    8.1120    0.0000 </r>
       <r>    8.8378    0.0000 </r>
       <r>    9.2964    0.0000 </r>
       <r>    9.5042    0.0000 </r>
       <r>    9.5257    0.0000 </r>
       <r>    9.6989    0.0000 </r>
      </set>
      <set comment="kpoint 44">
       <r>  -32.4370    1.0000 </r>
       <r>  -15.0766    1.0000 </r>
       <r>  -15.0728    1.0000 </r>
       <r>  -15.0500    1.0000 </r>
       <r>  -15.0426    1.0000 </r>
       <r>  -15.0426    1.0000 </r>
       <r>  -10.4766    1.0000 </r>
       <r>  -10.3761    1.0000 </r>
       <r>  -10.3761    1.0000 </r>
       <r>   -3.5672    1.0000 </r>
       <r>    2.6449    1.0000 </r>
       <r>    3.7186    1.0000 </r>
       <r>    3.7255    1.0000 </r>
       <r>    3.7255    1.0000 </r>
       <r>    4.2537    1.0000 </r>
       <r>    4.5955    1.0000 </r>
       <r>    6.1645    1.0000 </r>
       <r>    6.1645    1.0000 </r>
       <r>    7.4862    1.0000 </r>
       <r>    8.7412    0.0000 </r>
       <r>    9.3249    0.0000 </r>
       <r>    9.3249    0.0000 </r>
       <r>    9.3409    0.0000 </r>
       <r>    9.5082    0.0000 </r>
      </set>
      <set comment="kpoint 45">
       <r>  -32.4367    1.0000 </r>
       <r>  -15.0749    1.0000 </r>
       <r>  -15.0733    1.0000 </r>
       <r>  -15.0501    1.0000 </r>
       <r>  -15.0425    1.0000 </r>
       <r>  -15.0423    1.0000 </r>
       <r>  -10.4843    1.0000 </r>
       <r>  -10.3821    1.0000 </r>
       <r>  -10.3757    1.0000 </r>
       <r>   -3.5575    1.0000 </r>
       <r>    2.8515    1.0000 </r>
       <r>    3.5141    1.0000 </r>
       <r>    3.6784    1.0000 </r>
       <r>    3.8818    1.0000 </r>
       <r>    4.2776    1.0000 </r>
       <r>    4.4177    1.0000 </r>
       <r>    6.0205    1.0000 </r>
       <r>    6.1900    1.0000 </r>
       <r>    7.5956    1.0000 </r>
       <r>    8.9753    0.0000 </r>
       <r>    9.3461    0.0000 </r>
       <r>    9.3675    0.0000 </r>
       <r>    9.3772    0.0000 </r>
       <r>    9.4363    0.0000 </r>
      </set>
      <set comment="kpoint 46">
       <r>  -32.4365    1.0000 </r>
       <r>  -15.0750    1.0000 </r>
       <r>  -15.0741    1.0000 </r>
       <r>  -15.0497    1.0000 </r>
       <r>  -15.0428    1.0000 </r>
       <r>  -15.0423    1.0000 </r>
       <r>  -10.4816    1.0000 </r>
       <r>  -10.3969    1.0000 </r>
       <r>  -10.3697    1.0000 </r>
       <r>   -3.5254    1.0000 </r>
       <r>    3.0104    1.0000 </r>
       <r>    3.3631    1.0000 </r>
       <r>    3.5850    1.0000 </r>
       <r>    4.0273    1.0000 </r>
       <r>    4.3087    1.0000 </r>
       <r>    4.3130    1.0000 </r>
       <r>    5.6616    1.0000 </r>
       <r>    6.1459    1.0000 </r>
       <r>    7.7049    1.0000 </r>
       <r>    9.1062    0.0000 </r>
       <r>    9.3749    0.0000 </r>
       <r>    9.4139    0.0000 </r>
       <r>    9.4563    0.0000 </r>
       <r>    9.6328    0.0000 </r>
      </set>
      <set comment="kpoint 47">
       <r>  -32.4365    1.0000 </r>
       <r>  -15.0776    1.0000 </r>
       <r>  -15.0746    1.0000 </r>
       <r>  -15.0488    1.0000 </r>
       <r>  -15.0437    1.0000 </r>
       <r>  -15.0425    1.0000 </r>
       <r>  -10.4697    1.0000 </r>
       <r>  -10.4166    1.0000 </r>
       <r>  -10.3594    1.0000 </r>
       <r>   -3.4740    1.0000 </r>
       <r>    2.9918    1.0000 </r>
       <r>    3.2745    1.0000 </r>
       <r>    3.4642    1.0000 </r>
       <r>    4.0762    1.0000 </r>
       <r>    4.3412    1.0000 </r>
       <r>    4.4274    1.0000 </r>
       <r>    5.3176    1.0000 </r>
       <r>    6.0736    1.0000 </r>
       <r>    7.8327    0.0002 </r>
       <r>    8.9992    0.0000 </r>
       <r>    9.3920    0.0000 </r>
       <r>    9.4365    0.0000 </r>
       <r>    9.5096    0.0000 </r>
       <r>    9.7069    0.0000 </r>
      </set>
      <set comment="kpoint 48">
       <r>  -32.4365    1.0000 </r>
       <r>  -15.0733    1.0000 </r>
       <r>  -15.0725    1.0000 </r>
       <r>  -15.0505    1.0000 </r>
       <r>  -15.0420    1.0000 </r>
       <r>  -15.0420    1.0000 </r>
       <r>  -10.4919    1.0000 </r>
       <r>  -10.3797    1.0000 </r>
       <r>  -10.3797    1.0000 </r>
       <r>   -3.5794    1.0000 </r>
       <r>    3.0436    1.0000 </r>
       <r>    3.6446    1.0000 </r>
       <r>    3.6924    1.0000 </r>
       <r>    3.6924    1.0000 </r>
       <r>    4.2467    1.0000 </r>
       <r>    4.2908    1.0000 </r>
       <r>    6.2531    1.0000 </r>
       <r>    6.2531    1.0000 </r>
       <r>    7.5648    1.0000 </r>
       <r>    8.9265    0.0000 </r>
       <r>    9.2839    0.0000 </r>
       <r>    9.2997    0.0000 </r>
       <r>    9.3680    0.0000 </r>
       <r>    9.3680    0.0000 </r>
      </set>
      <set comment="kpoint 49">
       <r>  -32.4364    1.0000 </r>
       <r>  -15.0731    1.0000 </r>
       <r>  -15.0730    1.0000 </r>
       <r>  -15.0503    1.0000 </r>
       <r>  -15.0422    1.0000 </r>
       <r>  -15.0420    1.0000 </r>
       <r>  -10.4907    1.0000 </r>
       <r>  -10.3852    1.0000 </r>
       <r>  -10.3775    1.0000 </r>
       <r>   -3.5684    1.0000 </r>
       <r>    3.1189    1.0000 </r>
       <r>    3.4896    1.0000 </r>
       <r>    3.6591    1.0000 </r>
       <r>    3.8611    1.0000 </r>
       <r>    4.1823    1.0000 </r>
       <r>    4.3018    1.0000 </r>
       <r>    6.0659    1.0000 </r>
       <r>    6.2312    1.0000 </r>
       <r>    7.6171    1.0000 </r>
       <r>    9.1977    0.0000 </r>
       <r>    9.2190    0.0000 </r>
       <r>    9.3327    0.0000 </r>
       <r>    9.3835    0.0000 </r>
       <r>    9.3898    0.0000 </r>
      </set>
      <set comment="kpoint 50">
       <r>  -32.4399    1.0000 </r>
       <r>  -15.0807    1.0000 </r>
       <r>  -15.0760    1.0000 </r>
       <r>  -15.0471    1.0000 </r>
       <r>  -15.0455    1.0000 </r>
       <r>  -15.0454    1.0000 </r>
       <r>  -10.4032    1.0000 </r>
       <r>  -10.3584    1.0000 </r>
       <r>  -10.3417    1.0000 </r>
       <r>   -3.8480    1.0000 </r>
       <r>    2.8238    1.0000 </r>
       <r>    3.4746    1.0000 </r>
       <r>    3.7786    1.0000 </r>
       <r>    4.0593    1.0000 </r>
       <r>    4.2692    1.0000 </r>
       <r>    5.1268    1.0000 </r>
       <r>    6.0571    1.0000 </r>
       <r>    6.4411    1.0000 </r>
       <r>    7.6579    1.0000 </r>
       <r>    7.9012    0.0000 </r>
       <r>    8.6354    0.0000 </r>
       <r>    8.9460    0.0000 </r>
       <r>    9.4769    0.0000 </r>
       <r>    9.6080    0.0000 </r>
      </set>
      <set comment="kpoint 51">
       <r>  -32.4391    1.0000 </r>
       <r>  -15.0824    1.0000 </r>
       <r>  -15.0770    1.0000 </r>
       <r>  -15.0474    1.0000 </r>
       <r>  -15.0451    1.0000 </r>
       <r>  -15.0449    1.0000 </r>
       <r>  -10.4369    1.0000 </r>
       <r>  -10.3609    1.0000 </r>
       <r>  -10.3354    1.0000 </r>
       <r>   -3.6835    1.0000 </r>
       <r>    2.5804    1.0000 </r>
       <r>    3.3149    1.0000 </r>
       <r>    3.7117    1.0000 </r>
       <r>    4.0847    1.0000 </r>
       <r>    4.3294    1.0000 </r>
       <r>    4.8844    1.0000 </r>
       <r>    5.8409    1.0000 </r>
       <r>    6.3410    1.0000 </r>
       <r>    7.7095    1.0000 </r>
       <r>    8.2841    0.0000 </r>
       <r>    8.8472    0.0000 </r>
       <r>    9.2396    0.0000 </r>
       <r>    9.5920    0.0000 </r>
       <r>    9.6455    0.0000 </r>
      </set>
      <set comment="kpoint 52">
       <r>  -32.4383    1.0000 </r>
       <r>  -15.0837    1.0000 </r>
       <r>  -15.0787    1.0000 </r>
       <r>  -15.0476    1.0000 </r>
       <r>  -15.0449    1.0000 </r>
       <r>  -15.0445    1.0000 </r>
       <r>  -10.4732    1.0000 </r>
       <r>  -10.3585    1.0000 </r>
       <r>  -10.3314    1.0000 </r>
       <r>   -3.5121    1.0000 </r>
       <r>    2.3912    1.0000 </r>
       <r>    3.2154    1.0000 </r>
       <r>    3.5939    1.0000 </r>
       <r>    4.0851    1.0000 </r>
       <r>    4.3262    1.0000 </r>
       <r>    4.6112    1.0000 </r>
       <r>    5.8085    1.0000 </r>
       <r>    6.2543    1.0000 </r>
       <r>    7.6830    1.0000 </r>
       <r>    8.7069    0.0000 </r>
       <r>    9.0542    0.0000 </r>
       <r>    9.4630    0.0000 </r>
       <r>    9.5740    0.0000 </r>
       <r>    9.6918    0.0000 </r>
      </set>
      <set comment="kpoint 53">
       <r>  -32.4376    1.0000 </r>
       <r>  -15.0843    1.0000 </r>
[...]
       <r>    8.2099    0.0000 </r>
       <r>    8.6761    0.0000 </r>
       <r>    9.3532    0.0000 </r>
       <r>    9.4294    0.0000 </r>
       <r>    9.5315    0.0000 </r>
       <r>    9.6773    0.0000 </r>
      </set>
      <set comment="kpoint 81">
       <r>  -32.4367    1.0000 </r>
       <r>  -15.0814    1.0000 </r>
       <r>  -15.0752    1.0000 </r>
       <r>  -15.0472    1.0000 </r>
       <r>  -15.0456    1.0000 </r>
       <r>  -15.0427    1.0000 </r>
       <r>  -10.4647    1.0000 </r>
       <r>  -10.4149    1.0000 </r>
       <r>  -10.3527    1.0000 </r>
       <r>   -3.4162    1.0000 </r>
       <r>    2.7257    1.0000 </r>
       <r>    3.1560    1.0000 </r>
       <r>    3.5446    1.0000 </r>
       <r>    4.1447    1.0000 </r>
       <r>    4.3186    1.0000 </r>
       <r>    4.5972    1.0000 </r>
       <r>    4.9690    1.0000 </r>
       <r>    6.1937    1.0000 </r>
       <r>    8.2194    0.0000 </r>
       <r>    8.6720    0.0000 </r>
       <r>    9.3334    0.0000 </r>
       <r>    9.4345    0.0000 </r>
       <r>    9.5421    0.0000 </r>
       <r>    9.6732    0.0000 </r>
      </set>
      <set comment="kpoint 82">
       <r>  -32.4364    1.0000 </r>
       <r>  -15.0778    1.0000 </r>
       <r>  -15.0731    1.0000 </r>
       <r>  -15.0489    1.0000 </r>
       <r>  -15.0440    1.0000 </r>
       <r>  -15.0420    1.0000 </r>
       <r>  -10.4717    1.0000 </r>
       <r>  -10.4006    1.0000 </r>
       <r>  -10.3753    1.0000 </r>
       <r>   -3.4930    1.0000 </r>
       <r>    3.0198    1.0000 </r>
       <r>    3.2223    1.0000 </r>
       <r>    3.6678    1.0000 </r>
       <r>    4.1001    1.0000 </r>
       <r>    4.3050    1.0000 </r>
       <r>    4.3572    1.0000 </r>
       <r>    5.1452    1.0000 </r>
       <r>    6.3102    1.0000 </r>
       <r>    7.9443    0.0000 </r>
       <r>    8.9474    0.0000 </r>
       <r>    9.2752    0.0000 </r>
       <r>    9.3621    0.0000 </r>
       <r>    9.4735    0.0000 </r>
       <r>    9.6739    0.0000 </r>
      </set>
      <set comment="kpoint 83">
       <r>  -32.4364    1.0000 </r>
       <r>  -15.0793    1.0000 </r>
       <r>  -15.0731    1.0000 </r>
       <r>  -15.0481    1.0000 </r>
       <r>  -15.0449    1.0000 </r>
       <r>  -15.0420    1.0000 </r>
       <r>  -10.4609    1.0000 </r>
       <r>  -10.4147    1.0000 </r>
       <r>  -10.3718    1.0000 </r>
       <r>   -3.4655    1.0000 </r>
       <r>    3.0540    1.0000 </r>
       <r>    3.1519    1.0000 </r>
       <r>    3.6305    1.0000 </r>
       <r>    4.1306    1.0000 </r>
       <r>    4.3313    1.0000 </r>
       <r>    4.4332    1.0000 </r>
       <r>    4.8708    1.0000 </r>
       <r>    6.3024    1.0000 </r>
       <r>    8.1078    0.0000 </r>
       <r>    8.8166    0.0000 </r>
       <r>    9.3245    0.0000 </r>
       <r>    9.3616    0.0000 </r>
       <r>    9.5070    0.0000 </r>
       <r>    9.6893    0.0000 </r>
      </set>
      <set comment="kpoint 84">
       <r>  -32.4364    1.0000 </r>
       <r>  -15.0801    1.0000 </r>
       <r>  -15.0731    1.0000 </r>
       <r>  -15.0474    1.0000 </r>
       <r>  -15.0457    1.0000 </r>
       <r>  -15.0420    1.0000 </r>
       <r>  -10.4554    1.0000 </r>
       <r>  -10.4183    1.0000 </r>
       <r>  -10.3725    1.0000 </r>
       <r>   -3.4518    1.0000 </r>
       <r>    3.0281    1.0000 </r>
       <r>    3.1220    1.0000 </r>
       <r>    3.6439    1.0000 </r>
       <r>    4.1632    1.0000 </r>
       <r>    4.3568    1.0000 </r>
       <r>    4.4900    1.0000 </r>
       <r>    4.6878    1.0000 </r>
       <r>    6.3231    1.0000 </r>
       <r>    8.3064    0.0000 </r>
       <r>    8.6385    0.0000 </r>
       <r>    9.3063    0.0000 </r>
       <r>    9.3604    0.0000 </r>
       <r>    9.5342    0.0000 </r>
       <r>    9.6676    0.0000 </r>
      </set>
     </set>
    </set>
   </array>
  </eigenvalues>
  <separator name="orbital magnetization" >
   <v name="MAGDIPOLOUT">      0.00000000      0.00000000      0.00000000</v>
  </separator>
  <dos>
   <i name="efermi">      7.80779105 </i>
   <total>
    <array>
     <dimension dim="1">gridpoints</dimension>
     <dimension dim="2">spin</dimension>
     <field>energy</field>
     <field>total</field>
     <field>integrated</field>
     <set>
      <set comment="spin 1">
       <r>   -34.5498     0.0000     0.0000 </r>
       <r>   -34.3952     0.0000     0.0000 </r>
       <r>   -34.2405     0.0000     0.0000 </r>
       <r>   -34.0859     0.0000     0.0000 </r>
       <r>   -33.9313     0.0000     0.0000 </r>
       <r>   -33.7766     0.0000     0.0000 </r>
       <r>   -33.6220     0.0000     0.0000 </r>
       <r>   -33.4674     0.0000     0.0000 </r>
       <r>   -33.3127     0.0000     0.0000 </r>
       <r>   -33.1581     0.0000     0.0000 </r>
       <r>   -33.0035     0.0000     0.0000 </r>
       <r>   -32.8488     0.0000     0.0000 </r>
       <r>   -32.6942     0.0000     0.0000 </r>
       <r>   -32.5395     0.0000     0.0000 </r>
       <r>   -32.3849    12.9337     2.0000 </r>
       <r>   -32.2303     0.0000     2.0000 </r>
       <r>   -32.0756     0.0000     2.0000 </r>
       <r>   -31.9210     0.0000     2.0000 </r>
       <r>   -31.7664     0.0000     2.0000 </r>
       <r>   -31.6117     0.0000     2.0000 </r>
       <r>   -31.4571     0.0000     2.0000 </r>
       <r>   -31.3025     0.0000     2.0000 </r>
       <r>   -31.1478     0.0000     2.0000 </r>
       <r>   -30.9932     0.0000     2.0000 </r>
       <r>   -30.8386     0.0000     2.0000 </r>
       <r>   -30.6839     0.0000     2.0000 </r>
       <r>   -30.5293     0.0000     2.0000 </r>
       <r>   -30.3747     0.0000     2.0000 </r>
       <r>   -30.2200     0.0000     2.0000 </r>
       <r>   -30.0654     0.0000     2.0000 </r>
       <r>   -29.9108     0.0000     2.0000 </r>
       <r>   -29.7561     0.0000     2.0000 </r>
       <r>   -29.6015     0.0000     2.0000 </r>
       <r>   -29.4469     0.0000     2.0000 </r>
       <r>   -29.2922     0.0000     2.0000 </r>
       <r>   -29.1376     0.0000     2.0000 </r>
       <r>   -28.9830     0.0000     2.0000 </r>
       <r>   -28.8283     0.0000     2.0000 </r>
       <r>   -28.6737     0.0000     2.0000 </r>
       <r>   -28.5190     0.0000     2.0000 </r>
       <r>   -28.3644     0.0000     2.0000 </r>
       <r>   -28.2098     0.0000     2.0000 </r>
       <r>   -28.0551     0.0000     2.0000 </r>
       <r>   -27.9005     0.0000     2.0000 </r>
       <r>   -27.7459     0.0000     2.0000 </r>
       <r>   -27.5912     0.0000     2.0000 </r>
       <r>   -27.4366     0.0000     2.0000 </r>
       <r>   -27.2820     0.0000     2.0000 </r>
       <r>   -27.1273     0.0000     2.0000 </r>
       <r>   -26.9727     0.0000     2.0000 </r>
       <r>   -26.8181     0.0000     2.0000 </r>
       <r>   -26.6634     0.0000     2.0000 </r>
       <r>   -26.5088     0.0000     2.0000 </r>
       <r>   -26.3542     0.0000     2.0000 </r>
       <r>   -26.1995     0.0000     2.0000 </r>
       <r>   -26.0449     0.0000     2.0000 </r>
       <r>   -25.8903     0.0000     2.0000 </r>
       <r>   -25.7356     0.0000     2.0000 </r>
       <r>   -25.5810     0.0000     2.0000 </r>
       <r>   -25.4264     0.0000     2.0000 </r>
       <r>   -25.2717     0.0000     2.0000 </r>
       <r>   -25.1171     0.0000     2.0000 </r>
       <r>   -24.9625     0.0000     2.0000 </r>
       <r>   -24.8078     0.0000     2.0000 </r>
       <r>   -24.6532     0.0000     2.0000 </r>
       <r>   -24.4985     0.0000     2.0000 </r>
       <r>   -24.3439     0.0000     2.0000 </r>
       <r>   -24.1893     0.0000     2.0000 </r>
       <r>   -24.0346     0.0000     2.0000 </r>
       <r>   -23.8800     0.0000     2.0000 </r>
       <r>   -23.7254     0.0000     2.0000 </r>
       <r>   -23.5707     0.0000     2.0000 </r>
       <r>   -23.4161     0.0000     2.0000 </r>
       <r>   -23.2615     0.0000     2.0000 </r>
       <r>   -23.1068     0.0000     2.0000 </r>
       <r>   -22.9522     0.0000     2.0000 </r>
       <r>   -22.7976     0.0000     2.0000 </r>
       <r>   -22.6429     0.0000     2.0000 </r>
       <r>   -22.4883     0.0000     2.0000 </r>
       <r>   -22.3337     0.0000     2.0000 </r>
       <r>   -22.1790     0.0000     2.0000 </r>
       <r>   -22.0244     0.0000     2.0000 </r>
       <r>   -21.8698     0.0000     2.0000 </r>
       <r>   -21.7151     0.0000     2.0000 </r>
       <r>   -21.5605     0.0000     2.0000 </r>
       <r>   -21.4059     0.0000     2.0000 </r>
       <r>   -21.2512     0.0000     2.0000 </r>
       <r>   -21.0966     0.0000     2.0000 </r>
       <r>   -20.9420     0.0000     2.0000 </r>
       <r>   -20.7873     0.0000     2.0000 </r>
       <r>   -20.6327     0.0000     2.0000 </r>
       <r>   -20.4780     0.0000     2.0000 </r>
       <r>   -20.3234     0.0000     2.0000 </r>
       <r>   -20.1688     0.0000     2.0000 </r>
       <r>   -20.0141     0.0000     2.0000 </r>
       <r>   -19.8595     0.0000     2.0000 </r>
       <r>   -19.7049     0.0000     2.0000 </r>
       <r>   -19.5502     0.0000     2.0000 </r>
       <r>   -19.3956     0.0000     2.0000 </r>
       <r>   -19.2410     0.0000     2.0000 </r>
       <r>   -19.0863     0.0000     2.0000 </r>
       <r>   -18.9317     0.0000     2.0000 </r>
       <r>   -18.7771     0.0000     2.0000 </r>
       <r>   -18.6224     0.0000     2.0000 </r>
       <r>   -18.4678     0.0000     2.0000 </r>
       <r>   -18.3132     0.0000     2.0000 </r>
       <r>   -18.1585     0.0000     2.0000 </r>
       <r>   -18.0039     0.0000     2.0000 </r>
       <r>   -17.8493     0.0000     2.0000 </r>
       <r>   -17.6946     0.0000     2.0000 </r>
       <r>   -17.5400     0.0000     2.0000 </r>
       <r>   -17.3854     0.0000     2.0000 </r>
       <r>   -17.2307     0.0000     2.0000 </r>
       <r>   -17.0761     0.0000     2.0000 </r>
       <r>   -16.9215     0.0000     2.0000 </r>
       <r>   -16.7668     0.0000     2.0000 </r>
       <r>   -16.6122     0.0000     2.0000 </r>
       <r>   -16.4575     0.0000     2.0000 </r>
       <r>   -16.3029     0.0000     2.0000 </r>
       <r>   -16.1483     0.0000     2.0000 </r>
       <r>   -15.9936     0.0000     2.0000 </r>
       <r>   -15.8390     0.0000     2.0000 </r>
       <r>   -15.6844     0.0000     2.0000 </r>
       <r>   -15.5297     0.0000     2.0000 </r>
       <r>   -15.3751     0.0000     2.0000 </r>
       <r>   -15.2205     0.0000     2.0000 </r>
       <r>   -15.0658    24.8334     5.8401 </r>
       <r>   -14.9112     0.0000    12.0000 </r>
       <r>   -14.7566     0.0000    12.0000 </r>
       <r>   -14.6019     0.0000    12.0000 </r>
       <r>   -14.4473     0.0000    12.0000 </r>
       <r>   -14.2927     0.0000    12.0000 </r>
       <r>   -14.1380     0.0000    12.0000 </r>
       <r>   -13.9834     0.0000    12.0000 </r>
       <r>   -13.8288     0.0000    12.0000 </r>
       <r>   -13.6741     0.0000    12.0000 </r>
       <r>   -13.5195     0.0000    12.0000 </r>
       <r>   -13.3649     0.0000    12.0000 </r>
       <r>   -13.2102     0.0000    12.0000 </r>
       <r>   -13.0556     0.0000    12.0000 </r>
       <r>   -12.9010     0.0000    12.0000 </r>
       <r>   -12.7463     0.0000    12.0000 </r>
       <r>   -12.5917     0.0000    12.0000 </r>
       <r>   -12.4370     0.0000    12.0000 </r>
       <r>   -12.2824     0.0000    12.0000 </r>
       <r>   -12.1278     0.0000    12.0000 </r>
       <r>   -11.9731     0.0000    12.0000 </r>
       <r>   -11.8185     0.0000    12.0000 </r>
       <r>   -11.6639     0.0000    12.0000 </r>
       <r>   -11.5092     0.0000    12.0000 </r>
       <r>   -11.3546     0.0000    12.0000 </r>
       <r>   -11.2000     0.0000    12.0000 </r>
       <r>   -11.0453     0.0000    12.0000 </r>
       <r>   -10.8907     0.0000    12.0000 </r>
       <r>   -10.7361     0.0000    12.0000 </r>
       <r>   -10.5814     0.0000    12.0000 </r>
       <r>   -10.4268    11.0071    13.8696 </r>
       <r>   -10.2722    10.5436    18.0000 </r>
       <r>   -10.1175     0.0000    18.0000 </r>
       <r>    -9.9629     0.0000    18.0000 </r>
       <r>    -9.8083     0.0000    18.0000 </r>
       <r>    -9.6536     0.0000    18.0000 </r>
       <r>    -9.4990     0.0000    18.0000 </r>
       <r>    -9.3444     0.0000    18.0000 </r>
       <r>    -9.1897     0.0000    18.0000 </r>
       <r>    -9.0351     0.0000    18.0000 </r>
       <r>    -8.8805     0.0000    18.0000 </r>
       <r>    -8.7258     0.0000    18.0000 </r>
       <r>    -8.5712     0.0000    18.0000 </r>
       <r>    -8.4165     0.0000    18.0000 </r>
       <r>    -8.2619     0.0000    18.0000 </r>
       <r>    -8.1073     0.0000    18.0000 </r>
       <r>    -7.9526     0.0000    18.0000 </r>
       <r>    -7.7980     0.0000    18.0000 </r>
       <r>    -7.6434     0.0000    18.0000 </r>
       <r>    -7.4887     0.0000    18.0000 </r>
       <r>    -7.3341     0.0000    18.0000 </r>
       <r>    -7.1795     0.0000    18.0000 </r>
       <r>    -7.0248     0.0000    18.0000 </r>
       <r>    -6.8702     0.0000    18.0000 </r>
       <r>    -6.7156     0.0000    18.0000 </r>
       <r>    -6.5609     0.0000    18.0000 </r>
       <r>    -6.4063     0.0000    18.0000 </r>
       <r>    -6.2517     0.0000    18.0000 </r>
       <r>    -6.0970     0.0000    18.0000 </r>
       <r>    -5.9424     0.0000    18.0000 </r>
       <r>    -5.7878     0.0000    18.0000 </r>
       <r>    -5.6331     0.0000    18.0000 </r>
       <r>    -5.4785     0.0000    18.0000 </r>
       <r>    -5.3239     0.0000    18.0000 </r>
       <r>    -5.1692     0.0000    18.0000 </r>
       <r>    -5.0146     0.0000    18.0000 </r>
       <r>    -4.8600     0.0000    18.0000 </r>
       <r>    -4.7053     0.0000    18.0000 </r>
       <r>    -4.5507     0.0000    18.0000 </r>
       <r>    -4.3960     0.0000    18.0000 </r>
       <r>    -4.2414     0.0000    18.0000 </r>
       <r>    -4.0868     0.0334    18.0052 </r>
       <r>    -3.9321     0.2583    18.0536 </r>
       <r>    -3.7775     0.5143    18.1387 </r>
       <r>    -3.6229     0.7085    18.2798 </r>
       <r>    -3.4682     2.6924    18.8761 </r>
       <r>    -3.3136     2.6137    19.8762 </r>
       <r>    -3.1590     0.0000    20.0000 </r>
       <r>    -3.0043     0.0000    20.0000 </r>
       <r>    -2.8497     0.0000    20.0000 </r>
       <r>    -2.6951     0.0000    20.0000 </r>
       <r>    -2.5404     0.0000    20.0000 </r>
       <r>    -2.3858     0.0000    20.0000 </r>
       <r>    -2.2312     0.0000    20.0000 </r>
       <r>    -2.0765     0.0000    20.0000 </r>
       <r>    -1.9219     0.0000    20.0000 </r>
       <r>    -1.7673     0.0000    20.0000 </r>
       <r>    -1.6126     0.0000    20.0000 </r>
       <r>    -1.4580     0.0000    20.0000 </r>
       <r>    -1.3034     0.0000    20.0000 </r>
       <r>    -1.1487     0.0000    20.0000 </r>
       <r>    -0.9941     0.0000    20.0000 </r>
       <r>    -0.8395     0.0000    20.0000 </r>
       <r>    -0.6848     0.0000    20.0000 </r>
       <r>    -0.5302     0.0000    20.0000 </r>
       <r>    -0.3755     0.0000    20.0000 </r>
       <r>    -0.2209     0.0000    20.0000 </r>
       <r>    -0.0663     0.0000    20.0000 </r>
       <r>     0.0884     0.0000    20.0000 </r>
       <r>     0.2430     0.0000    20.0000 </r>
       <r>     0.3976     0.0000    20.0000 </r>
       <r>     0.5523     0.0000    20.0000 </r>
       <r>     0.7069     0.0000    20.0000 </r>
       <r>     0.8615     0.0000    20.0000 </r>
       <r>     1.0162     0.0000    20.0000 </r>
       <r>     1.1708     0.0000    20.0000 </r>
       <r>     1.3254     0.0000    20.0000 </r>
       <r>     1.4801     0.0000    20.0000 </r>
       <r>     1.6347     0.0000    20.0000 </r>
       <r>     1.7893     0.0000    20.0000 </r>
       <r>     1.9440     0.0000    20.0000 </r>
       <r>     2.0986     0.1483    20.0229 </r>
       <r>     2.2532     0.4011    20.1348 </r>
       <r>     2.4079     2.8068    20.7108 </r>
       <r>     2.5625     0.8494    21.0708 </r>
       <r>     2.7171     0.9695    21.4280 </r>
       <r>     2.8718     1.2321    21.6816 </r>
       <r>     3.0264     0.8271    21.8502 </r>
       <r>     3.1810     2.4620    22.3488 </r>
       <r>     3.3357     2.8472    23.5846 </r>
       <r>     3.4903     3.5942    24.4957 </r>
       <r>     3.6450     3.0512    25.3330 </r>
       <r>     3.7996     1.4955    26.0101 </r>
       <r>     3.9542     0.3057    26.0746 </r>
       <r>     4.1089     6.5318    27.1593 </r>
       <r>     4.2635     4.7826    28.9644 </r>
       <r>     4.4181     3.1395    30.4072 </r>
       <r>     4.5728     2.2005    31.0886 </r>
       <r>     4.7274     1.1814    31.5810 </r>
       <r>     4.8820     0.8868    31.8376 </r>
       <r>     5.0367     0.7218    32.0470 </r>
       <r>     5.1913     1.2073    32.2805 </r>
       <r>     5.3459     0.7355    32.5534 </r>
       <r>     5.5006     1.1309    32.8057 </r>
       <r>     5.6552     0.4978    33.1138 </r>
       <r>     5.8098     0.8046    33.3261 </r>
       <r>     5.9645     0.4232    33.6166 </r>
       <r>     6.1191     2.9408    34.0934 </r>
       <r>     6.2737     3.5461    35.5524 </r>
       <r>     6.4284     0.3301    35.8526 </r>
       <r>     6.5830     0.2353    35.9617 </r>
       <r>     6.7376     0.1535    35.9964 </r>
       <r>     6.8923     0.0005    36.0010 </r>
       <r>     7.0469     0.0470    36.0155 </r>
       <r>     7.2015     0.1050    36.0390 </r>
       <r>     7.3562     0.1329    36.0670 </r>
       <r>     7.5108     0.3536    36.2286 </r>
       <r>     7.6655     1.0759    36.4732 </r>
       <r>     7.8201     1.8324    37.0708 </r>
       <r>     7.9747     2.0809    37.6117 </r>
       <r>     8.1294     1.4634    37.9860 </r>
       <r>     8.2840     0.7049    38.1718 </r>
       <r>     8.4386     0.2355    38.3286 </r>
       <r>     8.5933     1.0165    38.5022 </r>
       <r>     8.7479     1.6717    38.8657 </r>
       <r>     8.9025     2.5319    39.6059 </r>
       <r>     9.0572     2.2038    40.4382 </r>
       <r>     9.2118     2.0629    41.0190 </r>
       <r>     9.3664     6.0141    42.4038 </r>
       <r>     9.5211     8.4418    44.4906 </r>
       <r>     9.6757     4.4196    46.6944 </r>
       <r>     9.8303     0.0000    48.0000 </r>
       <r>     9.9850     0.0000    48.0000 </r>
       <r>    10.1396     0.0000    48.0000 </r>
       <r>    10.2942     0.0000    48.0000 </r>
       <r>    10.4489     0.0000    48.0000 </r>
       <r>    10.6035     0.0000    48.0000 </r>
       <r>    10.7581     0.0000    48.0000 </r>
       <r>    10.9128     0.0000    48.0000 </r>
       <r>    11.0674     0.0000    48.0000 </r>
       <r>    11.2220     0.0000    48.0000 </r>
       <r>    11.3767     0.0000    48.0000 </r>
       <r>    11.5313     0.0000    48.0000 </r>
       <r>    11.6860     0.0000    48.0000 </r>
       <r>    11.8406     0.0000    48.0000 </r>
      </set>
     </set>
    </array>
   </total>
  </dos>
 </calculation>
 <structure name="finalpos" >
  <crystal>
   <varray name="basis" >
    <v>       0.00000000       3.49203015       3.49203015 </v>
    <v>       3.49203015       0.00000000       3.49203015 </v>
    <v>       3.49203015       3.49203015       0.00000000 </v>
   </varray>
   <i name="volume">     85.16554900 </i>
   <varray name="rec_basis" >
    <v>      -0.14318319       0.14318319       0.14318319 </v>
    <v>       0.14318319      -0.14318319       0.14318319 </v>
    <v>       0.14318319       0.14318319      -0.14318319 </v>
   </varray>
  </crystal>
  <varray name="positions" >
   <v>       0.25000000       0.25000000       0.25000000 </v>
   <v>       0.75000000       0.75000000       0.75000000 </v>
   <v>       0.00000000       0.00000000       0.00000000 </v>
  </varray>
 </structure>
</modeling>
