   2   2   0   0
  0.1340965E+02  0.3359858E-09  0.3359858E-09  0.3359858E-09  0.0000000E+00
  1.000000000000000E-004
  CAR 
 unknown system                          
     19.16776504    -10.53028527  301      6.40379050      1.00000000
    -10.530  0.0000E+00  0.0000E+00
    -10.431  0.0000E+00  0.0000E+00
    -10.332  0.0000E+00  0.0000E+00
    -10.233  0.0000E+00  0.0000E+00
    -10.134  0.0000E+00  0.0000E+00
    -10.035  0.0000E+00  0.0000E+00
     -9.936  0.0000E+00  0.0000E+00
     -9.837  0.0000E+00  0.0000E+00
     -9.738  0.0000E+00  0.0000E+00
     -9.639  0.0000E+00  0.0000E+00
     -9.540  0.0000E+00  0.0000E+00
     -9.441  0.0000E+00  0.0000E+00
     -9.342  0.0000E+00  0.0000E+00
     -9.243  0.0000E+00  0.0000E+00
     -9.144  0.4116E-01  0.6848E-03
     -9.045  0.8279E-01  0.7015E-02
     -8.946  0.1138E+00  0.1693E-01
     -8.847  0.1389E+00  0.2936E-01
     -8.748  0.1572E+00  0.4403E-01
     -8.649  0.1782E+00  0.6061E-01
     -8.550  0.1930E+00  0.7895E-01
     -8.451  0.2103E+00  0.9890E-01
     -8.352  0.2252E+00  0.1205E+00
     -8.253  0.2399E+00  0.1435E+00
     -8.154  0.2555E+00  0.1680E+00
     -8.055  0.2686E+00  0.1940E+00
     -7.956  0.2827E+00  0.2212E+00
     -7.857  0.2976E+00  0.2500E+00
     -7.758  0.3106E+00  0.2801E+00
     -7.659  0.3247E+00  0.3115E+00
     -7.560  0.3395E+00  0.3444E+00
     -7.461  0.3538E+00  0.3787E+00
     -7.362  0.3686E+00  0.4145E+00
     -7.263  0.3844E+00  0.4517E+00
     -7.165  0.4009E+00  0.4906E+00
     -7.066  0.4180E+00  0.5311E+00
     -6.967  0.4365E+00  0.5734E+00
     -6.868  0.4567E+00  0.6176E+00
     -6.769  0.4789E+00  0.6639E+00
     -6.670  0.5046E+00  0.7125E+00
     -6.571  0.5344E+00  0.7639E+00
     -6.472  0.5708E+00  0.8186E+00
     -6.373  0.6202E+00  0.8773E+00
     -6.274  0.7167E+00  0.9425E+00
     -6.175  0.7746E+00  0.1019E+01
     -6.076  0.7494E+00  0.1095E+01
     -5.977  0.7483E+00  0.1169E+01
     -5.878  0.7271E+00  0.1241E+01
     -5.779  0.7066E+00  0.1313E+01
     -5.680  0.7005E+00  0.1382E+01
     -5.581  0.6868E+00  0.1451E+01
     -5.482  0.6770E+00  0.1518E+01
     -5.383  0.6669E+00  0.1585E+01
     -5.284  0.6681E+00  0.1651E+01
     -5.185  0.6680E+00  0.1717E+01
     -5.086  0.6856E+00  0.1784E+01
     -4.987  0.7409E+00  0.1854E+01
     -4.888  0.9309E+00  0.1936E+01
     -4.789  0.2455E+00  0.1992E+01
     -4.690  0.0000E+00  0.2000E+01
     -4.591  0.0000E+00  0.2000E+01
     -4.492  0.0000E+00  0.2000E+01
     -4.393  0.0000E+00  0.2000E+01
     -4.294  0.0000E+00  0.2000E+01
     -4.195  0.0000E+00  0.2000E+01
     -4.096  0.0000E+00  0.2000E+01
     -3.997  0.0000E+00  0.2000E+01
     -3.898  0.0000E+00  0.2000E+01
     -3.799  0.0000E+00  0.2000E+01
     -3.700  0.0000E+00  0.2000E+01
     -3.601  0.0000E+00  0.2000E+01
     -3.502  0.0000E+00  0.2000E+01
     -3.403  0.0000E+00  0.2000E+01
     -3.304  0.0000E+00  0.2000E+01
     -3.205  0.0000E+00  0.2000E+01
     -3.106  0.0000E+00  0.2000E+01
     -3.007  0.0000E+00  0.2000E+01
     -2.908  0.0000E+00  0.2000E+01
     -2.809  0.0000E+00  0.2000E+01
     -2.710  0.0000E+00  0.2000E+01
     -2.611  0.0000E+00  0.2000E+01
     -2.512  0.8900E-01  0.2001E+01
     -2.413  0.1711E+00  0.2013E+01
     -2.314  0.2364E+00  0.2032E+01
     -2.215  0.3448E+00  0.2060E+01
     -2.116  0.5093E+00  0.2103E+01
     -2.017  0.6970E+00  0.2164E+01
     -1.918  0.9379E+00  0.2245E+01
     -1.819  0.1447E+01  0.2359E+01
     -1.720  0.2003E+01  0.2549E+01
     -1.621  0.1126E+01  0.2691E+01
     -1.522  0.8535E+00  0.2788E+01
     -1.423  0.7443E+00  0.2867E+01
     -1.324  0.6427E+00  0.2935E+01
     -1.225  0.5787E+00  0.2995E+01
     -1.126  0.5339E+00  0.3050E+01
     -1.027  0.4874E+00  0.3101E+01
     -0.928  0.4474E+00  0.3147E+01
     -0.829  0.4233E+00  0.3190E+01
     -0.730  0.3984E+00  0.3231E+01
     -0.631  0.3680E+00  0.3269E+01
     -0.532  0.3474E+00  0.3304E+01
     -0.433  0.3330E+00  0.3338E+01
     -0.334  0.3174E+00  0.3370E+01
     -0.235  0.2996E+00  0.3400E+01
     -0.136  0.2793E+00  0.3429E+01
     -0.037  0.2693E+00  0.3456E+01
      0.062  0.2593E+00  0.3482E+01
      0.161  0.2505E+00  0.3507E+01
      0.260  0.4172E+00  0.3541E+01
      0.359  0.5462E+00  0.3588E+01
      0.458  0.6443E+00  0.3647E+01
      0.557  0.9239E+00  0.3720E+01
      0.656  0.8817E+00  0.3809E+01
      0.755  0.8419E+00  0.3895E+01
      0.854  0.7826E+00  0.3975E+01
      0.953  0.7681E+00  0.4052E+01
      1.052  0.7604E+00  0.4128E+01
      1.151  0.7343E+00  0.4202E+01
      1.250  0.7584E+00  0.4276E+01
      1.349  0.7960E+00  0.4353E+01
      1.448  0.7890E+00  0.4431E+01
      1.547  0.8105E+00  0.4510E+01
      1.646  0.8220E+00  0.4592E+01
      1.745  0.8512E+00  0.4674E+01
      1.844  0.8772E+00  0.4761E+01
      1.943  0.9287E+00  0.4850E+01
      2.042  0.9552E+00  0.4944E+01
      2.141  0.1071E+01  0.5043E+01
      2.240  0.1165E+01  0.5155E+01
      2.339  0.1153E+01  0.5270E+01
      2.438  0.1144E+01  0.5383E+01
      2.537  0.1128E+01  0.5496E+01
      2.636  0.1114E+01  0.5607E+01
      2.735  0.1092E+01  0.5716E+01
      2.834  0.1076E+01  0.5823E+01
      2.933  0.1062E+01  0.5929E+01
      3.032  0.1050E+01  0.6034E+01
      3.131  0.1037E+01  0.6137E+01
      3.230  0.1025E+01  0.6239E+01
      3.329  0.1004E+01  0.6339E+01
      3.428  0.9919E+00  0.6438E+01
      3.527  0.9821E+00  0.6536E+01
      3.626  0.9679E+00  0.6632E+01
      3.725  0.9534E+00  0.6728E+01
      3.824  0.9428E+00  0.6821E+01
      3.923  0.9321E+00  0.6914E+01
      4.022  0.9246E+00  0.7006E+01
      4.121  0.9111E+00  0.7097E+01
      4.220  0.8926E+00  0.7187E+01
      4.319  0.8862E+00  0.7274E+01
      4.418  0.8669E+00  0.7361E+01
      4.517  0.7635E+00  0.7444E+01
      4.616  0.6371E+00  0.7513E+01
      4.715  0.5694E+00  0.7572E+01
      4.814  0.5082E+00  0.7625E+01
      4.913  0.4607E+00  0.7673E+01
      5.012  0.4136E+00  0.7717E+01
      5.111  0.3818E+00  0.7756E+01
      5.210  0.3447E+00  0.7792E+01
      5.309  0.3129E+00  0.7824E+01
      5.408  0.2832E+00  0.7854E+01
      5.507  0.2551E+00  0.7880E+01
      5.606  0.2283E+00  0.7904E+01
      5.705  0.2028E+00  0.7926E+01
      5.804  0.1751E+00  0.7944E+01
      5.903  0.1492E+00  0.7960E+01
      6.002  0.1308E+00  0.7974E+01
      6.101  0.1014E+00  0.7986E+01
      6.200  0.6907E-01  0.7995E+01
      6.299  0.1836E-01  0.8000E+01
      6.398  0.0000E+00  0.8000E+01
      6.497  0.0000E+00  0.8000E+01
      6.596  0.0000E+00  0.8000E+01
      6.695  0.0000E+00  0.8000E+01
      6.794  0.0000E+00  0.8000E+01
      6.893  0.0000E+00  0.8000E+01
      6.992  0.0000E+00  0.8000E+01
      7.091  0.0000E+00  0.8000E+01
      7.190  0.0000E+00  0.8000E+01
      7.289  0.0000E+00  0.8000E+01
      7.388  0.0000E+00  0.8000E+01
      7.487  0.0000E+00  0.8000E+01
      7.586  0.3923E-01  0.8001E+01
      7.685  0.1126E+00  0.8009E+01
      7.784  0.1643E+00  0.8023E+01
      7.883  0.2150E+00  0.8042E+01
      7.981  0.2746E+00  0.8066E+01
      8.080  0.3134E+00  0.8095E+01
      8.179  0.3483E+00  0.8128E+01
      8.278  0.3838E+00  0.8164E+01
      8.377  0.4214E+00  0.8204E+01
      8.476  0.4611E+00  0.8248E+01
      8.575  0.4986E+00  0.8295E+01
      8.674  0.5297E+00  0.8346E+01
      8.773  0.5620E+00  0.8400E+01
      8.872  0.5955E+00  0.8457E+01
      8.971  0.6321E+00  0.8518E+01
      9.070  0.6724E+00  0.8583E+01
      9.169  0.7180E+00  0.8651E+01
      9.268  0.8368E+00  0.8728E+01
      9.367  0.9551E+00  0.8817E+01
      9.466  0.1078E+01  0.8918E+01
      9.565  0.1241E+01  0.9032E+01
      9.664  0.1641E+01  0.9173E+01
      9.763  0.1746E+01  0.9346E+01
      9.862  0.1376E+01  0.9496E+01
      9.961  0.1307E+01  0.9628E+01
     10.060  0.1295E+01  0.9756E+01
     10.159  0.1131E+01  0.9877E+01
     10.258  0.1156E+01  0.9988E+01
     10.357  0.1027E+01  0.1010E+02
     10.456  0.6871E+00  0.1019E+02
     10.555  0.6522E+00  0.1025E+02
     10.654  0.6083E+00  0.1032E+02
     10.753  0.6532E+00  0.1038E+02
     10.852  0.6936E+00  0.1045E+02
     10.951  0.8194E+00  0.1052E+02
     11.050  0.1821E+01  0.1066E+02
     11.149  0.1428E+01  0.1082E+02
     11.248  0.1448E+01  0.1095E+02
     11.347  0.1363E+01  0.1109E+02
     11.446  0.1381E+01  0.1123E+02
     11.545  0.1522E+01  0.1137E+02
     11.644  0.1562E+01  0.1153E+02
     11.743  0.1271E+01  0.1167E+02
     11.842  0.1115E+01  0.1178E+02
     11.941  0.9943E+00  0.1189E+02
     12.040  0.9375E+00  0.1198E+02
     12.139  0.8874E+00  0.1207E+02
     12.238  0.9413E+00  0.1216E+02
     12.337  0.1019E+01  0.1226E+02
     12.436  0.1035E+01  0.1236E+02
     12.535  0.1132E+01  0.1247E+02
     12.634  0.1108E+01  0.1258E+02
     12.733  0.1042E+01  0.1269E+02
     12.832  0.1071E+01  0.1279E+02
     12.931  0.1123E+01  0.1290E+02
     13.030  0.1075E+01  0.1301E+02
     13.129  0.1089E+01  0.1311E+02
     13.228  0.1044E+01  0.1322E+02
     13.327  0.1082E+01  0.1333E+02
     13.426  0.1084E+01  0.1343E+02
     13.525  0.1065E+01  0.1354E+02
     13.624  0.9833E+00  0.1364E+02
     13.723  0.9775E+00  0.1374E+02
     13.822  0.9849E+00  0.1384E+02
     13.921  0.9430E+00  0.1393E+02
     14.020  0.8568E+00  0.1402E+02
     14.119  0.6824E+00  0.1410E+02
     14.218  0.6688E+00  0.1416E+02
     14.317  0.6732E+00  0.1423E+02
     14.416  0.6928E+00  0.1430E+02
     14.515  0.7015E+00  0.1437E+02
     14.614  0.7036E+00  0.1444E+02
     14.713  0.7227E+00  0.1451E+02
     14.812  0.7507E+00  0.1458E+02
     14.911  0.7802E+00  0.1465E+02
     15.010  0.8076E+00  0.1473E+02
     15.109  0.8598E+00  0.1482E+02
     15.208  0.1015E+01  0.1491E+02
     15.307  0.1212E+01  0.1502E+02
     15.406  0.1326E+01  0.1514E+02
     15.505  0.1269E+01  0.1527E+02
     15.604  0.1030E+01  0.1539E+02
     15.703  0.5665E+00  0.1547E+02
     15.802  0.4970E+00  0.1552E+02
     15.901  0.4429E+00  0.1556E+02
     16.000  0.4212E+00  0.1561E+02
     16.099  0.3932E+00  0.1565E+02
     16.198  0.3586E+00  0.1569E+02
     16.297  0.3444E+00  0.1572E+02
     16.396  0.3172E+00  0.1575E+02
     16.495  0.2901E+00  0.1578E+02
     16.594  0.2689E+00  0.1581E+02
     16.693  0.2471E+00  0.1584E+02
     16.792  0.2309E+00  0.1586E+02
     16.891  0.2158E+00  0.1588E+02
     16.990  0.2027E+00  0.1590E+02
     17.089  0.1807E+00  0.1592E+02
     17.188  0.1533E+00  0.1594E+02
     17.287  0.1349E+00  0.1595E+02
     17.386  0.1204E+00  0.1597E+02
     17.485  0.1084E+00  0.1598E+02
     17.584  0.9169E-01  0.1599E+02
     17.683  0.5680E-01  0.1599E+02
     17.782  0.3720E-01  0.1600E+02
     17.881  0.0000E+00  0.1600E+02
     17.980  0.0000E+00  0.1600E+02
     18.079  0.0000E+00  0.1600E+02
     18.178  0.0000E+00  0.1600E+02
     18.277  0.0000E+00  0.1600E+02
     18.376  0.0000E+00  0.1600E+02
     18.475  0.0000E+00  0.1600E+02
     18.574  0.0000E+00  0.1600E+02
     18.673  0.0000E+00  0.1600E+02
     18.772  0.0000E+00  0.1600E+02
     18.871  0.0000E+00  0.1600E+02
     18.970  0.0000E+00  0.1600E+02
     19.069  0.0000E+00  0.1600E+02
     19.168  0.0000E+00  0.1600E+02
