    2    2    1    1
  0.1340965E+02  0.3359858E-09  0.3359858E-09  0.3359858E-09  0.0000000E+00
  1.000000000000000E-004
  CAR 
 unknown system                          
      8    364      8
 
  0.0000000E+00  0.0000000E+00  0.0000000E+00  0.8218953E-04
    1       -9.180374   1.000000
    2        6.357362   1.000000
    3        6.357362   1.000000
    4        6.357362   1.000000
    5        9.646661   0.000000
    6        9.646661   0.000000
    7        9.646661   0.000000
    8       11.274010   0.000000
 
  0.4347826E-01  0.0000000E+00  0.0000000E+00  0.6575162E-03
    1       -9.148773   1.000000
    2        6.027125   1.000000
    3        6.291449   1.000000
    4        6.291449   1.000000
    5        9.732838   0.000000
    6        9.732838   0.000000
    7        9.737108   0.000000
    8       11.437792   0.000000
 
  0.8695652E-01  0.0000000E+00  0.0000000E+00  0.6575162E-03
    1       -9.054159   1.000000
    2        5.236659   1.000000
    3        6.116356   1.000000
    4        6.116356   1.000000
    5        9.830201   0.000000
    6        9.963243   0.000000
    7        9.963243   0.000000
    8       11.913856   0.000000
 
  0.1304348E+00  0.0000000E+00  0.0000000E+00  0.6575162E-03
    1       -8.897377   1.000000
    2        4.249570   1.000000
    3        5.878689   1.000000
    4        5.878689   1.000000
    5        9.810156   0.000000
    6       10.274893   0.000000
    7       10.274893   0.000000
    8       12.574243   0.000000
 
  0.1739130E+00  0.0000000E+00  0.0000000E+00  0.6575162E-03
    1       -8.679922   1.000000
    2        3.197559   1.000000
    3        5.619334   1.000000
    4        5.619334   1.000000
    5        9.720310   0.000000
    6       10.600234   0.000000
    7       10.600234   0.000000
    8       13.273098   0.000000
 
  0.2173913E+00  0.0000000E+00  0.0000000E+00  0.6575162E-03
    1       -8.404410   1.000000
    2        2.141933   1.000000
    3        5.365276   1.000000
    4        5.365276   1.000000
    5        9.604854   0.000000
    6       10.880989   0.000000
    7       10.880989   0.000000
    8       13.932385   0.000000
 
  0.2608696E+00  0.0000000E+00  0.0000000E+00  0.6575162E-03
    1       -8.075216   1.000000
    2        1.116420   1.000000
    3        5.132634   1.000000
    4        5.132634   1.000000
    5        9.487920   0.000000
    6       11.077889   0.000000
    7       11.077889   0.000000
    8       14.501417   0.000000
 
  0.3043478E+00  0.0000000E+00  0.0000000E+00  0.6575162E-03
    1       -7.699893   1.000000
    2        0.145215   1.000000
    3        4.930796   1.000000
    4        4.930796   1.000000
    5        9.381998   0.000000
    6       11.181202   0.000000
    7       11.181202   0.000000
    8       14.923949   0.000000
 
  0.3478261E+00  0.0000000E+00  0.0000000E+00  0.6575162E-03
    1       -7.292155   1.000000
    2       -0.747970   1.000000
    3        4.765305   1.000000
    4        4.765305   1.000000
    5        9.293618   0.000000
    6       11.209662   0.000000
    7       11.209662   0.000000
    8       15.161656   0.000000
 
  0.3913043E+00  0.0000000E+00  0.0000000E+00  0.6575162E-03
    1       -6.878155   1.000000
    2       -1.530524   1.000000
    3        4.639309   1.000000
    4        4.639309   1.000000
    5        9.225921   0.000000
    6       11.195385   0.000000
    7       11.195385   0.000000
    8       15.246815   0.000000
 
  0.4347826E+00  0.0000000E+00  0.0000000E+00  0.6575162E-03
    1       -6.509267   1.000000
    2       -2.147111   1.000000
    3        4.554603   1.000000
    4        4.554603   1.000000
    5        9.180377   0.000000
    6       11.168546   0.000000
    7       11.168546   0.000000
    8       15.255530   0.000000
 
  0.4782609E+00  0.0000000E+00  0.0000000E+00  0.6575162E-03
    1       -6.275884   1.000000
    2       -2.504885   1.000000
    3        4.512040   1.000000
    4        4.512040   1.000000
    5        9.157535   0.000000
    6       11.149970   0.000000
    7       11.149970   0.000000
    8       15.246528   0.000000
 
  0.4347826E-01  0.4347826E-01  0.0000000E+00  0.4931372E-03
    1       -9.138225   1.000000
    2        6.147303   1.000000
    3        6.154124   1.000000
    4        6.154124   1.000000
    5        9.523194   0.000000
    6        9.895720   0.000000
    7        9.895720   0.000000
    8       11.468421   0.000000
 
  0.8695652E-01  0.4347826E-01  0.0000000E+00  0.1972549E-02
    1       -9.064582   1.000000
    2        5.494473   1.000000
    3        5.930036   1.000000
    4        6.124384   1.000000
    5        9.511524   0.000000
    6       10.107993   0.000000
    7       10.182591   0.000000
    8       11.800128   0.000000
 
  0.1304348E+00  0.4347826E-01  0.0000000E+00  0.1972549E-02
    1       -8.928489   1.000000
    2        4.571607   1.000000
    3        5.665617   1.000000
    4        5.974797   1.000000
    5        9.640200   0.000000
    6       10.214258   0.000000
    7       10.532197   0.000000
    8       12.373904   0.000000
 
  0.1739130E+00  0.4347826E-01  0.0000000E+00  0.1972549E-02
    1       -8.731153   1.000000
    2        3.545480   1.000000
    3        5.395776   1.000000
    4        5.750604   1.000000
    5        9.753084   0.000000
    6       10.326125   0.000000
    7       10.884063   0.000000
    8       13.018981   0.000000
 
  0.2173913E+00  0.4347826E-01  0.0000000E+00  0.1972549E-02
    1       -8.474808   1.000000
    2        2.495299   1.000000
    3        5.142557   1.000000
    4        5.495770   1.000000
    5        9.740801   0.000000
    6       10.535192   0.000000
    7       11.183977   0.000000
    8       13.625384   0.000000
 
  0.2608696E+00  0.4347826E-01  0.0000000E+00  0.1972549E-02
    1       -8.163105   1.000000
    2        1.462938   1.000000
    3        4.919180   1.000000
    4        5.239468   1.000000
    5        9.659551   0.000000
    6       10.754453   0.000000
    7       11.391559   0.000000
    8       14.155759   0.000000
 
  0.3043478E+00  0.4347826E-01  0.0000000E+00  0.1972549E-02
    1       -7.802346   1.000000
    2        0.475534   1.000000
    3        4.733345   1.000000
    4        4.999111   1.000000
    5        9.563998   0.000000
    6       10.911177   0.000000
    7       11.492453   0.000000
    8       14.604666   0.000000
 
  0.3478261E+00  0.4347826E-01  0.0000000E+00  0.1972549E-02
    1       -7.403710   1.000000
    2       -0.443379   1.000000
    3        4.589475   1.000000
    4        4.785086   1.000000
    5        9.475814   0.000000
    6       10.994781   0.000000
    7       11.502180   0.000000
    8       14.956070   0.000000
 
  0.3913043E+00  0.4347826E-01  0.0000000E+00  0.1972549E-02
    1       -6.988171   1.000000
    2       -1.264992   1.000000
    3        4.489894   1.000000
    4        4.603701   1.000000
    5        9.403973   0.000000
    6       11.028917   0.000000
    7       11.453452   0.000000
    8       15.180878   0.000000
 
  0.4347826E+00  0.4347826E-01  0.0000000E+00  0.1972549E-02
    1       -6.596840   1.000000
    2       -1.943361   1.000000
    3        4.435482   1.000000
    4        4.459157   1.000000
    5        9.352390   0.000000
    6       11.044892   0.000000
    7       11.379679   0.000000
    8       15.288505   0.000000
 
  0.4782609E+00  0.4347826E-01  0.0000000E+00  0.1972549E-02
    1       -6.306562   1.000000
    2       -2.398575   1.000000
    3        4.354293   1.000000
    4        4.426171   1.000000
    5        9.322765   0.000000
    6       11.067036   0.000000
    7       11.305848   0.000000
    8       15.327595   0.000000
 
 -0.4782609E+00  0.4347826E-01  0.0000000E+00  0.1972549E-02
    1       -6.222103   1.000000
    2       -2.524339   1.000000
    3        4.291277   1.000000
    4        4.461274   1.000000
    5        9.315742   0.000000
    6       11.109069   0.000000
    7       11.246340   0.000000
    8       15.338854   0.000000
 
 -0.4347826E+00  0.4347826E-01  0.0000000E+00  0.1972549E-02
    1       -6.385737   1.000000
    2       -2.277945   1.000000
    3        4.271738   1.000000
    4        4.539500   1.000000
    5        9.331413   0.000000
    6       11.174111   0.000000
    7       11.205124   0.000000
    8       15.333988   0.000000
 
 -0.3913043E+00  0.4347826E-01  0.0000000E+00  0.1972549E-02
    1       -6.720920   1.000000
    2       -1.736762   1.000000
    3        4.296787   1.000000
    4        4.659018   1.000000
    5        9.369565   0.000000
    6       11.175925   0.000000
    7       11.254947   0.000000
    8       15.293869   0.000000
 
 -0.3478261E+00  0.4347826E-01  0.0000000E+00  0.1972549E-02
    1       -7.126785   1.000000
    2       -1.003664   1.000000
    3        4.367021   1.000000
    4        4.817450   1.000000
    5        9.429550   0.000000
    6       11.142062   0.000000
    7       11.333355   0.000000
    8       15.171539   0.000000
 
 -0.3043478E+00  0.4347826E-01  0.0000000E+00  0.1972549E-02
    1       -7.539944   1.000000
    2       -0.145640   1.000000
    3        4.482400   1.000000
    4        5.011383   1.000000
    5        9.509858   0.000000
    6       11.077330   0.000000
    7       11.379266   0.000000
    8       14.917342   0.000000
 
 -0.2608696E+00  0.4347826E-01  0.0000000E+00  0.1972549E-02
    1       -7.927648   1.000000
    2        0.798734   1.000000
    3        4.641819   1.000000
    4        5.235822   1.000000
    5        9.607298   0.000000
    6       10.952132   0.000000
    7       11.353874   0.000000
    8       14.525781   0.000000
 
 -0.2173913E+00  0.4347826E-01  0.0000000E+00  0.1972549E-02
    1       -8.272949   1.000000
    2        1.803320   1.000000
    3        4.842867   1.000000
    4        5.483001   1.000000
    5        9.715287   0.000000
    6       10.747944   0.000000
    7       11.223500   0.000000
    8       14.031544   0.000000
 
 -0.1739130E+00  0.4347826E-01  0.0000000E+00  0.1972549E-02
    1       -8.566724   1.000000
    2        2.843778   1.000000
    3        5.080957   1.000000
    4        5.740263   1.000000
    5        9.820770   0.000000
    6       10.473671   0.000000
    7       10.982446   0.000000
    8       13.462352   0.000000
 
 -0.1304348E+00  0.4347826E-01  0.0000000E+00  0.1972549E-02
    1       -8.803690   1.000000
    2        3.888040   1.000000
    3        5.348584   1.000000
    4        5.986754   1.000000
    5        9.897346   0.000000
    6       10.170107   0.000000
    7       10.665980   0.000000
    8       12.836842   0.000000
 
 -0.8695652E-01  0.4347826E-01  0.0000000E+00  0.1972549E-02
    1       -8.980784   1.000000
    2        4.878574   1.000000
    3        5.635895   1.000000
    4        6.189295   1.000000
    5        9.895297   0.000000
    6        9.900574   0.000000
    7       10.339846   0.000000
    8       12.205394   0.000000
 
 -0.4347826E-01  0.4347826E-01  0.0000000E+00  0.9862743E-03
    1       -9.096140   1.000000
    2        5.671292   1.000000
    3        5.955480   1.000000
    4        6.303315   1.000000
    5        9.736555   0.000000
    6        9.788949   0.000000
    7       10.041848   0.000000
    8       11.692064   0.000000
 
  0.8695652E-01  0.8695652E-01  0.0000000E+00  0.4931372E-03
    1       -9.011982   1.000000
    2        5.590878   1.000000
    3        5.674277   1.000000
    4        5.674277   1.000000
    5        9.239161   0.000000
    6       10.511957   0.000000
    7       10.511958   0.000000
    8       11.878660   0.000000
 
  0.1304348E+00  0.8695652E-01  0.0000000E+00  0.1972549E-02
    1       -8.896764   1.000000
    2        4.817985   1.000000
    3        5.391823   1.000000
    4        5.629782   1.000000
    5        9.189559   0.000000
    6       10.753577   0.000000
    7       10.895384   0.000000
    8       12.228254   0.000000
 
  0.1739130E+00  0.8695652E-01  0.0000000E+00  0.1972549E-02
    1       -8.719956   1.000000
    2        3.857885   1.000000
    3        5.113194   1.000000
    4        5.487844   1.000000
    5        9.318083   0.000000
    6       10.797983   0.000000
    7       11.278542   0.000000
    8       12.725513   0.000000
 
  0.2173913E+00  0.8695652E-01  0.0000000E+00  0.1972549E-02
    1       -8.483432   1.000000
    2        2.840694   1.000000
    3        4.857760   1.000000
    4        5.263322   1.000000
    5        9.513281   0.000000
    6       10.795015   0.000000
    7       11.609789   0.000000
    8       13.170650   0.000000
 
  0.2608696E+00  0.8695652E-01  0.0000000E+00  0.1972549E-02
    1       -8.190283   1.000000
    2        1.820709   1.000000
    3        4.637352   1.000000
    4        5.002326   1.000000
    5        9.662059   0.000000
    6       10.828959   0.000000
    7       11.845922   0.000000
    8       13.529079   0.000000
 
  0.3043478E+00  0.8695652E-01  0.0000000E+00  0.1972549E-02
    1       -7.845806   1.000000
    2        0.831422   1.000000
    3        4.459140   1.000000
    4        4.735922   1.000000
    5        9.715877   0.000000
    6       10.900052   0.000000
    7       11.965643   0.000000
    8       13.880553   0.000000
 
  0.3478261E+00  0.8695652E-01  0.0000000E+00  0.1972549E-02
    1       -7.459197   1.000000
    2       -0.101374   1.000000
    3        4.327266   1.000000
    4        4.482756   1.000000
    5        9.703511   0.000000
    6       10.960512   0.000000
    7       11.977919   0.000000
    8       14.288713   0.000000
 
  0.3913043E+00  0.8695652E-01  0.0000000E+00  0.1972549E-02
    1       -7.047428   1.000000
    2       -0.950466   1.000000
    3        4.243823   1.000000
    4        4.254222   1.000000
    5        9.668095   0.000000
    6       10.990513   0.000000
    7       11.913718   0.000000
    8       14.730666   0.000000
 
  0.4347826E+00  0.8695652E-01  0.0000000E+00  0.1972549E-02
    1       -6.643295   1.000000
    2       -1.676591   1.000000
    3        4.057817   1.000000
    4        4.209594   1.000000
    5        9.635700   0.000000
    6       11.005573   0.000000
    7       11.808873   0.000000
    8       15.121968   0.000000
 
  0.4782609E+00  0.8695652E-01  0.0000000E+00  0.1972549E-02
    1       -6.310027   1.000000
    2       -2.212491   1.000000
    3        3.898750   1.000000
    4        4.224210   1.000000
    5        9.618647   0.000000
    6       11.028322   0.000000
    7       11.692183   0.000000
    8       15.388878   0.000000
 
 -0.4782609E+00  0.8695652E-01  0.0000000E+00  0.1972549E-02
    1       -6.147848   1.000000
    2       -2.455727   1.000000
    3        3.781022   1.000000
    4        4.286397   1.000000
    5        9.621776   0.000000
    6       11.074884   0.000000
    7       11.581802   0.000000
    8       15.520734   0.000000
 
 -0.4347826E+00  0.8695652E-01  0.0000000E+00  0.1972549E-02
    1       -6.232338   1.000000
    2       -2.329806   1.000000
    3        3.707747   1.000000
    4        4.394125   1.000000
    5        9.646110   0.000000
    6       11.152442   0.000000
    7       11.485278   0.000000
    8       15.537097   0.000000
 
 -0.3913043E+00  0.8695652E-01  0.0000000E+00  0.1972549E-02
    1       -6.521377   1.000000
    2       -1.877415   1.000000
    3        3.681388   1.000000
    4        4.544467   1.000000
    5        9.690749   0.000000
    6       11.258951   0.000000
    7       11.399818   0.000000
    8       15.435675   0.000000
 
 -0.3478261E+00  0.8695652E-01  0.0000000E+00  0.1972549E-02
    1       -6.911032   1.000000
    2       -1.204268   1.000000
    3        3.703830   1.000000
    4        4.733553   1.000000
    5        9.753940   0.000000
    6       11.312363   0.000000
    7       11.381425   0.000000
    8       15.194872   0.000000
 
 -0.3043478E+00  0.8695652E-01  0.0000000E+00  0.1972549E-02
    1       -7.324983   1.000000
    2       -0.390424   1.000000
    3        3.776432   1.000000
    4        4.956095   1.000000
    5        9.833085   0.000000
    6       11.200459   0.000000
    7       11.492221   0.000000
    8       14.821910   0.000000
 
 -0.2608696E+00  0.8695652E-01  0.0000000E+00  0.1972549E-02
    1       -7.722237   1.000000
    2        0.517058   1.000000
    3        3.900150   1.000000
    4        5.204708   1.000000
    5        9.923907   0.000000
    6       11.038141   0.000000
    7       11.545353   0.000000
    8       14.378984   0.000000
 
 -0.2173913E+00  0.8695652E-01  0.0000000E+00  0.1972549E-02
    1       -8.081870   1.000000
    2        1.486671   1.000000
    3        4.075829   1.000000
    4        5.468349   1.000000
    5       10.018106   0.000000
    6       10.809914   0.000000
    7       11.483314   0.000000
    8       13.940951   0.000000
 
 -0.1739130E+00  0.8695652E-01  0.0000000E+00  0.1972549E-02
    1       -8.392648   1.000000
    2        2.488201   1.000000
    3        4.306030   1.000000
    4        5.730134   1.000000
    5       10.098774   0.000000
    6       10.528000   0.000000
    7       11.275513   0.000000
    8       13.532531   0.000000
 
 -0.1304348E+00  0.8695652E-01  0.0000000E+00  0.1972549E-02
    1       -8.648284   1.000000
    2        3.474170   1.000000
    3        4.603001   1.000000
    4        5.963671   1.000000
    5       10.130778   0.000000
    6       10.237360   0.000000
    7       10.965093   0.000000
    8       13.110466   0.000000
 
 -0.8695652E-01  0.8695652E-01  0.0000000E+00  0.9862743E-03
    1       -8.845064   1.000000
    2        4.327529   1.000000
    3        5.026159   1.000000
    4        6.130893   1.000000
    5       10.005229   0.000000
    6       10.057213   0.000000
    7       10.647614   0.000000
    8       12.644531   0.000000
 
  0.1304348E+00  0.1304348E+00  0.0000000E+00  0.4931372E-03
    1       -8.802453   1.000000
    2        4.821424   1.000000
    3        5.097362   1.000000
    4        5.097362   1.000000
    5        8.895025   0.000000
    6       11.312637   0.000000
    7       11.312637   0.000000
    8       12.184233   0.000000
 
  0.1739130E+00  0.1304348E+00  0.0000000E+00  0.1972549E-02
    1       -8.646397   1.000000
    2        4.065834   1.000000
    3        4.810695   1.000000
    4        4.985084   1.000000
    5        8.838053   0.000000
    6       11.518126   0.000000
    7       11.733482   0.000000
    8       12.404490   0.000000
 
  0.2173913E+00  0.1304348E+00  0.0000000E+00  0.1972549E-02
    1       -8.430148   1.000000
    2        3.128969   1.000000
    3        4.550188   1.000000
    4        4.821460   1.000000
    5        8.974745   0.000000
    6       11.478094   0.000000
    7       12.107835   0.000000
    8       12.694196   0.000000
 
  0.2608696E+00  0.1304348E+00  0.0000000E+00  0.1972549E-02
    1       -8.156365   1.000000
    2        2.153497   1.000000
    3        4.327442   1.000000
    4        4.577513   1.000000
    5        9.195028   0.000000
    6       11.430545   0.000000
    7       12.389662   0.000000
    8       12.878630   0.000000
 
  0.3043478E+00  0.1304348E+00  0.0000000E+00  0.1972549E-02
    1       -7.829529   1.000000
    2        1.185552   1.000000
    3        4.149558   1.000000
    4        4.297559   1.000000
    5        9.389633   0.000000
    6       11.430929   0.000000
    7       12.549195   0.000000
    8       13.058641   0.000000
 
  0.3478261E+00  0.1304348E+00  0.0000000E+00  0.1972549E-02
    1       -7.457315   1.000000
    2        0.256760   1.000000
    3        4.013172   1.000000
    4        4.020890   1.000000
    5        9.505516   0.000000
    6       11.450661   0.000000
    7       12.586151   0.000000
    8       13.367638   0.000000
 
  0.3913043E+00  0.1304348E+00  0.0000000E+00  0.1972549E-02
    1       -7.053594   1.000000
    2       -0.604375   1.000000
    3        3.743751   1.000000
    4        3.943732   1.000000
    5        9.557118   0.000000
    6       11.449099   0.000000
    7       12.527192   0.000000
    8       13.847799   0.000000
 
  0.4347826E+00  0.1304348E+00  0.0000000E+00  0.1972549E-02
    1       -6.644666   1.000000
    2       -1.362222   1.000000
    3        3.501457   1.000000
    4        3.918957   1.000000
    5        9.583526   0.000000
    6       11.427194   0.000000
    7       12.409312   0.000000
    8       14.438451   0.000000
 
  0.4782609E+00  0.1304348E+00  0.0000000E+00  0.1972549E-02
    1       -6.281709   1.000000
    2       -1.959892   1.000000
    3        3.294457   1.000000
    4        3.946304   1.000000
    5        9.614559   0.000000
    6       11.406255   0.000000
    7       12.264995   0.000000
    8       15.028083   0.000000
 
 -0.4782609E+00  0.1304348E+00  0.0000000E+00  0.1972549E-02
    1       -6.053755   1.000000
    2       -2.304914   1.000000
    3        3.128746   1.000000
    4        4.024440   1.000000
    5        9.665516   0.000000
    6       11.404398   0.000000
    7       12.116218   0.000000
    8       15.482805   0.000000
 
 -0.4347826E+00  0.1304348E+00  0.0000000E+00  0.1972549E-02
    1       -6.055584   1.000000
    2       -2.300995   1.000000
    3        3.008937   1.000000
    4        4.151042   1.000000
    5        9.740960   0.000000
    6       11.432963   0.000000
    7       11.973681   0.000000
    8       15.684611   0.000000
 
 -0.3913043E+00  0.1304348E+00  0.0000000E+00  0.1972549E-02
    1       -6.286133   1.000000
    2       -1.949367   1.000000
    3        2.938764   1.000000
    4        4.322668   1.000000
    5        9.838538   0.000000
    6       11.497241   0.000000
    7       11.837280   0.000000
    8       15.589994   0.000000
 
 -0.3478261E+00  0.1304348E+00  0.0000000E+00  0.1972549E-02
    1       -6.650007   1.000000
    2       -1.347411   1.000000
    3        2.921467   1.000000
    4        4.534441   1.000000
    5        9.951736   0.000000
    6       11.594801   0.000000
    7       11.696462   0.000000
    8       15.239504   0.000000
 
 -0.3043478E+00  0.1304348E+00  0.0000000E+00  0.1972549E-02
    1       -7.058834   1.000000
    2       -0.588002   1.000000
    3        2.960294   1.000000
    4        4.779632   1.000000
    5       10.071906   0.000000
    6       11.531456   0.000000
    7       11.709410   0.000000
    8       14.733834   0.000000
 
 -0.2608696E+00  0.1304348E+00  0.0000000E+00  0.1972549E-02
    1       -7.462017   1.000000
    2        0.269777   1.000000
    3        3.059603   1.000000
    4        5.048613   1.000000
    5       10.188845   0.000000
    6       11.319688   0.000000
    7       11.798482   0.000000
    8       14.196018   0.000000
 
 -0.2173913E+00  0.1304348E+00  0.0000000E+00  0.1972549E-02
    1       -7.833535   1.000000
    2        1.182782   1.000000
    3        3.228156   1.000000
    4        5.327345   1.000000
    5       10.288502   0.000000
    6       11.050850   0.000000
    7       11.780190   0.000000
    8       13.751236   0.000000
 
 -0.1739130E+00  0.1304348E+00  0.0000000E+00  0.1972549E-02
    1       -8.159643   1.000000
    2        2.097604   1.000000
    3        3.490912   1.000000
    4        5.594916   1.000000
    5       10.345202   0.000000
    6       10.743783   0.000000
    7       11.580527   0.000000
    8       13.481156   0.000000
 
 -0.1304348E+00  0.1304348E+00  0.0000000E+00  0.9862743E-03
    1       -8.432716   1.000000
    2        2.904315   1.000000
    3        3.923971   1.000000
    4        5.820446   1.000000
    5       10.308847   0.000000
    6       10.449518   0.000000
    7       11.263526   0.000000
    8       13.314905   0.000000
 
  0.1739130E+00  0.1739130E+00  0.0000000E+00  0.4931372E-03
    1       -8.511108   1.000000
    2        3.935984   1.000000
    3        4.516389   1.000000
    4        4.516389   1.000000
    5        8.543261   0.000000
    6       12.060597   0.000000
    7       12.200266   0.000000
    8       12.200266   0.000000
 
  0.2173913E+00  0.1739130E+00  0.0000000E+00  0.1972549E-02
    1       -8.315390   1.000000
    2        3.248784   1.000000
    3        4.248792   1.000000
    4        4.327155   1.000000
    5        8.495926   0.000000
    6       11.796977   0.000000
    7       12.629946   0.000000
    8       12.630911   0.000000
 
  0.2608696E+00  0.1739130E+00  0.0000000E+00  0.1972549E-02
    1       -8.061568   1.000000
    2        2.384755   1.000000
    3        4.019860   1.000000
    4        4.108332   1.000000
    5        8.646845   0.000000
    6       11.617664   0.000000
    7       12.830161   0.000000
    8       12.973971   0.000000
 
  0.3043478E+00  0.1739130E+00  0.0000000E+00  0.1972549E-02
    1       -7.753453   1.000000
    2        1.481861   1.000000
    3        3.822659   1.000000
    4        3.837075   1.000000
    5        8.876853   0.000000
    6       11.595044   0.000000
    7       12.877174   0.000000
    8       13.194124   0.000000
 
  0.3478261E+00  0.1739130E+00  0.0000000E+00  0.1972549E-02
    1       -7.397567   1.000000
    2        0.588898   1.000000
    3        3.509184   1.000000
    4        3.705101   1.000000
    5        9.072373   0.000000
    6       11.753208   0.000000
    7       12.901230   0.000000
    8       13.278459   0.000000
 
  0.3913043E+00  0.1739130E+00  0.0000000E+00  0.1972549E-02
    1       -7.005397   1.000000
    2       -0.259298   1.000000
    3        3.198441   1.000000
    4        3.626567   1.000000
    5        9.191108   0.000000
    6       11.986779   0.000000
    7       13.064746   0.000000
    8       13.246040   0.000000
 
  0.4347826E+00  0.1739130E+00  0.0000000E+00  0.1972549E-02
    1       -6.598308   1.000000
    2       -1.026813   1.000000
    3        2.909650   1.000000
    4        3.602661   1.000000
    5        9.260806   0.000000
    6       12.105818   0.000000
    7       13.133409   0.000000
    8       13.523010   0.000000
 
  0.4782609E+00  0.1739130E+00  0.0000000E+00  0.1972549E-02
    1       -6.217557   1.000000
    2       -1.663242   1.000000
    3        2.654946   1.000000
    4        3.633330   1.000000
    5        9.323313   0.000000
    6       12.115736   0.000000
    7       12.976550   0.000000
    8       14.201060   0.000000
 
 -0.4782609E+00  0.1739130E+00  0.0000000E+00  0.1972549E-02
    1       -5.938741   1.000000
    2       -2.087444   1.000000
    3        2.442637   1.000000
    4        3.717397   1.000000
    5        9.405591   0.000000
    6       12.097239   0.000000
    7       12.801483   0.000000
    8       14.927784   0.000000
 
 -0.4347826E+00  0.1739130E+00  0.0000000E+00  0.1972549E-02
    1       -5.861689   1.000000
    2       -2.196881   1.000000
    3        2.278906   1.000000
    4        3.852575   1.000000
    5        9.519374   0.000000
    6       12.087856   0.000000
    7       12.621971   0.000000
    8       15.502669   0.000000
 
 -0.3913043E+00  0.1739130E+00  0.0000000E+00  0.1972549E-02
    1       -6.023830   1.000000
    2       -1.953879   1.000000
    3        2.168959   1.000000
    4        4.035283   1.000000
    5        9.666013   0.000000
    6       12.102934   0.000000
    7       12.439914   0.000000
    8       15.635382   0.000000
 
 -0.3478261E+00  0.1739130E+00  0.0000000E+00  0.1972549E-02
    1       -6.351161   1.000000
    2       -1.435158   1.000000
    3        2.117997   1.000000
    4        4.260224   1.000000
    5        9.839311   0.000000
    6       12.148209   0.000000
    7       12.245809   0.000000
    8       15.270013   0.000000
 
 -0.3043478E+00  0.1739130E+00  0.0000000E+00  0.1972549E-02
    1       -6.747509   1.000000
    2       -0.744043   1.000000
    3        2.132944   1.000000
    4        4.519852   1.000000
    5       10.026451   0.000000
    6       12.020969   0.000000
    7       12.219206   0.000000
    8       14.668639   0.000000
 
 -0.2608696E+00  0.1739130E+00  0.0000000E+00  0.1972549E-02
    1       -7.151805   1.000000
    2        0.042088   1.000000
    3        2.226763   1.000000
    4        4.803216   1.000000
    5       10.207765   0.000000
    6       11.745825   0.000000
    7       12.285496   0.000000
    8       14.038662   0.000000
 
 -0.2173913E+00  0.1739130E+00  0.0000000E+00  0.1972549E-02
    1       -7.531886   1.000000
    2        0.851403   1.000000
    3        2.431633   1.000000
    4        5.094213   1.000000
    5       10.354655   0.000000
    6       11.417125   0.000000
    7       12.242816   0.000000
    8       13.564597   0.000000
 
 -0.1739130E+00  0.1739130E+00  0.0000000E+00  0.9862743E-03
    1       -7.870935   1.000000
    2        1.572896   1.000000
    3        2.828023   1.000000
    4        5.369246   1.000000
    5       10.422646   0.000000
    6       11.063600   0.000000
    7       11.959567   0.000000
    8       13.419305   0.000000
 
  0.2173913E+00  0.2173913E+00  0.0000000E+00  0.4931372E-03
    1       -8.140274   1.000000
    2        2.989304   1.000000
    3        3.973007   1.000000
    4        3.973007   1.000000
    5        8.216487   0.000000
    6       11.477874   0.000000
    7       13.127635   0.000000
    8       13.127635   0.000000
 
  0.2608696E+00  0.2173913E+00  0.0000000E+00  0.1972549E-02
    1       -7.906773   1.000000
    2        2.369107   1.000000
    3        3.731127   1.000000
    4        3.735460   1.000000
    5        8.189746   0.000000
    6       11.161038   0.000000
    7       13.479178   0.000000
    8       13.550544   0.000000
 
  0.3043478E+00  0.2173913E+00  0.0000000E+00  0.1972549E-02
    1       -7.618218   1.000000
    2        1.609489   1.000000
    3        3.436689   1.000000
    4        3.544254   1.000000
    5        8.358491   0.000000
    6       10.993109   0.000000
    7       13.607362   0.000000
    8       13.852676   0.000000
 