   2   2   0   0
  0.1396839E+02  0.3405889E-09  0.3405889E-09  0.3405889E-09  0.1000000E-15
  1.000000000000000E-004
  CAR 
 unknown system                          
     18.26628833    -10.57008383  301      6.34762998      1.00000000
    -10.570  0.0000E+00  0.0000E+00
    -10.474  0.0000E+00  0.0000E+00
    -10.378  0.0000E+00  0.0000E+00
    -10.282  0.0000E+00  0.0000E+00
    -10.186  0.0000E+00  0.0000E+00
    -10.089  0.0000E+00  0.0000E+00
     -9.993  0.0000E+00  0.0000E+00
     -9.897  0.0000E+00  0.0000E+00
     -9.801  0.4855E-18  0.4667E-19
     -9.705  0.8374E-14  0.8049E-15
     -9.609  0.2558E-10  0.2459E-11
     -9.513  0.1510E-07  0.1454E-08
     -9.417  0.1877E-05  0.1819E-06
     -9.321  0.5285E-04  0.5261E-05
     -9.224  0.3944E-03  0.4318E-04
     -9.128  0.1111E-02  0.1499E-03
     -9.032  0.1721E-02  0.3154E-03
     -8.936  0.2268E-02  0.5333E-03
     -8.840  0.2527E-02  0.7762E-03
     -8.744  0.2959E-02  0.1061E-02
     -8.648  0.3396E-02  0.1387E-02
     -8.552  0.3216E-02  0.1696E-02
     -8.455  0.4047E-02  0.2085E-02
     -8.359  0.4290E-02  0.2498E-02
     -8.263  0.3861E-02  0.2869E-02
     -8.167  0.4672E-02  0.3318E-02
     -8.071  0.5276E-02  0.3825E-02
     -7.975  0.5076E-02  0.4313E-02
     -7.879  0.4559E-02  0.4751E-02
     -7.783  0.5963E-02  0.5324E-02
     -7.686  0.6510E-02  0.5950E-02
     -7.590  0.5890E-02  0.6516E-02
     -7.494  0.5464E-02  0.7041E-02
     -7.398  0.6855E-02  0.7700E-02
     -7.302  0.8027E-02  0.8472E-02
     -7.206  0.6874E-02  0.9132E-02
     -7.110  0.7191E-02  0.9824E-02
     -7.014  0.7296E-02  0.1052E-01
     -6.917  0.9117E-02  0.1140E-01
     -6.821  0.9565E-02  0.1232E-01
     -6.725  0.9124E-02  0.1320E-01
     -6.629  0.8841E-02  0.1405E-01
     -6.533  0.1089E-01  0.1509E-01
     -6.437  0.1435E-01  0.1647E-01
     -6.341  0.1343E-01  0.1777E-01
     -6.245  0.1132E-01  0.1885E-01
     -6.149  0.1274E-01  0.2008E-01
     -6.052  0.1469E-01  0.2149E-01
     -5.956  0.1197E-01  0.2264E-01
     -5.860  0.1122E-01  0.2372E-01
     -5.764  0.1231E-01  0.2490E-01
     -5.668  0.1251E-01  0.2611E-01
     -5.572  0.1166E-01  0.2723E-01
     -5.476  0.1111E-01  0.2829E-01
     -5.380  0.1256E-01  0.2950E-01
     -5.283  0.1224E-01  0.3068E-01
     -5.187  0.1294E-01  0.3192E-01
     -5.091  0.1027E-01  0.3291E-01
     -4.995  0.3831E-02  0.3328E-01
     -4.899  0.5693E-03  0.3333E-01
     -4.803  0.2395E-04  0.3333E-01
     -4.707  0.2134E-06  0.3333E-01
     -4.611  0.3501E-09  0.3333E-01
     -4.514  0.9937E-13  0.3333E-01
     -4.418  0.4850E-17  0.3333E-01
     -4.322  0.0000E+00  0.3333E-01
     -4.226  0.0000E+00  0.3333E-01
     -4.130  0.0000E+00  0.3333E-01
     -4.034  0.0000E+00  0.3333E-01
     -3.938  0.0000E+00  0.3333E-01
     -3.842  0.0000E+00  0.3333E-01
     -3.745  0.0000E+00  0.3333E-01
     -3.649  0.0000E+00  0.3333E-01
     -3.553  0.0000E+00  0.3333E-01
     -3.457  0.0000E+00  0.3333E-01
     -3.361  0.0000E+00  0.3333E-01
     -3.265  0.0000E+00  0.3333E-01
     -3.169  0.7824E-15  0.3333E-01
     -3.073  0.5981E-11  0.3333E-01
     -2.977  0.7627E-08  0.3333E-01
     -2.880  0.1677E-05  0.3333E-01
     -2.784  0.6833E-04  0.3334E-01
     -2.688  0.6238E-03  0.3340E-01
     -2.592  0.2067E-02  0.3360E-01
     -2.496  0.4053E-02  0.3399E-01
     -2.400  0.6088E-02  0.3457E-01
     -2.304  0.9960E-02  0.3553E-01
     -2.208  0.1247E-01  0.3673E-01
     -2.111  0.1795E-01  0.3845E-01
     -2.015  0.2714E-01  0.4106E-01
     -1.919  0.2691E-01  0.4365E-01
     -1.823  0.1978E-01  0.4555E-01
     -1.727  0.1593E-01  0.4708E-01
     -1.631  0.1391E-01  0.4842E-01
     -1.535  0.1078E-01  0.4946E-01
     -1.439  0.8837E-02  0.5031E-01
     -1.342  0.9995E-02  0.5127E-01
     -1.246  0.9354E-02  0.5217E-01
     -1.150  0.6562E-02  0.5280E-01
     -1.054  0.7465E-02  0.5351E-01
     -0.958  0.7209E-02  0.5421E-01
     -0.862  0.6020E-02  0.5479E-01
     -0.766  0.6246E-02  0.5539E-01
     -0.670  0.5643E-02  0.5593E-01
     -0.573  0.5100E-02  0.5642E-01
     -0.477  0.5461E-02  0.5694E-01
     -0.381  0.4614E-02  0.5739E-01
     -0.285  0.5094E-02  0.5788E-01
     -0.189  0.4986E-02  0.5836E-01
     -0.093  0.2931E-02  0.5864E-01
      0.003  0.4176E-02  0.5904E-01
      0.099  0.9055E-02  0.5991E-01
      0.195  0.1044E-01  0.6091E-01
      0.292  0.9447E-02  0.6182E-01
      0.388  0.1340E-01  0.6311E-01
      0.484  0.1605E-01  0.6465E-01
      0.580  0.1499E-01  0.6609E-01
      0.676  0.1132E-01  0.6718E-01
      0.772  0.1307E-01  0.6844E-01
      0.868  0.1623E-01  0.7000E-01
      0.964  0.1388E-01  0.7133E-01
      1.061  0.1146E-01  0.7243E-01
      1.157  0.1176E-01  0.7356E-01
      1.253  0.1405E-01  0.7492E-01
      1.349  0.1422E-01  0.7628E-01
      1.445  0.1599E-01  0.7782E-01
      1.541  0.1530E-01  0.7929E-01
      1.637  0.1494E-01  0.8073E-01
      1.733  0.1490E-01  0.8216E-01
      1.830  0.1463E-01  0.8356E-01
      1.926  0.1939E-01  0.8543E-01
      2.022  0.2357E-01  0.8769E-01
      2.118  0.1913E-01  0.8953E-01
      2.214  0.1707E-01  0.9117E-01
      2.310  0.1775E-01  0.9288E-01
      2.406  0.2015E-01  0.9482E-01
      2.502  0.2185E-01  0.9692E-01
      2.599  0.1824E-01  0.9867E-01
      2.695  0.1616E-01  0.1002E+00
      2.791  0.1808E-01  0.1020E+00
      2.887  0.1874E-01  0.1038E+00
      2.983  0.1675E-01  0.1054E+00
      3.079  0.1761E-01  0.1071E+00
      3.175  0.1725E-01  0.1087E+00
      3.271  0.1648E-01  0.1103E+00
      3.367  0.1782E-01  0.1120E+00
      3.464  0.1616E-01  0.1136E+00
      3.560  0.1544E-01  0.1151E+00
      3.656  0.1602E-01  0.1166E+00
      3.752  0.1473E-01  0.1180E+00
      3.848  0.1594E-01  0.1195E+00
      3.944  0.1500E-01  0.1210E+00
      4.040  0.1573E-01  0.1225E+00
      4.136  0.1460E-01  0.1239E+00
      4.233  0.1213E-01  0.1251E+00
      4.329  0.1064E-01  0.1261E+00
      4.425  0.9731E-02  0.1270E+00
      4.521  0.7729E-02  0.1278E+00
      4.617  0.6640E-02  0.1284E+00
      4.713  0.7399E-02  0.1291E+00
      4.809  0.7757E-02  0.1299E+00
      4.905  0.5460E-02  0.1304E+00
      5.002  0.5095E-02  0.1309E+00
      5.098  0.5208E-02  0.1314E+00
      5.194  0.3222E-02  0.1317E+00
      5.290  0.2748E-02  0.1320E+00
      5.386  0.4127E-02  0.1323E+00
      5.482  0.3156E-02  0.1327E+00
      5.578  0.2367E-02  0.1329E+00
      5.674  0.2168E-02  0.1331E+00
      5.771  0.1207E-02  0.1332E+00
      5.867  0.8674E-03  0.1333E+00
      5.963  0.4124E-03  0.1333E+00
      6.059  0.6077E-04  0.1333E+00
      6.155  0.2806E-05  0.1333E+00
      6.251  0.3344E-07  0.1333E+00
      6.347  0.7851E-10  0.1333E+00
      6.443  0.3193E-13  0.1333E+00
      6.539  0.2223E-17  0.1333E+00
      6.636  0.2490E-14  0.1333E+00
      6.732  0.1311E-10  0.1333E+00
      6.828  0.1150E-07  0.1333E+00
      6.924  0.1735E-05  0.1333E+00
      7.020  0.4796E-04  0.1333E+00
      7.116  0.3043E-03  0.1334E+00
      7.212  0.9529E-03  0.1335E+00
      7.308  0.2098E-02  0.1337E+00
      7.405  0.2770E-02  0.1339E+00
      7.501  0.4038E-02  0.1343E+00
      7.597  0.4671E-02  0.1348E+00
      7.693  0.4693E-02  0.1352E+00
      7.789  0.7127E-02  0.1359E+00
      7.885  0.8321E-02  0.1367E+00
      7.981  0.6675E-02  0.1373E+00
      8.077  0.6980E-02  0.1380E+00
      8.174  0.7956E-02  0.1388E+00
      8.270  0.8467E-02  0.1396E+00
      8.366  0.1103E-01  0.1407E+00
      8.462  0.1086E-01  0.1417E+00
      8.558  0.1164E-01  0.1428E+00
      8.654  0.1539E-01  0.1443E+00
      8.750  0.1576E-01  0.1458E+00
      8.846  0.1614E-01  0.1474E+00
      8.943  0.1822E-01  0.1491E+00
      9.039  0.2327E-01  0.1513E+00
      9.135  0.2405E-01  0.1537E+00
      9.231  0.2453E-01  0.1560E+00
      9.327  0.2368E-01  0.1583E+00
      9.423  0.1965E-01  0.1602E+00
      9.519  0.2231E-01  0.1623E+00
      9.615  0.2255E-01  0.1645E+00
      9.711  0.1870E-01  0.1663E+00
      9.808  0.1605E-01  0.1678E+00
      9.904  0.1503E-01  0.1693E+00
     10.000  0.1453E-01  0.1707E+00
     10.096  0.1134E-01  0.1718E+00
     10.192  0.1008E-01  0.1727E+00
     10.288  0.1149E-01  0.1738E+00
     10.384  0.1374E-01  0.1752E+00
     10.480  0.1963E-01  0.1770E+00
     10.577  0.2776E-01  0.1797E+00
     10.673  0.3031E-01  0.1826E+00
     10.769  0.2934E-01  0.1855E+00
     10.865  0.2460E-01  0.1878E+00
     10.961  0.2204E-01  0.1899E+00
     11.057  0.2405E-01  0.1922E+00
     11.153  0.2236E-01  0.1944E+00
     11.249  0.2201E-01  0.1965E+00
     11.346  0.1838E-01  0.1983E+00
     11.442  0.1103E-01  0.1993E+00
     11.538  0.1032E-01  0.2003E+00
     11.634  0.1706E-01  0.2020E+00
     11.730  0.2317E-01  0.2042E+00
     11.826  0.2149E-01  0.2063E+00
     11.922  0.1886E-01  0.2081E+00
     12.018  0.1777E-01  0.2098E+00
     12.115  0.1762E-01  0.2115E+00
     12.211  0.1915E-01  0.2133E+00
     12.307  0.1664E-01  0.2149E+00
     12.403  0.1727E-01  0.2166E+00
     12.499  0.1874E-01  0.2184E+00
     12.595  0.1850E-01  0.2202E+00
     12.691  0.2151E-01  0.2222E+00
     12.787  0.2124E-01  0.2243E+00
     12.883  0.1595E-01  0.2258E+00
     12.980  0.1462E-01  0.2272E+00
     13.076  0.1828E-01  0.2290E+00
     13.172  0.1960E-01  0.2308E+00
     13.268  0.1688E-01  0.2325E+00
     13.364  0.1474E-01  0.2339E+00
     13.460  0.1146E-01  0.2350E+00
     13.556  0.9533E-02  0.2359E+00
     13.652  0.9101E-02  0.2368E+00
     13.749  0.1173E-01  0.2379E+00
     13.845  0.1530E-01  0.2394E+00
     13.941  0.1413E-01  0.2407E+00
     14.037  0.1453E-01  0.2421E+00
     14.133  0.1458E-01  0.2435E+00
     14.229  0.1303E-01  0.2448E+00
     14.325  0.1309E-01  0.2460E+00
     14.421  0.1099E-01  0.2471E+00
     14.518  0.1150E-01  0.2482E+00
     14.614  0.1195E-01  0.2494E+00
     14.710  0.1635E-01  0.2509E+00
     14.806  0.2392E-01  0.2532E+00
     14.902  0.2768E-01  0.2559E+00
     14.998  0.2304E-01  0.2581E+00
     15.094  0.1333E-01  0.2594E+00
     15.190  0.5963E-02  0.2600E+00
     15.287  0.3935E-02  0.2603E+00
     15.383  0.2702E-02  0.2606E+00
     15.479  0.3832E-02  0.2610E+00
     15.575  0.8424E-02  0.2618E+00
     15.671  0.7148E-02  0.2625E+00
     15.767  0.5975E-02  0.2630E+00
     15.863  0.7968E-02  0.2638E+00
     15.959  0.5151E-02  0.2643E+00
     16.055  0.2864E-02  0.2646E+00
     16.152  0.2317E-02  0.2648E+00
     16.248  0.2200E-02  0.2650E+00
     16.344  0.2546E-02  0.2652E+00
     16.440  0.3071E-02  0.2655E+00
     16.536  0.4165E-02  0.2659E+00
     16.632  0.3270E-02  0.2663E+00
     16.728  0.1227E-02  0.2664E+00
     16.824  0.7626E-03  0.2664E+00
     16.921  0.1206E-02  0.2666E+00
     17.017  0.8637E-03  0.2666E+00
     17.113  0.1947E-03  0.2667E+00
     17.209  0.1060E-04  0.2667E+00
     17.305  0.1193E-06  0.2667E+00
     17.401  0.2505E-09  0.2667E+00
     17.497  0.9178E-13  0.2667E+00
     17.593  0.5591E-17  0.2667E+00
     17.690  0.0000E+00  0.2667E+00
     17.786  0.0000E+00  0.2667E+00
     17.882  0.0000E+00  0.2667E+00
     17.978  0.0000E+00  0.2667E+00
     18.074  0.0000E+00  0.2667E+00
     18.170  0.0000E+00  0.2667E+00
     18.266  0.0000E+00  0.2667E+00
