    2    2   60    1
  0.1396839E+02  0.3405889E-09  0.3405889E-09  0.3405889E-09  0.1000000E-15
  1.000000000000000E-004
  CAR 
 unknown system                          
      8    220      8
 
  0.0000000E+00  0.0000000E+00  0.0000000E+00  0.1457938E-03
    1       -9.259340   1.000000
    2        5.905565   1.000000
    3        5.905565   1.000000
    4        5.905565   1.000000
    5        9.145043   0.000000
    6        9.145043   0.000000
    7        9.145043   0.000000
    8       10.304236   0.000000
 
  0.5263158E-01  0.0000000E+00  0.0000000E+00  0.1166351E-02
    1       -9.214735   1.000000
    2        5.442068   1.000000
    3        5.815093   1.000000
    4        5.815093   1.000000
    5        9.234118   0.000000
    6        9.263859   0.000000
    7        9.263859   0.000000
    8       10.575931   0.000000
 
  0.1052632E+00  0.0000000E+00  0.0000000E+00  0.1166351E-02
    1       -9.081458   1.000000
    2        4.410436   1.000000
    3        5.585086   1.000000
    4        5.585087   1.000000
    5        9.239188   0.000000
    6        9.567854   0.000000
    7        9.567854   0.000000
    8       11.309146   0.000000
 
  0.1578947E+00  0.0000000E+00  0.0000000E+00  0.1166351E-02
    1       -8.861415   1.000000
    2        3.196602   1.000000
    3        5.291865   1.000000
    4        5.291866   1.000000
    5        9.122862   0.000000
    6        9.948284   0.000000
    7        9.948284   0.000000
    8       12.196911   0.000000
 
  0.2105263E+00  0.0000000E+00  0.0000000E+00  0.1166351E-02
    1       -8.558459   1.000000
    2        1.954721   1.000000
    3        4.992469   1.000000
    4        4.992469   1.000000
    5        8.967084   0.000000
    6       10.299549   0.000000
    7       10.299549   0.000000
    8       13.054474   0.000000
 
  0.2631579E+00  0.0000000E+00  0.0000000E+00  0.1166351E-02
    1       -8.179715   1.000000
    2        0.752101   1.000000
    3        4.719440   1.000000
    4        4.719440   1.000000
    5        8.812825   0.000000
    6       10.546199   0.000000
    7       10.546199   0.000000
    8       13.800397   0.000000
 
  0.3157895E+00  0.0000000E+00  0.0000000E+00  0.1166351E-02
    1       -7.738886   1.000000
    2       -0.368488   1.000000
    3        4.489882   1.000000
    4        4.489883   1.000000
    5        8.679150   0.000000
    6       10.666174   0.000000
    7       10.666174   0.000000
    8       14.346766   0.000000
 
  0.3684211E+00  0.0000000E+00  0.0000000E+00  0.1166351E-02
    1       -7.263914   1.000000
    2       -1.363292   1.000000
    3        4.312861   1.000000
    4        4.312861   1.000000
    5        8.575105   0.000000
    6       10.690958   0.000000
    7       10.690959   0.000000
    8       14.626060   0.000000
 
  0.4210526E+00  0.0000000E+00  0.0000000E+00  0.1166351E-02
    1       -6.814892   1.000000
    2       -2.163071   1.000000
    3        4.193037   1.000000
    4        4.193037   1.000000
    5        8.504601   0.000000
    6       10.672397   0.000000
    7       10.672397   0.000000
    8       14.706175   0.000000
 
  0.4736842E+00  0.0000000E+00  0.0000000E+00  0.1166351E-02
    1       -6.513894   1.000000
    2       -2.640603   1.000000
    3        4.132675   1.000000
    4        4.132675   1.000000
    5        8.469118   0.000000
    6       10.652431   0.000000
    7       10.652431   0.000000
    8       14.712826   0.000000
 
  0.5263158E-01  0.5263158E-01  0.0000000E+00  0.8747631E-03
    1       -9.199846   1.000000
    2        5.589008   1.000000
    3        5.632614   1.000000
    4        5.632614   1.000000
    5        8.972299   0.000000
    6        9.482759   0.000000
    7        9.482759   0.000000
    8       10.602559   0.000000
 
  0.1052632E+00  0.5263158E-01  0.0000000E+00  0.3499052E-02
    1       -9.096072   1.000000
    2        4.738961   1.000000
    3        5.347254   1.000000
    4        5.572640   1.000000
    5        8.962935   0.000000
    6        9.684753   0.000000
    7        9.854535   0.000000
    8       11.117547   0.000000
 
  0.1578947E+00  0.5263158E-01  0.0000000E+00  0.3499052E-02
    1       -8.904835   1.000000
    2        3.589971   1.000000
    3        5.030197   1.000000
    4        5.369379   1.000000
    5        9.108115   0.000000
    6        9.739370   0.000000
    7       10.278334   0.000000
    8       11.914679   0.000000
 
  0.2105263E+00  0.5263158E-01  0.0000000E+00  0.3499052E-02
    1       -8.629230   1.000000
    2        2.366000   1.000000
    3        4.727866   1.000000
    4        5.085622   1.000000
    5        9.150190   0.000000
    6        9.911126   0.000000
    7       10.659720   0.000000
    8       12.692394   0.000000
 
  0.2631579E+00  0.5263158E-01  0.0000000E+00  0.3499052E-02
    1       -8.275069   1.000000
    2        1.156746   1.000000
    3        4.466165   1.000000
    4        4.783907   1.000000
    5        9.059879   0.000000
    6       10.169463   0.000000
    7       10.923676   0.000000
    8       13.360908   0.000000
 
  0.3157895E+00  0.5263158E-01  0.0000000E+00  0.3499052E-02
    1       -7.853368   1.000000
    2        0.012341   1.000000
    3        4.258845   1.000000
    4        4.499784   1.000000
    5        8.940304   0.000000
    6       10.363449   0.000000
    7       11.039877   0.000000
    8       13.927748   0.000000
 
  0.3684211E+00  0.5263158E-01  0.0000000E+00  0.3499052E-02
    1       -7.386005   1.000000
    2       -1.024685   1.000000
    3        4.112951   1.000000
    4        4.252380   1.000000
    5        8.833759   0.000000
    6       10.462643   0.000000
    7       11.033881   0.000000
    8       14.381477   0.000000
 
  0.4210526E+00  0.5263158E-01  0.0000000E+00  0.3499052E-02
    1       -6.919371   1.000000
    2       -1.896167   1.000000
    3        4.031532   1.000000
    4        4.052529   1.000000
    5        8.754718   0.000000
    6       10.506804   0.000000
    7       10.960115   0.000000
    8       14.663932   0.000000
 
  0.4736842E+00  0.5263158E-01  0.0000000E+00  0.3499052E-02
    1       -6.552021   1.000000
    2       -2.496848   1.000000
    3        3.906994   1.000000
    4        4.015118   1.000000
    5        8.708646   0.000000
    6       10.543485   0.000000
    7       10.867945   0.000000
    8       14.786650   0.000000
 
 -0.4736842E+00  0.5263158E-01  0.0000000E+00  0.3499052E-02
    1       -6.440498   1.000000
    2       -2.666820   1.000000
    3        3.820326   1.000000
    4        4.062549   1.000000
    5        8.697398   0.000000
    6       10.601754   0.000000
    7       10.787033   0.000000
    8       14.819915   0.000000
 
 -0.4210526E+00  0.5263158E-01  0.0000000E+00  0.3499052E-02
    1       -6.654560   1.000000
    2       -2.335510   1.000000
    3        3.795882   1.000000
    4        4.171381   1.000000
    5        8.721345   0.000000
    6       10.688672   0.000000
    7       10.725569   0.000000
    8       14.791360   0.000000
 
 -0.3684211E+00  0.5263158E-01  0.0000000E+00  0.3499052E-02
    1       -7.070528   1.000000
    2       -1.628251   1.000000
    3        3.835770   1.000000
    4        4.337824   1.000000
    5        8.779885   0.000000
    6       10.670356   0.000000
    7       10.789155   0.000000
    8       14.657468   0.000000
 
 -0.3157895E+00  0.5263158E-01  0.0000000E+00  0.3499052E-02
    1       -7.545058   1.000000
    2       -0.692856   1.000000
    3        3.940977   1.000000
    4        4.556418   1.000000
    5        8.871293   0.000000
    6       10.587730   0.000000
    7       10.864124   0.000000
    8       14.340724   0.000000
 
 -0.2631579E+00  0.5263158E-01  0.0000000E+00  0.3499052E-02
    1       -8.000689   1.000000
    2        0.384923   1.000000
    3        4.110857   1.000000
    4        4.818781   1.000000
    5        8.991375   0.000000
    6       10.432055   0.000000
    7       10.851572   0.000000
    8       13.834662   0.000000
 
 -0.2105263E+00  0.5263158E-01  0.0000000E+00  0.3499052E-02
    1       -8.401529   1.000000
    2        1.554458   1.000000
    3        4.342447   1.000000
    4        5.111180   1.000000
    5        9.130604   0.000000
    6       10.173618   0.000000
    7       10.689940   0.000000
    8       13.206336   0.000000
 
 -0.1578947E+00  0.5263158E-01  0.0000000E+00  0.3499052E-02
    1       -8.730354   1.000000
    2        2.771147   1.000000
    3        4.629511   1.000000
    4        5.409473   1.000000
    5        9.267647   0.000000
    6        9.834596   0.000000
    7       10.371965   0.000000
    8       12.490423   0.000000
 
 -0.1052632E+00  0.5263158E-01  0.0000000E+00  0.3499052E-02
    1       -8.978269   1.000000
    2        3.967580   1.000000
    3        4.963685   1.000000
    4        5.670653   1.000000
    5        9.352458   0.000000
    6        9.496111   0.000000
    7        9.976083   0.000000
    8       11.705986   0.000000
 
 -0.5263158E-01  0.5263158E-01  0.0000000E+00  0.1749526E-02
    1       -9.140536   1.000000
    2        4.967480   1.000000
    3        5.366996   1.000000
    4        5.827626   1.000000
    5        9.272850   0.000000
    6        9.297365   0.000000
    7        9.621133   0.000000
    8       10.976222   0.000000
 
  0.1052632E+00  0.1052632E+00  0.0000000E+00  0.8747631E-03
    1       -9.021915   1.000000
    2        4.805576   1.000000
    3        5.029627   1.000000
    4        5.029627   1.000000
    5        8.616141   0.000000
    6       10.277643   0.000000
    7       10.277644   0.000000
    8       11.145453   0.000000
 
  0.1578947E+00  0.1052632E+00  0.0000000E+00  0.3499052E-02
    1       -8.859953   1.000000
    2        3.883475   1.000000
    3        4.696276   1.000000
    4        4.915710   1.000000
    5        8.577622   0.000000
    6       10.458684   0.000000
    7       10.746952   0.000000
    8       11.642940   0.000000
 
  0.2105263E+00  0.1052632E+00  0.0000000E+00  0.3499052E-02
    1       -8.612718   1.000000
    2        2.739749   1.000000
    3        4.387865   1.000000
    4        4.705180   1.000000
    5        8.765875   0.000000
    6       10.407887   0.000000
    7       11.175587   0.000000
    8       12.221207   0.000000
 
  0.2631579E+00  0.1052632E+00  0.0000000E+00  0.3499052E-02
    1       -8.284952   1.000000
    2        1.563689   1.000000
    3        4.127658   1.000000
    4        4.408290   1.000000
    5        8.985499   0.000000
    6       10.394345   0.000000
    7       11.485898   0.000000
    8       12.633522   0.000000
 
  0.3157895E+00  0.1052632E+00  0.0000000E+00  0.3499052E-02
    1       -7.885632   1.000000
    2        0.423218   1.000000
    3        3.928600   1.000000
    4        4.089346   1.000000
    5        9.093671   0.000000
    6       10.455614   0.000000
    7       11.634009   0.000000
    8       13.020760   0.000000
 
  0.3684211E+00  0.1052632E+00  0.0000000E+00  0.3499052E-02
    1       -7.432123   1.000000
    2       -0.633591   1.000000
    3        3.785970   1.000000
    4        3.797504   1.000000
    5        9.099272   0.000000
    6       10.518991   0.000000
    7       11.632317   0.000000
    8       13.530374   0.000000
 
  0.4210526E+00  0.1052632E+00  0.0000000E+00  0.3499052E-02
    1       -6.960408   1.000000
    2       -1.553544   1.000000
    3        3.519226   1.000000
    4        3.737291   1.000000
    5        9.072054   0.000000
    6       10.548564   0.000000
    7       11.533288   0.000000
    8       14.128432   0.000000
 
  0.4736842E+00  0.1052632E+00  0.0000000E+00  0.3499052E-02
    1       -6.547881   1.000000
    2       -2.249493   1.000000
    3        3.301819   1.000000
    4        3.748228   1.000000
    5        9.055518   0.000000
    6       10.571836   0.000000
    7       11.392170   0.000000
    8       14.653874   0.000000
 
 -0.4736842E+00  0.1052632E+00  0.0000000E+00  0.3499052E-02
    1       -6.336723   1.000000
    2       -2.573990   1.000000
    3        3.142425   1.000000
    4        3.828504   1.000000
    5        9.066957   0.000000
    6       10.621283   0.000000
    7       11.246381   0.000000
    8       14.953726   0.000000
 
 -0.4210526E+00  0.1052632E+00  0.0000000E+00  0.3499052E-02
    1       -6.448370   1.000000
    2       -2.403712   1.000000
    3        3.047409   1.000000
    4        3.974367   1.000000
    5        9.110211   0.000000
    6       10.713128   0.000000
    7       11.111132   0.000000
    8       14.980203   0.000000
 
 -0.3684211E+00  0.1052632E+00  0.0000000E+00  0.3499052E-02
    1       -6.813344   1.000000
    2       -1.809358   1.000000
    3        3.021683   1.000000
    4        4.179987   1.000000
    5        9.183044   0.000000
    6       10.844344   0.000000
    7       10.980035   0.000000
    8       14.731134   0.000000
 
 -0.3157895E+00  0.1052632E+00  0.0000000E+00  0.3499052E-02
    1       -7.276985   1.000000
    2       -0.950199   1.000000
    3        3.069159   1.000000
    4        4.436810   1.000000
    5        9.280538   0.000000
    6       10.826365   0.000000
    7       10.986454   0.000000
    8       14.245246   0.000000
 
 -0.2631579E+00  0.1052632E+00  0.0000000E+00  0.3499052E-02
    1       -7.741653   1.000000
    2        0.066269   1.000000
    3        3.193541   1.000000
    4        4.732041   1.000000
    5        9.395015   0.000000
    6       10.611800   0.000000
    7       11.071896   0.000000
    8       13.656266   0.000000
 
 -0.2105263E+00  0.1052632E+00  0.0000000E+00  0.3499052E-02
    1       -8.161171   1.000000
    2        1.173839   1.000000
    3        3.400644   1.000000
    4        5.045628   1.000000
    5        9.511547   0.000000
    6       10.314327   0.000000
    7       10.991402   0.000000
    8       13.121254   0.000000
 
 -0.1578947E+00  0.1052632E+00  0.0000000E+00  0.3499052E-02
    1       -8.513614   1.000000
    2        2.303896   1.000000
    3        3.709402   1.000000
    4        5.344621   1.000000
    5        9.594975   0.000000
    6        9.964971   0.000000
    7       10.689515   0.000000
    8       12.684401   0.000000
 
 -0.1052632E+00  0.1052632E+00  0.0000000E+00  0.1749526E-02
    1       -8.787938   1.000000
    2        3.307484   1.000000
    3        4.201490   1.000000
    4        5.575917   1.000000
    5        9.560671   0.000000
    6        9.653916   0.000000
    7       10.302259   0.000000
    8       12.224195   0.000000
 
  0.1578947E+00  0.1578947E+00  0.0000000E+00  0.8747631E-03
    1       -8.727390   1.000000
    2        3.794635   1.000000
    3        4.350926   1.000000
    4        4.350927   1.000000
    5        8.210214   0.000000
    6       11.269434   0.000000
    7       11.269434   0.000000
    8       11.391587   0.000000
 
  0.2105263E+00  0.1578947E+00  0.0000000E+00  0.3499052E-02
    1       -8.509078   1.000000
    2        2.946176   1.000000
    3        4.033469   1.000000
    4        4.139304   1.000000
    5        8.176460   0.000000
    6       11.115675   0.000000
    7       11.763096   0.000000
    8       11.897492   0.000000
 
  0.2631579E+00  0.1578947E+00  0.0000000E+00  0.3499052E-02
    1       -8.209000   1.000000
    2        1.887261   1.000000
    3        3.767073   1.000000
    4        3.872402   1.000000
    5        8.387454   0.000000
    6       10.976041   0.000000
    7       12.147275   0.000000
    8       12.158350   0.000000
 
  0.3157895E+00  0.1578947E+00  0.0000000E+00  0.3499052E-02
    1       -7.834549   1.000000
    2        0.804029   1.000000
    3        3.532803   1.000000
    4        3.565059   1.000000
    5        8.642619   0.000000
    6       11.003357   0.000000
    7       12.268293   0.000000
    8       12.362647   0.000000
 
  0.3684211E+00  0.1578947E+00  0.0000000E+00  0.3499052E-02
    1       -7.399777   1.000000
    2       -0.234230   1.000000
    3        3.179735   1.000000
    4        3.434828   1.000000
    5        8.802499   0.000000
    6       11.135755   0.000000
    7       12.402339   0.000000
    8       12.510703   0.000000
 
  0.4210526E+00  0.1578947E+00  0.0000000E+00  0.3499052E-02
    1       -6.932998   1.000000
    2       -1.170243   1.000000
    3        2.850431   1.000000
    4        3.379783   1.000000
    5        8.875000   0.000000
    6       11.203577   0.000000
    7       12.310794   0.000000
    8       13.068151   0.000000
 
  0.4736842E+00  0.1578947E+00  0.0000000E+00  0.3499052E-02
    1       -6.494528   1.000000
    2       -1.927261   1.000000
    3        2.566399   1.000000
    4        3.400622   1.000000
    5        8.927265   0.000000
    6       11.199361   0.000000
    7       12.147646   0.000000
    8       13.842311   0.000000
 
 -0.4736842E+00  0.1578947E+00  0.0000000E+00  0.3499052E-02
    1       -6.204263   1.000000
    2       -2.376304   1.000000
    3        2.341176   1.000000
    4        3.495664   1.000000
    5        9.003185   0.000000
    6       11.189026   0.000000
    7       11.957936   0.000000
    8       14.599808   0.000000
 
 -0.4210526E+00  0.1578947E+00  0.0000000E+00  0.3499052E-02
    1       -6.208273   1.000000
    2       -2.367530   1.000000
    3        2.184347   1.000000
    4        3.660921   1.000000
    5        9.118034   0.000000
    6       11.209390   0.000000
    7       11.763263   0.000000
    8       15.006528   0.000000
 
 -0.3684211E+00  0.1578947E+00  0.0000000E+00  0.3499052E-02
    1       -6.503661   1.000000
    2       -1.904704   1.000000
    3        2.103803   1.000000
    4        3.889708   1.000000
    5        9.268890   0.000000
    6       11.275165   0.000000
    7       11.561840   0.000000
    8       14.793036   0.000000
 
 -0.3157895E+00  0.1578947E+00  0.0000000E+00  0.3499052E-02
    1       -6.943243   1.000000
    2       -1.141612   1.000000
    3        2.107893   1.000000
    4        4.171703   1.000000
    5        9.441149   0.000000
    6       11.330879   0.000000
    7       11.381743   0.000000
    8       14.166872   0.000000
 
 -0.2631579E+00  0.1578947E+00  0.0000000E+00  0.3499052E-02
    1       -7.409170   1.000000
    2       -0.213616   1.000000
    3        2.209858   1.000000
    4        4.491035   1.000000
    5        9.611331   0.000000
    6       11.037868   0.000000
    7       11.482464   0.000000
    8       13.450529   0.000000
 
 -0.2105263E+00  0.1578947E+00  0.0000000E+00  0.3499052E-02
    1       -7.842411   1.000000
    2        0.774784   1.000000
    3        2.443207   1.000000
    4        4.822657   1.000000
    5        9.744027   0.000000
    6       10.672303   0.000000
    7       11.425984   0.000000
    8       12.918765   0.000000
 
 -0.1578947E+00  0.1578947E+00  0.0000000E+00  0.1749526E-02
    1       -8.215184   1.000000
    2        1.670621   1.000000
    3        2.908161   1.000000
    4        5.126885   1.000000
    5        9.773385   0.000000
    6       10.281121   0.000000
    7       11.078707   0.000000
    8       12.745674   0.000000
 
  0.2105263E+00  0.2105263E+00  0.0000000E+00  0.8747631E-03
    1       -8.319805   1.000000
    2        2.685149   1.000000
    3        3.705280   1.000000
    4        3.705280   1.000000
    5        7.821232   0.000000
    6       10.973799   0.000000
    7       12.340897   0.000000
    8       12.340897   0.000000
 
  0.2631579E+00  0.2105263E+00  0.0000000E+00  0.3499052E-02
    1       -8.048233   1.000000
    2        1.934656   1.000000
    3        3.416128   1.000000
    4        3.427818   1.000000
    5        7.813151   0.000000
    6       10.659098   0.000000
    7       12.732035   0.000000
    8       12.825872   0.000000
 
  0.3157895E+00  0.2105263E+00  0.0000000E+00  0.3499052E-02
    1       -7.700551   1.000000
    2        1.017326   1.000000
    3        3.053643   1.000000
    4        3.215591   1.000000
    5        8.045941   0.000000
    6       10.542343   0.000000
    7       12.825926   0.000000
    8       13.144155   0.000000
 
  0.3684211E+00  0.2105263E+00  0.0000000E+00  0.3499052E-02
    1       -7.288463   1.000000
    2        0.073790   1.000000
    3        2.639824   1.000000
    4        3.076833   1.000000
    5        8.297959   0.000000
    6       10.752727   0.000000
    7       12.783616   0.000000
    8       13.264184   0.000000
 
  0.4210526E+00  0.2105263E+00  0.0000000E+00  0.3499052E-02
    1       -6.834765   1.000000
    2       -0.820196   1.000000
    3        2.233720   1.000000
    4        3.015744   1.000000
    5        8.448649   0.000000
    6       11.279387   0.000000
    7       12.757805   0.000000
    8       13.214798   0.000000
 
  0.4736842E+00  0.2105263E+00  0.0000000E+00  0.3499052E-02
    1       -6.386980   1.000000
    2       -1.587499   1.000000
    3        1.871414   1.000000
    4        3.033604   1.000000
    5        8.542692   0.000000
    6       11.828926   0.000000
    7       12.979205   0.000000
    8       13.056367   0.000000
 
 -0.4736842E+00  0.2105263E+00  0.0000000E+00  0.3499052E-02
    1       -6.042502   1.000000
    2       -2.113748   1.000000
    3        1.573227   1.000000
    4        3.129216   1.000000
    5        8.649201   0.000000
    6       12.035429   0.000000
    7       12.841631   0.000000
    8       13.691925   0.000000
 
 -0.4210526E+00  0.2105263E+00  0.0000000E+00  0.3499052E-02
    1       -5.947484   1.000000
    2       -2.244864   1.000000
    3        1.352700   1.000000
    4        3.298887   1.000000
    5        8.800834   0.000000
    6       12.071420   0.000000
    7       12.598520   0.000000
    8       14.531216   0.000000
 
 -0.3684211E+00  0.2105263E+00  0.0000000E+00  0.3499052E-02
    1       -6.158520   1.000000
    2       -1.925063   1.000000
    3        1.222219   1.000000
    4        3.535913   1.000000
    5        9.003354   0.000000
    6       12.097794   0.000000
    7       12.327767   0.000000
    8       14.755825   0.000000
 
 -0.3157895E+00  0.2105263E+00  0.0000000E+00  0.3499052E-02
    1       -6.558445   1.000000
    2       -1.285322   1.000000
    3        1.199903   1.000000
    4        3.829479   1.000000
    5        9.244758   0.000000
    6       12.007018   0.000000
    7       12.152977   0.000000
    8       14.120829   0.000000
 
 -0.2631579E+00  0.2105263E+00  0.0000000E+00  0.3499052E-02
    1       -7.014820   1.000000
    2       -0.501527   1.000000
    3        1.326961   1.000000
    4        4.162508   1.000000
    5        9.495234   0.000000
    6       11.608975   0.000000
    7       12.215299   0.000000
    8       13.297186   0.000000
 
 -0.2105263E+00  0.2105263E+00  0.0000000E+00  0.1749526E-02
    1       -7.454501   1.000000
    2        0.239032   1.000000
    3        1.707015   1.000000
    4        4.507808   1.000000
    5        9.697467   0.000000
    6       11.140888   0.000000
    7       12.011735   0.000000
    8       12.818062   0.000000
 
  0.2631579E+00  0.2631579E+00  0.0000000E+00  0.8747631E-03
    1       -7.805400   1.000000
    2        1.538125   1.000000
    3        3.136773   1.000000
    4        3.136773   1.000000
    5        7.492934   0.000000
    6       10.153522   0.000000
    7       13.437003   0.000000
    8       13.437004   0.000000
 
  0.3157895E+00  0.2631579E+00  0.0000000E+00  0.3499052E-02
    1       -7.485916   1.000000
    2        0.868187   1.000000
    3        2.813522   1.000000
    4        2.910065   1.000000
    5        7.523573   0.000000
    6        9.823682   0.000000
    7       13.785436   0.000000
    8       13.894350   0.000000
 
  0.3684211E+00  0.2631579E+00  0.0000000E+00  0.3499052E-02
    1       -7.099796   1.000000
    2        0.108212   1.000000
    3        2.357997   1.000000
    4        2.757082   1.000000
    5        7.775429   0.000000
    6        9.793009   0.000000
    7       13.835007   0.000000
    8       14.138317   0.000000
 
  0.4210526E+00  0.2631579E+00  0.0000000E+00  0.3499052E-02
    1       -6.666209   1.000000
    2       -0.655335   1.000000
    3        1.853364   1.000000
    4        2.682885   1.000000
    5        8.004428   0.000000
    6       10.178652   0.000000
    7       13.763700   0.000000
    8       14.171008   0.000000
 
  0.4736842E+00  0.2631579E+00  0.0000000E+00  0.3499052E-02
    1       -6.223846   1.000000
    2       -1.350773   1.000000
    3        1.378772   1.000000
    4        2.689479   1.000000
    5        8.139107   0.000000
    6       10.933211   0.000000
    7       13.681257   0.000000
    8       14.046170   0.000000
 
 -0.4736842E+00  0.2631579E+00  0.0000000E+00  0.3499052E-02
    1       -5.851631   1.000000
    2       -1.877804   1.000000
    3        0.977688   1.000000
    4        2.776249   1.000000
    5        8.259507   0.000000
    6       11.852287   0.000000
    7       13.678559   0.000000
    8       13.823060   0.000000
 
 -0.4210526E+00  0.2631579E+00  0.0000000E+00  0.3499052E-02
    1       -5.681004   1.000000
    2       -2.093654   1.000000
    3        0.674408   1.000000
    4        2.940026   1.000000
    5        8.421865   0.000000
    6       12.614151   0.000000
    7       13.535623   0.000000
    8       13.957803   0.000000
 
 -0.3684211E+00  0.2631579E+00  0.0000000E+00  0.3499052E-02
    1       -5.804209   1.000000
    2       -1.910033   1.000000
    3        0.491811   1.000000
    4        3.174573   1.000000
    5        8.642985   0.000000
    6       12.917654   0.000000
    7       13.185075   0.000000
    8       14.531454   0.000000
 
 -0.3157895E+00  0.2631579E+00  0.0000000E+00  0.3499052E-02
    1       -6.148290   1.000000
    2       -1.434925   1.000000
    3        0.473391   1.000000
    4        3.469456   1.000000
    5        8.917550   0.000000
    6       12.748443   0.000000
    7       13.006085   0.000000
    8       14.164614   0.000000
 
 -0.2631579E+00  0.2631579E+00  0.0000000E+00  0.1749526E-02
    1       -6.580263   1.000000
    2       -0.900427   1.000000
    3        0.718190   1.000000
    4        3.807790   1.000000
    5        9.220825   0.000000
    6       12.210496   0.000000
    7       12.952539   0.000000
    8       13.369314   0.000000
 
  0.3157895E+00  0.3157895E+00  0.0000000E+00  0.8747631E-03
    1       -7.195453   1.000000
    2        0.392735   1.000000
    3        2.666676   1.000000
    4        2.666676   1.000000
    5        7.253758   0.000000
    6        9.295876   0.000000
    7       14.519705   0.000000
    8       14.519717   0.000000
 
  0.3684211E+00  0.3157895E+00  0.0000000E+00  0.3499052E-02
    1       -6.838253   1.000000
    2       -0.209463   1.000000
    3        2.345883   1.000000
    4        2.496201   1.000000
    5        7.331044   0.000000
    6        9.029174   0.000000
    7       14.838588   0.000000
    8       14.932695   0.000000
 
  0.4210526E+00  0.3157895E+00  0.0000000E+00  0.3499052E-02
    1       -6.431590   1.000000
    2       -0.824858   1.000000
    3        1.837437   1.000000
    4        2.404703   1.000000
    5        7.592496   0.000000
    6        9.133244   0.000000
    7       14.865325   0.000000
    8       15.095356   0.000000
 
  0.4736842E+00  0.3157895E+00  0.0000000E+00  0.3499052E-02
    1       -6.009135   1.000000
    2       -1.389403   1.000000
    3        1.264798   1.000000
    4        2.394925   1.000000
    5        7.784327   0.000000
    6        9.716101   0.000000
    7       14.783730   0.000000
    8       15.039280   0.000000
 
 -0.4736842E+00  0.3157895E+00  0.0000000E+00  0.3499052E-02
    1       -5.637733   1.000000
    2       -1.829767   1.000000
    3        0.733789   1.000000
    4        2.466912   1.000000
    5        7.916094   0.000000
    6       10.645375   0.000000
    7       14.690139   0.000000
    8       14.824279   0.000000
 
 -0.4210526E+00  0.3157895E+00  0.0000000E+00  0.3499052E-02
    1       -5.429948   1.000000
    2       -2.039233   1.000000
    3        0.313323   1.000000
    4        2.618167   1.000000
    5        8.077087   0.000000
    6       11.726820   0.000000
    7       14.489263   0.000000
    8       14.647546   0.000000
 
 -0.3684211E+00  0.3157895E+00  0.0000000E+00  0.3499052E-02
    1       -5.482958   1.000000
    2       -1.948558   1.000000
    3        0.063970   1.000000
    4        2.843119   1.000000
    5        8.300035   0.000000
    6       12.755188   0.000000
    7       14.036217   0.000000
    8       14.757968   0.000000
 
 -0.3157895E+00  0.3157895E+00  0.0000000E+00  0.1749526E-02
    1       -5.760783   1.000000
    2       -1.673088   1.000000
    3        0.080462   1.000000
    4        3.132147   1.000000
    5        8.586305   0.000000
    6       13.322523   0.000000
    7       13.450136   0.000000
    8       14.632348   0.000000
 
  0.3684211E+00  0.3684211E+00  0.0000000E+00  0.8747631E-03
    1       -6.512892   1.000000
    2       -0.709312   1.000000
    3        2.306595   1.000000
    4        2.306595   1.000000
    5        7.123180   0.000000
    6        8.547890   0.000000
    7       15.541994   0.000000
    8       15.542003   0.000000
 
  0.4210526E+00  0.3684211E+00  0.0000000E+00  0.3499052E-02
    1       -6.140940   1.000000
    2       -1.234758   1.000000
    3        2.013099   1.000000
    4        2.195410   1.000000
    5        7.251229   0.000000
    6        8.372307   0.000000
    7       15.815714   0.000000
    8       15.881654   0.000000
 
  0.4736842E+00  0.3684211E+00  0.0000000E+00  0.3499052E-02
    1       -5.755783   1.000000
    2       -1.700816   1.000000
    3        1.498784   1.000000
    4        2.166198   1.000000
    5        7.498545   0.000000
    6        8.646890   0.000000
    7       15.815780   0.000000
    8       15.936406   0.000000
 