       N       E                     dE             d eps       ncg     rms          rms(c)
DAV:   1     0.934427521599E+01    0.93443E+01   -0.39033E+03  3520   0.866E+02
DAV:   2    -0.117434724121E+02   -0.21088E+02   -0.20126E+02  5544   0.103E+02
DAV:   3    -0.119934201881E+02   -0.24995E+00   -0.24995E+00  4000   0.135E+01
DAV:   4    -0.119937283371E+02   -0.30815E-03   -0.30815E-03  5424   0.501E-01
DAV:   5    -0.119937284281E+02   -0.91014E-07   -0.91008E-07  4024   0.602E-03    0.389E+00
RMM:   6    -0.114365649664E+02    0.55716E+00   -0.61912E-01  3520   0.518E+00    0.165E+00
RMM:   7    -0.113808347127E+02    0.55730E-01   -0.10077E-01  3520   0.210E+00    0.731E-01
RMM:   8    -0.113744482917E+02    0.63864E-02   -0.21202E-02  3520   0.111E+00    0.830E-02
RMM:   9    -0.113747566615E+02   -0.30837E-03   -0.70125E-04  3520   0.202E-01    0.359E-02
RMM:  10    -0.113747753980E+02   -0.18737E-04   -0.77086E-05  3501   0.759E-02    0.125E-02
RMM:  11    -0.113747783263E+02   -0.29282E-05   -0.51877E-05  3370   0.452E-02
   1 F= -.11374778E+02 E0= -.11374778E+02  d E =-.113748E+02
