 running on   48 total cores
 distrk:  each k-point on   12 cores,    4 groups
 distr:  one band on   12 cores,    1 groups
 using from now: INCAR     
 vasp.5.4.4.18Apr17-6-g9f103f2a35 (build Nov 04 2020 14:40:39) complex          
  
 POSCAR found type information on POSCAR  B  As
 POSCAR found :  2 types and       2 ions
 scaLAPACK will be used

 ----------------------------------------------------------------------------- 
|                                                                             |
|           W    W    AA    RRRRR   N    N  II  N    N   GGGG   !!!           |
|           W    W   A  A   R    R  NN   N  II  NN   N  G    G  !!!           |
|           W    W  A    A  R    R  N N  N  II  N N  N  G       !!!           |
|           W WW W  AAAAAA  RRRRR   N  N N  II  N  N N  G  GGG   !            |
|           WW  WW  A    A  R   R   N   NN  II  N   NN  G    G                |
|           W    W  A    A  R    R  N    N  II  N    N   GGGG   !!!           |
|                                                                             |
|      You have enabled k-point parallelism (KPAR>1).                         |
|      This developmental code was originally  written by Paul Kent at ORNL,  |
|      and carefully double checked in Vienna.                                |
|      GW as well as linear response parallelism added by Martijn Marsman     |
|      and Georg Kresse.                                                      |
|      Carefully verify results versus KPAR=1.                                |
|      Report problems to Paul Kent and Vienna.                               |
|                                                                             |
 ----------------------------------------------------------------------------- 

 LDA part: xc-table for Pade appr. of Perdew
 POSCAR found type information on POSCAR  B  As
 POSCAR found :  2 types and       2 ions
 generate k-points for:   19   19   19
 POSCAR, INCAR and KPOINTS ok, starting setup
 FFT: planning ...
 WAVECAR not read
 entering main loop
       N       E                     dE             d eps       ncg     rms          rms(c)
DAV:   1     0.934427521599E+01    0.93443E+01   -0.39033E+03  3520   0.866E+02
DAV:   2    -0.117434724121E+02   -0.21088E+02   -0.20126E+02  5544   0.103E+02
DAV:   3    -0.119934201881E+02   -0.24995E+00   -0.24995E+00  4000   0.135E+01
DAV:   4    -0.119937283371E+02   -0.30815E-03   -0.30815E-03  5424   0.501E-01
DAV:   5    -0.119937284281E+02   -0.91014E-07   -0.91008E-07  4024   0.602E-03    0.389E+00
RMM:   6    -0.114365649664E+02    0.55716E+00   -0.61912E-01  3520   0.518E+00    0.165E+00
RMM:   7    -0.113808347127E+02    0.55730E-01   -0.10077E-01  3520   0.210E+00    0.731E-01
RMM:   8    -0.113744482917E+02    0.63864E-02   -0.21202E-02  3520   0.111E+00    0.830E-02
RMM:   9    -0.113747566615E+02   -0.30837E-03   -0.70125E-04  3520   0.202E-01    0.359E-02
RMM:  10    -0.113747753980E+02   -0.18737E-04   -0.77086E-05  3501   0.759E-02    0.125E-02
RMM:  11    -0.113747783263E+02   -0.29282E-05   -0.51877E-05  3370   0.452E-02
   1 F= -.11374778E+02 E0= -.11374778E+02  d E =-.113748E+02
 curvature:   0.00 expect dE= 0.000E+00 dE for cont linesearch  0.000E+00
 trial: gam= 0.00000 g(F)=  0.114E-48 g(S)=  0.241E-05 ort = 0.000E+00 (trialstep = 0.100E+01)
 search vector abs. value=  0.241E-05
 reached required accuracy - stopping structural energy minimisation
