   3   3   0   0
  0.2677871E+02  0.4843307E-09  0.4843307E-09  0.4843307E-09  0.5000000E-15
  1.000000000000000E-004
  CAR
 unknown system
     11.61470446    -37.60521714  301      8.83294722      1.00000000
    -37.605  0.0000E+00  0.0000E+00
    -37.441  0.0000E+00  0.0000E+00
    -37.277  0.0000E+00  0.0000E+00
    -37.113  0.0000E+00  0.0000E+00
    -36.949  0.0000E+00  0.0000E+00
    -36.785  0.0000E+00  0.0000E+00
    -36.621  0.0000E+00  0.0000E+00
    -36.457  0.0000E+00  0.0000E+00
    -36.293  0.0000E+00  0.0000E+00
    -36.129  0.0000E+00  0.0000E+00
    -35.965  0.0000E+00  0.0000E+00
    -35.800  0.0000E+00  0.0000E+00
    -35.636  0.0000E+00  0.0000E+00
    -35.472  0.0000E+00  0.0000E+00
    -35.308  0.1219E+02  0.2000E+01
    -35.144  0.0000E+00  0.2000E+01
    -34.980  0.0000E+00  0.2000E+01
    -34.816  0.0000E+00  0.2000E+01
    -34.652  0.0000E+00  0.2000E+01
    -34.488  0.0000E+00  0.2000E+01
    -34.324  0.0000E+00  0.2000E+01
    -34.160  0.0000E+00  0.2000E+01
    -33.996  0.0000E+00  0.2000E+01
    -33.832  0.0000E+00  0.2000E+01
    -33.668  0.0000E+00  0.2000E+01
    -33.504  0.0000E+00  0.2000E+01
    -33.339  0.0000E+00  0.2000E+01
    -33.175  0.0000E+00  0.2000E+01
    -33.011  0.0000E+00  0.2000E+01
    -32.847  0.0000E+00  0.2000E+01
    -32.683  0.0000E+00  0.2000E+01
    -32.519  0.0000E+00  0.2000E+01
    -32.355  0.0000E+00  0.2000E+01
    -32.191  0.0000E+00  0.2000E+01
    -32.027  0.0000E+00  0.2000E+01
    -31.863  0.0000E+00  0.2000E+01
    -31.699  0.0000E+00  0.2000E+01
    -31.535  0.0000E+00  0.2000E+01
    -31.371  0.0000E+00  0.2000E+01
    -31.207  0.0000E+00  0.2000E+01
    -31.043  0.0000E+00  0.2000E+01
    -30.878  0.0000E+00  0.2000E+01
    -30.714  0.0000E+00  0.2000E+01
    -30.550  0.0000E+00  0.2000E+01
    -30.386  0.0000E+00  0.2000E+01
    -30.222  0.0000E+00  0.2000E+01
    -30.058  0.0000E+00  0.2000E+01
    -29.894  0.0000E+00  0.2000E+01
    -29.730  0.0000E+00  0.2000E+01
    -29.566  0.0000E+00  0.2000E+01
    -29.402  0.0000E+00  0.2000E+01
    -29.238  0.0000E+00  0.2000E+01
    -29.074  0.0000E+00  0.2000E+01
    -28.910  0.0000E+00  0.2000E+01
    -28.746  0.0000E+00  0.2000E+01
    -28.582  0.0000E+00  0.2000E+01
    -28.417  0.0000E+00  0.2000E+01
    -28.253  0.0000E+00  0.2000E+01
    -28.089  0.0000E+00  0.2000E+01
    -27.925  0.0000E+00  0.2000E+01
    -27.761  0.0000E+00  0.2000E+01
    -27.597  0.0000E+00  0.2000E+01
    -27.433  0.0000E+00  0.2000E+01
    -27.269  0.0000E+00  0.2000E+01
    -27.105  0.0000E+00  0.2000E+01
    -26.941  0.0000E+00  0.2000E+01
    -26.777  0.0000E+00  0.2000E+01
    -26.613  0.0000E+00  0.2000E+01
    -26.449  0.0000E+00  0.2000E+01
    -26.285  0.0000E+00  0.2000E+01
    -26.121  0.0000E+00  0.2000E+01
    -25.957  0.0000E+00  0.2000E+01
    -25.792  0.0000E+00  0.2000E+01
    -25.628  0.0000E+00  0.2000E+01
    -25.464  0.0000E+00  0.2000E+01
    -25.300  0.0000E+00  0.2000E+01
    -25.136  0.0000E+00  0.2000E+01
    -24.972  0.0000E+00  0.2000E+01
    -24.808  0.0000E+00  0.2000E+01
    -24.644  0.0000E+00  0.2000E+01
    -24.480  0.0000E+00  0.2000E+01
    -24.316  0.0000E+00  0.2000E+01
    -24.152  0.0000E+00  0.2000E+01
    -23.988  0.0000E+00  0.2000E+01
    -23.824  0.0000E+00  0.2000E+01
    -23.660  0.0000E+00  0.2000E+01
    -23.496  0.0000E+00  0.2000E+01
    -23.331  0.0000E+00  0.2000E+01
    -23.167  0.0000E+00  0.2000E+01
    -23.003  0.0000E+00  0.2000E+01
    -22.839  0.0000E+00  0.2000E+01
    -22.675  0.0000E+00  0.2000E+01
    -22.511  0.0000E+00  0.2000E+01
    -22.347  0.0000E+00  0.2000E+01
    -22.183  0.0000E+00  0.2000E+01
    -22.019  0.0000E+00  0.2000E+01
    -21.855  0.0000E+00  0.2000E+01
    -21.691  0.0000E+00  0.2000E+01
    -21.527  0.0000E+00  0.2000E+01
    -21.363  0.0000E+00  0.2000E+01
    -21.199  0.0000E+00  0.2000E+01
    -21.035  0.0000E+00  0.2000E+01
    -20.870  0.0000E+00  0.2000E+01
    -20.706  0.0000E+00  0.2000E+01
    -20.542  0.0000E+00  0.2000E+01
    -20.378  0.0000E+00  0.2000E+01
    -20.214  0.0000E+00  0.2000E+01
    -20.050  0.0000E+00  0.2000E+01
    -19.886  0.0000E+00  0.2000E+01
    -19.722  0.0000E+00  0.2000E+01
    -19.558  0.0000E+00  0.2000E+01
    -19.394  0.0000E+00  0.2000E+01
    -19.230  0.0000E+00  0.2000E+01
    -19.066  0.0000E+00  0.2000E+01
    -18.902  0.0000E+00  0.2000E+01
    -18.738  0.0000E+00  0.2000E+01
    -18.574  0.0000E+00  0.2000E+01
    -18.409  0.0000E+00  0.2000E+01
    -18.245  0.0000E+00  0.2000E+01
    -18.081  0.0000E+00  0.2000E+01
    -17.917  0.0000E+00  0.2000E+01
    -17.753  0.0000E+00  0.2000E+01
    -17.589  0.0000E+00  0.2000E+01
    -17.425  0.0000E+00  0.2000E+01
    -17.261  0.0000E+00  0.2000E+01
    -17.097  0.0000E+00  0.2000E+01
    -16.933  0.0000E+00  0.2000E+01
    -16.769  0.0000E+00  0.2000E+01
    -16.605  0.0000E+00  0.2000E+01
    -16.441  0.0000E+00  0.2000E+01
    -16.277  0.0000E+00  0.2000E+01
    -16.113  0.0000E+00  0.2000E+01
    -15.948  0.0000E+00  0.2000E+01
    -15.784  0.0000E+00  0.2000E+01
    -15.620  0.0000E+00  0.2000E+01
    -15.456  0.0000E+00  0.2000E+01
    -15.292  0.0000E+00  0.2000E+01
    -15.128  0.0000E+00  0.2000E+01
    -14.964  0.0000E+00  0.2000E+01
    -14.800  0.0000E+00  0.2000E+01
    -14.636  0.0000E+00  0.2000E+01
    -14.472  0.0000E+00  0.2000E+01
    -14.308  0.0000E+00  0.2000E+01
    -14.144  0.0000E+00  0.2000E+01
    -13.980  0.4812E-03  0.2000E+01
    -13.816  0.0000E+00  0.1200E+02
    -13.652  0.0000E+00  0.1200E+02
    -13.487  0.0000E+00  0.1200E+02
    -13.323  0.0000E+00  0.1200E+02
    -13.159  0.0000E+00  0.1200E+02
    -12.995  0.0000E+00  0.1200E+02
    -12.831  0.0000E+00  0.1200E+02
    -12.667  0.0000E+00  0.1200E+02
    -12.503  0.0000E+00  0.1200E+02
    -12.339  0.0000E+00  0.1200E+02
    -12.175  0.0000E+00  0.1200E+02
    -12.011  0.0000E+00  0.1200E+02
    -11.847  0.0000E+00  0.1200E+02
    -11.683  0.0000E+00  0.1200E+02
    -11.519  0.0000E+00  0.1200E+02
    -11.355  0.0000E+00  0.1200E+02
    -11.191  0.0000E+00  0.1200E+02
    -11.026  0.0000E+00  0.1200E+02
    -10.862  0.0000E+00  0.1200E+02
    -10.698  0.2689E+01  0.1244E+02
    -10.534  0.2050E+02  0.1800E+02
    -10.370  0.0000E+00  0.1800E+02
    -10.206  0.0000E+00  0.1800E+02
    -10.042  0.0000E+00  0.1800E+02
     -9.878  0.0000E+00  0.1800E+02
     -9.714  0.0000E+00  0.1800E+02
     -9.550  0.0000E+00  0.1800E+02
     -9.386  0.0000E+00  0.1800E+02
     -9.222  0.0000E+00  0.1800E+02
     -9.058  0.0000E+00  0.1800E+02
     -8.894  0.0000E+00  0.1800E+02
     -8.730  0.0000E+00  0.1800E+02
     -8.565  0.0000E+00  0.1800E+02
     -8.401  0.0000E+00  0.1800E+02
     -8.237  0.0000E+00  0.1800E+02
     -8.073  0.0000E+00  0.1800E+02
     -7.909  0.0000E+00  0.1800E+02
     -7.745  0.0000E+00  0.1800E+02
     -7.581  0.0000E+00  0.1800E+02
     -7.417  0.0000E+00  0.1800E+02
     -7.253  0.0000E+00  0.1800E+02
     -7.089  0.0000E+00  0.1800E+02
     -6.925  0.0000E+00  0.1800E+02
     -6.761  0.0000E+00  0.1800E+02
     -6.597  0.0000E+00  0.1800E+02
     -6.433  0.0000E+00  0.1800E+02
     -6.269  0.0000E+00  0.1800E+02
     -6.104  0.0000E+00  0.1800E+02
     -5.940  0.0000E+00  0.1800E+02
     -5.776  0.0000E+00  0.1800E+02
     -5.612  0.0000E+00  0.1800E+02
     -5.448  0.0000E+00  0.1800E+02
     -5.284  0.0000E+00  0.1800E+02
     -5.120  0.0000E+00  0.1800E+02
     -4.956  0.0000E+00  0.1800E+02
     -4.792  0.0000E+00  0.1800E+02
     -4.628  0.0000E+00  0.1800E+02
     -4.464  0.0000E+00  0.1800E+02
     -4.300  0.0000E+00  0.1800E+02
     -4.136  0.0000E+00  0.1800E+02
     -3.972  0.0000E+00  0.1800E+02
     -3.808  0.0000E+00  0.1800E+02
     -3.643  0.0000E+00  0.1800E+02
     -3.479  0.0000E+00  0.1800E+02
     -3.315  0.0000E+00  0.1800E+02
     -3.151  0.5549E-02  0.1800E+02
     -2.987  0.1800E+00  0.1804E+02
     -2.823  0.2697E+00  0.1810E+02
     -2.659  0.5668E+00  0.1825E+02
     -2.495  0.1150E+01  0.1851E+02
     -2.331  0.4176E+01  0.1956E+02
     -2.167  0.1776E+00  0.2000E+02
     -2.003  0.0000E+00  0.2000E+02
     -1.839  0.0000E+00  0.2000E+02
     -1.675  0.0000E+00  0.2000E+02
     -1.511  0.0000E+00  0.2000E+02
     -1.347  0.0000E+00  0.2000E+02
     -1.182  0.0000E+00  0.2000E+02
     -1.018  0.0000E+00  0.2000E+02
     -0.854  0.0000E+00  0.2000E+02
     -0.690  0.0000E+00  0.2000E+02
     -0.526  0.0000E+00  0.2000E+02
     -0.362  0.0000E+00  0.2000E+02
     -0.198  0.0000E+00  0.2000E+02
     -0.034  0.0000E+00  0.2000E+02
      0.130  0.0000E+00  0.2000E+02
      0.294  0.0000E+00  0.2000E+02
      0.458  0.0000E+00  0.2000E+02
      0.622  0.0000E+00  0.2000E+02
      0.786  0.0000E+00  0.2000E+02
      0.950  0.0000E+00  0.2000E+02
      1.114  0.0000E+00  0.2000E+02
      1.279  0.0000E+00  0.2000E+02
      1.443  0.0000E+00  0.2000E+02
      1.607  0.0000E+00  0.2000E+02
      1.771  0.0000E+00  0.2000E+02
      1.935  0.0000E+00  0.2000E+02
      2.099  0.0000E+00  0.2000E+02
      2.263  0.0000E+00  0.2000E+02
      2.427  0.0000E+00  0.2000E+02
      2.591  0.0000E+00  0.2000E+02
      2.755  0.0000E+00  0.2000E+02
      2.919  0.0000E+00  0.2000E+02
      3.083  0.2207E+00  0.2004E+02
      3.247  0.8019E+00  0.2026E+02
      3.411  0.1888E+01  0.2095E+02
      3.575  0.1432E+01  0.2131E+02
      3.740  0.4885E+00  0.2151E+02
      3.904  0.4483E+00  0.2175E+02
      4.068  0.1059E+01  0.2204E+02
      4.232  0.3946E+01  0.2327E+02
      4.396  0.3194E+01  0.2431E+02
      4.560  0.3285E+01  0.2525E+02
      4.724  0.8954E+00  0.2601E+02
      4.888  0.2996E+00  0.2607E+02
      5.052  0.8431E+01  0.2756E+02
      5.216  0.5978E+01  0.2944E+02
      5.380  0.1818E+01  0.3051E+02
      5.544  0.1472E+01  0.3111E+02
      5.708  0.1200E+01  0.3153E+02
      5.872  0.4875E+00  0.3173E+02
      6.036  0.9113E+00  0.3199E+02
      6.201  0.6933E+00  0.3216E+02
      6.365  0.5456E+00  0.3246E+02
      6.529  0.6800E+00  0.3271E+02
      6.693  0.1076E+01  0.3303E+02
      6.857  0.2843E+00  0.3321E+02
      7.021  0.1069E+01  0.3355E+02
      7.185  0.3760E+00  0.3370E+02
      7.349  0.5084E+01  0.3530E+02
      7.513  0.1001E+01  0.3581E+02
      7.677  0.2574E+00  0.3597E+02
      7.841  0.1665E-01  0.3600E+02
      8.005  0.4439E-01  0.3601E+02
      8.169  0.1433E+00  0.3605E+02
      8.333  0.1028E+01  0.3638E+02
      8.497  0.2393E+01  0.3714E+02
      8.662  0.2358E+01  0.3790E+02
      8.826  0.4447E+01  0.3872E+02
      8.990  0.6412E+01  0.4218E+02
      9.154  0.1185E+02  0.4605E+02
      9.318  0.1943E+01  0.4798E+02
      9.482  0.0000E+00  0.4800E+02
      9.646  0.0000E+00  0.4800E+02
      9.810  0.0000E+00  0.4800E+02
      9.974  0.0000E+00  0.4800E+02
     10.138  0.0000E+00  0.4800E+02
     10.302  0.0000E+00  0.4800E+02
     10.466  0.0000E+00  0.4800E+02
     10.630  0.0000E+00  0.4800E+02
     10.794  0.0000E+00  0.4800E+02
     10.958  0.0000E+00  0.4800E+02
     11.123  0.0000E+00  0.4800E+02
     11.287  0.0000E+00  0.4800E+02
     11.451  0.0000E+00  0.4800E+02
     11.615  0.0000E+00  0.4800E+02
