    3    3    1    1
  0.2677871E+02  0.4843306E-09  0.4843306E-09  0.4843306E-09  0.5000000E-15
  1.000000000000000E-004
  CAR
 unknown system
     39     84     24

  0.0000000E+00  0.0000000E+00  0.0000000E+00  0.4551661E-03
    1      -35.367948   1.000000
    2      -13.937822   1.000000
    3      -13.937822   1.000000
    4      -13.914380   1.000000
    5      -13.914380   1.000000
    6      -13.914380   1.000000
    7      -10.585599   1.000000
    8      -10.585599   1.000000
    9      -10.585599   1.000000
   10       -3.175770   1.000000
   11        4.618563   1.000000
   12        4.618563   1.000000
   13        4.618563   1.000000
   14        4.938742   1.000000
   15        4.938742   1.000000
   16        6.939607   1.000000
   17        7.813048   1.000000
   18        7.813048   1.000000
   19        7.813048   1.000000
   20        8.846251   0.029955
   21        8.878828   0.000000
   22        8.878831   0.000000
   23        8.878836   0.000000
   24        9.021620   0.000000

  0.7692308E-01 -0.1123762E-17  0.2472107E-17  0.3641329E-02
    1      -35.367802   1.000000
    2      -13.938792   1.000000
    3      -13.938792   1.000000
    4      -13.914539   1.000000
    5      -13.914239   1.000000
    6      -13.914239   1.000000
    7      -10.594893   1.000000
    8      -10.583629   1.000000
    9      -10.583629   1.000000
   10       -3.123005   1.000000
   11        4.488937   1.000000
   12        4.538822   1.000000
   13        4.538822   1.000000
   14        5.013637   1.000000
   15        5.013637   1.000000
   16        6.732411   1.000000
   17        7.760391   1.000000
   18        7.760391   1.000000
   19        7.943783   1.000000
   20        8.761533   1.000000
   21        8.840876   0.131082
   22        8.840876   0.131080
   23        9.001081   0.000000
   24        9.022570   0.000000

  0.1538462E+00 -0.2368077E-18  0.2933498E-17  0.3641329E-02
    1      -35.367399   1.000000
    2      -13.941505   1.000000
    3      -13.941505   1.000000
    4      -13.915026   1.000000
    5      -13.913838   1.000000
    6      -13.913838   1.000000
    7      -10.620036   1.000000
    8      -10.578187   1.000000
    9      -10.578187   1.000000
   10       -2.975281   1.000000
   11        4.168335   1.000000
   12        4.409724   1.000000
   13        4.409724   1.000000
   14        5.120428   1.000000
   15        5.120428   1.000000
   16        6.317121   1.000000
   17        7.641657   1.000000
   18        7.641657   1.000000
   19        8.034646   1.000000
   20        8.810771   0.999144
   21        8.810771   0.999144
   22        8.926009   0.000000
   23        9.024874   0.000000
   24        9.115758   0.000000

  0.2307692E+00  0.2584546E-17  0.1460490E-17  0.3641329E-02
    1      -35.366832   1.000000
    2      -13.945352   1.000000
    3      -13.945352   1.000000
    4      -13.915811   1.000000
    5      -13.913235   1.000000
    6      -13.913235   1.000000
    7      -10.653995   1.000000
    8      -10.570547   1.000000
    9      -10.570547   1.000000
   10       -2.762902   1.000000
   11        3.781255   1.000000
   12        4.307390   1.000000
   13        4.307390   1.000000
   14        5.168086   1.000000
   15        5.168086   1.000000
   16        5.879734   1.000000
   17        7.528036   1.000000
   18        7.528036   1.000000
   19        8.047572   1.000000
   20        8.807725   0.999819
   21        8.807725   0.999819
   22        9.066485   0.000000
   23        9.183512   0.000000
   24        9.276575   0.000000

  0.3076923E+00 -0.4736155E-18  0.5866996E-17  0.3641329E-02
    1      -35.366228   1.000000
    2      -13.949443   1.000000
    3      -13.949443   1.000000
    4      -13.916767   1.000000
    5      -13.912557   1.000000
    6      -13.912557   1.000000
    7      -10.688221   1.000000
    8      -10.562475   1.000000
    9      -10.562475   1.000000
   10       -2.531518   1.000000
   11        3.423227   1.000000
   12        4.249802   1.000000
   13        4.249802   1.000000
   14        5.138379   1.000000
   15        5.138379   1.000000
   16        5.512959   1.000000
   17        7.461489   1.000000
   18        7.461489   1.000000
   19        8.087754   1.000000
   20        8.824258   0.890432
   21        8.824258   0.890431
   22        9.119626   0.000000
   23        9.176784   0.000000
   24        9.236526   0.000000

  0.3846154E+00  0.3518862E-18  0.6389840E-17  0.3641329E-02
    1      -35.365729   1.000000
    2      -13.952831   1.000000
    3      -13.952831   1.000000
    4      -13.917659   1.000000
    5      -13.911980   1.000000
    6      -13.911980   1.000000
    7      -10.715240   1.000000
    8      -10.555820   1.000000
    9      -10.555820   1.000000
   10       -2.334459   1.000000
   11        3.154538   1.000000
   12        4.233385   1.000000
   13        4.233385   1.000000
   14        5.062285   1.000000
   15        5.062285   1.000000
   16        5.259743   1.000000
   17        7.439536   1.000000
   18        7.439536   1.000000
   19        8.154869   1.000000
   20        8.854075   0.001404
   21        8.854075   0.001404
   22        9.162208   0.000000
   23        9.163241   0.000000
   24        9.163521   0.000000

  0.4615385E+00 -0.6697979E-17  0.1478805E-16  0.3641329E-02
    1      -35.365448   1.000000
    2      -13.954746   1.000000
    3      -13.954746   1.000000
    4      -13.918205   1.000000
    5      -13.911649   1.000000
    6      -13.911649   1.000000
    7      -10.729979   1.000000
    8      -10.552078   1.000000
    9      -10.552078   1.000000
   10       -2.220864   1.000000
   11        3.011453   1.000000
   12        4.237696   1.000000
   13        4.237696   1.000000
   14        4.999081   1.000000
   15        4.999081   1.000000
   16        5.132726   1.000000
   17        7.437728   1.000000
   18        7.437728   1.000000
   19        8.209501   1.000000
   20        8.883661   0.000000
   21        8.883661   0.000000
   22        9.106097   0.000000
   23        9.106179   0.000000
   24        9.195059   0.000000

  0.7692308E-01  0.7692308E-01  0.2033924E-17  0.2730997E-02
    1      -35.367755   1.000000
    2      -13.940489   1.000000
    3      -13.937571   1.000000
    4      -13.914685   1.000000
    5      -13.914147   1.000000
    6      -13.914146   1.000000
    7      -10.590524   1.000000
    8      -10.586810   1.000000
    9      -10.586810   1.000000
   10       -3.106594   1.000000
   11        4.290317   1.000000
   12        4.632849   1.000000
   13        4.632849   1.000000
   14        4.952266   1.000000
   15        5.045314   1.000000
   16        6.717388   1.000000
   17        7.676522   1.000000
   18        7.676522   1.000000
   19        8.099983   1.000000
   20        8.701001   1.000000
   21        8.844201   0.055739
   22        8.844202   0.055737
   23        9.020284   0.000000
   24        9.030773   0.000000

  0.1538462E+00  0.7692308E-01  0.5153933E-17  0.1092399E-01
    1      -35.367438   1.000000
    2      -13.943495   1.000000
    3      -13.938347   1.000000
    4      -13.915083   1.000000
    5      -13.913858   1.000000
    6      -13.913781   1.000000
    7      -10.609716   1.000000
    8      -10.585934   1.000000
    9      -10.580339   1.000000
   10       -2.994139   1.000000
   11        4.022524   1.000000
   12        4.538766   1.000000
   13        4.577739   1.000000
   14        5.020511   1.000000
   15        5.123755   1.000000
   16        6.448021   1.000000
   17        7.537460   1.000000
   18        7.547517   1.000000
   19        8.227022   1.000000
   20        8.766582   1.000000
   21        8.825120   0.865849
   22        8.862402   0.000016
   23        9.035635   0.000000
   24        9.097706   0.000000

  0.2307692E+00  0.7692308E-01  0.7626041E-17  0.1092399E-01
    1      -35.366927   1.000000
    2      -13.947142   1.000000
    3      -13.940968   1.000000
    4      -13.915683   1.000000
    5      -13.913439   1.000000
    6      -13.913179   1.000000
    7      -10.640955   1.000000
    8      -10.581228   1.000000
    9      -10.571737   1.000000
   10       -2.809355   1.000000
   11        3.735999   1.000000
   12        4.360339   1.000000
   13        4.483248   1.000000
   14        5.085277   1.000000
   15        5.200600   1.000000
   16        6.055151   1.000000
   17        7.391113   1.000000
   18        7.440920   1.000000
   19        8.220736   1.000000
   20        8.798328   1.000000
   21        8.815860   0.992165
   22        9.033279   0.000000
   23        9.037839   0.000000
   24        9.222942   0.000000

  0.3076923E+00  0.7692308E-01  0.1203255E-16  0.1092399E-01
    1      -35.366339   1.000000
    2      -13.950604   1.000000
    3      -13.944830   1.000000
    4      -13.916458   1.000000
    5      -13.912917   1.000000
    6      -13.912481   1.000000
    7      -10.675046   1.000000
    8      -10.573797   1.000000
    9      -10.564054   1.000000
   10       -2.592433   1.000000
   11        3.456726   1.000000
   12        4.228935   1.000000
   13        4.407827   1.000000
   14        5.080090   1.000000
   15        5.212828   1.000000
   16        5.667253   1.000000
   17        7.301515   1.000000
   18        7.390422   1.000000
   19        8.210627   1.000000
   20        8.820980   0.954711
   21        8.822301   0.933915
   22        9.039579   0.000000
   23        9.091525   0.000000
   24        9.226370   0.000000

  0.3846154E+00  0.7692308E-01  0.1255539E-16  0.1092399E-01
    1      -35.365806   1.000000
    2      -13.953105   1.000000
    3      -13.949001   1.000000
    4      -13.917258   1.000000
    5      -13.912391   1.000000
    6      -13.911878   1.000000
    7      -10.704222   1.000000
    8      -10.565347   1.000000
    9      -10.558977   1.000000
   10       -2.392704   1.000000
   11        3.228318   1.000000
   12        4.175973   1.000000
   13        4.352121   1.000000
   14        5.029954   1.000000
   15        5.158271   1.000000
   16        5.365524   1.000000
   17        7.268211   1.000000
   18        7.385292   1.000000
   19        8.234906   1.000000
   20        8.844492   0.051271
   21        8.853427   0.001889
   22        9.039843   0.000000
   23        9.116716   0.000000
   24        9.185681   0.000000

  0.4615385E+00  0.7692308E-01  0.1297019E-16  0.1092399E-01
    1      -35.365452   1.000000
    2      -13.954075   1.000000
    3      -13.952511   1.000000
    4      -13.917842   1.000000
    5      -13.911981   1.000000
    6      -13.911524   1.000000
    7      -10.722754   1.000000
    8      -10.557802   1.000000
    9      -10.557594   1.000000
   10       -2.257687   1.000000
   11        3.086481   1.000000
   12        4.191428   1.000000
   13        4.295153   1.000000
   14        4.999224   1.000000
   15        5.075050   1.000000
   16        5.184083   1.000000
   17        7.262951   1.000000
   18        7.395880   1.000000
   19        8.275928   1.000000
   20        8.877902   0.000000
   21        8.883028   0.000000
   22        9.036019   0.000000
   23        9.098500   0.000000
   24        9.176234   0.000000

 -0.4615385E+00  0.7692308E-01 -0.8622500E-17  0.1092399E-01
    1      -35.365358   1.000000
    2      -13.954567   1.000000
    3      -13.953300   1.000000
    4      -13.917990   1.000000
    5      -13.911812   1.000000
    6      -13.911514   1.000000
    7      -10.727485   1.000000
    8      -10.560149   1.000000
    9      -10.552862   1.000000
   10       -2.220625   1.000000
   11        3.049380   1.000000
   12        4.224760   1.000000
   13        4.249890   1.000000
   14        5.008811   1.000000
   15        5.032427   1.000000
   16        5.138633   1.000000
   17        7.254615   1.000000
   18        7.404724   1.000000
   19        8.292836   1.000000
   20        8.883708   0.000000
   21        8.902503   0.000000
   22        9.030963   0.000000
   23        9.103450   0.000000
   24        9.125657   0.000000

 -0.3846154E+00  0.7692308E-01 -0.2242891E-18  0.1092399E-01
    1      -35.365546   1.000000
    2      -13.954718   1.000000
    3      -13.950932   1.000000
    4      -13.917634   1.000000
    5      -13.911928   1.000000
    6      -13.911834   1.000000
    7      -10.717704   1.000000
    8      -10.565995   1.000000
    9      -10.551641   1.000000
   10       -2.290910   1.000000
   11        3.123264   1.000000
   12        4.160706   1.000000
   13        4.322326   1.000000
   14        4.994787   1.000000
   15        5.117505   1.000000
   16        5.231427   1.000000
   17        7.226235   1.000000
   18        7.416338   1.000000
   19        8.267793   1.000000
   20        8.856328   0.000472
   21        8.886567   0.000000
   22        9.033411   0.000000
   23        9.127905   0.000000
   24        9.141446   0.000000

 -0.3076923E+00  0.7692308E-01 -0.3693150E-17  0.1092399E-01
    1      -35.365971   1.000000
    2      -13.952948   1.000000
    3      -13.947494   1.000000
    4      -13.916913   1.000000
    5      -13.912395   1.000000
    6      -13.912318   1.000000
    7      -10.695097   1.000000
    8      -10.573747   1.000000
    9      -10.554432   1.000000
   10       -2.451206   1.000000
   11        3.305474   1.000000
   12        4.132759   1.000000
   13        4.396831   1.000000
   14        5.031031   1.000000
   15        5.207528   1.000000
   16        5.453352   1.000000
   17        7.186555   1.000000
   18        7.451369   1.000000
   19        8.227999   1.000000
   20        8.828763   0.723010
   21        8.850226   0.007272
   22        9.037196   0.000000
   23        9.123962   0.000000
   24        9.184470   0.000000

 -0.2307692E+00  0.7692308E-01  0.4705061E-17  0.1092399E-01
    1      -35.366537   1.000000
    2      -13.949662   1.000000
    3      -13.943762   1.000000
    4      -13.916072   1.000000
    5      -13.913055   1.000000
    6      -13.912878   1.000000
    7      -10.663865   1.000000
    8      -10.581527   1.000000
    9      -10.560620   1.000000
   10       -2.662312   1.000000
   11        3.579719   1.000000
   12        4.159467   1.000000
   13        4.484621   1.000000
   14        5.063152   1.000000
   15        5.252879   1.000000
   16        5.787391   1.000000
   17        7.176501   1.000000
   18        7.530078   1.000000
   19        8.207882   1.000000
   20        8.813109   0.997489
   21        8.819171   0.974308
   22        9.035939   0.000000
   23        9.082945   0.000000
   24        9.255562   0.000000

 -0.1538462E+00  0.7692308E-01  0.1236201E-17  0.1092399E-01
    1      -35.367115   1.000000
    2      -13.945606   1.000000
    3      -13.940624   1.000000
    4      -13.915339   1.000000
    5      -13.913653   1.000000
    6      -13.913465   1.000000
    7      -10.630843   1.000000
    8      -10.587245   1.000000
    9      -10.568811   1.000000
   10       -2.874392   1.000000
   11        3.909381   1.000000
   12        4.245436   1.000000
   13        4.589032   1.000000
   14        5.038902   1.000000
   15        5.225737   1.000000
   16        6.179444   1.000000
   17        7.262960   1.000000
   18        7.645049   1.000000
   19        8.208264   1.000000
   20        8.803300   0.999986
   21        8.809571   0.999527
   22        9.006709   0.000000
   23        9.032537   0.000000
   24        9.188217   0.000000

 -0.7692308E-01  0.7692308E-01 -0.2247524E-17  0.5461994E-02
    1      -35.367571   1.000000
    2      -13.941691   1.000000
    3      -13.938827   1.000000
    4      -13.914821   1.000000
    5      -13.914073   1.000000
    6      -13.913947   1.000000
    7      -10.605332   1.000000
    8      -10.588213   1.000000
    9      -10.577123   1.000000
   10       -3.039821   1.000000
   11        4.237544   1.000000
   12        4.381570   1.000000
   13        4.645146   1.000000
   14        4.990758   1.000000
   15        5.133346   1.000000
   16        6.523176   1.000000
   17        7.497269   1.000000
   18        7.744554   1.000000
   19        8.137668   1.000000
   20        8.783544   1.000000
   21        8.811535   0.998770
   22        8.852260   0.003154
   23        9.027690   0.000000
   24        9.067142   0.000000

  0.1538462E+00  0.1538462E+00  0.4067849E-17  0.2730997E-02
    1      -35.367223   1.000000
    2      -13.946086   1.000000
    3      -13.936884   1.000000
    4      -13.915573   1.000000
    5      -13.913466   1.000000
    6      -13.913466   1.000000
    7      -10.605327   1.000000
    8      -10.590265   1.000000
    9      -10.590265   1.000000
   10       -2.927300   1.000000
   11        3.755717   1.000000
   12        4.664425   1.000000
   13        4.664425   1.000000
   14        4.990248   1.000000
   15        5.071680   1.000000
   16        6.426118   1.000000
   17        7.419729   1.000000
   18        7.419729   1.000000
   19        8.317049   1.000000
   20        8.785990   1.000000
   21        8.827632   0.773879
   22        8.827632   0.773879
   23        9.058070   0.000000
   24        9.135762   0.000000

  0.2307692E+00  0.1538462E+00  0.9861340E-17  0.1092399E-01
    1      -35.366804   1.000000
    2      -13.948675   1.000000
    3      -13.937539   1.000000
    4      -13.916139   1.000000
    5      -13.913037   1.000000
    6      -13.912898   1.000000
    7      -10.628636   1.000000
    8      -10.590197   1.000000
    9      -10.584200   1.000000
   10       -2.791031   1.000000
   11        3.525198   1.000000
   12        4.565515   1.000000
   13        4.631608   1.000000
   14        5.035337   1.000000
   15        5.113349   1.000000
   16        6.211531   1.000000
   17        7.244375   1.000000
   18        7.321893   1.000000
   19        8.336815   1.000000
   20        8.799483   0.999999
   21        8.826052   0.835263
   22        8.972792   0.000000
   23        9.068920   0.000000
   24        9.221612   0.000000

  0.3076923E+00  0.1538462E+00  0.8326879E-17  0.1092399E-01
    1      -35.366275   1.000000
    2      -13.950673   1.000000
    3      -13.940159   1.000000
    4      -13.916663   1.000000
    5      -13.912709   1.000000
    6      -13.912192   1.000000
    7      -10.660046   1.000000
    8      -10.585766   1.000000
    9      -10.576866   1.000000
   10       -2.617574   1.000000
   11        3.359340   1.000000
   12        4.381460   1.000000
   13        4.563124   1.000000
   14        5.052125   1.000000
   15        5.177655   1.000000
   16        5.889394   1.000000
   17        7.061972   1.000000
   18        7.284480   1.000000
   19        8.354595   1.000000
   20        8.814201   0.995989
   21        8.831069   0.604742
   22        9.041320   0.000000
   23        9.070075   0.000000
   24        9.235251   0.000000

  0.3846154E+00  0.1538462E+00  0.6853871E-17  0.1092399E-01
    1      -35.365760   1.000000
    2      -13.951651   1.000000
    3      -13.944086   1.000000
    4      -13.917097   1.000000
    5      -13.912496   1.000000
    6      -13.911557   1.000000
    7      -10.688658   1.000000
    8      -10.578017   1.000000
    9      -10.573350   1.000000
   10       -2.447349   1.000000
   11        3.264430   1.000000
   12        4.240911   1.000000
   13        4.484026   1.000000
   14        5.033106   1.000000
   15        5.186104   1.000000
   16        5.564115   1.000000
   17        6.959298   1.000000
   18        7.291893   1.000000
   19        8.364509   1.000000
   20        8.847696   0.018501
   21        8.848550   0.013671
   22        9.062565   0.000000
   23        9.065712   0.000000
   24        9.210788   0.000000

  0.4615385E+00  0.1538462E+00  0.7268674E-17  0.1092399E-01
    1      -35.365374   1.000000
    2      -13.951416   1.000000
    3      -13.948367   1.000000
    4      -13.917358   1.000000
    5      -13.912383   1.000000
    6      -13.911179   1.000000
    7      -10.708432   1.000000
    8      -10.574473   1.000000
    9      -10.568720   1.000000
   10       -2.318431   1.000000
   11        3.224238   1.000000
   12        4.185513   1.000000
   13        4.381021   1.000000
   14        5.034680   1.000000
   15        5.133809   1.000000
   16        5.328776   1.000000
   17        6.915285   1.000000
   18        7.309104   1.000000
   19        8.387068   1.000000
   20        8.876657   0.000000
   21        8.880228   0.000000
   22        9.053973   0.000000
   23        9.073939   0.000000
   24        9.193176   0.000000

 -0.4615385E+00  0.1538462E+00 -0.6340612E-17  0.1092399E-01
    1      -35.365208   1.000000
    2      -13.952025   1.000000
    3      -13.950033   1.000000
    4      -13.917348   1.000000
    5      -13.912360   1.000000
    6      -13.911149   1.000000
    7      -10.715999   1.000000
    8      -10.579718   1.000000
    9      -10.559982   1.000000
   10       -2.257809   1.000000
   11        3.209958   1.000000
   12        4.219617   1.000000
   13        4.258674   1.000000
   14        5.055557   1.000000
   15        5.089314   1.000000
   16        5.235224   1.000000
   17        6.885214   1.000000
   18        7.318529   1.000000
   19        8.409426   1.000000
   20        8.877243   0.000000
   21        8.919986   0.000000
   22        9.029221   0.000000
   23        9.096808   0.000000
   24        9.150126   0.000000

 -0.3846154E+00  0.1538462E+00 -0.5925809E-17  0.1092399E-01
    1      -35.365298   1.000000
    2      -13.954259   1.000000
    3      -13.947808   1.000000
    4      -13.917042   1.000000
    5      -13.912430   1.000000
    6      -13.911456   1.000000
    7      -10.710531   1.000000
    8      -10.587470   1.000000
    9      -10.553773   1.000000
   10       -2.278154   1.000000
   11        3.213069   1.000000
   12        4.147609   1.000000
   13        4.321567   1.000000
   14        5.002398   1.000000
   15        5.180643   1.000000
   16        5.290156   1.000000
   17        6.833794   1.000000
   18        7.329544   1.000000
   19        8.408435   1.000000
   20        8.853151   0.002136
   21        8.934277   0.000000
   22        9.015714   0.000000
   23        9.123888   0.000000
   24        9.129513   0.000000

 -0.3076923E+00  0.1538462E+00 -0.9394670E-17  0.1092399E-01
    1      -35.365625   1.000000
    2      -13.954583   1.000000
    3      -13.945195   1.000000
    4      -13.916560   1.000000
    5      -13.912583   1.000000
    6      -13.912006   1.000000
    7      -10.693671   1.000000
    8      -10.595288   1.000000
    9      -10.551516   1.000000
   10       -2.376981   1.000000
   11        3.262152   1.000000
   12        4.077982   1.000000
   13        4.456647   1.000000
   14        4.984188   1.000000
   15        5.269448   1.000000
   16        5.485184   1.000000
   17        6.758867   1.000000
   18        7.366831   1.000000
   19        8.386361   1.000000
   20        8.829280   0.697980
   21        8.897396   0.000000
   22        9.037938   0.000000
   23        9.116134   0.000000
   24        9.146761   0.000000

 -0.2307692E+00  0.1538462E+00 -0.9964590E-18  0.1092399E-01
    1      -35.366113   1.000000
    2      -13.952955   1.000000
    3      -13.942765   1.000000
    4      -13.916083   1.000000
    5      -13.912806   1.000000
    6      -13.912652   1.000000
    7      -10.669784   1.000000
    8      -10.600022   1.000000
    9      -10.553751   1.000000
   10       -2.534540   1.000000
   11        3.394230   1.000000
   12        4.068340   1.000000
   13        4.589344   1.000000
   14        4.983200   1.000000
   15        5.315947   1.000000
   16        5.771240   1.000000
   17        6.718877   1.000000
   18        7.448713   1.000000
   19        8.359771   1.000000
   20        8.816164   0.991191
   21        8.854263   0.001287
   22        9.046708   0.000000
   23        9.091648   0.000000
   24        9.198856   0.000000

 -0.1538462E+00  0.1538462E+00 -0.4736155E-18  0.5461994E-02
    1      -35.366650   1.000000
    2      -13.949721   1.000000
    3      -13.941084   1.000000
    4      -13.915691   1.000000
    5      -13.913237   1.000000
    6      -13.913096   1.000000
    7      -10.646491   1.000000
    8      -10.597718   1.000000
    9      -10.559985   1.000000
   10       -2.714783   1.000000
   11        3.619501   1.000000
   12        4.125624   1.000000
   13        4.668900   1.000000
   14        4.981690   1.000000
   15        5.299215   1.000000
   16        6.028778   1.000000
   17        6.863262   1.000000
   18        7.560382   1.000000
   19        8.322273   1.000000
   20        8.811238   0.998930
   21        8.819776   0.968743
   22        9.042540   0.000000
   23        9.060046   0.000000
   24        9.238688   0.000000

  0.2307692E+00  0.2307692E+00  0.6101773E-17  0.2730997E-02
    1      -35.366487   1.000000
    2      -13.949556   1.000000
    3      -13.935918   1.000000
    4      -13.916847   1.000000
    5      -13.912389   1.000000
    6      -13.912389   1.000000
    7      -10.629170   1.000000
    8      -10.595384   1.000000
    9      -10.595384   1.000000
   10       -2.715461   1.000000
   11        3.352462   1.000000
   12        4.685780   1.000000
   13        4.685780   1.000000
   14        4.985934   1.000000
   15        5.045092   1.000000
   16        6.181452   1.000000
   17        7.232601   1.000000
   18        7.232601   1.000000
   19        8.310017   1.000000
   20        8.832375   0.532262
   21        8.832375   0.532262
   22        8.938982   0.000000
   23        9.102291   0.000000
   24        9.323180   0.000000

  0.3076923E+00  0.2307692E+00  0.6555610E-17  0.1092399E-01
    1      -35.366054   1.000000
    2      -13.949585   1.000000
    3      -13.936547   1.000000
    4      -13.917440   1.000000
    5      -13.911908   1.000000
    6      -13.911723   1.000000
    7      -10.651186   1.000000
    8      -10.595632   1.000000
    9      -10.593294   1.000000
   10       -2.604520   1.000000
   11        3.271411   1.000000
   12        4.562930   1.000000
   13        4.657928   1.000000
   14        5.023196   1.000000
   15        5.069376   1.000000
   16        6.002397   1.000000
   17        7.067160   1.000000
   18        7.204120   1.000000
   19        8.380573   1.000000
   20        8.821499   0.947271
   21        8.840181   0.153157
   22        8.978966   0.000000
   23        9.117783   0.000000
   24        9.283727   0.000000

  0.3846154E+00  0.2307692E+00  0.1301942E-16  0.1092399E-01
    1      -35.365601   1.000000
    2      -13.948756   1.000000
    3      -13.939227   1.000000
    4      -13.917729   1.000000
    5      -13.911767   1.000000
    6      -13.911073   1.000000
    7      -10.675849   1.000000
    8      -10.591817   1.000000
    9      -10.590901   1.000000
   10       -2.486290   1.000000
   11        3.290603   1.000000
   12        4.377685   1.000000
   13        4.585831   1.000000
   14        5.074157   1.000000
   15        5.101682   1.000000
   16        5.751642   1.000000
   17        6.826894   1.000000
   18        7.218628   1.000000
   19        8.453413   1.000000
   20        8.833948   0.443715
   21        8.855844   0.000602
   22        9.005950   0.000000
   23        9.115884   0.000000
   24        9.247201   0.000000

  0.4615385E+00  0.2307692E+00  0.1343422E-16  0.1092399E-01
    1      -35.365230   1.000000
    2      -13.947303   1.000000
    3      -13.943268   1.000000
    4      -13.917621   1.000000
    5      -13.912001   1.000000
    6      -13.910669   1.000000
    7      -10.693322   1.000000
    8      -10.595720   1.000000
    9      -10.582292   1.000000
   10       -2.385931   1.000000
   11        3.378800   1.000000
   12        4.247641   1.000000
   13        4.471727   1.000000
   14        5.093760   1.000000
   15        5.121930   1.000000
   16        5.512048   1.000000
   17        6.644431   1.000000
   18        7.235179   1.000000
   19        8.484822   1.000000
   20        8.859992   0.000065
   21        8.883193   0.000000
   22        9.036495   0.000000
   23        9.099972   0.000000
   24        9.211035   0.000000

 -0.4615385E+00  0.2307692E+00 -0.8158469E-17  0.1092399E-01
    1      -35.365030   1.000000
    2      -13.947716   1.000000
    3      -13.945618   1.000000
    4      -13.917098   1.000000
    5      -13.912521   1.000000
    6      -13.910623   1.000000
    7      -10.699960   1.000000
    8      -10.604383   1.000000
    9      -10.571769   1.000000
   10       -2.320423   1.000000
   11        3.455127   1.000000
   12        4.203509   1.000000
   13        4.329608   1.000000
   14        5.065599   1.000000
   15        5.151492   1.000000
   16        5.395659   1.000000
   17        6.526805   1.000000
   18        7.235040   1.000000
   19        8.504899   1.000000
   20        8.862756   0.000012
   21        8.921469   0.000000
   22        9.066077   0.000000
   23        9.082898   0.000000
   24        9.185852   0.000000

 -0.3846154E+00  0.2307692E+00  0.2397417E-18  0.1092399E-01
    1      -35.365045   1.000000
    2      -13.951578   1.000000
    3      -13.944092   1.000000
    4      -13.916311   1.000000
    5      -13.913115   1.000000
    6      -13.910915   1.000000
    7      -10.695773   1.000000
    8      -10.614778   1.000000
    9      -10.561705   1.000000
   10       -2.300093   1.000000
   11        3.435130   1.000000
   12        4.192318   1.000000
   13        4.257185   1.000000
   14        5.010711   1.000000
   15        5.232753   1.000000
   16        5.429522   1.000000
   17        6.439438   1.000000
   18        7.233734   1.000000
   19        8.511471   1.000000
   20        8.842143   0.096712
   21        8.963569   0.000000
   22        9.017441   0.000000