       N       E                     dE             d eps       ncg     rms          rms(c)
DAV:   1     0.427976548457E+03    0.42798E+03   -0.22333E+04  4032   0.226E+03
DAV:   2     0.269011819916E+02   -0.40108E+03   -0.39386E+03  4672   0.493E+02
DAV:   3    -0.203125333343E+02   -0.47214E+02   -0.46198E+02  4968   0.173E+02
DAV:   4    -0.255850802070E+02   -0.52725E+01   -0.52413E+01  7688   0.443E+01
DAV:   5    -0.257749761696E+02   -0.18990E+00   -0.18945E+00  5560   0.729E+00    0.147E+01
DAV:   6    -0.353123858239E+02   -0.95374E+01   -0.23404E+02  6040   0.941E+01    0.220E+01
DAV:   7    -0.249159158192E+02    0.10396E+02   -0.27239E+01  5808   0.281E+01    0.115E+01
DAV:   8    -0.245671427916E+02    0.34877E+00   -0.42848E+01  5968   0.244E+01    0.980E+00
DAV:   9    -0.235232859721E+02    0.10439E+01   -0.10674E+01  6304   0.184E+01    0.180E+00
DAV:  10    -0.236308452213E+02   -0.10756E+00   -0.15496E+00  6248   0.502E+00    0.260E+00
DAV:  11    -0.235429377490E+02    0.87907E-01   -0.60319E-01  5952   0.347E+00    0.489E-01
DAV:  12    -0.235446700940E+02   -0.17323E-02   -0.75669E-02  7392   0.108E+00    0.441E-01
DAV:  13    -0.235459260518E+02   -0.12560E-02   -0.42928E-03  6336   0.271E-01    0.459E-01
DAV:  14    -0.235434509979E+02    0.24751E-02   -0.24503E-02  6056   0.716E-01    0.613E-02
DAV:  15    -0.235434619624E+02   -0.10964E-04   -0.91784E-04  6936   0.170E-01    0.163E-02
DAV:  16    -0.235434698083E+02   -0.78460E-05   -0.54466E-05  6104   0.275E-02    0.190E-02
DAV:  17    -0.235434645886E+02    0.52197E-05   -0.83906E-05  6016   0.401E-02    0.853E-03
DAV:  18    -0.235434639520E+02    0.63664E-06   -0.11525E-05  5936   0.165E-02    0.174E-03
DAV:  19    -0.235434640091E+02   -0.57187E-07   -0.39552E-07  3664   0.269E-03
   1 F= -.23543464E+02 E0= -.23542482E+02  d E =-.196353E-02
