 vasp.6.0.8 29Jun18 (build Jun 13 2019 12:54:44) complex

 executed on      IFC18_CrayMPICH date 2021.12.05  14:21:49
 running   64 mpi-ranks, with    1 threads/rank
 distrk:  each k-point on   16 cores,    4 groups
 distr:  one band on NCORES_PER_BAND=   4 cores,    4 groups


--------------------------------------------------------------------------------------------------------


 INCAR:
 POTCAR:    PAW_PBE U 06Sep2000
 POTCAR:    PAW_PBE Bi_d 06Sep2000
 POTCAR:    PAW_PBE Pt 04Feb2005
 POTCAR:    PAW_PBE U 06Sep2000
   VRHFIN =U:  [Xe,5d,4f]
   LEXCH  = PE
   EATOM  =  1405.3058 eV,  103.2871 Ry

   TITEL  = PAW_PBE U 06Sep2000
   LULTRA =        F    use ultrasoft PP ?
   IUNSCR =        1    unscreen: 0-lin 1-nonlin 2-no
   RPACOR =    2.200    partial core radius
   POMASS =  238.029; ZVAL   =   14.000    mass and valenz
   RCORE  =    2.800    outmost cutoff radius
   RWIGS  =    3.000; RWIGS  =    1.588    wigner-seitz radius (au A)
   ENMAX  =  252.502; ENMIN  =  189.376 eV
   RCLOC  =    1.811    cutoff for local pot
   LCOR   =        T    correct aug charges
   LPAW   =        T    paw PP
   EAUG   =  526.410
   DEXC   =    0.000
   RMAX   =    2.863    core radius for proj-oper
   RAUG   =    1.300    factor for augmentation sphere
   RDEP   =    2.950    radius for radial grids
   RDEPT  =    2.270    core radius for aug-charge

   Atomic configuration
   18 entries
     n  l   j            E        occ.
     1  0  0.50   -116038.1941   2.0000
     2  0  0.50    -21694.8835   2.0000
     2  1  1.50    -18009.1553   6.0000
     3  0  0.50     -5481.2929   2.0000
     3  1  1.50     -4458.9283   6.0000
     3  2  2.50     -3575.9978  10.0000
     4  0  0.50     -1400.5351   2.0000
     4  1  1.50     -1066.7807   6.0000
     4  2  2.50      -732.1336  10.0000
     4  3  3.50      -377.4393  14.0000
     5  0  0.50      -314.7366   2.0000
     5  1  1.50      -211.6057   6.0000
     5  2  2.50      -103.2045  10.0000
     6  0  0.50       -50.6026   2.0000
     7  0  0.50        -4.5896   2.0000
     6  1  1.50       -25.2884   6.0000
     6  2  1.50        -3.1039   2.0000
     5  3  2.50        -6.3670   2.0000
   Description
     l       E           TYP  RCUT    TYP  RCUT
     0    -50.6026097     23  2.600
     0     -4.5896371     23  2.600
     1    -25.2883770     23  2.500
     1     27.2116520     23  2.500
     2     -3.1038686     23  2.500
     2      0.8290654     23  2.500
     3     -6.3670133     23  2.800
     3     -7.7275959     23  2.800
  local pseudopotential read in
  partial core-charges read in
  partial kinetic energy density read in
  atomic valenz-charges read in
  non local Contribution for L=           0  read in
    real space projection operators read in
  non local Contribution for L=           0  read in
    real space projection operators read in
  non local Contribution for L=           1  read in
    real space projection operators read in
  non local Contribution for L=           1  read in
    real space projection operators read in
  non local Contribution for L=           2  read in
    real space projection operators read in
  non local Contribution for L=           2  read in
    real space projection operators read in
  non local Contribution for L=           3  read in
    real space projection operators read in
  non local Contribution for L=           3  read in
    real space projection operators read in
    PAW grid and wavefunctions read in

   number of l-projection  operators is LMAX  =           8
   number of lm-projection operators is LMMAX =          32

 POTCAR:    PAW_PBE Bi_d 06Sep2000
   VRHFIN =Bi:
   LEXCH  = PE
   EATOM  =  1959.2045 eV,  143.9975 Ry

   TITEL  = PAW_PBE Bi_d 06Sep2000
   LULTRA =        F    use ultrasoft PP ?
   IUNSCR =        1    unscreen: 0-lin 1-nonlin 2-no
   RPACOR =    2.200    partial core radius
   POMASS =  208.980; ZVAL   =   15.000    mass and valenz
   RCORE  =    2.500    outmost cutoff radius
   RWIGS  =    3.090; RWIGS  =    1.635    wigner-seitz radius (au A)
   ENMAX  =  242.839; ENMIN  =  182.129 eV
   ICORE  =        3    local potential
   LCOR   =        T    correct aug charges
   LPAW   =        T    paw PP
   EAUG   =  442.899
   DEXC   =    0.000
   RMAX   =    2.551    core radius for proj-oper
   RAUG   =    1.300    factor for augmentation sphere
   RDEP   =    2.650    radius for radial grids
   RDEPT  =    2.039    core radius for aug-charge

   Atomic configuration
   16 entries
     n  l   j            E        occ.
     1  0  0.50    -90639.6581   2.0000
     2  0  0.50    -16282.4666   2.0000
     2  1  1.50    -13922.8286   6.0000
     3  0  0.50     -3930.4763   2.0000
     3  1  1.50     -3256.7013   6.0000
     3  2  2.50     -2581.6168  10.0000
     4  0  0.50      -902.2614   2.0000
     4  1  1.50      -681.5915   6.0000
     4  2  2.50      -429.8249  10.0000
     4  3  3.50      -152.6004  14.0000
     5  0  0.50      -157.7156   2.0000
     5  1  1.50       -95.8054   6.0000
     5  2  2.50       -27.0806  10.0000
     6  0  0.50       -14.4732   2.0000
     6  1  1.50        -4.5702   3.0000
     5  3  2.50        -2.7212   0.0000
   Description
     l       E           TYP  RCUT    TYP  RCUT
     2    -27.0805982     23  2.500
     2     -1.3605826     23  2.500
     0    -14.4732271     23  2.500
     0      6.8029130     23  2.500
     1     -4.5701651     23  2.500
     1     13.6058260     23  2.500
     3     -1.3605826      7  2.500
  local pseudopotential read in
  partial core-charges read in
  partial kinetic energy density read in
  atomic valenz-charges read in
  non local Contribution for L=           2  read in
    real space projection operators read in
  non local Contribution for L=           2  read in
    real space projection operators read in
  non local Contribution for L=           0  read in
    real space projection operators read in
  non local Contribution for L=           0  read in
    real space projection operators read in
  non local Contribution for L=           1  read in
    real space projection operators read in
  non local Contribution for L=           1  read in
    real space projection operators read in
    PAW grid and wavefunctions read in

   number of l-projection  operators is LMAX  =           6
   number of lm-projection operators is LMMAX =          18

 POTCAR:    PAW_PBE Pt 04Feb2005
   VRHFIN =Pt: s1d9
   LEXCH  = PE
   EATOM  =   729.1176 eV,   53.5886 Ry

   TITEL  = PAW_PBE Pt 04Feb2005
   LULTRA =        F    use ultrasoft PP ?
   IUNSCR =        1    unscreen: 0-lin 1-nonlin 2-no
   RPACOR =    2.330    partial core radius
   POMASS =  195.080; ZVAL   =   10.000    mass and valenz
   RCORE  =    2.600    outmost cutoff radius
   RWIGS  =    2.750; RWIGS  =    1.455    wigner-seitz radius (au A)
   ENMAX  =  230.283; ENMIN  =  172.712 eV
   ICORE  =        3    local potential
   LCOR   =        T    correct aug charges
   LPAW   =        T    paw PP
   EAUG   =  358.966
   DEXC   =    0.000
   RMAX   =    2.658    core radius for proj-oper
   RAUG   =    1.300    factor for augmentation sphere
   RDEP   =    2.761    radius for radial grids
   RDEPT  =    2.203    core radius for aug-charge

   Atomic configuration
   16 entries
     n  l   j            E        occ.
     1  0  0.50    -78401.1885   2.0000
     2  0  0.50    -13770.7750   2.0000
     2  1  1.50    -11931.0468   6.0000
     3  0  0.50     -3234.7234   2.0000
     3  1  1.50     -2699.2216   6.0000
     3  2  2.50     -2119.5714  10.0000
     4  0  0.50      -695.1528   2.0000
     4  1  1.50      -519.6034   6.0000
     4  2  2.50      -306.6786  10.0000
     4  3  3.50       -70.1041  14.0000
     5  0  0.50      -101.7747   2.0000
     5  1  1.50       -55.9873   6.0000
     5  2  2.50        -6.1423   9.0000
     6  0  0.50        -5.6573   1.0000
     6  1  1.50        -6.8029   0.0000
     5  3  2.50        -1.3606   0.0000
   Description
     l       E           TYP  RCUT    TYP  RCUT
     2     -6.1423404     23  2.500
     2     -7.5029230     23  2.500
     0     -5.6573207     23  2.500
     0      0.7416693     23  2.500
     1     -2.7211652     23  2.600
     1     20.4087390     23  2.600
     3     -1.3605826     23  2.500
  local pseudopotential read in
  partial core-charges read in
  partial kinetic energy density read in
  atomic valenz-charges read in
  non local Contribution for L=           2  read in
    real space projection operators read in
  non local Contribution for L=           2  read in
    real space projection operators read in
  non local Contribution for L=           0  read in
    real space projection operators read in
  non local Contribution for L=           0  read in
    real space projection operators read in
  non local Contribution for L=           1  read in
    real space projection operators read in
  non local Contribution for L=           1  read in
    real space projection operators read in
    PAW grid and wavefunctions read in

   number of l-projection  operators is LMAX  =           6
   number of lm-projection operators is LMMAX =          18

 WARNING: PSMAXN for non-local potential too small
          PSMAXN should be >   13.5545592237991       NTYP=           1

 -----------------------------------------------------------------------------
|                                                                             |
|  ADVICE TO THIS USER RUNNING 'VASP/VAMP'   (HEAR YOUR MASTER'S VOICE ...):  |
|                                                                             |
|      You enforced a specific xc-type in the INCAR file,                     |
|      a different type was found on the POTCAR file                          |
|          I HOPE YOU KNOW, WHAT YOU ARE  DOING                               |
|                                                                             |
 -----------------------------------------------------------------------------

  PAW_PBE U 06Sep2000                   :
 energy of atom  1       EATOM=-1405.3058
 kinetic energy error for atom=    0.0006 (will be added to EATOM!!)
  PAW_PBE Bi_d 06Sep2000                :
 energy of atom  2       EATOM=-1959.2045
 kinetic energy error for atom=    0.0012 (will be added to EATOM!!)
  PAW_PBE Pt 04Feb2005                  :
 energy of atom  3       EATOM= -729.1176
 kinetic energy error for atom=    0.0010 (will be added to EATOM!!)


 POSCAR: U1 Bi1 Pt1
  positions in direct lattice
  No initial velocities read in
 exchange correlation table for  LEXCH =       14
   RHO(1)=    0.500       N(1)  =     2000
   RHO(2)=  100.500       N(2)  =     4000



--------------------------------------------------------------------------------------------------------


 ion  position               nearest neighbor table
   1  0.250  0.250  0.250-   3 2.97   3 2.97   3 2.97   3 2.97   2 3.42   2 3.42   2 3.42   2 3.42
                             2 3.42   2 3.42
   2  0.750  0.750  0.750-   3 2.97   3 2.97   3 2.97   3 2.97   1 3.42   1 3.42   1 3.42   1 3.42
                             1 3.42   1 3.42
   3  0.000  0.000  0.000-   2 2.97   2 2.97   1 2.97   2 2.97   1 2.97   1 2.97   1 2.97   2 2.97


  LATTYP: Found a face centered cubic cell.
 ALAT       =     6.8494696690

  Lattice vectors:

 A1 = (   0.0000000000,   3.4247348345,   3.4247348345)
 A2 = (   3.4247348345,   0.0000000000,   3.4247348345)
 A3 = (   3.4247348345,   3.4247348345,   0.0000000000)


Analysis of symmetry for initial positions (statically):
=====================================================================
 Subroutine PRICEL returns:
 Original cell was already a primitive cell.


 Routine SETGRP: Setting up the symmetry group for a
 face centered cubic supercell.


 Subroutine GETGRP returns: Found 24 space group operations
 (whereof 24 operations were pure point group operations)
 out of a pool of 48 trial point group operations.


The static configuration has the point symmetry T_d .


Analysis of symmetry for dynamics (positions and initial velocities):
=====================================================================
 Subroutine PRICEL returns:
 Original cell was already a primitive cell.


 Routine SETGRP: Setting up the symmetry group for a
 face centered cubic supercell.


 Subroutine GETGRP returns: Found 24 space group operations
 (whereof 24 operations were pure point group operations)
 out of a pool of 48 trial point group operations.


The dynamic configuration has the point symmetry T_d .


 Subroutine INISYM returns: Found 24 space group operations
 (whereof 24 operations are pure point group operations),
 and found     1 'primitive' translations


----------------------------------------------------------------------------------------

                                     Primitive cell

  volume of cell :      80.3361

  direct lattice vectors                    reciprocal lattice vectors
     0.000000000  3.424734835  3.424734835    -0.145996705  0.145996705  0.145996705
     3.424734835  0.000000000  3.424734835     0.145996705 -0.145996705  0.145996705
     3.424734835  3.424734835  0.000000000     0.145996705  0.145996705 -0.145996705

  length of vectors
     4.843306451  4.843306451  4.843306451     0.252873710  0.252873710  0.252873710

  position of ions in fractional coordinates (direct lattice)
     0.250000000  0.250000000  0.250000000
     0.750000000  0.750000000  0.750000000
     0.000000000  0.000000000  0.000000000

  ion indices of the primitive-cell ions
   primitive index   ion index
                 1           1
                 2           2
                 3           3

----------------------------------------------------------------------------------------



 KPOINTS: KPOINTS

Automatic generation of k-mesh.
Space group operators:
 irot       det(A)        alpha          n_x          n_y          n_z        tau_x        tau_y        tau_z
    1     1.000000     0.000000     1.000000     0.000000     0.000000     0.000000     0.000000     0.000000
    2     1.000000   120.000000    -0.577350    -0.577350    -0.577350     0.000000     0.000000     0.000000
    3     1.000000   120.000000     0.577350     0.577350     0.577350     0.000000     0.000000     0.000000
    4    -1.000000    90.000000     0.000000     0.000000    -1.000000     0.000000     0.000000     0.000000
    5    -1.000000   180.000000    -0.000000     0.707107     0.707107     0.000000     0.000000     0.000000
    6    -1.000000    90.000000     0.000000     1.000000     0.000000     0.000000     0.000000     0.000000
    7     1.000000   180.000000     0.000000     0.000000    -1.000000     0.000000     0.000000     0.000000
    8     1.000000   120.000000    -0.577350     0.577350     0.577350     0.000000     0.000000     0.000000
    9     1.000000   120.000000    -0.577350     0.577350    -0.577350     0.000000     0.000000     0.000000
   10    -1.000000    90.000000     0.000000     0.000000     1.000000     0.000000     0.000000     0.000000
   11    -1.000000    90.000000    -1.000000    -0.000000    -0.000000     0.000000     0.000000     0.000000
   12    -1.000000   180.000000     0.707107     0.000000     0.707107     0.000000     0.000000     0.000000
   13     1.000000   120.000000     0.577350    -0.577350     0.577350     0.000000     0.000000     0.000000
   14     1.000000   120.000000    -0.577350    -0.577350     0.577350     0.000000     0.000000     0.000000
   15     1.000000   180.000000     1.000000     0.000000     0.000000     0.000000     0.000000     0.000000
   16    -1.000000    90.000000     0.000000    -1.000000     0.000000     0.000000     0.000000     0.000000
   17    -1.000000   180.000000     0.707107     0.707107     0.000000     0.000000     0.000000     0.000000
   18    -1.000000    90.000000     1.000000     0.000000    -0.000000     0.000000     0.000000     0.000000
   19     1.000000   120.000000     0.577350    -0.577350    -0.577350     0.000000     0.000000     0.000000
   20     1.000000   180.000000    -0.000000    -1.000000    -0.000000     0.000000     0.000000     0.000000
   21     1.000000   120.000000     0.577350     0.577350    -0.577350     0.000000     0.000000     0.000000
   22    -1.000000   180.000000     0.000000    -0.707107     0.707107     0.000000     0.000000     0.000000
   23    -1.000000   180.000000     0.707107    -0.707107    -0.000000     0.000000     0.000000     0.000000
   24    -1.000000   180.000000    -0.707107     0.000000     0.707107     0.000000     0.000000     0.000000

 Subroutine IBZKPT returns following result:
 ===========================================

 Found     84 irreducible k-points:

 Following reciprocal coordinates:
            Coordinates               Weight
  0.000000  0.000000  0.000000      1.000000
  0.076923 -0.000000  0.000000      8.000000
  0.153846 -0.000000  0.000000      8.000000
  0.230769  0.000000  0.000000      8.000000
  0.307692 -0.000000  0.000000      8.000000
  0.384615  0.000000  0.000000      8.000000
  0.461538 -0.000000  0.000000      8.000000
  0.076923  0.076923  0.000000      6.000000
  0.153846  0.076923  0.000000     24.000000
  0.230769  0.076923  0.000000     24.000000
  0.307692  0.076923  0.000000     24.000000
  0.384615  0.076923  0.000000     24.000000
  0.461538  0.076923  0.000000     24.000000
 -0.461538  0.076923 -0.000000     24.000000
 -0.384615  0.076923 -0.000000     24.000000
 -0.307692  0.076923 -0.000000     24.000000
 -0.230769  0.076923  0.000000     24.000000
 -0.153846  0.076923  0.000000     24.000000
 -0.076923  0.076923 -0.000000     12.000000
  0.153846  0.153846  0.000000      6.000000
  0.230769  0.153846  0.000000     24.000000
  0.307692  0.153846  0.000000     24.000000
  0.384615  0.153846  0.000000     24.000000
  0.461538  0.153846  0.000000     24.000000
 -0.461538  0.153846 -0.000000     24.000000
 -0.384615  0.153846 -0.000000     24.000000
 -0.307692  0.153846 -0.000000     24.000000
 -0.230769  0.153846 -0.000000     24.000000
 -0.153846  0.153846 -0.000000     12.000000
  0.230769  0.230769  0.000000      6.000000
  0.307692  0.230769  0.000000     24.000000
  0.384615  0.230769  0.000000     24.000000
  0.461538  0.230769  0.000000     24.000000
 -0.461538  0.230769 -0.000000     24.000000
 -0.384615  0.230769  0.000000     24.000000
 -0.307692  0.230769 -0.000000     24.000000
 -0.230769  0.230769  0.000000     12.000000
  0.307692  0.307692  0.000000      6.000000
  0.384615  0.307692  0.000000     24.000000
  0.461538  0.307692  0.000000     24.000000
 -0.461538  0.307692 -0.000000     24.000000
 -0.384615  0.307692 -0.000000     24.000000
 -0.307692  0.307692 -0.000000     12.000000
  0.384615  0.384615  0.000000      6.000000
  0.461538  0.384615  0.000000     24.000000
 -0.461538  0.384615 -0.000000     24.000000
 -0.384615  0.384615  0.000000     12.000000
  0.461538  0.461538  0.000000      6.000000
 -0.461538  0.461538 -0.000000     12.000000
  0.230769  0.153846  0.076923     24.000000
  0.307692  0.153846  0.076923     48.000000
  0.384615  0.153846  0.076923     48.000000
  0.461538  0.153846  0.076923     48.000000
 -0.461538  0.153846  0.076923     48.000000
  0.307692  0.230769  0.076923     24.000000
  0.384615  0.230769  0.076923     48.000000
  0.461538  0.230769  0.076923     48.000000
 -0.461538  0.230769  0.076923     48.000000
 -0.384615  0.230769  0.076923     48.000000
 -0.307692  0.230769  0.076923     48.000000
 -0.230769  0.230769  0.076923     48.000000
 -0.153846  0.230769  0.076923     24.000000
  0.384615  0.307692  0.076923     24.000000
  0.461538  0.307692  0.076923     48.000000
 -0.461538  0.307692  0.076923     48.000000
 -0.384615  0.307692  0.076923     48.000000
 -0.307692  0.307692  0.076923     48.000000
 -0.230769  0.307692  0.076923     24.000000
  0.461538  0.384615  0.076923     24.000000
 -0.461538  0.384615  0.076923     48.000000
 -0.384615  0.384615  0.076923     48.000000
 -0.307692  0.384615  0.076923     24.000000
 -0.461538  0.461538  0.076923     24.000000
 -0.384615  0.461538  0.076923     24.000000
  0.461538  0.307692  0.153846     24.000000
 -0.461538  0.307692  0.153846     48.000000
 -0.384615  0.307692  0.153846     48.000000
 -0.461538  0.384615  0.153846     24.000000
 -0.384615  0.384615  0.153846     48.000000
 -0.307692  0.384615  0.153846     48.000000
 -0.230769  0.384615  0.153846     24.000000
 -0.384615  0.461538  0.153846     24.000000
 -0.307692  0.461538  0.153846     24.000000
 -0.307692  0.461538  0.230769     24.000000

 Following cartesian coordinates:
            Coordinates               Weight
  0.000000  0.000000  0.000000      1.000000
 -0.011593  0.011593  0.011593      8.000000
 -0.023186  0.023186  0.023186      8.000000
 -0.034779  0.034779  0.034779      8.000000
 -0.046372  0.046372  0.046372      8.000000
 -0.057965  0.057965  0.057965      8.000000
 -0.069558  0.069558  0.069558      8.000000
  0.000000  0.000000  0.023186      6.000000
 -0.011593  0.011593  0.034779     24.000000
 -0.023186  0.023186  0.046372     24.000000
 -0.034779  0.034779  0.057965     24.000000
 -0.046372  0.046372  0.069558     24.000000
 -0.057965  0.057965  0.081151     24.000000
  0.081151 -0.081151 -0.057965     24.000000
  0.069558 -0.069558 -0.046372     24.000000
  0.057965 -0.057965 -0.034779     24.000000
  0.046372 -0.046372 -0.023186     24.000000
  0.034779 -0.034779 -0.011593     24.000000
  0.023186 -0.023186  0.000000     12.000000
  0.000000  0.000000  0.046372      6.000000
 -0.011593  0.011593  0.057965     24.000000
 -0.023186  0.023186  0.069558     24.000000
 -0.034779  0.034779  0.081151     24.000000
 -0.046372  0.046372  0.092744     24.000000
  0.092744 -0.092744 -0.046372     24.000000
  0.081151 -0.081151 -0.034779     24.000000
  0.069558 -0.069558 -0.023186     24.000000
  0.057965 -0.057965 -0.011593     24.000000
  0.046372 -0.046372  0.000000     12.000000
  0.000000 -0.000000  0.069558      6.000000
 -0.011593  0.011593  0.081151     24.000000
 -0.023186  0.023186  0.092744     24.000000
 -0.034779  0.034779  0.104337     24.000000
  0.104337 -0.104337 -0.034779     24.000000
  0.092744 -0.092744 -0.023186     24.000000
  0.081151 -0.081151 -0.011593     24.000000
  0.069558 -0.069558  0.000000     12.000000
  0.000000  0.000000  0.092744      6.000000
 -0.011593  0.011593  0.104337     24.000000
 -0.023186  0.023186  0.115930     24.000000
  0.115930 -0.115930 -0.023186     24.000000
  0.104337 -0.104337 -0.011593     24.000000
  0.092744 -0.092744  0.000000     12.000000
  0.000000  0.000000  0.115930      6.000000
 -0.011593  0.011593  0.127523     24.000000
  0.127523 -0.127523 -0.011593     24.000000
  0.115930 -0.115930  0.000000     12.000000
  0.000000 -0.000000  0.139116      6.000000
  0.139116 -0.139116 -0.000000     12.000000
  0.000000  0.023186  0.046372     24.000000
 -0.011593  0.034779  0.057965     48.000000
 -0.023186  0.046372  0.069558     48.000000
 -0.034779  0.057965  0.081151     48.000000
  0.104337 -0.081151 -0.057965     48.000000
  0.000000  0.023186  0.069558     24.000000
 -0.011593  0.034779  0.081151     48.000000
 -0.023186  0.046372  0.092744     48.000000
  0.115930 -0.092744 -0.046372     48.000000
  0.104337 -0.081151 -0.034779     48.000000
  0.092744 -0.069558 -0.023186     48.000000
  0.081151 -0.057965 -0.011593     48.000000
  0.069558 -0.046372  0.000000     24.000000
  0.000000  0.023186  0.092744     24.000000
 -0.011593  0.034779  0.104337     48.000000
  0.127523 -0.104337 -0.034779     48.000000
  0.115930 -0.092744 -0.023186     48.000000
  0.104337 -0.081151 -0.011593     48.000000
  0.092744 -0.069558 -0.000000     24.000000
  0.000000  0.023186  0.115930     24.000000
  0.139116 -0.115930 -0.023186     48.000000
  0.127523 -0.104337 -0.011593     48.000000
  0.115930 -0.092744 -0.000000     24.000000
  0.150709 -0.127523 -0.011593     24.000000
  0.139116 -0.115930 -0.000000     24.000000
  0.000000  0.046372  0.092744     24.000000
  0.139116 -0.092744 -0.046372     48.000000
  0.127523 -0.081151 -0.034779     48.000000
  0.150709 -0.104337 -0.034779     24.000000
  0.139116 -0.092744 -0.023186     48.000000
  0.127523 -0.081151 -0.011593     48.000000
  0.115930 -0.069558 -0.000000     24.000000
  0.150709 -0.104337 -0.011593     24.000000
  0.139116 -0.092744 -0.000000     24.000000
  0.150709 -0.081151 -0.011593     24.000000



--------------------------------------------------------------------------------------------------------




 Dimension of arrays:
   k-points           NKPTS =     84   k-points in BZ     NKDIM =     84   number of bands    NBANDS=     24
   number of dos      NEDOS =    301   number of ions     NIONS =      3
   non local maximal  LDIM  =      8   non local SUM 2l+1 LMDIM =     32
   total plane-waves  NPLWV =  74088
   max r-space proj   IRMAX =      1   max aug-charges    IRDMAX= 450133
   dimension x,y,z NGX =    42 NGY =   42 NGZ =   42
   dimension x,y,z NGXF=    84 NGYF=   84 NGZF=   84
   support grid    NGXF=   168 NGYF=  168 NGZF=  168
   ions per type =               1   1   1
   NGX,Y,Z   is equivalent  to a cutoff of  14.42, 14.42, 14.42 a.u.
   NGXF,Y,Z  is equivalent  to a cutoff of  28.83, 28.83, 28.83 a.u.

 SYSTEM =  unknown system
 POSCAR =  U1 Bi1 Pt1

 Startparameter for this run:
   NWRITE =      2    write-flag & timer
   PREC   = acc       normal or accurate (medium, high low for compatibility)
   ISTART =      0    job   : 0-new  1-cont  2-samecut
   ICHARG =      2    charge: 1-file 2-atom 10-const
   ISPIN  =      1    spin polarized calculation?
   LNONCOLLINEAR =      F non collinear calculations
   LSORBIT =      F    spin-orbit coupling
   INIWAV =      1    electr: 0-lowe 1-rand  2-diag
   LASPH  =      F    aspherical Exc in radial PAW
   METAGGA=      F    non-selfconsistent MetaGGA calc.

 Electronic Relaxation 1
   ENCUT  =  700.0 eV  51.45 Ry    7.17 a.u.  10.45 10.45 10.45*2*pi/ulx,y,z
   ENINI  =  700.0     initial cutoff
   ENAUG  =  526.4 eV  augmentation charge cutoff
   NELM   =     60;   NELMIN=  5; NELMDL= -5     # of ELM steps
   EDIFF  = 0.1E-06   stopping-criterion for ELM
   LREAL  =      F    real-space projection
   NLSPLINE    = F    spline interpolate recip. space projectors
   LCOMPAT=      F    compatible to vasp.4.4
   GGA_COMPAT  = T    GGA compatible to vasp.4.4-vasp.4.6
   LMAXPAW     = -100 max onsite density
   LMAXMIX     =    2 max onsite mixed and CHGCAR
   VOSKOWN=      0    Vosko Wilk Nusair interpolation
   ROPT   =    0.00000   0.00000   0.00000
 Ionic relaxation
   EDIFFG = 0.1E-05   stopping-criterion for IOM
   NSW    =      0    number of steps for IOM
   NBLOCK =      1;   KBLOCK =      1    inner block; outer block
   IBRION =     -1    ionic relax: 0-MD 1-quasi-New 2-CG
   NFREE  =      0    steps in history (QN), initial steepest desc. (CG)
   ISIF   =      3    stress and relaxation
   IWAVPR =     10    prediction:  0-non 1-charg 2-wave 3-comb
   ISYM   =      2    0-nonsym 1-usesym 2-fastsym
   LCORR  =      T    Harris-Foulkes like correction to forces

   POTIM  = 0.5000    time-step for ionic-motion
   TEIN   =    0.0    initial temperature
   TEBEG  =    0.0;   TEEND  =   0.0 temperature during run
   SMASS  =  -3.00    Nose mass-parameter (am)
   estimated Nose-frequenzy (Omega)   =  0.10E-29 period in steps = 0.13E+47 mass=  -0.536E-27a.u.
   SCALEE = 1.0000    scale energy and forces
   NPACO  =    256;   APACO  = 16.0  distance and # of slots for P.C.
   PSTRESS=    0.0 pullay stress

  Mass of Ions in am
   POMASS = 238.03208.98195.08
  Ionic Valenz
   ZVAL   =  14.00 15.00 10.00
  Atomic Wigner-Seitz radii
   RWIGS  =  -1.00 -1.00 -1.00
  virtual crystal weights
   VCA    =   1.00  1.00  1.00
   NELECT =      39.0000    total number of electrons
   NUPDOWN=      -1.0000    fix difference up-down

 DOS related values:
   EMIN   =  10.00;   EMAX   =-10.00  energy-range for DOS
   EFERMI =   0.00
   ISMEAR =     0;   SIGMA  =   0.01  broadening in eV -4-tet -1-fermi 0-gaus

 Electronic relaxation 2 (details)
   IALGO  =     38    algorithm
   LDIAG  =      T    sub-space diagonalisation (order eigenvalues)
   LSUBROT=      F    optimize rotation matrix (better conditioning)
   TURBO    =      0    0=normal 1=particle mesh
   IRESTART =      0    0=no restart 2=restart with 2 vectors
   NREBOOT  =      0    no. of reboots
   NMIN     =      0    reboot dimension
   EREF     =   0.00    reference energy to select bands
   IMIX   =      4    mixing-type and parameters
     AMIX     =   0.40;   BMIX     =  1.00
     AMIX_MAG =   1.60;   BMIX_MAG =  1.00
     AMIN     =   0.10
     WC   =   100.;   INIMIX=   1;  MIXPRE=   1;  MAXMIX= -45

 Intra band minimization:
   WEIMIN = 0.0000     energy-eigenvalue tresh-hold
   EBREAK =  0.10E-08  absolut break condition
   DEPER  =   0.30     relativ break condition

   TIME   =   0.40     timestep for ELM

  volume/ion in A,a.u.               =      26.78       180.71
  Fermi-wavevector in a.u.,A,eV,Ry     =   1.286647  2.431410 22.523908  1.655461
  Thomas-Fermi vector in A             =   2.418709

 Write flags
   LWAVE        =      F    write WAVECAR
   LDOWNSAMPLE  =      F    k-point downsampling of WAVECAR
   LCHARG       =      F    write CHGCAR
   LVTOT        =      F    write LOCPOT, total local potential
   LVHAR        =      F    write LOCPOT, Hartree potential only
   LELF         =      F    write electronic localiz. function (ELF)
   LORBIT       =      0    0 simple, 1 ext, 2 COOP (PROOUT), +10 PAW based schemes


 Dipole corrections
   LMONO  =      F    monopole corrections only (constant potential shift)
   LDIPOL =      F    correct potential (dipole corrections)
   IDIPOL =      0    1-x, 2-y, 3-z, 4-all directions
   EPSILON=  1.0000000 bulk dielectric constant

 Exchange correlation treatment:
   GGA     =    PS    GGA type
   LEXCH   =    14    internal setting for exchange type
   VOSKOWN=      0    Vosko Wilk Nusair interpolation
   LHFCALC =     F    Hartree Fock is set to
   LHFONE  =     F    Hartree Fock one center treatment
   AEXX    =    0.0000 exact exchange contribution

 Linear response parameters
   LEPSILON=     F    determine dielectric tensor
   LRPA    =     F    only Hartree local field effects (RPA)
   LNABLA  =     F    use nabla operator in PAW spheres
   LVEL    =     F    velocity operator in full k-point grid
   LINTERFAST=   F  fast interpolation
   KINTER  =     0    interpolate to denser k-point grid
   CSHIFT  =0.1000    complex shift for real part using Kramers Kronig
   OMEGAMAX=  -1.0    maximum frequency
   DEG_THRESHOLD= 0.2000000E-02 threshold for treating states as degnerate
   RTIME   =   -0.100 relaxation time in fs
  (WPLASMAI=    0.000 imaginary part of plasma frequency in eV, 0.658/RTIME)
   DFIELD  = 0.0000000 0.0000000 0.0000000 field for delta impulse in time

 Orbital magnetization related:
   ORBITALMAG=     F  switch on orbital magnetization
   LCHIMAG   =     F  perturbation theory with respect to B field
   DQ        =  0.001000  dq finite difference perturbation B field
   LLRAUG    =     F  two centre corrections for induced B field



--------------------------------------------------------------------------------------------------------


 Static calculation
 charge density and potential will be updated during run
 non-spin polarized calculation
 Variant of blocked Davidson
 Davidson routine will perform the subspace rotation
 perform sub-space diagonalisation
    after iterative eigenvector-optimisation
 modified Broyden-mixing scheme, WC =      100.0
 initial mixing is a Kerker type mixing with AMIX =  0.4000 and BMIX =      1.0000
 Hartree-type preconditioning will be used
 using additional bands            4
 reciprocal scheme for non local part
 use partial core corrections
 calculate Harris-corrections to forces
   (improved forces if not selfconsistent)
 use gradient corrections
 use of overlap-Matrix (Vanderbilt PP)
 Gauss-broadening in eV      SIGMA  =   0.01


--------------------------------------------------------------------------------------------------------


  energy-cutoff  :      700.00
  volume of cell :       80.34
      direct lattice vectors                 reciprocal lattice vectors
     0.000000000  3.424734835  3.424734835    -0.145996705  0.145996705  0.145996705
     3.424734835  0.000000000  3.424734835     0.145996705 -0.145996705  0.145996705
     3.424734835  3.424734835  0.000000000     0.145996705  0.145996705 -0.145996705

  length of vectors
     4.843306451  4.843306451  4.843306451     0.252873710  0.252873710  0.252873710



 k-points in units of 2pi/SCALE and weight: KPOINTS
   0.00000000  0.00000000  0.00000000       0.000
  -0.01159304  0.01159304  0.01159304       0.004
  -0.02318608  0.02318608  0.02318608       0.004
  -0.03477911  0.03477911  0.03477911       0.004
  -0.04637215  0.04637215  0.04637215       0.004
  -0.05796519  0.05796519  0.05796519       0.004
  -0.06955823  0.06955823  0.06955823       0.004
   0.00000000  0.00000000  0.02318608       0.003
  -0.01159304  0.01159304  0.03477911       0.011
  -0.02318608  0.02318608  0.04637215       0.011
  -0.03477911  0.03477911  0.05796519       0.011
  -0.04637215  0.04637215  0.06955823       0.011
  -0.05796519  0.05796519  0.08115127       0.011
   0.08115127 -0.08115127 -0.05796519       0.011
   0.06955823 -0.06955823 -0.04637215       0.011
   0.05796519 -0.05796519 -0.03477911       0.011
   0.04637215 -0.04637215 -0.02318608       0.011
   0.03477911 -0.03477911 -0.01159304       0.011
   0.02318608 -0.02318608  0.00000000       0.005
   0.00000000  0.00000000  0.04637215       0.003
  -0.01159304  0.01159304  0.05796519       0.011
  -0.02318608  0.02318608  0.06955823       0.011
  -0.03477911  0.03477911  0.08115127       0.011
  -0.04637215  0.04637215  0.09274430       0.011
   0.09274430 -0.09274430 -0.04637215       0.011
   0.08115127 -0.08115127 -0.03477911       0.011
   0.06955823 -0.06955823 -0.02318608       0.011
   0.05796519 -0.05796519 -0.01159304       0.011
   0.04637215 -0.04637215  0.00000000       0.005
   0.00000000 -0.00000000  0.06955823       0.003
  -0.01159304  0.01159304  0.08115127       0.011
  -0.02318608  0.02318608  0.09274430       0.011
  -0.03477911  0.03477911  0.10433734       0.011
   0.10433734 -0.10433734 -0.03477911       0.011
   0.09274430 -0.09274430 -0.02318608       0.011
   0.08115127 -0.08115127 -0.01159304       0.011
   0.06955823 -0.06955823  0.00000000       0.005
   0.00000000  0.00000000  0.09274430       0.003
  -0.01159304  0.01159304  0.10433734       0.011
  -0.02318608  0.02318608  0.11593038       0.011
   0.11593038 -0.11593038 -0.02318608       0.011
   0.10433734 -0.10433734 -0.01159304       0.011
   0.09274430 -0.09274430  0.00000000       0.005
   0.00000000  0.00000000  0.11593038       0.003
  -0.01159304  0.01159304  0.12752342       0.011
   0.12752342 -0.12752342 -0.01159304       0.011
   0.11593038 -0.11593038  0.00000000       0.005
   0.00000000 -0.00000000  0.13911646       0.003
   0.13911646 -0.13911646 -0.00000000       0.005
   0.00000000  0.02318608  0.04637215       0.011
  -0.01159304  0.03477911  0.05796519       0.022
  -0.02318608  0.04637215  0.06955823       0.022
  -0.03477911  0.05796519  0.08115127       0.022
   0.10433734 -0.08115127 -0.05796519       0.022
   0.00000000  0.02318608  0.06955823       0.011
  -0.01159304  0.03477911  0.08115127       0.022
  -0.02318608  0.04637215  0.09274430       0.022
   0.11593038 -0.09274430 -0.04637215       0.022
   0.10433734 -0.08115127 -0.03477911       0.022
   0.09274430 -0.06955823 -0.02318608       0.022
   0.08115127 -0.05796519 -0.01159304       0.022
   0.06955823 -0.04637215  0.00000000       0.011
   0.00000000  0.02318608  0.09274430       0.011
  -0.01159304  0.03477911  0.10433734       0.022
   0.12752342 -0.10433734 -0.03477911       0.022
   0.11593038 -0.09274430 -0.02318608       0.022
   0.10433734 -0.08115127 -0.01159304       0.022
   0.09274430 -0.06955823 -0.00000000       0.011
   0.00000000  0.02318608  0.11593038       0.011
   0.13911646 -0.11593038 -0.02318608       0.022
   0.12752342 -0.10433734 -0.01159304       0.022
   0.11593038 -0.09274430 -0.00000000       0.011
   0.15070950 -0.12752342 -0.01159304       0.011
   0.13911646 -0.11593038 -0.00000000       0.011
   0.00000000  0.04637215  0.09274430       0.011
   0.13911646 -0.09274430 -0.04637215       0.022
   0.12752342 -0.08115127 -0.03477911       0.022
   0.15070950 -0.10433734 -0.03477911       0.011
   0.13911646 -0.09274430 -0.02318608       0.022
   0.12752342 -0.08115127 -0.01159304       0.022
   0.11593038 -0.06955823 -0.00000000       0.011
   0.15070950 -0.10433734 -0.01159304       0.011
   0.13911646 -0.09274430 -0.00000000       0.011
   0.15070950 -0.08115127 -0.01159304       0.011

 k-points in reciprocal lattice and weights: KPOINTS
   0.00000000  0.00000000  0.00000000       0.000
   0.07692308 -0.00000000  0.00000000       0.004
   0.15384615 -0.00000000  0.00000000       0.004
   0.23076923  0.00000000  0.00000000       0.004
   0.30769231 -0.00000000  0.00000000       0.004
   0.38461538  0.00000000  0.00000000       0.004
   0.46153846 -0.00000000  0.00000000       0.004
   0.07692308  0.07692308  0.00000000       0.003
   0.15384615  0.07692308  0.00000000       0.011
   0.23076923  0.07692308  0.00000000       0.011
   0.30769231  0.07692308  0.00000000       0.011
   0.38461538  0.07692308  0.00000000       0.011
   0.46153846  0.07692308  0.00000000       0.011
  -0.46153846  0.07692308 -0.00000000       0.011
  -0.38461538  0.07692308 -0.00000000       0.011
  -0.30769231  0.07692308 -0.00000000       0.011
  -0.23076923  0.07692308  0.00000000       0.011
  -0.15384615  0.07692308  0.00000000       0.011
  -0.07692308  0.07692308 -0.00000000       0.005
   0.15384615  0.15384615  0.00000000       0.003
   0.23076923  0.15384615  0.00000000       0.011
   0.30769231  0.15384615  0.00000000       0.011
   0.38461538  0.15384615  0.00000000       0.011
   0.46153846  0.15384615  0.00000000       0.011
  -0.46153846  0.15384615 -0.00000000       0.011
  -0.38461538  0.15384615 -0.00000000       0.011
  -0.30769231  0.15384615 -0.00000000       0.011
  -0.23076923  0.15384615 -0.00000000       0.011
  -0.15384615  0.15384615 -0.00000000       0.005
   0.23076923  0.23076923  0.00000000       0.003
   0.30769231  0.23076923  0.00000000       0.011
   0.38461538  0.23076923  0.00000000       0.011
   0.46153846  0.23076923  0.00000000       0.011
  -0.46153846  0.23076923 -0.00000000       0.011
  -0.38461538  0.23076923  0.00000000       0.011
  -0.30769231  0.23076923 -0.00000000       0.011
  -0.23076923  0.23076923  0.00000000       0.005
   0.30769231  0.30769231  0.00000000       0.003
   0.38461538  0.30769231  0.00000000       0.011
   0.46153846  0.30769231  0.00000000       0.011
  -0.46153846  0.30769231 -0.00000000       0.011
  -0.38461538  0.30769231 -0.00000000       0.011
  -0.30769231  0.30769231 -0.00000000       0.005
   0.38461538  0.38461538  0.00000000       0.003
   0.46153846  0.38461538  0.00000000       0.011
  -0.46153846  0.38461538 -0.00000000       0.011
  -0.38461538  0.38461538  0.00000000       0.005
   0.46153846  0.46153846  0.00000000       0.003
  -0.46153846  0.46153846 -0.00000000       0.005
   0.23076923  0.15384615  0.07692308       0.011
   0.30769231  0.15384615  0.07692308       0.022
   0.38461538  0.15384615  0.07692308       0.022
   0.46153846  0.15384615  0.07692308       0.022
  -0.46153846  0.15384615  0.07692308       0.022
   0.30769231  0.23076923  0.07692308       0.011
   0.38461538  0.23076923  0.07692308       0.022
   0.46153846  0.23076923  0.07692308       0.022
  -0.46153846  0.23076923  0.07692308       0.022
  -0.38461538  0.23076923  0.07692308       0.022
  -0.30769231  0.23076923  0.07692308       0.022
  -0.23076923  0.23076923  0.07692308       0.022
  -0.15384615  0.23076923  0.07692308       0.011
   0.38461538  0.30769231  0.07692308       0.011
   0.46153846  0.30769231  0.07692308       0.022
  -0.46153846  0.30769231  0.07692308       0.022
  -0.38461538  0.30769231  0.07692308       0.022
  -0.30769231  0.30769231  0.07692308       0.022
  -0.23076923  0.30769231  0.07692308       0.011
   0.46153846  0.38461538  0.07692308       0.011
  -0.46153846  0.38461538  0.07692308       0.022
  -0.38461538  0.38461538  0.07692308       0.022
  -0.30769231  0.38461538  0.07692308       0.011
  -0.46153846  0.46153846  0.07692308       0.011
  -0.38461538  0.46153846  0.07692308       0.011
   0.46153846  0.30769231  0.15384615       0.011
  -0.46153846  0.30769231  0.15384615       0.022
  -0.38461538  0.30769231  0.15384615       0.022
  -0.46153846  0.38461538  0.15384615       0.011
  -0.38461538  0.38461538  0.15384615       0.022
  -0.30769231  0.38461538  0.15384615       0.022
  -0.23076923  0.38461538  0.15384615       0.011
  -0.38461538  0.46153846  0.15384615       0.011
  -0.30769231  0.46153846  0.15384615       0.011
  -0.30769231  0.46153846  0.23076923       0.011

 position of ions in fractional coordinates (direct lattice)
   0.25000000  0.25000000  0.25000000
   0.75000000  0.75000000  0.75000000
   0.00000000  0.00000000  0.00000000

 position of ions in cartesian coordinates  (Angst):
   1.71236742  1.71236742  1.71236742
   5.13710225  5.13710225  5.13710225
   0.00000000  0.00000000  0.00000000



--------------------------------------------------------------------------------------------------------


 k-point  1 :   0.0000 0.0000 0.0000  plane waves:    3383
 k-point  2 :   0.0769-0.0000 0.0000  plane waves:    3404
 k-point  3 :   0.1538-0.0000 0.0000  plane waves:    3389
 k-point  4 :   0.2308 0.0000 0.0000  plane waves:    3389
 k-point  5 :   0.3077-0.0000 0.0000  plane waves:    3392
 k-point  6 :   0.3846 0.0000 0.0000  plane waves:    3392
 k-point  7 :   0.4615-0.0000 0.0000  plane waves:    3389
 k-point  8 :   0.0769 0.0769 0.0000  plane waves:    3403
 k-point  9 :   0.1538 0.0769 0.0000  plane waves:    3392
 k-point 10 :   0.2308 0.0769 0.0000  plane waves:    3389
 k-point 11 :   0.3077 0.0769 0.0000  plane waves:    3388
 k-point 12 :   0.3846 0.0769 0.0000  plane waves:    3382
 k-point 13 :   0.4615 0.0769 0.0000  plane waves:    3374
 k-point 14 :  -0.4615 0.0769-0.0000  plane waves:    3365
 k-point 15 :  -0.3846 0.0769-0.0000  plane waves:    3380
 k-point 16 :  -0.3077 0.0769-0.0000  plane waves:    3390
 k-point 17 :  -0.2308 0.0769 0.0000  plane waves:    3388
 k-point 18 :  -0.1538 0.0769 0.0000  plane waves:    3381
 k-point 19 :  -0.0769 0.0769-0.0000  plane waves:    3403
 k-point 20 :   0.1538 0.1538 0.0000  plane waves:    3383
 k-point 21 :   0.2308 0.1538 0.0000  plane waves:    3393
 k-point 22 :   0.3077 0.1538 0.0000  plane waves:    3388
 k-point 23 :   0.3846 0.1538 0.0000  plane waves:    3388
 k-point 24 :   0.4615 0.1538 0.0000  plane waves:    3365
 k-point 25 :  -0.4615 0.1538-0.0000  plane waves:    3368
 k-point 26 :  -0.3846 0.1538-0.0000  plane waves:    3379
 k-point 27 :  -0.3077 0.1538-0.0000  plane waves:    3380
 k-point 28 :  -0.2308 0.1538-0.0000  plane waves:    3391
 k-point 29 :  -0.1538 0.1538-0.0000  plane waves:    3383
 k-point 30 :   0.2308 0.2308 0.0000  plane waves:    3383
 k-point 31 :   0.3077 0.2308 0.0000  plane waves:    3386
 k-point 32 :   0.3846 0.2308 0.0000  plane waves:    3398
 k-point 33 :   0.4615 0.2308 0.0000  plane waves:    3381
 k-point 34 :  -0.4615 0.2308-0.0000  plane waves:    3374
 k-point 35 :  -0.3846 0.2308 0.0000  plane waves:    3381
 k-point 36 :  -0.3077 0.2308-0.0000  plane waves:    3381
 k-point 37 :  -0.2308 0.2308 0.0000  plane waves:    3390
 k-point 38 :   0.3077 0.3077 0.0000  plane waves:    3383
 k-point 39 :   0.3846 0.3077 0.0000  plane waves:    3385
 k-point 40 :   0.4615 0.3077 0.0000  plane waves:    3387
 k-point 41 :  -0.4615 0.3077-0.0000  plane waves:    3372
 k-point 42 :  -0.3846 0.3077-0.0000  plane waves:    3370
 k-point 43 :  -0.3077 0.3077-0.0000  plane waves:    3372
 k-point 44 :   0.3846 0.3846 0.0000  plane waves:    3379
 k-point 45 :   0.4615 0.3846 0.0000  plane waves:    3367
 k-point 46 :  -0.4615 0.3846-0.0000  plane waves:    3367
 k-point 47 :  -0.3846 0.3846 0.0000  plane waves:    3360
 k-point 48 :   0.4615 0.4615 0.0000  plane waves:    3354
 k-point 49 :  -0.4615 0.4615-0.0000  plane waves:    3362
 k-point 50 :   0.2308 0.1538 0.0769  plane waves:    3396
 k-point 51 :   0.3077 0.1538 0.0769  plane waves:    3390
 k-point 52 :   0.3846 0.1538 0.0769  plane waves:    3391
 k-point 53 :   0.4615 0.1538 0.0769  plane waves:    3376
 k-point 54 :  -0.4615 0.1538 0.0769  plane waves:    3370
 k-point 55 :   0.3077 0.2308 0.0769  plane waves:    3395
 k-point 56 :   0.3846 0.2308 0.0769  plane waves:    3395
 k-point 57 :   0.4615 0.2308 0.0769  plane waves:    3372
 k-point 58 :  -0.4615 0.2308 0.0769  plane waves:    3367
 k-point 59 :  -0.3846 0.2308 0.0769  plane waves:    3376
 k-point 60 :  -0.3077 0.2308 0.0769  plane waves:    3373
 k-point 61 :  -0.2308 0.2308 0.0769  plane waves:    3389
 k-point 62 :  -0.1538 0.2308 0.0769  plane waves:    3386
 k-point 63 :   0.3846 0.3077 0.0769  plane waves:    3395
 k-point 64 :   0.4615 0.3077 0.0769  plane waves:    3379
 k-point 65 :  -0.4615 0.3077 0.0769  plane waves:    3373
 k-point 66 :  -0.3846 0.3077 0.0769  plane waves:    3362
 k-point 67 :  -0.3077 0.3077 0.0769  plane waves:    3370
 k-point 68 :  -0.2308 0.3077 0.0769  plane waves:    3381
 k-point 69 :   0.4615 0.3846 0.0769  plane waves:    3380
 k-point 70 :  -0.4615 0.3846 0.0769  plane waves:    3373
 k-point 71 :  -0.3846 0.3846 0.0769  plane waves:    3369
 k-point 72 :  -0.3077 0.3846 0.0769  plane waves:    3370
 k-point 73 :  -0.4615 0.4615 0.0769  plane waves:    3361
 k-point 74 :  -0.3846 0.4615 0.0769  plane waves:    3366
 k-point 75 :   0.4615 0.3077 0.1538  plane waves:    3398
 k-point 76 :  -0.4615 0.3077 0.1538  plane waves:    3377
 k-point 77 :  -0.3846 0.3077 0.1538  plane waves:    3366
 k-point 78 :  -0.4615 0.3846 0.1538  plane waves:    3371
 k-point 79 :  -0.3846 0.3846 0.1538  plane waves:    3372
 k-point 80 :  -0.3077 0.3846 0.1538  plane waves:    3367
 k-point 81 :  -0.2308 0.3846 0.1538  plane waves:    3360
 k-point 82 :  -0.3846 0.4615 0.1538  plane waves:    3373
 k-point 83 :  -0.3077 0.4615 0.1538  plane waves:    3360
 k-point 84 :  -0.3077 0.4615 0.2308  plane waves:    3369

 maximum and minimum number of plane-waves per node :       859      821

 maximum number of plane-waves:      3404
 maximum index in each direction:
   IXMAX=   10   IYMAX=   10   IZMAX=   10
   IXMIN=  -10   IYMIN=  -10   IZMIN=  -10


 parallel 3D FFT for wavefunctions:
    minimum data exchange during FFTs selected (reduces bandwidth)
 parallel 3D FFT for charge:
    minimum data exchange during FFTs selected (reduces bandwidth)


 total amount of memory used by VASP MPI-rank0   102295. kBytes
=======================================================================

   base      :      30000. kBytes
   nonl-proj :      55263. kBytes
   fftplans  :       6282. kBytes
   grid      :       3541. kBytes
   one-center:         49. kBytes
   wavefun   :       7160. kBytes

     INWAV:  cpu time    0.0003: real time    0.0022
 Broyden mixing: mesh for mixing (old mesh)
   NGX = 21   NGY = 21   NGZ = 21
  (NGX  = 84   NGY  = 84   NGZ  = 84)
  gives a total of   9261 points

 initial charge density was supplied:
 charge density of overlapping atoms calculated
 number of electron      39.0000000 magnetization
 keeping initial charge density in first step


--------------------------------------------------------------------------------------------------------


 Maximum index for augmentation-charges        30369 (set IRDMAX)


--------------------------------------------------------------------------------------------------------


 First call to EWALD:  gamma=   0.411
 Maximum number of real-space cells 3x 3x 3
 Maximum number of reciprocal cells 3x 3x 3

    FEWALD:  cpu time    0.0055: real time    0.0065


--------------------------------------- Iteration      1(   1)  ---------------------------------------


    POTLOK:  cpu time    0.0550: real time    0.1219
    SETDIJ:  cpu time    0.0983: real time    0.0987
     EDDAV:  cpu time    1.5143: real time    1.5360
       DOS:  cpu time    0.0038: real time    0.0045
    --------------------------------------------
      LOOP:  cpu time    1.6717: real time    1.7616

 eigenvalue-minimisations  :  4032
 total energy-change (2. order) : 0.4279765E+03  (-0.2233323E+04)
 number of electron      39.0000000 magnetization
 augmentation part       39.0000000 magnetization

 Free energy of the ion-electron system (eV)
  ---------------------------------------------------
  alpha Z        PSCENC =       195.73741923
  Ewald energy   TEWEN  =     -3480.94387327
  -Hartree energ DENC   =      -832.80486061
  -exchange      EXHF   =         0.00000000
  -V(xc)+E(xc)   XCENC  =        89.24837450
  PAW double counting   =      3513.29252893    -3436.88002192
  entropy T*S    EENTRO =        -0.00008027
  eigenvalues    EBANDS =       284.97497555
  atomic energy  EATOM  =      4095.35208632
  Solvation  Ediel_sol  =         0.00000000
  ---------------------------------------------------
  free energy    TOTEN  =       427.97654846 eV

  energy without entropy =      427.97662873  energy(sigma->0) =      427.97658859


--------------------------------------------------------------------------------------------------------




--------------------------------------- Iteration      1(   2)  ---------------------------------------


     EDDAV:  cpu time    1.7296: real time    1.7553
       DOS:  cpu time    0.0031: real time    0.0034
    --------------------------------------------
      LOOP:  cpu time    1.7328: real time    1.7593

 eigenvalue-minimisations  :  4672
 total energy-change (2. order) :-0.4010754E+03  (-0.3938575E+03)
 number of electron      39.0000000 magnetization
 augmentation part       39.0000000 magnetization

 Free energy of the ion-electron system (eV)
  ---------------------------------------------------
  alpha Z        PSCENC =       195.73741923
  Ewald energy   TEWEN  =     -3480.94387327
  -Hartree energ DENC   =      -832.80486061
  -exchange      EXHF   =         0.00000000
  -V(xc)+E(xc)   XCENC  =        89.24837450
  PAW double counting   =      3513.29252893    -3436.88002192
  entropy T*S    EENTRO =        -0.00022474
  eigenvalues    EBANDS =      -116.10024645
  atomic energy  EATOM  =      4095.35208632
  Solvation  Ediel_sol  =         0.00000000
  ---------------------------------------------------
  free energy    TOTEN  =        26.90118199 eV

  energy without entropy =       26.90140673  energy(sigma->0) =       26.90129436


--------------------------------------------------------------------------------------------------------




--------------------------------------- Iteration      1(   3)  ---------------------------------------


     EDDAV:  cpu time    1.7868: real time    1.8235
       DOS:  cpu time    0.0032: real time    0.0036
    --------------------------------------------
      LOOP:  cpu time    1.7900: real time    1.8303

 eigenvalue-minimisations  :  4968
 total energy-change (2. order) :-0.4721372E+02  (-0.4619835E+02)
 number of electron      39.0000000 magnetization
 augmentation part       39.0000000 magnetization

 Free energy of the ion-electron system (eV)
  ---------------------------------------------------
  alpha Z        PSCENC =       195.73741923
  Ewald energy   TEWEN  =     -3480.94387327
  -Hartree energ DENC   =      -832.80486061
  -exchange      EXHF   =         0.00000000
  -V(xc)+E(xc)   XCENC  =        89.24837450
  PAW double counting   =      3513.29252893    -3436.88002192
  entropy T*S    EENTRO =        -0.00100727
  eigenvalues    EBANDS =      -163.31317925
  atomic energy  EATOM  =      4095.35208632
  Solvation  Ediel_sol  =         0.00000000
  ---------------------------------------------------
  free energy    TOTEN  =       -20.31253333 eV

  energy without entropy =      -20.31152607  energy(sigma->0) =      -20.31202970


--------------------------------------------------------------------------------------------------------




--------------------------------------- Iteration      1(   4)  ---------------------------------------


     EDDAV:  cpu time    2.5062: real time    2.5450
       DOS:  cpu time    0.0034: real time    0.0035
    --------------------------------------------
      LOOP:  cpu time    2.5096: real time    2.5461

 eigenvalue-minimisations  :  7688
 total energy-change (2. order) :-0.5272547E+01  (-0.5241261E+01)
 number of electron      39.0000000 magnetization
 augmentation part       39.0000000 magnetization

 Free energy of the ion-electron system (eV)
  ---------------------------------------------------
  alpha Z        PSCENC =       195.73741923
  Ewald energy   TEWEN  =     -3480.94387327
  -Hartree energ DENC   =      -832.80486061
  -exchange      EXHF   =         0.00000000
  -V(xc)+E(xc)   XCENC  =        89.24837450
  PAW double counting   =      3513.29252893    -3436.88002192
  entropy T*S    EENTRO =        -0.00116710
  eigenvalues    EBANDS =      -168.58556628
  atomic energy  EATOM  =      4095.35208632
  Solvation  Ediel_sol  =         0.00000000
  ---------------------------------------------------
  free energy    TOTEN  =       -25.58508021 eV

  energy without entropy =      -25.58391310  energy(sigma->0) =      -25.58449666


--------------------------------------------------------------------------------------------------------




--------------------------------------- Iteration      1(   5)  ---------------------------------------


     EDDAV:  cpu time    1.9031: real time    1.9316
       DOS:  cpu time    0.0032: real time    0.0034
    CHARGE:  cpu time    0.3522: real time    0.3535
    MIXING:  cpu time    0.0054: real time    0.0065
    --------------------------------------------
      LOOP:  cpu time    2.2640: real time    2.2965

 eigenvalue-minimisations  :  5560
 total energy-change (2. order) :-0.1898960E+00  (-0.1894519E+00)
 number of electron      39.0000001 magnetization
 augmentation part        9.0417961 magnetization

 Broyden mixing:
  rms(total) = 0.14681E+01    rms(broyden)= 0.14681E+01
  rms(prec ) = 0.44892E+01
  weight for this iteration     100.00

 Free energy of the ion-electron system (eV)
  ---------------------------------------------------
  alpha Z        PSCENC =       195.73741923
  Ewald energy   TEWEN  =     -3480.94387327
  -Hartree energ DENC   =      -832.80486061
  -exchange      EXHF   =         0.00000000
  -V(xc)+E(xc)   XCENC  =        89.24837450
  PAW double counting   =      3513.29252893    -3436.88002192
  entropy T*S    EENTRO =        -0.00126348
  eigenvalues    EBANDS =      -168.77536587
  atomic energy  EATOM  =      4095.35208632
  Solvation  Ediel_sol  =         0.00000000
  ---------------------------------------------------
  free energy    TOTEN  =       -25.77497617 eV

  energy without entropy =      -25.77371269  energy(sigma->0) =      -25.77434443


--------------------------------------------------------------------------------------------------------




--------------------------------------- Iteration      1(   6)  ---------------------------------------


    POTLOK:  cpu time    0.0421: real time    0.0795
    SETDIJ:  cpu time    0.0906: real time    0.0907
     EDDAV:  cpu time    2.0675: real time    2.0677
       DOS:  cpu time    0.0030: real time    0.0032
    CHARGE:  cpu time    0.3085: real time    0.3086
    MIXING:  cpu time    0.0073: real time    0.0075
    --------------------------------------------
      LOOP:  cpu time    2.5191: real time    2.5550

 eigenvalue-minimisations  :  6040
 total energy-change (2. order) :-0.9537410E+01  (-0.2340413E+02)
 number of electron      39.0000001 magnetization
 augmentation part        7.0216750 magnetization

 Broyden mixing:
  rms(total) = 0.22019E+01    rms(broyden)= 0.22019E+01
  rms(prec ) = 0.62349E+01
  weight for this iteration     100.00

 eigenvalues of (default mixing * dielectric matrix)
  average eigenvalue GAMMA=   0.3678
  0.3678

 Free energy of the ion-electron system (eV)
  ---------------------------------------------------
  alpha Z        PSCENC =       195.73741923
  Ewald energy   TEWEN  =     -3480.94387327
  -Hartree energ DENC   =      -845.00599339
  -exchange      EXHF   =         0.00000000
  -V(xc)+E(xc)   XCENC  =        89.94041989
  PAW double counting   =      3749.38347971    -3672.33799621
  entropy T*S    EENTRO =        -0.00029703
  eigenvalues    EBANDS =      -167.43763107
  atomic energy  EATOM  =      4095.35208632
  Solvation  Ediel_sol  =         0.00000000
  ---------------------------------------------------
  free energy    TOTEN  =       -35.31238582 eV

  energy without entropy =      -35.31208879  energy(sigma->0) =      -35.31223731


--------------------------------------------------------------------------------------------------------




--------------------------------------- Iteration      1(   7)  ---------------------------------------


    POTLOK:  cpu time    0.0471: real time    0.0694
    SETDIJ:  cpu time    0.0887: real time    0.0888
     EDDAV:  cpu time    2.0101: real time    2.0104
       DOS:  cpu time    0.0030: real time    0.0032
    CHARGE:  cpu time    0.2885: real time    0.2906
    MIXING:  cpu time    0.0046: real time    0.0049
    --------------------------------------------
      LOOP:  cpu time    2.4420: real time    2.4679

 eigenvalue-minimisations  :  5808
 total energy-change (2. order) : 0.1039647E+02  (-0.2723911E+01)
 number of electron      39.0000001 magnetization
 augmentation part        7.4309468 magnetization

 Broyden mixing:
  rms(total) = 0.11454E+01    rms(broyden)= 0.11454E+01
  rms(prec ) = 0.34252E+01
  weight for this iteration     100.00

 eigenvalues of (default mixing * dielectric matrix)
  average eigenvalue GAMMA=   0.7300
  0.7300  0.7300

 Free energy of the ion-electron system (eV)
  ---------------------------------------------------
  alpha Z        PSCENC =       195.73741923
  Ewald energy   TEWEN  =     -3480.94387327
  -Hartree energ DENC   =      -830.48614402
  -exchange      EXHF   =         0.00000000
  -V(xc)+E(xc)   XCENC  =        89.25851453
  PAW double counting   =      3824.79489204    -3752.13708342
  entropy T*S    EENTRO =        -0.00069508
  eigenvalues    EBANDS =      -166.49103214
  atomic energy  EATOM  =      4095.35208632
  Solvation  Ediel_sol  =         0.00000000
  ---------------------------------------------------
  free energy    TOTEN  =       -24.91591582 eV

  energy without entropy =      -24.91522074  energy(sigma->0) =      -24.91556828


--------------------------------------------------------------------------------------------------------




--------------------------------------- Iteration      1(   8)  ---------------------------------------


    POTLOK:  cpu time    0.0449: real time    0.0601
    SETDIJ:  cpu time    0.0909: real time    0.0910
     EDDAV:  cpu time    2.0257: real time    2.0259
       DOS:  cpu time    0.0032: real time    0.0033
    CHARGE:  cpu time    0.2956: real time    0.2957
    MIXING:  cpu time    0.0050: real time    0.0051
    --------------------------------------------
      LOOP:  cpu time    2.4652: real time    2.4816

 eigenvalue-minimisations  :  5968
 total energy-change (2. order) : 0.3487730E+00  (-0.4284804E+01)
 number of electron      39.0000001 magnetization
 augmentation part        9.1800401 magnetization

 Broyden mixing:
  rms(total) = 0.97981E+00    rms(broyden)= 0.97980E+00
  rms(prec ) = 0.31296E+01
  weight for this iteration     100.00

 eigenvalues of (default mixing * dielectric matrix)
  average eigenvalue GAMMA=   0.8653
  1.5590  0.5185  0.5185

 Free energy of the ion-electron system (eV)
  ---------------------------------------------------
  alpha Z        PSCENC =       195.73741923
  Ewald energy   TEWEN  =     -3480.94387327
  -Hartree energ DENC   =      -818.34063159
  -exchange      EXHF   =         0.00000000
  -V(xc)+E(xc)   XCENC  =        88.73845151
  PAW double counting   =      3853.39300180    -3783.66134723
  entropy T*S    EENTRO =        -0.00117646
  eigenvalues    EBANDS =      -174.84107310
  atomic energy  EATOM  =      4095.35208632
  Solvation  Ediel_sol  =         0.00000000
  ---------------------------------------------------
  free energy    TOTEN  =       -24.56714279 eV

  energy without entropy =      -24.56596633  energy(sigma->0) =      -24.56655456


--------------------------------------------------------------------------------------------------------




--------------------------------------- Iteration      1(   9)  ---------------------------------------


    POTLOK:  cpu time    0.0416: real time    0.0681
    SETDIJ:  cpu time    0.0905: real time    0.0908
     EDDAV:  cpu time    2.1232: real time    2.1235
       DOS:  cpu time    0.0033: real time    0.0045
    CHARGE:  cpu time    0.2967: real time    0.2974
    MIXING:  cpu time    0.0043: real time    0.0054
    --------------------------------------------
      LOOP:  cpu time    2.5595: real time    2.5921

 eigenvalue-minimisations  :  6304
 total energy-change (2. order) : 0.1043857E+01  (-0.1067370E+01)
 number of electron      39.0000001 magnetization
 augmentation part        8.2009992 magnetization

 Broyden mixing:
  rms(total) = 0.17973E+00    rms(broyden)= 0.17972E+00
  rms(prec ) = 0.35110E+00
  weight for this iteration     100.00

 eigenvalues of (default mixing * dielectric matrix)
  average eigenvalue GAMMA=   0.8619
  1.8657  0.5709  0.5709  0.4403

 Free energy of the ion-electron system (eV)
  ---------------------------------------------------
  alpha Z        PSCENC =       195.73741923
  Ewald energy   TEWEN  =     -3480.94387327
  -Hartree energ DENC   =      -823.50885605
  -exchange      EXHF   =         0.00000000
  -V(xc)+E(xc)   XCENC  =        88.98775906
  PAW double counting   =      3944.66019490    -3875.41626563
  entropy T*S    EENTRO =        -0.00149884
  eigenvalues    EBANDS =      -168.39025167
  atomic energy  EATOM  =      4095.35208632
  Solvation  Ediel_sol  =         0.00000000
  ---------------------------------------------------
  free energy    TOTEN  =       -23.52328597 eV

  energy without entropy =      -23.52178713  energy(sigma->0) =      -23.52253655


--------------------------------------------------------------------------------------------------------




--------------------------------------- Iteration      1(  10)  ---------------------------------------


    POTLOK:  cpu time    0.0366: real time    0.0951
    SETDIJ:  cpu time    0.0823: real time    0.0828
     EDDAV:  cpu time    2.0880: real time    2.0900
       DOS:  cpu time    0.0033: real time    0.0082
    CHARGE:  cpu time    0.2927: real time    0.2946
    MIXING:  cpu time    0.0047: real time    0.0048
    --------------------------------------------
      LOOP:  cpu time    2.5076: real time    2.5730

 eigenvalue-minimisations  :  6248
 total energy-change (2. order) :-0.1075592E+00  (-0.1549568E+00)
 number of electron      39.0000001 magnetization
 augmentation part        7.9162484 magnetization

 Broyden mixing:
  rms(total) = 0.25968E+00    rms(broyden)= 0.25968E+00
  rms(prec ) = 0.83458E+00
  weight for this iteration     100.00

 eigenvalues of (default mixing * dielectric matrix)
  average eigenvalue GAMMA=   0.9390
  1.9343  1.0368  0.5142  0.5142  0.6956

 Free energy of the ion-electron system (eV)
  ---------------------------------------------------
  alpha Z        PSCENC =       195.73741923
  Ewald energy   TEWEN  =     -3480.94387327
  -Hartree energ DENC   =      -823.53658636
  -exchange      EXHF   =         0.00000000
  -V(xc)+E(xc)   XCENC  =        89.00804032
  PAW double counting   =      4012.50660144    -3944.02516808
  entropy T*S    EENTRO =        -0.00132552
  eigenvalues    EBANDS =      -167.72803930
  atomic energy  EATOM  =      4095.35208632
  Solvation  Ediel_sol  =         0.00000000
  ---------------------------------------------------
  free energy    TOTEN  =       -23.63084522 eV

  energy without entropy =      -23.62951970  energy(sigma->0) =      -23.63018246


--------------------------------------------------------------------------------------------------------




--------------------------------------- Iteration      1(  11)  ---------------------------------------


    POTLOK:  cpu time    0.0376: real time    0.0722
    SETDIJ:  cpu time    0.0848: real time    0.0859
     EDDAV:  cpu time    2.0098: real time    2.0102
       DOS:  cpu time    0.0033: real time    0.0035
    CHARGE:  cpu time    0.2971: real time    0.2973
    MIXING:  cpu time    0.0048: real time    0.0051
    --------------------------------------------
      LOOP:  cpu time    2.4373: real time    2.4771

 eigenvalue-minimisations  :  5952
 total energy-change (2. order) : 0.8790747E-01  (-0.6031896E-01)
 number of electron      39.0000001 magnetization
 augmentation part        8.1320184 magnetization

 Broyden mixing:
  rms(total) = 0.48879E-01    rms(broyden)= 0.48879E-01
  rms(prec ) = 0.13506E+00
  weight for this iteration     100.00

 eigenvalues of (default mixing * dielectric matrix)
  average eigenvalue GAMMA=   1.0478
  1.9124  1.9124  0.5212  0.5212  0.7098  0.7098

 Free energy of the ion-electron system (eV)
  ---------------------------------------------------
  alpha Z        PSCENC =       195.73741923
  Ewald energy   TEWEN  =     -3480.94387327
  -Hartree energ DENC   =      -821.87895137
  -exchange      EXHF   =         0.00000000
  -V(xc)+E(xc)   XCENC  =        88.93703520
  PAW double counting   =      4006.02508688    -3937.84116480
  entropy T*S    EENTRO =        -0.00182303
  eigenvalues    EBANDS =      -168.92875290
  atomic energy  EATOM  =      4095.35208632
  Solvation  Ediel_sol  =         0.00000000
  ---------------------------------------------------
  free energy    TOTEN  =       -23.54293775 eV

  energy without entropy =      -23.54111472  energy(sigma->0) =      -23.54202623


--------------------------------------------------------------------------------------------------------




--------------------------------------- Iteration      1(  12)  ---------------------------------------


    POTLOK:  cpu time    0.0378: real time    0.0747
    SETDIJ:  cpu time    0.0889: real time    0.0891
     EDDAV:  cpu time    2.4188: real time    2.4192
       DOS:  cpu time    0.0034: real time    0.0039
    CHARGE:  cpu time    0.2973: real time    0.2975
    MIXING:  cpu time    0.0047: real time    0.0055
    --------------------------------------------
      LOOP:  cpu time    2.8510: real time    2.8882

 eigenvalue-minimisations  :  7392
 total energy-change (2. order) :-0.1732345E-02  (-0.7566905E-02)
 number of electron      39.0000001 magnetization
 augmentation part        8.1957355 magnetization

 Broyden mixing:
  rms(total) = 0.44098E-01    rms(broyden)= 0.44098E-01
  rms(prec ) = 0.11569E+00
  weight for this iteration     100.00

 eigenvalues of (default mixing * dielectric matrix)
  average eigenvalue GAMMA=   1.2193
  2.5149  2.5149  0.5216  0.5216  0.9084  0.9084  0.6455

 Free energy of the ion-electron system (eV)
  ---------------------------------------------------
  alpha Z        PSCENC =       195.73741923
  Ewald energy   TEWEN  =     -3480.94387327
  -Hartree energ DENC   =      -821.56251024
  -exchange      EXHF   =         0.00000000
  -V(xc)+E(xc)   XCENC  =        88.92112986
  PAW double counting   =      4005.86980624    -3937.72660976
  entropy T*S    EENTRO =        -0.00194983
  eigenvalues    EBANDS =      -169.19016863
  atomic energy  EATOM  =      4095.35208632
  Solvation  Ediel_sol  =         0.00000000
  ---------------------------------------------------
  free energy    TOTEN  =       -23.54467009 eV

  energy without entropy =      -23.54272026  energy(sigma->0) =      -23.54369518


--------------------------------------------------------------------------------------------------------




--------------------------------------- Iteration      1(  13)  ---------------------------------------


    POTLOK:  cpu time    0.0376: real time    0.0710
    SETDIJ:  cpu time    0.0868: real time    0.0881
     EDDAV:  cpu time    2.1223: real time    2.1231
       DOS:  cpu time    0.0034: real time    0.0091
    CHARGE:  cpu time    0.2959: real time    0.2969
    MIXING:  cpu time    0.0049: real time    0.0053
    --------------------------------------------
      LOOP:  cpu time    2.5509: real time    2.5933

 eigenvalue-minimisations  :  6336
 total energy-change (2. order) :-0.1255958E-02  (-0.4292836E-03)
 number of electron      39.0000001 magnetization
 augmentation part        8.2013551 magnetization

 Broyden mixing:
  rms(total) = 0.45919E-01    rms(broyden)= 0.45919E-01
  rms(prec ) = 0.14291E+00
  weight for this iteration     100.00

 eigenvalues of (default mixing * dielectric matrix)
  average eigenvalue GAMMA=   1.2096
  2.8139  2.0650  1.3009  0.5221  0.5221  0.9081  0.9081  0.6364

 Free energy of the ion-electron system (eV)
  ---------------------------------------------------
  alpha Z        PSCENC =       195.73741923
  Ewald energy   TEWEN  =     -3480.94387327
  -Hartree energ DENC   =      -821.89670677
  -exchange      EXHF   =         0.00000000
  -V(xc)+E(xc)   XCENC  =        88.92769523
  PAW double counting   =      4003.24933839    -3934.95196808
  entropy T*S    EENTRO =        -0.00200745
  eigenvalues    EBANDS =      -169.01790964
  atomic energy  EATOM  =      4095.35208632
  Solvation  Ediel_sol  =         0.00000000
  ---------------------------------------------------
  free energy    TOTEN  =       -23.54592605 eV

  energy without entropy =      -23.54391860  energy(sigma->0) =      -23.54492232


--------------------------------------------------------------------------------------------------------




--------------------------------------- Iteration      1(  14)  ---------------------------------------


    POTLOK:  cpu time    0.0370: real time    0.0931
    SETDIJ:  cpu time    0.0854: real time    0.0856
     EDDAV:  cpu time    2.0499: real time    2.0504
       DOS:  cpu time    0.0033: real time    0.0052
    CHARGE:  cpu time    0.2967: real time    0.2972
    MIXING:  cpu time    0.0051: real time    0.0055
    --------------------------------------------
      LOOP:  cpu time    2.4773: real time    2.5373

 eigenvalue-minimisations  :  6056
 total energy-change (2. order) : 0.2475054E-02  (-0.2450334E-02)
 number of electron      39.0000001 magnetization
 augmentation part        8.1563754 magnetization

 Broyden mixing:
  rms(total) = 0.61339E-02    rms(broyden)= 0.61337E-02
  rms(prec ) = 0.16913E-01
  weight for this iteration     100.00

 eigenvalues of (default mixing * dielectric matrix)
  average eigenvalue GAMMA=   1.2036
  2.6043  2.1487  1.3095  1.3095  0.5220  0.5220  0.8899  0.8899  0.6363

 Free energy of the ion-electron system (eV)
  ---------------------------------------------------
  alpha Z        PSCENC =       195.73741923
  Ewald energy   TEWEN  =     -3480.94387327
  -Hartree energ DENC   =      -822.21565658
  -exchange      EXHF   =         0.00000000
  -V(xc)+E(xc)   XCENC  =        88.94064915
  PAW double counting   =      4009.13001810    -3940.77818305
  entropy T*S    EENTRO =        -0.00195479
  eigenvalues    EBANDS =      -168.76395610
  atomic energy  EATOM  =      4095.35208632
  Solvation  Ediel_sol  =         0.00000000
  ---------------------------------------------------
  free energy    TOTEN  =       -23.54345100 eV

  energy without entropy =      -23.54149621  energy(sigma->0) =      -23.54247360


--------------------------------------------------------------------------------------------------------




--------------------------------------- Iteration      1(  15)  ---------------------------------------


    POTLOK:  cpu time    0.0377: real time    0.0733
    SETDIJ:  cpu time    0.0891: real time    0.0893
     EDDAV:  cpu time    2.2902: real time    2.2910
       DOS:  cpu time    0.0032: real time    0.0047
    CHARGE:  cpu time    0.2976: real time    0.2978
    MIXING:  cpu time    0.0053: real time    0.0056
    --------------------------------------------
      LOOP:  cpu time    2.7232: real time    2.7639

 eigenvalue-minimisations  :  6936
 total energy-change (2. order) :-0.1096444E-04  (-0.9178416E-04)
 number of electron      39.0000001 magnetization
 augmentation part        8.1632552 magnetization

 Broyden mixing:
  rms(total) = 0.16312E-02    rms(broyden)= 0.16312E-02
  rms(prec ) = 0.28467E-02
  weight for this iteration     100.00

 eigenvalues of (default mixing * dielectric matrix)
  average eigenvalue GAMMA=   1.2099
  2.7521  2.1450  1.4187  1.4187  0.5221  0.5221  0.9892  0.9892  0.6324  0.7100

 Free energy of the ion-electron system (eV)
  ---------------------------------------------------
  alpha Z        PSCENC =       195.73741923
  Ewald energy   TEWEN  =     -3480.94387327
  -Hartree energ DENC   =      -822.14872790
  -exchange      EXHF   =         0.00000000
  -V(xc)+E(xc)   XCENC  =        88.93828385
  PAW double counting   =      4009.17656510    -3940.82537618
  entropy T*S    EENTRO =        -0.00196357
  eigenvalues    EBANDS =      -168.82787553
  atomic energy  EATOM  =      4095.35208632
  Solvation  Ediel_sol  =         0.00000000
  ---------------------------------------------------
  free energy    TOTEN  =       -23.54346196 eV

  energy without entropy =      -23.54149839  energy(sigma->0) =      -23.54248018


--------------------------------------------------------------------------------------------------------




--------------------------------------- Iteration      1(  16)  ---------------------------------------


    POTLOK:  cpu time    0.0385: real time    0.0739
    SETDIJ:  cpu time    0.0867: real time    0.0870
     EDDAV:  cpu time    2.0585: real time    2.0587
       DOS:  cpu time    0.0032: real time    0.0040
    CHARGE:  cpu time    0.2984: real time    0.2985
    MIXING:  cpu time    0.0057: real time    0.0066
    --------------------------------------------
      LOOP:  cpu time    2.4910: real time    2.5264

 eigenvalue-minimisations  :  6104
 total energy-change (2. order) :-0.7845961E-05  (-0.5446629E-05)
 number of electron      39.0000001 magnetization
 augmentation part        8.1645543 magnetization

 Broyden mixing:
  rms(total) = 0.18994E-02    rms(broyden)= 0.18994E-02
  rms(prec ) = 0.62545E-02
  weight for this iteration     100.00

 eigenvalues of (default mixing * dielectric matrix)
  average eigenvalue GAMMA=   1.2625
  2.8532  2.1456  1.7284  1.7284  0.5221  0.5221  1.0246  1.0246  0.6364  0.8513
  0.8513

 Free energy of the ion-electron system (eV)
  ---------------------------------------------------
  alpha Z        PSCENC =       195.73741923
  Ewald energy   TEWEN  =     -3480.94387327
  -Hartree energ DENC   =      -822.14416106
  -exchange      EXHF   =         0.00000000
  -V(xc)+E(xc)   XCENC  =        88.93826471
  PAW double counting   =      4009.37882087    -3941.02909451
  entropy T*S    EENTRO =        -0.00196374
  eigenvalues    EBANDS =      -168.83096836
  atomic energy  EATOM  =      4095.35208632
  Solvation  Ediel_sol  =         0.00000000
  ---------------------------------------------------
  free energy    TOTEN  =       -23.54346981 eV

  energy without entropy =      -23.54150607  energy(sigma->0) =      -23.54248794


--------------------------------------------------------------------------------------------------------




--------------------------------------- Iteration      1(  17)  ---------------------------------------


    POTLOK:  cpu time    0.0412: real time    0.0731
    SETDIJ:  cpu time    0.0866: real time    0.0882
     EDDAV:  cpu time    2.0378: real time    2.0381
       DOS:  cpu time    0.0032: real time    0.0042
    CHARGE:  cpu time    0.2965: real time    0.2969
    MIXING:  cpu time    0.0062: real time    0.0063
    --------------------------------------------
      LOOP:  cpu time    2.4714: real time    2.5068

 eigenvalue-minimisations  :  6016
 total energy-change (2. order) : 0.5219719E-05  (-0.8390565E-05)
 number of electron      39.0000001 magnetization
 augmentation part        8.1621694 magnetization

 Broyden mixing:
  rms(total) = 0.85312E-03    rms(broyden)= 0.85308E-03
  rms(prec ) = 0.25245E-02
  weight for this iteration     100.00

 eigenvalues of (default mixing * dielectric matrix)
  average eigenvalue GAMMA=   1.2614
  2.7992  2.2606  1.7627  1.7359  0.5221  0.5221  1.1268  1.1268  0.9321  0.9321
  0.6357  0.7807

 Free energy of the ion-electron system (eV)
  ---------------------------------------------------
  alpha Z        PSCENC =       195.73741923
  Ewald energy   TEWEN  =     -3480.94387327
  -Hartree energ DENC   =      -822.14279431
  -exchange      EXHF   =         0.00000000
  -V(xc)+E(xc)   XCENC  =        88.93881816
  PAW double counting   =      4009.87086386    -3941.52829591
  entropy T*S    EENTRO =        -0.00196277
  eigenvalues    EBANDS =      -168.82572589
  atomic energy  EATOM  =      4095.35208632
  Solvation  Ediel_sol  =         0.00000000
  ---------------------------------------------------
  free energy    TOTEN  =       -23.54346459 eV

  energy without entropy =      -23.54150182  energy(sigma->0) =      -23.54248321


--------------------------------------------------------------------------------------------------------




--------------------------------------- Iteration      1(  18)  ---------------------------------------


    POTLOK:  cpu time    0.0412: real time    0.0671
    SETDIJ:  cpu time    0.0883: real time    0.0885
     EDDAV:  cpu time    2.0361: real time    2.0364
       DOS:  cpu time    0.0033: real time    0.0037
    CHARGE:  cpu time    0.2960: real time    0.2962
    MIXING:  cpu time    0.0059: real time    0.0061
    --------------------------------------------
      LOOP:  cpu time    2.4707: real time    2.4979

 eigenvalue-minimisations  :  5936
 total energy-change (2. order) : 0.6366417E-06  (-0.1152530E-05)
 number of electron      39.0000001 magnetization
 augmentation part        8.1630405 magnetization

 Broyden mixing:
  rms(total) = 0.17412E-03    rms(broyden)= 0.17395E-03
  rms(prec ) = 0.49658E-03
  weight for this iteration     100.00

 eigenvalues of (default mixing * dielectric matrix)
  average eigenvalue GAMMA=   1.3388
  2.7874  2.7874  2.0079  1.6978  1.6978  0.5221  0.5221  0.6362  1.0252  1.0252
  0.9934  0.8511  0.8511

 Free energy of the ion-electron system (eV)
  ---------------------------------------------------
  alpha Z        PSCENC =       195.73741923
  Ewald energy   TEWEN  =     -3480.94387327
  -Hartree energ DENC   =      -822.13400065
  -exchange      EXHF   =         0.00000000
  -V(xc)+E(xc)   XCENC  =        88.93850041
  PAW double counting   =      4009.93712944    -3941.59580952
  entropy T*S    EENTRO =        -0.00196363
  eigenvalues    EBANDS =      -168.83295227
  atomic energy  EATOM  =      4095.35208632
  Solvation  Ediel_sol  =         0.00000000
  ---------------------------------------------------
  free energy    TOTEN  =       -23.54346395 eV

  energy without entropy =      -23.54150032  energy(sigma->0) =      -23.54248214


--------------------------------------------------------------------------------------------------------




[...]
  212              fftbas_plan_mpi                       0.081280                     12   6
  213                dfftw_execute                         0.035366                   36   7
  214                map_backward                          0.004980                   12   7
  215                  map_gather                            0.001556                  6   8
  216                  m_alltoallv_z                         0.001831                  6   8
  217                  map_scatter                           0.001144                  6   8
  218                map_forward                           0.037709                   12   7
  219                  map_gather                            0.019641                  6   8
  220                  m_alltoallv_z                         0.006001                  6   8
  221                  map_scatter                           0.011778                  6   8
  222            M_sumb_d                              0.012819                        6   5
  223          M_sumb_d                              0.000030                          1   4
  224        setdij_                               1.525683                           20   3
  225          fft3d_mpi                             0.292773                         40   4
  226            fftbas_plan_mpi                       0.268018                       40   5
  227              dfftw_execute                         0.116953                    120   6
  228              map_backward                          0.017921                     40   6
  229                map_gather                            0.004454                   20   7
  230                m_alltoallv_z                         0.008693                   20   7
  231                map_scatter                           0.003783                   20   7
  232              map_forward                           0.122578                     40   6
  233                map_gather                            0.059715                   20   7
  234                m_alltoallv_z                         0.021094                   20   7
  235                map_scatter                           0.040769                   20   7
  236          M_sumb_d                              0.031106                         20   4
  237        set_dd_magatom                        0.000004                            1   3
  238        set_dd_paw                            0.001172                            1   3
  239          set_rsgf_all                          0.000004                          1   4
  240          M_sumb_d                              0.001017                          8   4
  241        strkin                                0.001409                            1   3
  242          M_sumb_d                              0.000733                          1   4
  243        strelo                                0.003139                            1   3
  244          M_sumb_d                              0.000092                          2   4
  245        strenl                                1.173933                            1   3
  246          spher                                 0.863959                         19   4
  247          phase                                 0.013401                        189   4
  248          proj1                                 0.269839                       1134   4
  249            crexp_mul_wave                        0.034985                     3402   5
  250            M_sumb_d                              0.082139                     1134   5
  251          M_sumb_d                              0.003260                          1   4
  252        M_sumb_d                              0.000208                            6   3
  253        fft3d_mpi                             0.017278                           11   3
  254          fftbas_plan_mpi                       0.015983                         11   4
  255            dfftw_execute                         0.006218                       33   5
  256            map_forward                           0.003331                       10   5
  257              map_gather                            0.000654                      5   6
  258              m_alltoallv_z                         0.001369                      5   6
  259              map_scatter                           0.001058                      5   6
  260            map_backward                          0.004031                       12   5
  261              map_gather                            0.001195                      6   6
  262              m_alltoallv_z                         0.001454                      6   6
  263              map_scatter                           0.001087                      6   6
  264        ggaall_grid                           0.001963                            1   3
  265        forhar                                0.007146                            2   3
  266          M_sumb_d                              0.000119                          2   4
  267        strehar                               0.003252                            1   3
  268          M_sumb_d                              0.000223                          1   4
  269        chggra                                0.007295                            1   3
  270          fft3d_mpi                             0.004776                          3   4
  271            fftbas_plan_mpi                       0.004419                        3   5
  272              dfftw_execute                         0.001859                      9   6
  273              map_backward                          0.000670                      2   6
  274                map_gather                            0.000190                    1   7
  275                m_alltoallv_z                         0.000249                    1   7
  276                map_scatter                           0.000179                    1   7
  277              map_forward                           0.001224                      4   6
  278                map_gather                            0.000265                    2   7
  279                m_alltoallv_z                         0.000459                    2   7
  280                map_scatter                           0.000398                    2   7
  281          M_sumb_d                              0.000108                          3   4
  282        brmix                                 0.006496                            1   3
  283          M_sumb_d                              0.000266                          6   4
  284          brpre                                 0.000050                          1   4
  285          setg0                                 0.001734                          1   4
  286          broyd                                 0.003149                          1   4
  287            M_sumb_d                              0.000866                       21   5
  288            brget                                 0.000491                       79   5
  289            brsav                                 0.000097                       19   5
  290          M_bcast_z                             0.000171                          1   4
  291          M_bcast_d                             0.000047                          1   4
  292        M_bcast_d                             0.000493                            2   3
  293      potlok                                0.031387                              1   2
  294        fft3d_mpi                             0.020804                           13   3
  295          fftbas_plan_mpi                       0.019312                         13   4
  296            dfftw_execute                         0.007152                       39   5
  297            map_forward                           0.004838                       14   5
  298              map_gather                            0.000932                      8   6
  299              m_alltoallv_z                         0.001933                      8   6
  300              map_scatter                           0.001596                      8   6
  301            map_backward                          0.004477                       12   5
  302              map_gather                            0.001390                      6   6
  303              m_alltoallv_z                         0.001633                      6   6
  304              map_scatter                           0.001151                      6   6
  305        ggaall_grid                           0.002042                            1   3
  306        M_sumb_d                              0.000235                            6   3
  307        M_bcast_d                             0.000246                            1   3
  308      potlok_metagga                        0.000004                              1   2
  309      set_dd_magatom                        0.000003                              1   2
  310      set_dd_paw                            0.000514                              1   2
  311        set_rsgf_all                          0.000004                            1   3
  312        M_sumb_d                              0.000318                            8   3
  313      densta                                0.002527                              1   2
  314        M_sumb_d                              0.000872                           44   3
  315      lprj_proall                           0.000008                              1   2

 Flat profile
 ============

             routine name                   CPU           calls
 ---------------------------------------------------------------
 total_time                             13.453275           1
 dfftw_execute                           7.498806       62454
 eddav                                   6.822979          19
 fftbas_plan_mpi                         4.508120       20820
 M_sumb_d                                3.374249       56857
 setdij_                                 2.676825          43
 set_charge                              2.546739          15
 m_alltoallv_z                           2.099148       20849
 pdssyex_zheevx                          1.780155         399
 elmin                                   1.502658           1
 M_alltoall_d                            1.493450       68628
 proj1                                   1.217774        8238
 orth1                                   1.210588       14079
 vhamil                                  1.128816        9372
 gemm                                    1.084052       28116
 spher                                   1.000784          20
 fftwav_mpi                              0.946413       11107
 map_forward                             0.938223       22540
 map_scatter                             0.862269       20849
 map_gather                              0.834767       20849
 vnlac0                                  0.636386        9372
 redis_pw                                0.585815       26562
 M_bcast_z                               0.529381        7243
 hamiltmu                                0.518985        4686
 redis_proj                              0.513817       33561
 w1_copy                                 0.420015       28116
 work_mul_crexp                          0.357878       28116
 fft3d_mpi                               0.345186       20818
 map_backward                            0.337712       19096
 crpa_reader                             0.331283           1
 fftext_mpi                              0.312818        9372
 crexp_mul_wave                          0.268142       24714
 eccp                                    0.246398        2394
 kinhamil                                0.196403        9372
 overl                                   0.184813       16371
 M_bcast_d                               0.155001        4724
 pw_charge                               0.134925        1735
 potlok                                  0.127534          16
 overl1                                  0.111979        9372
 apply_precond                           0.096999        6978
 setup_precond                           0.083025        2394
 lincom                                  0.077477         420
 w1_projall                              0.077451        3489
 force_and_stress                        0.053852           1
 fornl                                   0.050529           1
 phase                                   0.045154         631
 soft_charge                             0.044542          15
 truncate_high_frequency_w1              0.040143       11766
 ggaall_grid                             0.034046          17
 densta                                  0.033033          20
 strenl                                  0.023474           1
 setg0                                   0.021595          16
 brmix                                   0.019272          15
 broyd                                   0.014491          15
 forhar                                  0.007027           2
 depsum                                  0.006386          15
 forloc                                  0.003856           1
 brget                                   0.003607         654
 set_dd_paw                              0.003196          17
 strelo                                  0.003047           1
 strehar                                 0.003029           1
 chggra                                  0.002411           1
 orthch                                  0.002133           1
 choleski                                0.001919          21
 proj                                    0.001694          21
 brsav                                   0.001375         182
 brgrid                                  0.001179           1
 brpre                                   0.001002          15
 strkin                                  0.000676           1
 fordep                                  0.000139           1
 set_dd_magatom                          0.000078          17
 set_rsgf_all                            0.000076          17
 vectorpot                               0.000074          16
 potlok_metagga                          0.000060          16
 set_kineden                             0.000053          14
 rotate_active_occupied_orbital          0.000015           1
 lprj_proall                             0.000008           1
 redis_pw_over_bands                     0.000004           1
 ---------------------------------------------------------------
  summed up times    64.0526909828186

 Accumulative profile
 ====================

             routine name                   CPU           calls
 ---------------------------------------------------------------
 total_time                             64.052691           1
 elmin                                  45.840975           1
 eddav                                  38.222007          19
 fft3d_mpi                              17.401449       20818
 fftbas_plan_mpi                        17.079046       20820
 hamiltmu                               12.009712        4686
 fftwav_mpi                             10.025829       11107
 kinhamil                                7.588670        9372
 dfftw_execute                           7.498806       62454
 fftext_mpi                              7.392267        9372
 set_charge                              4.503271          15
 force_and_stress                        3.636974           1
 setdij_                                 3.399498          43
 M_sumb_d                                3.374249       56857
 map_forward                             3.133861       22540
 vnlac0                                  2.661262        9372
 m_alltoallv_z                           2.099148       20849
 proj1                                   2.070666        8238
 map_backward                            1.938258       19096
 w1_projall                              1.849042        3489
 pdssyex_zheevx                          1.780155         399
 soft_charge                             1.698729          15
 M_alltoall_d                            1.493450       68628
 redis_pw                                1.434293       26562
 orth1                                   1.210588       14079
 strenl                                  1.173933           1
 redis_proj                              1.158790       33561
 vhamil                                  1.128816        9372
 gemm                                    1.084052       28116
 spher                                   1.000784          20
 map_scatter                             0.862269       20849
 map_gather                              0.834767       20849
 M_bcast_z                               0.529381        7243
 potlok                                  0.493076          16
 fordep                                  0.466088           1
 w1_copy                                 0.420015       28116
 eccp                                    0.383034        2394
 work_mul_crexp                          0.357878       28116
 crpa_reader                             0.331283           1
 crexp_mul_wave                          0.268142       24714
 overl                                   0.184813       16371
 set_dd_paw                              0.155897          17
 M_bcast_d                               0.155001        4724
 setup_precond                           0.141614        2394
 pw_charge                               0.134925        1735
 overl1                                  0.111979        9372
 apply_precond                           0.096999        6978
 brmix                                   0.078719          15
 lincom                                  0.077477         420
 fornl                                   0.067061           1
 densta                                  0.048923          20
 phase                                   0.045154         631
 truncate_high_frequency_w1              0.040143       11766
 ggaall_grid                             0.034046          17
 orthch                                  0.031355           1
 proj                                    0.030930          21
 broyd                                   0.026170          15
 setg0                                   0.021595          16
 depsum                                  0.009666          15
 chggra                                  0.007295           1
 forhar                                  0.007146           2
 forloc                                  0.003915           1
 brget                                   0.003607         654
 strehar                                 0.003252           1
 strelo                                  0.003139           1
 choleski                                0.001919          21
 strkin                                  0.001409           1
 brsav                                   0.001375         182
 brgrid                                  0.001179           1
 brpre                                   0.001002          15
 set_dd_magatom                          0.000078          17
 set_rsgf_all                            0.000076          17
 vectorpot                               0.000074          16
 potlok_metagga                          0.000060          16
 set_kineden                             0.000053          14
 rotate_active_occupied_orbital          0.000015           1
 lprj_proall                             0.000008           1
 redis_pw_over_bands                     0.000004           1
 ---------------------------------------------------------------

Profiling took   1.659521  1.975482  0.005893  0.004370 seconds
Profiling took   1.633915 seconds
