<?xml version="1.0" encoding="ISO-8859-1"?>
<modeling>
 <generator>
  <i name="program" type="string">vasp </i>
  <i name="version" type="string">6.0.8  </i>
  <i name="subversion" type="string">29Jun18 (build Jun 13 2019 12:54:44) complex                          parallel </i>
  <i name="platform" type="string">IFC18_CrayMPICH </i>
  <i name="date" type="string">2021 12 05 </i>
  <i name="time" type="string">14:21:49 </i>
 </generator>
 <incar>
  <i type="int" name="KPAR">     4</i>
  <i type="int" name="NPAR">     4</i>
  <i type="int" name="ISTART">     0</i>
  <i type="string" name="PREC"> ACC</i>
  <i type="string" name="ALGO"> Normal</i>
  <i type="logical" name="ADDGRID"> T  </i>
  <i type="int" name="ISPIN">     1</i>
  <i type="int" name="NELMIN">     5</i>
  <i type="int" name="IBRION">    -1</i>
  <i name="EDIFF">      0.00000010</i>
  <i type="int" name="NSW">     0</i>
  <i type="int" name="ISIF">     3</i>
  <i name="ENCUT">    700.00000000</i>
  <i type="logical" name="LREAL"> F  </i>
  <i type="int" name="ISMEAR">     0</i>
  <i name="SIGMA">      0.01000000</i>
  <i type="logical" name="LWAVE"> F  </i>
  <i type="logical" name="LCHARG"> F  </i>
  <i type="logical" name="LVTOT"> F  </i>
  <i type="string" name="ALGO"> Normal</i>
  <i type="string" name="GGA"> PS</i>
  <i name="EDIFF">      0.00000010</i>
  <i type="int" name="ISPIN">     1</i>
 </incar>
 <structure name="primitive_cell" >
  <crystal>
   <varray name="basis" >
    <v>       0.00000000       3.42473483       3.42473483 </v>
    <v>       3.42473483       0.00000000       3.42473483 </v>
    <v>       3.42473483       3.42473483       0.00000000 </v>
   </varray>
   <i name="volume">     80.33611935 </i>
   <varray name="rec_basis" >
    <v>      -0.14599670       0.14599670       0.14599670 </v>
    <v>       0.14599670      -0.14599670       0.14599670 </v>
    <v>       0.14599670       0.14599670      -0.14599670 </v>
   </varray>
  </crystal>
  <varray name="positions" >
   <v>       0.25000000       0.25000000       0.25000000 </v>
   <v>       0.75000000       0.75000000       0.75000000 </v>
   <v>       0.00000000       0.00000000       0.00000000 </v>
  </varray>
 </structure>
 <varray name="primitive_index" >
  <v type="int" >        1 </v>
  <v type="int" >        2 </v>
  <v type="int" >        3 </v>
 </varray>
 <kpoints>
  <generation param="Gamma">
   <v type="int" name="divisions">      13       13       13 </v>
   <v name="usershift">      0.00000000       0.00000000       0.00000000 </v>
   <v name="genvec1">      0.07692308      -0.00000000       0.00000000 </v>
   <v name="genvec2">     -0.00000000       0.07692308      -0.00000000 </v>
   <v name="genvec3">      0.00000000       0.00000000       0.07692308 </v>
   <v name="shift">      0.00000000       0.00000000       0.00000000 </v>
  </generation>
  <varray name="kpointlist" >
   <v>       0.00000000       0.00000000       0.00000000 </v>
   <v>       0.07692308      -0.00000000       0.00000000 </v>
   <v>       0.15384615      -0.00000000       0.00000000 </v>
   <v>       0.23076923       0.00000000       0.00000000 </v>
   <v>       0.30769231      -0.00000000       0.00000000 </v>
   <v>       0.38461538       0.00000000       0.00000000 </v>
   <v>       0.46153846      -0.00000000       0.00000000 </v>
   <v>       0.07692308       0.07692308       0.00000000 </v>
   <v>       0.15384615       0.07692308       0.00000000 </v>
   <v>       0.23076923       0.07692308       0.00000000 </v>
   <v>       0.30769231       0.07692308       0.00000000 </v>
   <v>       0.38461538       0.07692308       0.00000000 </v>
   <v>       0.46153846       0.07692308       0.00000000 </v>
   <v>      -0.46153846       0.07692308      -0.00000000 </v>
   <v>      -0.38461538       0.07692308      -0.00000000 </v>
   <v>      -0.30769231       0.07692308      -0.00000000 </v>
   <v>      -0.23076923       0.07692308       0.00000000 </v>
   <v>      -0.15384615       0.07692308       0.00000000 </v>
   <v>      -0.07692308       0.07692308      -0.00000000 </v>
   <v>       0.15384615       0.15384615       0.00000000 </v>
   <v>       0.23076923       0.15384615       0.00000000 </v>
   <v>       0.30769231       0.15384615       0.00000000 </v>
   <v>       0.38461538       0.15384615       0.00000000 </v>
   <v>       0.46153846       0.15384615       0.00000000 </v>
   <v>      -0.46153846       0.15384615      -0.00000000 </v>
   <v>      -0.38461538       0.15384615      -0.00000000 </v>
   <v>      -0.30769231       0.15384615      -0.00000000 </v>
   <v>      -0.23076923       0.15384615      -0.00000000 </v>
   <v>      -0.15384615       0.15384615      -0.00000000 </v>
   <v>       0.23076923       0.23076923       0.00000000 </v>
   <v>       0.30769231       0.23076923       0.00000000 </v>
   <v>       0.38461538       0.23076923       0.00000000 </v>
   <v>       0.46153846       0.23076923       0.00000000 </v>
   <v>      -0.46153846       0.23076923      -0.00000000 </v>
   <v>      -0.38461538       0.23076923       0.00000000 </v>
   <v>      -0.30769231       0.23076923      -0.00000000 </v>
   <v>      -0.23076923       0.23076923       0.00000000 </v>
   <v>       0.30769231       0.30769231       0.00000000 </v>
   <v>       0.38461538       0.30769231       0.00000000 </v>
   <v>       0.46153846       0.30769231       0.00000000 </v>
   <v>      -0.46153846       0.30769231      -0.00000000 </v>
   <v>      -0.38461538       0.30769231      -0.00000000 </v>
   <v>      -0.30769231       0.30769231      -0.00000000 </v>
   <v>       0.38461538       0.38461538       0.00000000 </v>
   <v>       0.46153846       0.38461538       0.00000000 </v>
   <v>      -0.46153846       0.38461538      -0.00000000 </v>
   <v>      -0.38461538       0.38461538       0.00000000 </v>
   <v>       0.46153846       0.46153846       0.00000000 </v>
   <v>      -0.46153846       0.46153846      -0.00000000 </v>
   <v>       0.23076923       0.15384615       0.07692308 </v>
   <v>       0.30769231       0.15384615       0.07692308 </v>
   <v>       0.38461538       0.15384615       0.07692308 </v>
   <v>       0.46153846       0.15384615       0.07692308 </v>
   <v>      -0.46153846       0.15384615       0.07692308 </v>
   <v>       0.30769231       0.23076923       0.07692308 </v>
   <v>       0.38461538       0.23076923       0.07692308 </v>
   <v>       0.46153846       0.23076923       0.07692308 </v>
   <v>      -0.46153846       0.23076923       0.07692308 </v>
   <v>      -0.38461538       0.23076923       0.07692308 </v>
   <v>      -0.30769231       0.23076923       0.07692308 </v>
   <v>      -0.23076923       0.23076923       0.07692308 </v>
   <v>      -0.15384615       0.23076923       0.07692308 </v>
   <v>       0.38461538       0.30769231       0.07692308 </v>
   <v>       0.46153846       0.30769231       0.07692308 </v>
   <v>      -0.46153846       0.30769231       0.07692308 </v>
   <v>      -0.38461538       0.30769231       0.07692308 </v>
   <v>      -0.30769231       0.30769231       0.07692308 </v>
   <v>      -0.23076923       0.30769231       0.07692308 </v>
   <v>       0.46153846       0.38461538       0.07692308 </v>
   <v>      -0.46153846       0.38461538       0.07692308 </v>
   <v>      -0.38461538       0.38461538       0.07692308 </v>
   <v>      -0.30769231       0.38461538       0.07692308 </v>
   <v>      -0.46153846       0.46153846       0.07692308 </v>
   <v>      -0.38461538       0.46153846       0.07692308 </v>
   <v>       0.46153846       0.30769231       0.15384615 </v>
   <v>      -0.46153846       0.30769231       0.15384615 </v>
   <v>      -0.38461538       0.30769231       0.15384615 </v>
   <v>      -0.46153846       0.38461538       0.15384615 </v>
   <v>      -0.38461538       0.38461538       0.15384615 </v>
   <v>      -0.30769231       0.38461538       0.15384615 </v>
   <v>      -0.23076923       0.38461538       0.15384615 </v>
   <v>      -0.38461538       0.46153846       0.15384615 </v>
   <v>      -0.30769231       0.46153846       0.15384615 </v>
   <v>      -0.30769231       0.46153846       0.23076923 </v>
  </varray>
  <varray name="weights" >
   <v>       0.00045517 </v>
   <v>       0.00364133 </v>
   <v>       0.00364133 </v>
   <v>       0.00364133 </v>
   <v>       0.00364133 </v>
   <v>       0.00364133 </v>
   <v>       0.00364133 </v>
   <v>       0.00273100 </v>
   <v>       0.01092399 </v>
   <v>       0.01092399 </v>
   <v>       0.01092399 </v>
   <v>       0.01092399 </v>
   <v>       0.01092399 </v>
   <v>       0.01092399 </v>
   <v>       0.01092399 </v>
   <v>       0.01092399 </v>
   <v>       0.01092399 </v>
   <v>       0.01092399 </v>
   <v>       0.00546199 </v>
   <v>       0.00273100 </v>
   <v>       0.01092399 </v>
   <v>       0.01092399 </v>
   <v>       0.01092399 </v>
   <v>       0.01092399 </v>
   <v>       0.01092399 </v>
   <v>       0.01092399 </v>
   <v>       0.01092399 </v>
   <v>       0.01092399 </v>
   <v>       0.00546199 </v>
   <v>       0.00273100 </v>
   <v>       0.01092399 </v>
   <v>       0.01092399 </v>
   <v>       0.01092399 </v>
   <v>       0.01092399 </v>
   <v>       0.01092399 </v>
   <v>       0.01092399 </v>
   <v>       0.00546199 </v>
   <v>       0.00273100 </v>
   <v>       0.01092399 </v>
   <v>       0.01092399 </v>
   <v>       0.01092399 </v>
   <v>       0.01092399 </v>
   <v>       0.00546199 </v>
   <v>       0.00273100 </v>
   <v>       0.01092399 </v>
   <v>       0.01092399 </v>
   <v>       0.00546199 </v>
   <v>       0.00273100 </v>
   <v>       0.00546199 </v>
   <v>       0.01092399 </v>
   <v>       0.02184797 </v>
   <v>       0.02184797 </v>
   <v>       0.02184797 </v>
   <v>       0.02184797 </v>
   <v>       0.01092399 </v>
   <v>       0.02184797 </v>
   <v>       0.02184797 </v>
   <v>       0.02184797 </v>
   <v>       0.02184797 </v>
   <v>       0.02184797 </v>
   <v>       0.02184797 </v>
   <v>       0.01092399 </v>
   <v>       0.01092399 </v>
   <v>       0.02184797 </v>
   <v>       0.02184797 </v>
   <v>       0.02184797 </v>
   <v>       0.02184797 </v>
   <v>       0.01092399 </v>
   <v>       0.01092399 </v>
   <v>       0.02184797 </v>
   <v>       0.02184797 </v>
   <v>       0.01092399 </v>
   <v>       0.01092399 </v>
   <v>       0.01092399 </v>
   <v>       0.01092399 </v>
   <v>       0.02184797 </v>
   <v>       0.02184797 </v>
   <v>       0.01092399 </v>
   <v>       0.02184797 </v>
   <v>       0.02184797 </v>
   <v>       0.01092399 </v>
   <v>       0.01092399 </v>
   <v>       0.01092399 </v>
   <v>       0.01092399 </v>
  </varray>
 </kpoints>
 <parameters>
  <separator name="general" >
   <i type="string" name="SYSTEM">unknown system</i>
   <i type="logical" name="LCOMPAT"> F  </i>
  </separator>
  <separator name="electronic" >
   <i type="string" name="PREC">acc</i>
   <i name="ENMAX">    700.00000000</i>
   <i name="ENAUG">    526.41000000</i>
   <i name="EDIFF">      0.00000010</i>
   <i type="int" name="IALGO">    38</i>
   <i type="int" name="IWAVPR">    10</i>
   <i type="int" name="NBANDS">    24</i>
   <i type="int" name="NBANDSLOW">    -1</i>
   <i type="int" name="NBANDSHIGH">    -1</i>
   <i name="NELECT">     39.00000000</i>
   <i type="int" name="TURBO">     0</i>
   <i type="int" name="IRESTART">     0</i>
   <i type="int" name="NREBOOT">     0</i>
   <i type="int" name="NMIN">     0</i>
   <i name="EREF">      0.00000000</i>
   <separator name="electronic smearing" >
    <i type="int" name="ISMEAR">     0</i>
    <i name="SIGMA">      0.01000000</i>
    <i name="KSPACING">      0.50000000</i>
    <i type="logical" name="KGAMMA"> T  </i>
    <i type="logical" name="KBLOWUP"> T  </i>
   </separator>
   <separator name="electronic projectors" >
    <i type="logical" name="LREAL"> F  </i>
    <v name="ROPT">      0.00000000      0.00000000      0.00000000</v>
    <i type="int" name="LMAXPAW">  -100</i>
    <i type="int" name="LMAXMIX">     2</i>
    <i type="logical" name="NLSPLINE"> F  </i>
   </separator>
   <separator name="electronic startup" >
    <i type="int" name="ISTART">     0</i>
    <i type="int" name="ICHARG">     2</i>
    <i type="int" name="INIWAV">     1</i>
   </separator>
   <separator name="electronic spin" >
    <i type="int" name="ISPIN">     1</i>
    <i type="logical" name="LNONCOLLINEAR"> F  </i>
    <v name="MAGMOM">      1.00000000      1.00000000      1.00000000</v>
    <i name="NUPDOWN">     -1.00000000</i>
    <i type="logical" name="LSORBIT"> F  </i>
    <v name="SAXIS">      0.00000000      0.00000000      1.00000000</v>
    <i type="logical" name="LSPIRAL"> F  </i>
    <v name="QSPIRAL">      0.00000000      0.00000000      0.00000000</v>
    <i type="logical" name="LZEROZ"> F  </i>
   </separator>
   <separator name="electronic exchange-correlation" >
    <i type="logical" name="LASPH"> F  </i>
    <i type="logical" name="LMETAGGA"> F  </i>
   </separator>
   <separator name="electronic convergence" >
    <i type="int" name="NELM">    60</i>
    <i type="int" name="NELMDL">    -5</i>
    <i type="int" name="NELMIN">     5</i>
    <i name="ENINI">    700.00000000</i>
    <separator name="electronic convergence detail" >
     <i type="logical" name="LDIAG"> T  </i>
     <i type="logical" name="LSUBROT"> F  </i>
     <i name="WEIMIN">      0.00000000</i>
     <i name="EBREAK">      0.00000000</i>
     <i name="DEPER">      0.30000000</i>
     <i type="int" name="NRMM">     4</i>
     <i name="TIME">      0.40000000</i>
    </separator>
   </separator>
   <separator name="electronic mixer" >
    <i name="AMIX">      0.40000000</i>
    <i name="BMIX">      1.00000000</i>
    <i name="AMIN">      0.10000000</i>
    <i name="AMIX_MAG">      1.60000000</i>
    <i name="BMIX_MAG">      1.00000000</i>
    <separator name="electronic mixer details" >
     <i type="int" name="IMIX">     4</i>
     <i type="logical" name="MIXFIRST"> F  </i>
     <i type="int" name="MAXMIX">   -45</i>
     <i name="WC">    100.00000000</i>
     <i type="int" name="INIMIX">     1</i>
     <i type="int" name="MIXPRE">     1</i>
     <i type="int" name="MREMOVE">     5</i>
    </separator>
   </separator>
   <separator name="electronic dipolcorrection" >
    <i type="logical" name="LDIPOL"> F  </i>
    <i type="logical" name="LMONO"> F  </i>
    <i type="int" name="IDIPOL">     0</i>
    <i name="EPSILON">      1.00000000</i>
    <v name="DIPOL">   -100.00000000   -100.00000000   -100.00000000</v>
    <i name="EFIELD">      0.00000000</i>
   </separator>
  </separator>
  <separator name="grids" >
   <i type="int" name="NGX">    42</i>
   <i type="int" name="NGY">    42</i>
   <i type="int" name="NGZ">    42</i>
   <i type="int" name="NGXF">    84</i>
   <i type="int" name="NGYF">    84</i>
   <i type="int" name="NGZF">    84</i>
   <i type="logical" name="ADDGRID"> T  </i>
  </separator>
  <separator name="ionic" >
   <i type="int" name="NSW">     0</i>
   <i type="int" name="IBRION">    -1</i>
   <i type="int" name="MDALGO">     0</i>
   <i type="int" name="ISIF">     3</i>
   <i name="PSTRESS">      0.00000000</i>
   <i name="EDIFFG">      0.00000100</i>
   <i type="int" name="NFREE">     0</i>
   <i name="POTIM">      0.50000000</i>
   <i name="SMASS">     -3.00000000</i>
   <i name="SCALEE">      1.00000000</i>
  </separator>
  <separator name="ionic md" >
   <i name="TEBEG">      0.00010000</i>
   <i name="TEEND">      0.00010000</i>
   <i type="int" name="NBLOCK">     1</i>
   <i type="int" name="KBLOCK">     1</i>
   <i type="int" name="NPACO">   256</i>
   <i name="APACO">     16.00000000</i>
  </separator>
  <separator name="symmetry" >
   <i type="int" name="ISYM">     2</i>
   <i name="SYMPREC">      0.00001000</i>
  </separator>
  <separator name="dos" >
   <i type="int" name="LORBIT">     0</i>
   <v name="RWIGS">     -1.00000000     -1.00000000     -1.00000000</v>
   <i type="int" name="NEDOS">   301</i>
   <i name="EMIN">     10.00000000</i>
   <i name="EMAX">    -10.00000000</i>
   <i name="EFERMI">      0.00000000</i>
  </separator>
  <separator name="writing" >
   <i type="int" name="NWRITE">     2</i>
   <i type="logical" name="LWAVE"> F  </i>
   <i type="logical" name="LDOWNSAMPLE"> F  </i>
   <i type="logical" name="LCHARG"> F  </i>
   <i type="logical" name="LPARD"> F  </i>
   <i type="logical" name="LVTOT"> F  </i>
   <i type="logical" name="LVHAR"> F  </i>
   <i type="logical" name="LELF"> F  </i>
   <i type="logical" name="LOPTICS"> F  </i>
   <v name="STM">      0.00000000      0.00000000      0.00000000      0.00000000      0.00000000      0.00000000      0.00000000</v>
  </separator>
  <separator name="performance" >
   <i type="int" name="NPAR">     4</i>
   <i type="int" name="NSIM">     4</i>
   <i type="int" name="NBLK">    -1</i>
   <i type="logical" name="LPLANE"> T  </i>
   <i type="logical" name="LSCALAPACK"> T  </i>
   <i type="logical" name="LSCAAWARE"> F  </i>
   <i type="logical" name="LSCALU"> F  </i>
   <i type="logical" name="LASYNC"> F  </i>
   <i type="logical" name="LORBITALREAL"> F  </i>
  </separator>
  <separator name="miscellaneous" >
   <i type="int" name="IDIOT">     3</i>
   <i type="int" name="PHON_NSTRUCT">    -1</i>
   <i type="logical" name="LMUSIC"> F  </i>
   <v name="POMASS">    238.02900000    208.98000000    195.08000000</v>
   <v name="DARWINR">      0.00000000      0.00000000      0.00000000</v>
   <v name="DARWINV">      1.00000000      1.00000000      1.00000000</v>
   <i type="logical" name="LCORR"> T  </i>
  </separator>
  <i type="logical" name="GGA_COMPAT"> T  </i>
  <i type="logical" name="LBERRY"> F  </i>
  <i type="int" name="ICORELEVEL">     0</i>
  <i type="logical" name="LDAU"> F  </i>
  <i type="int" name="I_CONSTRAINED_M">     0</i>
  <separator name="electronic exchange-correlation" >
   <i type="string" name="GGA">PS</i>
   <i type="int" name="VOSKOWN">     0</i>
   <i type="logical" name="LHFCALC"> F  </i>
   <i type="string" name="PRECFOCK"></i>
   <i type="logical" name="LSYMGRAD"> F  </i>
   <i type="logical" name="LHFONE"> F  </i>
   <i type="logical" name="LRHFCALC"> F  </i>
   <i type="logical" name="LTHOMAS"> F  </i>
   <i type="logical" name="LMODELHF"> F  </i>
   <i type="logical" name="LFOCKACE"> F  </i>
   <i name="ENCUT4O">     -1.00000000</i>
   <i type="int" name="EXXOEP">     0</i>
   <i type="int" name="FOURORBIT">     0</i>
   <i name="AEXX">      0.00000000</i>
   <i name="HFALPHA">      0.00000000</i>
   <i name="MCALPHA">      0.00000000</i>
   <i name="ALDAX">      1.00000000</i>
   <i name="AGGAX">      1.00000000</i>
   <i name="ALDAC">      1.00000000</i>
   <i name="AGGAC">      1.00000000</i>
   <i type="int" name="NKREDX">     1</i>
   <i type="int" name="NKREDY">     1</i>
   <i type="int" name="NKREDZ">     1</i>
   <i type="logical" name="SHIFTRED"> F  </i>
   <i type="logical" name="ODDONLY"> F  </i>
   <i type="logical" name="EVENONLY"> F  </i>
   <i type="int" name="LMAXFOCK">     0</i>
   <i type="int" name="NMAXFOCKAE">     0</i>
   <i type="logical" name="LFOCKAEDFT"> F  </i>
   <i name="HFSCREEN">      0.00000000</i>
   <i name="HFSCREENC">      0.00000000</i>
   <i type="int" name="NBANDSGWLOW">     0</i>
  </separator>
  <separator name="vdW DFT" >
   <i type="logical" name="LUSE_VDW"> F  </i>
   <i name="Zab_VDW">     -0.84910000</i>
   <i name="PARAM1">      0.12340000</i>
   <i name="PARAM2">      1.00000000</i>
   <i name="PARAM3">      0.00000000</i>
  </separator>
  <separator name="model GW" >
   <i type="int" name="MODEL_GW">     0</i>
   <i name="MODEL_EPS0">     16.06722387</i>
   <i name="MODEL_ALPHA">      1.00000000</i>
  </separator>
  <separator name="linear response parameters" >
   <i type="logical" name="LEPSILON"> F  </i>
   <i type="logical" name="LRPA"> F  </i>
   <i type="logical" name="LNABLA"> F  </i>
   <i type="logical" name="LVEL"> F  </i>
   <i type="int" name="KINTER">     0</i>
   <i name="CSHIFT">      0.10000000</i>
   <i name="OMEGAMAX">     -1.00000000</i>
   <i name="DEG_THRESHOLD">      0.00200000</i>
   <i name="RTIME">     -0.10000000</i>
   <i name="WPLASMAI">      0.00000000</i>
   <v name="DFIELD">      0.00000000      0.00000000      0.00000000</v>
   <v name="WPLASMA">      0.00000000      0.00000000      0.00000000      0.00000000      0.00000000      0.00000000      0.00000000      0.00000000      0.00000000</v>
  </separator>
  <separator name="orbital magnetization" >
   <i type="logical" name="NUCIND"> F  </i>
   <v name="MAGPOS">      0.00000000      0.00000000      0.00000000</v>
   <i type="logical" name="LNICSALL"> T  </i>
   <i type="logical" name="ORBITALMAG"> F  </i>
   <i type="logical" name="LMAGBLOCH"> F  </i>
   <i type="logical" name="LCHIMAG"> F  </i>
   <i type="logical" name="LGAUGE"> T  </i>
   <i type="int" name="MAGATOM">     0</i>
   <v name="MAGDIPOL">      0.00000000      0.00000000      0.00000000</v>
   <v name="AVECCONST">      0.00000000      0.00000000      0.00000000</v>
  </separator>
  <separator name="response functions" >
   <i type="logical" name="LFINITE_TEMPERATURE"> F  </i>
   <i type="logical" name="LADDER"> F  </i>
   <i type="logical" name="LRPAFORCE"> F  </i>
   <i type="logical" name="LFXC"> F  </i>
   <i type="logical" name="LHARTREE"> T  </i>
   <i type="int" name="IBSE">     0</i>
   <v type="int" name="KPOINT">    -1     0     0     0</v>
   <i type="logical" name="LTCTC"> F  </i>
   <i type="logical" name="LTCTE"> F  </i>
   <i type="logical" name="LTETE"> F  </i>
   <i type="logical" name="LTRIPLET"> F  </i>
   <i type="logical" name="LFXCEPS"> F  </i>
   <i type="logical" name="LFXHEG"> F  </i>
   <i type="int" name="NATURALO">     2</i>
   <i type="logical" name="L2ORDER"> F  </i>
   <i type="logical" name="LDMP1"> F  </i>
   <i type="logical" name="LMP2LT"> F  </i>
   <i type="logical" name="LSMP2LT"> F  </i>
   <i type="logical" name="LUSEW"> F  </i>
   <i name="ENCUTGW">     -2.00000000</i>
   <i name="ENCUTGWSOFT">     -2.00000000</i>
   <i name="ENCUTLF">     -1.00000000</i>
   <i type="int" name="LMAXMP2">    -1</i>
   <i name="SCISSOR">      0.00000000</i>
   <i type="int" name="NOMEGA">     0</i>
   <i type="int" name="NOMEGAR">     0</i>
   <i type="int" name="NBANDSGW">    -1</i>
   <i type="int" name="NBANDSO">    -1</i>
   <i type="int" name="NBANDSV">    -1</i>
   <i type="int" name="NELM">     1</i>
   <i type="int" name="NELMHF">     1</i>
   <i type="int" name="DIM">     3</i>
   <i type="int" name="IESPILON">     4</i>
   <i type="int" name="ANTIRES">     0</i>
   <i name="OMEGAMAX">    -30.00000000</i>
   <i name="OMEGAMIN">    -30.00000000</i>
   <i name="OMEGATL">   -200.00000000</i>
   <i type="int" name="OMEGAGRID">   145</i>
   <i name="CSHIFT">     -0.10000000</i>
   <i type="logical" name="LSELFENERGY"> F  </i>
   <i type="logical" name="LSPECTRAL"> F  </i>
   <i type="logical" name="LSPECTRALGW"> F  </i>
   <i type="logical" name="LSINGLES"> F  </i>
   <i type="logical" name="LFERMIGW"> F  </i>
   <i type="logical" name="ODDONLYGW"> F  </i>
   <i type="logical" name="EVENONLYGW"> F  </i>
   <i type="int" name="NKREDLFX">     1</i>
   <i type="int" name="NKREDLFY">     1</i>
   <i type="int" name="NKREDLFZ">     1</i>
   <i type="int" name="MAXMEM">  2800</i>
   <i type="int" name="TELESCOPE">     0</i>
   <i type="int" name="NTAUPAR">     1</i>
   <i type="int" name="NOMEGAPAR">    -1</i>
   <i name="LAMBDA">      1.00000000</i>
  </separator>
  <separator name="External order field" >
   <i name="OFIELD_KAPPA">      0.00000000</i>
   <v name="OFIELD_K">      0.00000000      0.00000000      0.00000000</v>
   <i name="OFIELD_Q6_NEAR">      0.00000000</i>
   <i name="OFIELD_Q6_FAR">      0.00000000</i>
   <i name="OFIELD_A">      0.00000000</i>
  </separator>
 </parameters>
 <atominfo>
  <atoms>       3 </atoms>
  <types>       3 </types>
  <array name="atoms" >
   <dimension dim="1">ion</dimension>
   <field type="string">element</field>
   <field type="int">atomtype</field>
   <set>
    <rc><c>U </c><c>   1</c></rc>
    <rc><c>Bi</c><c>   2</c></rc>
    <rc><c>Pt</c><c>   3</c></rc>
   </set>
  </array>
  <array name="atomtypes" >
   <dimension dim="1">type</dimension>
   <field type="int">atomspertype</field>
   <field type="string">element</field>
   <field>mass</field>
   <field>valence</field>
   <field type="string">pseudopotential</field>
   <set>
    <rc><c>   1</c><c>U </c><c>    238.02900000</c><c>     14.00000000</c><c>  PAW_PBE U 06Sep2000                   </c></rc>
    <rc><c>   1</c><c>Bi</c><c>    208.98000000</c><c>     15.00000000</c><c>  PAW_PBE Bi_d 06Sep2000                </c></rc>
    <rc><c>   1</c><c>Pt</c><c>    195.08000000</c><c>     10.00000000</c><c>  PAW_PBE Pt 04Feb2005                  </c></rc>
   </set>
  </array>
 </atominfo>
 <structure name="initialpos" >
  <crystal>
   <varray name="basis" >
    <v>       0.00000000       3.42473483       3.42473483 </v>
    <v>       3.42473483       0.00000000       3.42473483 </v>
    <v>       3.42473483       3.42473483       0.00000000 </v>
   </varray>
   <i name="volume">     80.33611935 </i>
   <varray name="rec_basis" >
    <v>      -0.14599670       0.14599670       0.14599670 </v>
    <v>       0.14599670      -0.14599670       0.14599670 </v>
    <v>       0.14599670       0.14599670      -0.14599670 </v>
   </varray>
  </crystal>
  <varray name="positions" >
   <v>       0.25000000       0.25000000       0.25000000 </v>
   <v>       0.75000000       0.75000000       0.75000000 </v>
   <v>       0.00000000       0.00000000       0.00000000 </v>
  </varray>
 </structure>
 <calculation>
  <scstep>
   <time name="dav">    1.51    1.54</time>
   <time name="total">    1.67    1.76</time>
   <energy>
    <i name="alphaZ">    195.73741923 </i>
    <i name="ewald">  -3480.94387327 </i>
    <i name="hartreedc">   -832.80486061 </i>
    <i name="XCdc">     89.24837450 </i>
    <i name="pawpsdc">   3513.29252893 </i>
    <i name="pawaedc">  -3436.88002192 </i>
    <i name="eentropy">     -0.00008027 </i>
    <i name="bandstr">    284.97497555 </i>
    <i name="atom">   4095.35208632 </i>
    <i name="e_fr_energy">    427.97654846 </i>
    <i name="e_wo_entrp">    427.97662873 </i>
    <i name="e_0_energy">    427.97658859 </i>
   </energy>
  </scstep>
  <scstep>
   <time name="dav">    1.73    1.76</time>
   <time name="total">    1.73    1.76</time>
   <energy>
    <i name="e_fr_energy">     26.90118199 </i>
    <i name="e_wo_entrp">     26.90140673 </i>
    <i name="e_0_energy">     26.90129436 </i>
   </energy>
  </scstep>
  <scstep>
   <time name="dav">    1.79    1.82</time>
   <time name="total">    1.79    1.83</time>
   <energy>
    <i name="e_fr_energy">    -20.31253333 </i>
    <i name="e_wo_entrp">    -20.31152607 </i>
    <i name="e_0_energy">    -20.31202970 </i>
   </energy>
  </scstep>
  <scstep>
   <time name="dav">    2.51    2.55</time>
   <time name="total">    2.51    2.55</time>
   <energy>
    <i name="e_fr_energy">    -25.58508021 </i>
    <i name="e_wo_entrp">    -25.58391310 </i>
    <i name="e_0_energy">    -25.58449666 </i>
   </energy>
  </scstep>
  <scstep>
   <time name="dav">    1.90    1.93</time>
   <time name="total">    2.26    2.30</time>
   <energy>
    <i name="e_fr_energy">    -25.77497617 </i>
    <i name="e_wo_entrp">    -25.77371269 </i>
    <i name="e_0_energy">    -25.77434443 </i>
   </energy>
  </scstep>
  <scstep>
   <time name="dav">    2.07    2.07</time>
   <time name="total">    2.52    2.55</time>
   <energy>
    <i name="e_fr_energy">    -35.31238582 </i>
    <i name="e_wo_entrp">    -35.31208879 </i>
    <i name="e_0_energy">    -35.31223731 </i>
   </energy>
  </scstep>
  <scstep>
   <time name="dav">    2.01    2.01</time>
   <time name="total">    2.44    2.47</time>
   <energy>
    <i name="e_fr_energy">    -24.91591582 </i>
    <i name="e_wo_entrp">    -24.91522074 </i>
    <i name="e_0_energy">    -24.91556828 </i>
   </energy>
  </scstep>
  <scstep>
   <time name="dav">    2.03    2.03</time>
   <time name="total">    2.47    2.48</time>
   <energy>
    <i name="e_fr_energy">    -24.56714279 </i>
    <i name="e_wo_entrp">    -24.56596633 </i>
    <i name="e_0_energy">    -24.56655456 </i>
   </energy>
  </scstep>
  <scstep>
   <time name="dav">    2.12    2.12</time>
   <time name="total">    2.56    2.59</time>
   <energy>
    <i name="e_fr_energy">    -23.52328597 </i>
    <i name="e_wo_entrp">    -23.52178713 </i>
    <i name="e_0_energy">    -23.52253655 </i>
   </energy>
  </scstep>
  <scstep>
   <time name="dav">    2.09    2.09</time>
   <time name="total">    2.51    2.57</time>
   <energy>
    <i name="e_fr_energy">    -23.63084522 </i>
    <i name="e_wo_entrp">    -23.62951970 </i>
    <i name="e_0_energy">    -23.63018246 </i>
   </energy>
  </scstep>
  <scstep>
   <time name="dav">    2.01    2.01</time>
   <time name="total">    2.44    2.48</time>
   <energy>
    <i name="e_fr_energy">    -23.54293775 </i>
    <i name="e_wo_entrp">    -23.54111472 </i>
    <i name="e_0_energy">    -23.54202623 </i>
   </energy>
  </scstep>
  <scstep>
   <time name="dav">    2.42    2.42</time>
   <time name="total">    2.85    2.89</time>
   <energy>
    <i name="e_fr_energy">    -23.54467009 </i>
    <i name="e_wo_entrp">    -23.54272026 </i>
    <i name="e_0_energy">    -23.54369518 </i>
   </energy>
  </scstep>
  <scstep>
   <time name="dav">    2.12    2.12</time>
   <time name="total">    2.55    2.59</time>
   <energy>
    <i name="e_fr_energy">    -23.54592605 </i>
    <i name="e_wo_entrp">    -23.54391860 </i>
    <i name="e_0_energy">    -23.54492232 </i>
   </energy>
  </scstep>
  <scstep>
   <time name="dav">    2.05    2.05</time>
   <time name="total">    2.48    2.54</time>
   <energy>
    <i name="e_fr_energy">    -23.54345100 </i>
    <i name="e_wo_entrp">    -23.54149621 </i>
    <i name="e_0_energy">    -23.54247360 </i>
   </energy>
  </scstep>
  <scstep>
   <time name="dav">    2.29    2.29</time>
   <time name="total">    2.72    2.76</time>
   <energy>
    <i name="e_fr_energy">    -23.54346196 </i>
    <i name="e_wo_entrp">    -23.54149839 </i>
    <i name="e_0_energy">    -23.54248018 </i>
   </energy>
  </scstep>
  <scstep>
   <time name="dav">    2.06    2.06</time>
   <time name="total">    2.49    2.53</time>
   <energy>
    <i name="e_fr_energy">    -23.54346981 </i>
    <i name="e_wo_entrp">    -23.54150607 </i>
    <i name="e_0_energy">    -23.54248794 </i>
   </energy>
  </scstep>
  <scstep>
   <time name="dav">    2.04    2.04</time>
   <time name="total">    2.47    2.51</time>
   <energy>
    <i name="e_fr_energy">    -23.54346459 </i>
    <i name="e_wo_entrp">    -23.54150182 </i>
    <i name="e_0_energy">    -23.54248321 </i>
   </energy>
  </scstep>
  <scstep>
   <time name="dav">    2.04    2.04</time>
   <time name="total">    2.47    2.50</time>
   <energy>
    <i name="e_fr_energy">    -23.54346395 </i>
    <i name="e_wo_entrp">    -23.54150032 </i>
    <i name="e_0_energy">    -23.54248214 </i>
   </energy>
  </scstep>
  <scstep>
   <time name="dav">    1.47    1.47</time>
   <time name="total">    1.60    1.63</time>
   <energy>
    <i name="alphaZ">    195.73741923 </i>
    <i name="ewald">  -3480.94387327 </i>
    <i name="hartreedc">   -822.13440620 </i>
    <i name="XCdc">     88.93849416 </i>
    <i name="pawpsdc">   4010.00494264 </i>
    <i name="pawaedc">  -3941.66326022 </i>
    <i name="eentropy">     -0.00196353 </i>
    <i name="bandstr">   -168.83290313 </i>
    <i name="atom">   4095.35208632 </i>
    <i name="e_fr_energy">    -23.54346401 </i>
    <i name="e_wo_entrp">    -23.54150047 </i>
    <i name="e_0_energy">    -23.54248224 </i>
   </energy>
  </scstep>
  <structure>
   <crystal>
    <varray name="basis" >
     <v>       0.00000000       3.42473483       3.42473483 </v>
     <v>       3.42473483       0.00000000       3.42473483 </v>
     <v>       3.42473483       3.42473483       0.00000000 </v>
    </varray>
    <i name="volume">     80.33611935 </i>
    <varray name="rec_basis" >
     <v>      -0.14599670       0.14599670       0.14599670 </v>
     <v>       0.14599670      -0.14599670       0.14599670 </v>
     <v>       0.14599670       0.14599670      -0.14599670 </v>
    </varray>
   </crystal>
   <varray name="positions" >
    <v>       0.25000000       0.25000000       0.25000000 </v>
    <v>       0.75000000       0.75000000       0.75000000 </v>
    <v>       0.00000000       0.00000000       0.00000000 </v>
   </varray>
  </structure>
  <varray name="forces" >
   <v>      -0.00000000      -0.00000000       0.00000000 </v>
   <v>      -0.00000000      -0.00000000       0.00000000 </v>
   <v>       0.00000000       0.00000000      -0.00000000 </v>
  </varray>
  <varray name="stress" >
   <v>     -90.37907271      -0.00000000       0.00000000 </v>
   <v>       0.00000000     -90.37907271      -0.00000000 </v>
   <v>       0.00000000       0.00000000     -90.37907271 </v>
  </varray>
  <energy>
   <i name="e_fr_energy">    -23.54346401 </i>
   <i name="e_wo_entrp">    -23.54248224 </i>
   <i name="e_0_energy">     -0.00196353 </i>
  </energy>
  <time name="totalsc">   48.43   49.65</time>
  <eigenvalues>
   <array>
    <dimension dim="1">band</dimension>
    <dimension dim="2">kpoint</dimension>
    <dimension dim="3">spin</dimension>
    <field>eigene</field>
    <field>occ</field>
    <set>
     <set comment="spin 1">
      <set comment="kpoint 1">
       <r>  -35.3679    1.0000 </r>
       <r>  -13.9378    1.0000 </r>
       <r>  -13.9378    1.0000 </r>
       <r>  -13.9144    1.0000 </r>
       <r>  -13.9144    1.0000 </r>
       <r>  -13.9144    1.0000 </r>
       <r>  -10.5856    1.0000 </r>
       <r>  -10.5856    1.0000 </r>
       <r>  -10.5856    1.0000 </r>
       <r>   -3.1758    1.0000 </r>
       <r>    4.6186    1.0000 </r>
       <r>    4.6186    1.0000 </r>
       <r>    4.6186    1.0000 </r>
       <r>    4.9387    1.0000 </r>
       <r>    4.9387    1.0000 </r>
       <r>    6.9396    1.0000 </r>
       <r>    7.8130    1.0000 </r>
       <r>    7.8130    1.0000 </r>
       <r>    7.8130    1.0000 </r>
       <r>    8.8463    0.0300 </r>
       <r>    8.8788    0.0000 </r>
       <r>    8.8788    0.0000 </r>
       <r>    8.8788    0.0000 </r>
       <r>    9.0216    0.0000 </r>
      </set>
      <set comment="kpoint 2">
       <r>  -35.3678    1.0000 </r>
       <r>  -13.9388    1.0000 </r>
       <r>  -13.9388    1.0000 </r>
       <r>  -13.9145    1.0000 </r>
       <r>  -13.9142    1.0000 </r>
       <r>  -13.9142    1.0000 </r>
       <r>  -10.5949    1.0000 </r>
       <r>  -10.5836    1.0000 </r>
       <r>  -10.5836    1.0000 </r>
       <r>   -3.1230    1.0000 </r>
       <r>    4.4889    1.0000 </r>
       <r>    4.5388    1.0000 </r>
       <r>    4.5388    1.0000 </r>
       <r>    5.0136    1.0000 </r>
       <r>    5.0136    1.0000 </r>
       <r>    6.7324    1.0000 </r>
       <r>    7.7604    1.0000 </r>
       <r>    7.7604    1.0000 </r>
       <r>    7.9438    1.0000 </r>
       <r>    8.7615    1.0000 </r>
       <r>    8.8409    0.1311 </r>
       <r>    8.8409    0.1311 </r>
       <r>    9.0011    0.0000 </r>
       <r>    9.0226    0.0000 </r>
      </set>
      <set comment="kpoint 3">
       <r>  -35.3674    1.0000 </r>
       <r>  -13.9415    1.0000 </r>
       <r>  -13.9415    1.0000 </r>
       <r>  -13.9150    1.0000 </r>
       <r>  -13.9138    1.0000 </r>
       <r>  -13.9138    1.0000 </r>
       <r>  -10.6200    1.0000 </r>
       <r>  -10.5782    1.0000 </r>
       <r>  -10.5782    1.0000 </r>
       <r>   -2.9753    1.0000 </r>
       <r>    4.1683    1.0000 </r>
       <r>    4.4097    1.0000 </r>
       <r>    4.4097    1.0000 </r>
       <r>    5.1204    1.0000 </r>
       <r>    5.1204    1.0000 </r>
       <r>    6.3171    1.0000 </r>
       <r>    7.6417    1.0000 </r>
       <r>    7.6417    1.0000 </r>
       <r>    8.0346    1.0000 </r>
       <r>    8.8108    0.9991 </r>
       <r>    8.8108    0.9991 </r>
       <r>    8.9260    0.0000 </r>
       <r>    9.0249    0.0000 </r>
       <r>    9.1158    0.0000 </r>
      </set>
      <set comment="kpoint 4">
       <r>  -35.3668    1.0000 </r>
       <r>  -13.9454    1.0000 </r>
       <r>  -13.9454    1.0000 </r>
       <r>  -13.9158    1.0000 </r>
       <r>  -13.9132    1.0000 </r>
       <r>  -13.9132    1.0000 </r>
       <r>  -10.6540    1.0000 </r>
       <r>  -10.5705    1.0000 </r>
       <r>  -10.5705    1.0000 </r>
       <r>   -2.7629    1.0000 </r>
       <r>    3.7813    1.0000 </r>
       <r>    4.3074    1.0000 </r>
       <r>    4.3074    1.0000 </r>
       <r>    5.1681    1.0000 </r>
       <r>    5.1681    1.0000 </r>
       <r>    5.8797    1.0000 </r>
       <r>    7.5280    1.0000 </r>
       <r>    7.5280    1.0000 </r>
       <r>    8.0476    1.0000 </r>
       <r>    8.8077    0.9998 </r>
       <r>    8.8077    0.9998 </r>
       <r>    9.0665    0.0000 </r>
       <r>    9.1835    0.0000 </r>
       <r>    9.2766    0.0000 </r>
      </set>
      <set comment="kpoint 5">
       <r>  -35.3662    1.0000 </r>
       <r>  -13.9494    1.0000 </r>
       <r>  -13.9494    1.0000 </r>
       <r>  -13.9168    1.0000 </r>
       <r>  -13.9126    1.0000 </r>
       <r>  -13.9126    1.0000 </r>
       <r>  -10.6882    1.0000 </r>
       <r>  -10.5625    1.0000 </r>
       <r>  -10.5625    1.0000 </r>
       <r>   -2.5315    1.0000 </r>
       <r>    3.4232    1.0000 </r>
       <r>    4.2498    1.0000 </r>
       <r>    4.2498    1.0000 </r>
       <r>    5.1384    1.0000 </r>
       <r>    5.1384    1.0000 </r>
       <r>    5.5130    1.0000 </r>
       <r>    7.4615    1.0000 </r>
       <r>    7.4615    1.0000 </r>
       <r>    8.0878    1.0000 </r>
       <r>    8.8243    0.8904 </r>
       <r>    8.8243    0.8904 </r>
       <r>    9.1196    0.0000 </r>
       <r>    9.1768    0.0000 </r>
       <r>    9.2365    0.0000 </r>
      </set>
      <set comment="kpoint 6">
       <r>  -35.3657    1.0000 </r>
       <r>  -13.9528    1.0000 </r>
       <r>  -13.9528    1.0000 </r>
       <r>  -13.9177    1.0000 </r>
       <r>  -13.9120    1.0000 </r>
       <r>  -13.9120    1.0000 </r>
       <r>  -10.7152    1.0000 </r>
       <r>  -10.5558    1.0000 </r>
       <r>  -10.5558    1.0000 </r>
       <r>   -2.3345    1.0000 </r>
       <r>    3.1545    1.0000 </r>
       <r>    4.2334    1.0000 </r>
       <r>    4.2334    1.0000 </r>
       <r>    5.0623    1.0000 </r>
       <r>    5.0623    1.0000 </r>
       <r>    5.2597    1.0000 </r>
       <r>    7.4395    1.0000 </r>
       <r>    7.4395    1.0000 </r>
       <r>    8.1549    1.0000 </r>
       <r>    8.8541    0.0014 </r>
       <r>    8.8541    0.0014 </r>
       <r>    9.1622    0.0000 </r>
       <r>    9.1632    0.0000 </r>
       <r>    9.1635    0.0000 </r>
      </set>
      <set comment="kpoint 7">
       <r>  -35.3654    1.0000 </r>
       <r>  -13.9547    1.0000 </r>
       <r>  -13.9547    1.0000 </r>
       <r>  -13.9182    1.0000 </r>
       <r>  -13.9116    1.0000 </r>
       <r>  -13.9116    1.0000 </r>
       <r>  -10.7300    1.0000 </r>
       <r>  -10.5521    1.0000 </r>
       <r>  -10.5521    1.0000 </r>
       <r>   -2.2209    1.0000 </r>
       <r>    3.0115    1.0000 </r>
       <r>    4.2377    1.0000 </r>
       <r>    4.2377    1.0000 </r>
       <r>    4.9991    1.0000 </r>
       <r>    4.9991    1.0000 </r>
       <r>    5.1327    1.0000 </r>
       <r>    7.4377    1.0000 </r>
       <r>    7.4377    1.0000 </r>
       <r>    8.2095    1.0000 </r>
       <r>    8.8837    0.0000 </r>
       <r>    8.8837    0.0000 </r>
       <r>    9.1061    0.0000 </r>
       <r>    9.1062    0.0000 </r>
       <r>    9.1951    0.0000 </r>
      </set>
      <set comment="kpoint 8">
       <r>  -35.3678    1.0000 </r>
       <r>  -13.9405    1.0000 </r>
       <r>  -13.9376    1.0000 </r>
       <r>  -13.9147    1.0000 </r>
       <r>  -13.9141    1.0000 </r>
       <r>  -13.9141    1.0000 </r>
       <r>  -10.5905    1.0000 </r>
       <r>  -10.5868    1.0000 </r>
       <r>  -10.5868    1.0000 </r>
       <r>   -3.1066    1.0000 </r>
       <r>    4.2903    1.0000 </r>
       <r>    4.6328    1.0000 </r>
       <r>    4.6328    1.0000 </r>
       <r>    4.9523    1.0000 </r>
       <r>    5.0453    1.0000 </r>
       <r>    6.7174    1.0000 </r>
       <r>    7.6765    1.0000 </r>
       <r>    7.6765    1.0000 </r>
       <r>    8.1000    1.0000 </r>
       <r>    8.7010    1.0000 </r>
       <r>    8.8442    0.0557 </r>
       <r>    8.8442    0.0557 </r>
       <r>    9.0203    0.0000 </r>
       <r>    9.0308    0.0000 </r>
      </set>
      <set comment="kpoint 9">
       <r>  -35.3674    1.0000 </r>
       <r>  -13.9435    1.0000 </r>
       <r>  -13.9383    1.0000 </r>
       <r>  -13.9151    1.0000 </r>
       <r>  -13.9139    1.0000 </r>
       <r>  -13.9138    1.0000 </r>
       <r>  -10.6097    1.0000 </r>
       <r>  -10.5859    1.0000 </r>
       <r>  -10.5803    1.0000 </r>
       <r>   -2.9941    1.0000 </r>
       <r>    4.0225    1.0000 </r>
       <r>    4.5388    1.0000 </r>
       <r>    4.5777    1.0000 </r>
       <r>    5.0205    1.0000 </r>
       <r>    5.1238    1.0000 </r>
       <r>    6.4480    1.0000 </r>
       <r>    7.5375    1.0000 </r>
       <r>    7.5475    1.0000 </r>
       <r>    8.2270    1.0000 </r>
       <r>    8.7666    1.0000 </r>
       <r>    8.8251    0.8658 </r>
       <r>    8.8624    0.0000 </r>
       <r>    9.0356    0.0000 </r>
       <r>    9.0977    0.0000 </r>
      </set>
      <set comment="kpoint 10">
       <r>  -35.3669    1.0000 </r>
       <r>  -13.9471    1.0000 </r>
       <r>  -13.9410    1.0000 </r>
       <r>  -13.9157    1.0000 </r>
       <r>  -13.9134    1.0000 </r>
       <r>  -13.9132    1.0000 </r>
       <r>  -10.6410    1.0000 </r>
       <r>  -10.5812    1.0000 </r>
       <r>  -10.5717    1.0000 </r>
       <r>   -2.8094    1.0000 </r>
       <r>    3.7360    1.0000 </r>
       <r>    4.3603    1.0000 </r>
       <r>    4.4832    1.0000 </r>
       <r>    5.0853    1.0000 </r>
       <r>    5.2006    1.0000 </r>
       <r>    6.0552    1.0000 </r>
       <r>    7.3911    1.0000 </r>
       <r>    7.4409    1.0000 </r>
       <r>    8.2207    1.0000 </r>
       <r>    8.7983    1.0000 </r>
       <r>    8.8159    0.9922 </r>
       <r>    9.0333    0.0000 </r>
       <r>    9.0378    0.0000 </r>
       <r>    9.2229    0.0000 </r>
      </set>
      <set comment="kpoint 11">
       <r>  -35.3663    1.0000 </r>
       <r>  -13.9506    1.0000 </r>
       <r>  -13.9448    1.0000 </r>
       <r>  -13.9165    1.0000 </r>
       <r>  -13.9129    1.0000 </r>
       <r>  -13.9125    1.0000 </r>
       <r>  -10.6750    1.0000 </r>
       <r>  -10.5738    1.0000 </r>
       <r>  -10.5641    1.0000 </r>
       <r>   -2.5924    1.0000 </r>
       <r>    3.4567    1.0000 </r>
       <r>    4.2289    1.0000 </r>
       <r>    4.4078    1.0000 </r>
       <r>    5.0801    1.0000 </r>
       <r>    5.2128    1.0000 </r>
       <r>    5.6673    1.0000 </r>
       <r>    7.3015    1.0000 </r>
       <r>    7.3904    1.0000 </r>
       <r>    8.2106    1.0000 </r>
       <r>    8.8210    0.9547 </r>
       <r>    8.8223    0.9339 </r>
       <r>    9.0396    0.0000 </r>
       <r>    9.0915    0.0000 </r>
       <r>    9.2264    0.0000 </r>
      </set>
      <set comment="kpoint 12">
       <r>  -35.3658    1.0000 </r>
       <r>  -13.9531    1.0000 </r>
       <r>  -13.9490    1.0000 </r>
       <r>  -13.9173    1.0000 </r>
       <r>  -13.9124    1.0000 </r>
       <r>  -13.9119    1.0000 </r>
       <r>  -10.7042    1.0000 </r>
       <r>  -10.5653    1.0000 </r>
       <r>  -10.5590    1.0000 </r>
       <r>   -2.3927    1.0000 </r>
       <r>    3.2283    1.0000 </r>
       <r>    4.1760    1.0000 </r>
       <r>    4.3521    1.0000 </r>
       <r>    5.0300    1.0000 </r>
       <r>    5.1583    1.0000 </r>
       <r>    5.3655    1.0000 </r>
       <r>    7.2682    1.0000 </r>
       <r>    7.3853    1.0000 </r>
       <r>    8.2349    1.0000 </r>
       <r>    8.8445    0.0513 </r>
       <r>    8.8534    0.0019 </r>
       <r>    9.0398    0.0000 </r>
       <r>    9.1167    0.0000 </r>
       <r>    9.1857    0.0000 </r>
      </set>
      <set comment="kpoint 13">
       <r>  -35.3655    1.0000 </r>
       <r>  -13.9541    1.0000 </r>
       <r>  -13.9525    1.0000 </r>
       <r>  -13.9178    1.0000 </r>
       <r>  -13.9120    1.0000 </r>
       <r>  -13.9115    1.0000 </r>
       <r>  -10.7228    1.0000 </r>
       <r>  -10.5578    1.0000 </r>
       <r>  -10.5576    1.0000 </r>
       <r>   -2.2577    1.0000 </r>
       <r>    3.0865    1.0000 </r>
       <r>    4.1914    1.0000 </r>
       <r>    4.2952    1.0000 </r>
       <r>    4.9992    1.0000 </r>
       <r>    5.0751    1.0000 </r>
       <r>    5.1841    1.0000 </r>
       <r>    7.2630    1.0000 </r>
       <r>    7.3959    1.0000 </r>
       <r>    8.2759    1.0000 </r>
       <r>    8.8779    0.0000 </r>
       <r>    8.8830    0.0000 </r>
       <r>    9.0360    0.0000 </r>
       <r>    9.0985    0.0000 </r>
       <r>    9.1762    0.0000 </r>
      </set>
      <set comment="kpoint 14">
       <r>  -35.3654    1.0000 </r>
       <r>  -13.9546    1.0000 </r>
       <r>  -13.9533    1.0000 </r>
       <r>  -13.9180    1.0000 </r>
       <r>  -13.9118    1.0000 </r>
       <r>  -13.9115    1.0000 </r>
       <r>  -10.7275    1.0000 </r>
       <r>  -10.5601    1.0000 </r>
       <r>  -10.5529    1.0000 </r>
       <r>   -2.2206    1.0000 </r>
       <r>    3.0494    1.0000 </r>
       <r>    4.2248    1.0000 </r>
       <r>    4.2499    1.0000 </r>
       <r>    5.0088    1.0000 </r>
       <r>    5.0324    1.0000 </r>
       <r>    5.1386    1.0000 </r>
       <r>    7.2546    1.0000 </r>
       <r>    7.4047    1.0000 </r>
       <r>    8.2928    1.0000 </r>
       <r>    8.8837    0.0000 </r>
       <r>    8.9025    0.0000 </r>
       <r>    9.0310    0.0000 </r>
       <r>    9.1035    0.0000 </r>
       <r>    9.1257    0.0000 </r>
      </set>
      <set comment="kpoint 15">
       <r>  -35.3655    1.0000 </r>
       <r>  -13.9547    1.0000 </r>
       <r>  -13.9509    1.0000 </r>
       <r>  -13.9176    1.0000 </r>
       <r>  -13.9119    1.0000 </r>
       <r>  -13.9118    1.0000 </r>
       <r>  -10.7177    1.0000 </r>
       <r>  -10.5660    1.0000 </r>
       <r>  -10.5516    1.0000 </r>
       <r>   -2.2909    1.0000 </r>
       <r>    3.1233    1.0000 </r>
       <r>    4.1607    1.0000 </r>
       <r>    4.3223    1.0000 </r>
       <r>    4.9948    1.0000 </r>
       <r>    5.1175    1.0000 </r>
       <r>    5.2314    1.0000 </r>
       <r>    7.2262    1.0000 </r>
       <r>    7.4163    1.0000 </r>
       <r>    8.2678    1.0000 </r>
       <r>    8.8563    0.0005 </r>
       <r>    8.8866    0.0000 </r>
       <r>    9.0334    0.0000 </r>
       <r>    9.1279    0.0000 </r>
       <r>    9.1414    0.0000 </r>
      </set>
      <set comment="kpoint 16">
       <r>  -35.3660    1.0000 </r>
       <r>  -13.9529    1.0000 </r>
       <r>  -13.9475    1.0000 </r>
       <r>  -13.9169    1.0000 </r>
       <r>  -13.9124    1.0000 </r>
       <r>  -13.9123    1.0000 </r>
       <r>  -10.6951    1.0000 </r>
       <r>  -10.5737    1.0000 </r>
       <r>  -10.5544    1.0000 </r>
       <r>   -2.4512    1.0000 </r>
       <r>    3.3055    1.0000 </r>
       <r>    4.1328    1.0000 </r>
       <r>    4.3968    1.0000 </r>
       <r>    5.0310    1.0000 </r>
       <r>    5.2075    1.0000 </r>
       <r>    5.4534    1.0000 </r>
       <r>    7.1866    1.0000 </r>
       <r>    7.4514    1.0000 </r>
       <r>    8.2280    1.0000 </r>
       <r>    8.8288    0.7230 </r>
       <r>    8.8502    0.0073 </r>
       <r>    9.0372    0.0000 </r>
       <r>    9.1240    0.0000 </r>
       <r>    9.1845    0.0000 </r>
      </set>
      <set comment="kpoint 17">
       <r>  -35.3665    1.0000 </r>
       <r>  -13.9497    1.0000 </r>
       <r>  -13.9438    1.0000 </r>
       <r>  -13.9161    1.0000 </r>
       <r>  -13.9131    1.0000 </r>
       <r>  -13.9129    1.0000 </r>
       <r>  -10.6639    1.0000 </r>
       <r>  -10.5815    1.0000 </r>
       <r>  -10.5606    1.0000 </r>
       <r>   -2.6623    1.0000 </r>
       <r>    3.5797    1.0000 </r>
       <r>    4.1595    1.0000 </r>
       <r>    4.4846    1.0000 </r>
       <r>    5.0632    1.0000 </r>
       <r>    5.2529    1.0000 </r>
       <r>    5.7874    1.0000 </r>
       <r>    7.1765    1.0000 </r>
       <r>    7.5301    1.0000 </r>
       <r>    8.2079    1.0000 </r>
       <r>    8.8131    0.9975 </r>
       <r>    8.8192    0.9743 </r>
       <r>    9.0359    0.0000 </r>
       <r>    9.0829    0.0000 </r>
       <r>    9.2556    0.0000 </r>
      </set>
      <set comment="kpoint 18">
       <r>  -35.3671    1.0000 </r>
       <r>  -13.9456    1.0000 </r>
       <r>  -13.9406    1.0000 </r>
       <r>  -13.9153    1.0000 </r>
       <r>  -13.9137    1.0000 </r>
       <r>  -13.9135    1.0000 </r>
       <r>  -10.6308    1.0000 </r>
       <r>  -10.5872    1.0000 </r>
       <r>  -10.5688    1.0000 </r>
       <r>   -2.8744    1.0000 </r>
       <r>    3.9094    1.0000 </r>
       <r>    4.2454    1.0000 </r>
       <r>    4.5890    1.0000 </r>
       <r>    5.0389    1.0000 </r>
       <r>    5.2257    1.0000 </r>
       <r>    6.1794    1.0000 </r>
       <r>    7.2630    1.0000 </r>
       <r>    7.6450    1.0000 </r>
       <r>    8.2083    1.0000 </r>
       <r>    8.8033    1.0000 </r>
       <r>    8.8096    0.9995 </r>
       <r>    9.0067    0.0000 </r>
       <r>    9.0325    0.0000 </r>
       <r>    9.1882    0.0000 </r>
      </set>
      <set comment="kpoint 19">
       <r>  -35.3676    1.0000 </r>
       <r>  -13.9417    1.0000 </r>
       <r>  -13.9388    1.0000 </r>
       <r>  -13.9148    1.0000 </r>
       <r>  -13.9141    1.0000 </r>
       <r>  -13.9139    1.0000 </r>
       <r>  -10.6053    1.0000 </r>
       <r>  -10.5882    1.0000 </r>
       <r>  -10.5771    1.0000 </r>
       <r>   -3.0398    1.0000 </r>
       <r>    4.2375    1.0000 </r>
       <r>    4.3816    1.0000 </r>
       <r>    4.6451    1.0000 </r>
       <r>    4.9908    1.0000 </r>
       <r>    5.1333    1.0000 </r>
       <r>    6.5232    1.0000 </r>
       <r>    7.4973    1.0000 </r>
       <r>    7.7446    1.0000 </r>
       <r>    8.1377    1.0000 </r>
       <r>    8.7835    1.0000 </r>
       <r>    8.8115    0.9988 </r>
       <r>    8.8523    0.0032 </r>
       <r>    9.0277    0.0000 </r>
       <r>    9.0671    0.0000 </r>
      </set>
      <set comment="kpoint 20">
       <r>  -35.3672    1.0000 </r>
       <r>  -13.9461    1.0000 </r>
       <r>  -13.9369    1.0000 </r>
       <r>  -13.9156    1.0000 </r>
       <r>  -13.9135    1.0000 </r>
       <r>  -13.9135    1.0000 </r>
       <r>  -10.6053    1.0000 </r>
       <r>  -10.5903    1.0000 </r>
       <r>  -10.5903    1.0000 </r>
       <r>   -2.9273    1.0000 </r>
       <r>    3.7557    1.0000 </r>
       <r>    4.6644    1.0000 </r>
       <r>    4.6644    1.0000 </r>
       <r>    4.9902    1.0000 </r>
       <r>    5.0717    1.0000 </r>
       <r>    6.4261    1.0000 </r>
       <r>    7.4197    1.0000 </r>
       <r>    7.4197    1.0000 </r>
       <r>    8.3170    1.0000 </r>
       <r>    8.7860    1.0000 </r>
       <r>    8.8276    0.7739 </r>
       <r>    8.8276    0.7739 </r>
       <r>    9.0581    0.0000 </r>
       <r>    9.1358    0.0000 </r>
      </set>
      <set comment="kpoint 21">
       <r>  -35.3668    1.0000 </r>
       <r>  -13.9487    1.0000 </r>
       <r>  -13.9375    1.0000 </r>
       <r>  -13.9161    1.0000 </r>
       <r>  -13.9130    1.0000 </r>
       <r>  -13.9129    1.0000 </r>
       <r>  -10.6286    1.0000 </r>
       <r>  -10.5902    1.0000 </r>
       <r>  -10.5842    1.0000 </r>
       <r>   -2.7910    1.0000 </r>
       <r>    3.5252    1.0000 </r>
       <r>    4.5655    1.0000 </r>
       <r>    4.6316    1.0000 </r>
       <r>    5.0353    1.0000 </r>
       <r>    5.1133    1.0000 </r>
       <r>    6.2115    1.0000 </r>
       <r>    7.2444    1.0000 </r>
       <r>    7.3219    1.0000 </r>
       <r>    8.3368    1.0000 </r>
       <r>    8.7995    1.0000 </r>
       <r>    8.8261    0.8353 </r>
       <r>    8.9728    0.0000 </r>
       <r>    9.0689    0.0000 </r>
       <r>    9.2216    0.0000 </r>
      </set>
      <set comment="kpoint 22">
       <r>  -35.3663    1.0000 </r>
       <r>  -13.9507    1.0000 </r>
       <r>  -13.9402    1.0000 </r>
       <r>  -13.9167    1.0000 </r>
       <r>  -13.9127    1.0000 </r>
       <r>  -13.9122    1.0000 </r>
       <r>  -10.6600    1.0000 </r>
       <r>  -10.5858    1.0000 </r>
       <r>  -10.5769    1.0000 </r>
       <r>   -2.6176    1.0000 </r>
       <r>    3.3593    1.0000 </r>
       <r>    4.3815    1.0000 </r>
       <r>    4.5631    1.0000 </r>
       <r>    5.0521    1.0000 </r>
       <r>    5.1777    1.0000 </r>
       <r>    5.8894    1.0000 </r>
       <r>    7.0620    1.0000 </r>
       <r>    7.2845    1.0000 </r>
       <r>    8.3546    1.0000 </r>
       <r>    8.8142    0.9960 </r>
       <r>    8.8311    0.6047 </r>
       <r>    9.0413    0.0000 </r>
       <r>    9.0701    0.0000 </r>
       <r>    9.2353    0.0000 </r>
      </set>
      <set comment="kpoint 23">
       <r>  -35.3658    1.0000 </r>
       <r>  -13.9517    1.0000 </r>
       <r>  -13.9441    1.0000 </r>
       <r>  -13.9171    1.0000 </r>
       <r>  -13.9125    1.0000 </r>
       <r>  -13.9116    1.0000 </r>
       <r>  -10.6887    1.0000 </r>
       <r>  -10.5780    1.0000 </r>
       <r>  -10.5734    1.0000 </r>
       <r>   -2.4473    1.0000 </r>
       <r>    3.2644    1.0000 </r>
       <r>    4.2409    1.0000 </r>
       <r>    4.4840    1.0000 </r>
       <r>    5.0331    1.0000 </r>
       <r>    5.1861    1.0000 </r>
       <r>    5.5641    1.0000 </r>
       <r>    6.9593    1.0000 </r>
       <r>    7.2919    1.0000 </r>
       <r>    8.3645    1.0000 </r>
       <r>    8.8477    0.0185 </r>
       <r>    8.8486    0.0137 </r>
       <r>    9.0626    0.0000 </r>
       <r>    9.0657    0.0000 </r>
       <r>    9.2108    0.0000 </r>
      </set>
      <set comment="kpoint 24">
       <r>  -35.3654    1.0000 </r>
       <r>  -13.9514    1.0000 </r>
       <r>  -13.9484    1.0000 </r>
       <r>  -13.9174    1.0000 </r>
       <r>  -13.9124    1.0000 </r>
       <r>  -13.9112    1.0000 </r>
       <r>  -10.7084    1.0000 </r>
       <r>  -10.5745    1.0000 </r>
       <r>  -10.5687    1.0000 </r>
       <r>   -2.3184    1.0000 </r>
       <r>    3.2242    1.0000 </r>
       <r>    4.1855    1.0000 </r>
       <r>    4.3810    1.0000 </r>
       <r>    5.0347    1.0000 </r>
       <r>    5.1338    1.0000 </r>
       <r>    5.3288    1.0000 </r>
       <r>    6.9153    1.0000 </r>
       <r>    7.3091    1.0000 </r>
       <r>    8.3871    1.0000 </r>
       <r>    8.8767    0.0000 </r>
       <r>    8.8802    0.0000 </r>
       <r>    9.0540    0.0000 </r>
       <r>    9.0739    0.0000 </r>
       <r>    9.1932    0.0000 </r>
      </set>
      <set comment="kpoint 25">
       <r>  -35.3652    1.0000 </r>
       <r>  -13.9520    1.0000 </r>
       <r>  -13.9500    1.0000 </r>
       <r>  -13.9173    1.0000 </r>
       <r>  -13.9124    1.0000 </r>
       <r>  -13.9111    1.0000 </r>
       <r>  -10.7160    1.0000 </r>
       <r>  -10.5797    1.0000 </r>
       <r>  -10.5600    1.0000 </r>
       <r>   -2.2578    1.0000 </r>
       <r>    3.2100    1.0000 </r>
       <r>    4.2196    1.0000 </r>
       <r>    4.2587    1.0000 </r>
       <r>    5.0556    1.0000 </r>
       <r>    5.0893    1.0000 </r>
       <r>    5.2352    1.0000 </r>
       <r>    6.8852    1.0000 </r>
       <r>    7.3185    1.0000 </r>
       <r>    8.4094    1.0000 </r>
       <r>    8.8772    0.0000 </r>
       <r>    8.9200    0.0000 </r>
       <r>    9.0292    0.0000 </r>
       <r>    9.0968    0.0000 </r>
       <r>    9.1501    0.0000 </r>
      </set>
      <set comment="kpoint 26">
       <r>  -35.3653    1.0000 </r>
       <r>  -13.9543    1.0000 </r>
       <r>  -13.9478    1.0000 </r>
       <r>  -13.9170    1.0000 </r>
       <r>  -13.9124    1.0000 </r>
       <r>  -13.9115    1.0000 </r>
       <r>  -10.7105    1.0000 </r>
       <r>  -10.5875    1.0000 </r>
       <r>  -10.5538    1.0000 </r>
       <r>   -2.2782    1.0000 </r>
       <r>    3.2131    1.0000 </r>
       <r>    4.1476    1.0000 </r>
       <r>    4.3216    1.0000 </r>
       <r>    5.0024    1.0000 </r>
       <r>    5.1806    1.0000 </r>
       <r>    5.2902    1.0000 </r>
       <r>    6.8338    1.0000 </r>
       <r>    7.3295    1.0000 </r>
       <r>    8.4084    1.0000 </r>
       <r>    8.8532    0.0021 </r>
       <r>    8.9343    0.0000 </r>
       <r>    9.0157    0.0000 </r>
       <r>    9.1239    0.0000 </r>
       <r>    9.1295    0.0000 </r>
      </set>
      <set comment="kpoint 27">
       <r>  -35.3656    1.0000 </r>
       <r>  -13.9546    1.0000 </r>
       <r>  -13.9452    1.0000 </r>
       <r>  -13.9166    1.0000 </r>
       <r>  -13.9126    1.0000 </r>
       <r>  -13.9120    1.0000 </r>
       <r>  -10.6937    1.0000 </r>
       <r>  -10.5953    1.0000 </r>
       <r>  -10.5515    1.0000 </r>
       <r>   -2.3770    1.0000 </r>
       <r>    3.2622    1.0000 </r>
       <r>    4.0780    1.0000 </r>
       <r>    4.4566    1.0000 </r>
       <r>    4.9842    1.0000 </r>
       <r>    5.2694    1.0000 </r>
       <r>    5.4852    1.0000 </r>
       <r>    6.7589    1.0000 </r>
       <r>    7.3668    1.0000 </r>
       <r>    8.3864    1.0000 </r>
       <r>    8.8293    0.6980 </r>
       <r>    8.8974    0.0000 </r>
       <r>    9.0379    0.0000 </r>
       <r>    9.1161    0.0000 </r>
       <r>    9.1468    0.0000 </r>
      </set>
      <set comment="kpoint 28">
       <r>  -35.3661    1.0000 </r>
       <r>  -13.9530    1.0000 </r>
       <r>  -13.9428    1.0000 </r>
       <r>  -13.9161    1.0000 </r>
       <r>  -13.9128    1.0000 </r>
       <r>  -13.9127    1.0000 </r>
       <r>  -10.6698    1.0000 </r>
       <r>  -10.6000    1.0000 </r>
       <r>  -10.5538    1.0000 </r>
       <r>   -2.5345    1.0000 </r>
       <r>    3.3942    1.0000 </r>
       <r>    4.0683    1.0000 </r>
       <r>    4.5893    1.0000 </r>
       <r>    4.9832    1.0000 </r>
       <r>    5.3159    1.0000 </r>
       <r>    5.7712    1.0000 </r>
       <r>    6.7189    1.0000 </r>
       <r>    7.4487    1.0000 </r>
       <r>    8.3598    1.0000 </r>
       <r>    8.8162    0.9912 </r>
       <r>    8.8543    0.0013 </r>
       <r>    9.0467    0.0000 </r>
       <r>    9.0916    0.0000 </r>
       <r>    9.1989    0.0000 </r>
      </set>
      <set comment="kpoint 29">
       <r>  -35.3666    1.0000 </r>
       <r>  -13.9497    1.0000 </r>
       <r>  -13.9411    1.0000 </r>
       <r>  -13.9157    1.0000 </r>
       <r>  -13.9132    1.0000 </r>
       <r>  -13.9131    1.0000 </r>
       <r>  -10.6465    1.0000 </r>
       <r>  -10.5977    1.0000 </r>
       <r>  -10.5600    1.0000 </r>
       <r>   -2.7148    1.0000 </r>
       <r>    3.6195    1.0000 </r>
       <r>    4.1256    1.0000 </r>
       <r>    4.6689    1.0000 </r>
       <r>    4.9817    1.0000 </r>
       <r>    5.2992    1.0000 </r>
       <r>    6.0288    1.0000 </r>
       <r>    6.8633    1.0000 </r>
       <r>    7.5604    1.0000 </r>
       <r>    8.3223    1.0000 </r>
       <r>    8.8112    0.9989 </r>
       <r>    8.8198    0.9687 </r>
       <r>    9.0425    0.0000 </r>
       <r>    9.0600    0.0000 </r>
       <r>    9.2387    0.0000 </r>
      </set>
      <set comment="kpoint 30">
       <r>  -35.3665    1.0000 </r>
       <r>  -13.9496    1.0000 </r>
       <r>  -13.9359    1.0000 </r>
       <r>  -13.9168    1.0000 </r>
       <r>  -13.9124    1.0000 </r>
       <r>  -13.9124    1.0000 </r>
       <r>  -10.6292    1.0000 </r>
       <r>  -10.5954    1.0000 </r>
       <r>  -10.5954    1.0000 </r>
       <r>   -2.7155    1.0000 </r>
       <r>    3.3525    1.0000 </r>
       <r>    4.6858    1.0000 </r>
       <r>    4.6858    1.0000 </r>
       <r>    4.9859    1.0000 </r>
       <r>    5.0451    1.0000 </r>
       <r>    6.1815    1.0000 </r>
       <r>    7.2326    1.0000 </r>
       <r>    7.2326    1.0000 </r>
       <r>    8.3100    1.0000 </r>
       <r>    8.8324    0.5323 </r>
       <r>    8.8324    0.5323 </r>
       <r>    8.9390    0.0000 </r>
       <r>    9.1023    0.0000 </r>
       <r>    9.3232    0.0000 </r>
      </set>
      <set comment="kpoint 31">
       <r>  -35.3661    1.0000 </r>
       <r>  -13.9496    1.0000 </r>
       <r>  -13.9365    1.0000 </r>
       <r>  -13.9174    1.0000 </r>
       <r>  -13.9119    1.0000 </r>
       <r>  -13.9117    1.0000 </r>
       <r>  -10.6512    1.0000 </r>
       <r>  -10.5956    1.0000 </r>
       <r>  -10.5933    1.0000 </r>
       <r>   -2.6045    1.0000 </r>
       <r>    3.2714    1.0000 </r>
       <r>    4.5629    1.0000 </r>
       <r>    4.6579    1.0000 </r>
       <r>    5.0232    1.0000 </r>
       <r>    5.0694    1.0000 </r>
       <r>    6.0024    1.0000 </r>
       <r>    7.0672    1.0000 </r>
       <r>    7.2041    1.0000 </r>
       <r>    8.3806    1.0000 </r>
       <r>    8.8215    0.9473 </r>
       <r>    8.8402    0.1532 </r>
       <r>    8.9790    0.0000 </r>
       <r>    9.1178    0.0000 </r>
       <r>    9.2837    0.0000 </r>
      </set>
      <set comment="kpoint 32">
       <r>  -35.3656    1.0000 </r>
       <r>  -13.9488    1.0000 </r>
       <r>  -13.9392    1.0000 </r>
       <r>  -13.9177    1.0000 </r>
       <r>  -13.9118    1.0000 </r>
       <r>  -13.9111    1.0000 </r>
       <r>  -10.6758    1.0000 </r>
       <r>  -10.5918    1.0000 </r>
       <r>  -10.5909    1.0000 </r>
       <r>   -2.4863    1.0000 </r>
       <r>    3.2906    1.0000 </r>
       <r>    4.3777    1.0000 </r>
       <r>    4.5858    1.0000 </r>
       <r>    5.0742    1.0000 </r>
       <r>    5.1017    1.0000 </r>
       <r>    5.7516    1.0000 </r>
       <r>    6.8269    1.0000 </r>
       <r>    7.2186    1.0000 </r>
       <r>    8.4534    1.0000 </r>
       <r>    8.8339    0.4437 </r>
       <r>    8.8558    0.0006 </r>
       <r>    9.0060    0.0000 </r>
       <r>    9.1159    0.0000 </r>
       <r>    9.2472    0.0000 </r>
      </set>
      <set comment="kpoint 33">
       <r>  -35.3652    1.0000 </r>
       <r>  -13.9473    1.0000 </r>
       <r>  -13.9433    1.0000 </r>
       <r>  -13.9176    1.0000 </r>
       <r>  -13.9120    1.0000 </r>
       <r>  -13.9107    1.0000 </r>
       <r>  -10.6933    1.0000 </r>
       <r>  -10.5957    1.0000 </r>
       <r>  -10.5823    1.0000 </r>
       <r>   -2.3859    1.0000 </r>
       <r>    3.3788    1.0000 </r>
       <r>    4.2476    1.0000 </r>
       <r>    4.4717    1.0000 </r>
       <r>    5.0938    1.0000 </r>
       <r>    5.1219    1.0000 </r>
       <r>    5.5120    1.0000 </r>
       <r>    6.6444    1.0000 </r>
       <r>    7.2352    1.0000 </r>
       <r>    8.4848    1.0000 </r>
       <r>    8.8600    0.0001 </r>
       <r>    8.8832    0.0000 </r>
       <r>    9.0365    0.0000 </r>
       <r>    9.1000    0.0000 </r>
       <r>    9.2110    0.0000 </r>
      </set>
      <set comment="kpoint 34">
       <r>  -35.3650    1.0000 </r>
       <r>  -13.9477    1.0000 </r>
       <r>  -13.9456    1.0000 </r>
       <r>  -13.9171    1.0000 </r>
       <r>  -13.9125    1.0000 </r>
       <r>  -13.9106    1.0000 </r>
       <r>  -10.7000    1.0000 </r>
       <r>  -10.6044    1.0000 </r>
       <r>  -10.5718    1.0000 </r>
       <r>   -2.3204    1.0000 </r>
       <r>    3.4551    1.0000 </r>
       <r>    4.2035    1.0000 </r>
       <r>    4.3296    1.0000 </r>
       <r>    5.0656    1.0000 </r>
       <r>    5.1515    1.0000 </r>
       <r>    5.3957    1.0000 </r>
       <r>    6.5268    1.0000 </r>
       <r>    7.2350    1.0000 </r>
       <r>    8.5049    1.0000 </r>
       <r>    8.8628    0.0000 </r>
       <r>    8.9215    0.0000 </r>
       <r>    9.0661    0.0000 </r>
       <r>    9.0829    0.0000 </r>
       <r>    9.1859    0.0000 </r>
      </set>
      <set comment="kpoint 35">
       <r>  -35.3650    1.0000 </r>
       <r>  -13.9516    1.0000 </r>
       <r>  -13.9441    1.0000 </r>
       <r>  -13.9163    1.0000 </r>
       <r>  -13.9131    1.0000 </r>
       <r>  -13.9109    1.0000 </r>
       <r>  -10.6958    1.0000 </r>
       <r>  -10.6148    1.0000 </r>
       <r>  -10.5617    1.0000 </r>
       <r>   -2.3001    1.0000 </r>
       <r>    3.4351    1.0000 </r>
       <r>    4.1923    1.0000 </r>
       <r>    4.2572    1.0000 </r>
       <r>    5.0107    1.0000 </r>
       <r>    5.2328    1.0000 </r>
       <r>    5.4295    1.0000 </r>
       <r>    6.4394    1.0000 </r>
       <r>    7.2337    1.0000 </r>
       <r>    8.5115    1.0000 </r>
       <r>    8.8421    0.0967 </r>
       <r>    8.9636    0.0000 </r>
       <r>    9.0174    0.0000 </r>
       <r>    9.1127    0.0000 </r>
       <r>    9.1894    0.0000 </r>
      </set>
      <set comment="kpoint 36">
       <r>  -35.3653    1.0000 </r>
       <r>  -13.9540    1.0000 </r>
       <r>  -13.9430    1.0000 </r>
       <r>  -13.9158    1.0000 </r>
       <r>  -13.9134    1.0000 </r>
       <r>  -13.9114    1.0000 </r>
       <r>  -10.6847    1.0000 </r>
       <r>  -10.6215    1.0000 </r>
       <r>  -10.5544    1.0000 </r>
       <r>   -2.3315    1.0000 </r>
       <r>    3.3531    1.0000 </r>
       <r>    4.0906    1.0000 </r>
       <r>    4.3802    1.0000 </r>
       <r>    4.9903    1.0000 </r>
       <r>    5.3048    1.0000 </r>
       <r>    5.5845    1.0000 </r>
       <r>    6.3690    1.0000 </r>
       <r>    7.2625    1.0000 </r>
       <r>    8.4917    1.0000 </r>
       <r>    8.8222    0.9359 </r>
       <r>    8.9522    0.0000 </r>
       <r>    9.0175    0.0000 </r>
       <r>    9.1097    0.0000 </r>
       <r>    9.1437    0.0000 </r>
      </set>
      <set comment="kpoint 37">
       <r>  -35.3657    1.0000 </r>
       <r>  -13.9545    1.0000 </r>
       <r>  -13.9425    1.0000 </r>
       <r>  -13.9158    1.0000 </r>
       <r>  -13.9131    1.0000 </r>
       <r>  -13.9121    1.0000 </r>
       <r>  -10.6749    1.0000 </r>
       <r>  -10.6168    1.0000 </r>
       <r>  -10.5515    1.0000 </r>
       <r>   -2.4144    1.0000 </r>
       <r>    3.3177    1.0000 </r>
       <r>    4.0456    1.0000 </r>
       <r>    4.5191    1.0000 </r>
       <r>    4.9782    1.0000 </r>
       <r>    5.3366    1.0000 </r>
       <r>    5.7433    1.0000 </r>
       <r>    6.4127    1.0000 </r>
       <r>    7.3404    1.0000 </r>
       <r>    8.4430    1.0000 </r>
       <r>    8.8162    0.9911 </r>
       <r>    8.9017    0.0000 </r>
       <r>    9.0446    0.0000 </r>
       <r>    9.0999    0.0000 </r>
       <r>    9.1551    0.0000 </r>
      </set>
      <set comment="kpoint 38">
       <r>  -35.3657    1.0000 </r>
       <r>  -13.9476    1.0000 </r>
       <r>  -13.9349    1.0000 </r>
       <r>  -13.9182    1.0000 </r>
       <r>  -13.9111    1.0000 </r>
       <r>  -13.9111    1.0000 </r>
       <r>  -10.6585    1.0000 </r>
       <r>  -10.6011    1.0000 </r>
       <r>  -10.6011    1.0000 </r>
       <r>   -2.5624    1.0000 </r>
       <r>    3.2707    1.0000 </r>
       <r>    4.6755    1.0000 </r>
       <r>    4.6755    1.0000 </r>
       <r>    4.8460    1.0000 </r>
       <r>    5.1051    1.0000 </r>
       <r>    5.9113    1.0000 </r>
       <r>    7.1836    1.0000 </r>
       <r>    7.1836    1.0000 </r>
       <r>    8.3751    1.0000 </r>
       <r>    8.8498    0.0085 </r>
       <r>    8.8498    0.0085 </r>
       <r>    8.9308    0.0000 </r>
       <r>    9.1592    0.0000 </r>
       <r>    9.3774    0.0000 </r>
      </set>
      <set comment="kpoint 39">
       <r>  -35.3654    1.0000 </r>
       <r>  -13.9451    1.0000 </r>
       <r>  -13.9356    1.0000 </r>
       <r>  -13.9187    1.0000 </r>
       <r>  -13.9107    1.0000 </r>
       <r>  -13.9105    1.0000 </r>
       <r>  -10.6754    1.0000 </r>
       <r>  -10.6033    1.0000 </r>
       <r>  -10.6010    1.0000 </r>
       <r>   -2.5052    1.0000 </r>
       <r>    3.3731    1.0000 </r>
       <r>    4.5228    1.0000 </r>
       <r>    4.6370    1.0000 </r>
       <r>    4.9144    1.0000 </r>
       <r>    5.1254    1.0000 </r>
       <r>    5.7252    1.0000 </r>
       <r>    7.0341    1.0000 </r>
       <r>    7.2053    1.0000 </r>
       <r>    8.4902    1.0000 </r>
       <r>    8.8383    0.2245 </r>
       <r>    8.8642    0.0000 </r>
       <r>    8.9470    0.0000 </r>
       <r>    9.1762    0.0000 </r>
       <r>    9.3062    0.0000 </r>
      </set>
      <set comment="kpoint 40">
       <r>  -35.3651    1.0000 </r>
       <r>  -13.9427    1.0000 </r>
       <r>  -13.9384    1.0000 </r>
       <r>  -13.9186    1.0000 </r>
       <r>  -13.9109    1.0000 </r>
       <r>  -13.9101    1.0000 </r>
       <r>  -10.6877    1.0000 </r>
       <r>  -10.6096    1.0000 </r>
       <r>  -10.5954    1.0000 </r>
       <r>   -2.4451    1.0000 </r>
       <r>    3.5503    1.0000 </r>
       <r>    4.3506    1.0000 </r>
       <r>    4.5484    1.0000 </r>
       <r>    5.0165    1.0000 </r>
       <r>    5.1485    1.0000 </r>
       <r>    5.5259    1.0000 </r>
       <r>    6.7184    1.0000 </r>
       <r>    7.2204    1.0000 </r>
       <r>    8.5755    1.0000 </r>
       <r>    8.8412    0.1210 </r>
       <r>    8.8863    0.0000 </r>
       <r>    8.9923    0.0000 </r>
       <r>    9.1689    0.0000 </r>
       <r>    9.2373    0.0000 </r>
      </set>
      <set comment="kpoint 41">
       <r>  -35.3649    1.0000 </r>
       <r>  -13.9426    1.0000 </r>
       <r>  -13.9410    1.0000 </r>
       <r>  -13.9179    1.0000 </r>
       <r>  -13.9116    1.0000 </r>
       <r>  -13.9100    1.0000 </r>
       <r>  -10.6895    1.0000 </r>
       <r>  -10.6220    1.0000 </r>
       <r>  -10.5855    1.0000 </r>
       <r>   -2.3901    1.0000 </r>
       <r>    3.7186    1.0000 </r>
       <r>    4.2374    1.0000 </r>
       <r>    4.4206    1.0000 </r>
       <r>    5.0303    1.0000 </r>
       <r>    5.1952    1.0000 </r>
       <r>    5.4344    1.0000 </r>
       <r>    6.4141    1.0000 </r>
       <r>    7.2056    1.0000 </r>
       <r>    8.5928    1.0000 </r>
       <r>    8.8484    0.0146 </r>
       <r>    8.9161    0.0000 </r>
       <r>    9.0598    0.0000 </r>
       <r>    9.1338    0.0000 </r>
       <r>    9.1828    0.0000 </r>
      </set>
      <set comment="kpoint 42">
       <r>  -35.3648    1.0000 </r>
       <r>  -13.9473    1.0000 </r>
       <r>  -13.9406    1.0000 </r>
       <r>  -13.9167    1.0000 </r>
       <r>  -13.9127    1.0000 </r>
       <r>  -13.9103    1.0000 </r>
       <r>  -10.6810    1.0000 </r>
       <r>  -10.6375    1.0000 </r>
       <r>  -10.5736    1.0000 </r>
       <r>   -2.3465    1.0000 </r>
       <r>    3.7304    1.0000 </r>
       <r>    4.2045    1.0000 </r>
       <r>    4.2822    1.0000 </r>
       <r>    4.9901    1.0000 </r>
       <r>    5.2547    1.0000 </r>
       <r>    5.5098    1.0000 </r>
       <r>    6.2027    1.0000 </r>
       <r>    7.1832    1.0000 </r>
       <r>    8.5870    1.0000 </r>
       <r>    8.8354    0.3624 </r>
       <r>    8.9500    0.0000 </r>
       <r>    9.0720    0.0000 </r>
       <r>    9.1055    0.0000 </r>
       <r>    9.1841    0.0000 </r>
      </set>
      <set comment="kpoint 43">
       <r>  -35.3650    1.0000 </r>
       <r>  -13.9514    1.0000 </r>
       <r>  -13.9413    1.0000 </r>
       <r>  -13.9154    1.0000 </r>
       <r>  -13.9138    1.0000 </r>
       <r>  -13.9108    1.0000 </r>
       <r>  -10.6748    1.0000 </r>
       <r>  -10.6419    1.0000 </r>
       <r>  -10.5624    1.0000 </r>
       <r>   -2.3233    1.0000 </r>
       <r>    3.5499    1.0000 </r>
       <r>    4.1641    1.0000 </r>
       <r>    4.2715    1.0000 </r>
       <r>    4.9891    1.0000 </r>
       <r>    5.2990    1.0000 </r>
       <r>    5.6198    1.0000 </r>
       <r>    6.1501    1.0000 </r>
       <r>    7.1946    1.0000 </r>
       <r>    8.5574    1.0000 </r>
       <r>    8.8205    0.9610 </r>
       <r>    8.9841    0.0000 </r>
       <r>    9.0104    0.0000 </r>
       <r>    9.1081    0.0000 </r>
       <r>    9.1663    0.0000 </r>
      </set>
      <set comment="kpoint 44">
       <r>  -35.3651    1.0000 </r>
       <r>  -13.9414    1.0000 </r>
       <r>  -13.9340    1.0000 </r>
       <r>  -13.9194    1.0000 </r>
       <r>  -13.9099    1.0000 </r>
       <r>  -13.9099    1.0000 </r>
       <r>  -10.6862    1.0000 </r>
       <r>  -10.6061    1.0000 </r>
       <r>  -10.6061    1.0000 </r>
       <r>   -2.5043    1.0000 </r>
       <r>    3.5355    1.0000 </r>
       <r>    4.6419    1.0000 </r>
       <r>    4.6419    1.0000 </r>
       <r>    4.7150    1.0000 </r>
       <r>    5.1563    1.0000 </r>
       <r>    5.5480    1.0000 </r>
       <r>    7.2390    1.0000 </r>
       <r>    7.2390    1.0000 </r>
       <r>    8.5402    1.0000 </r>
       <r>    8.8753    0.0000 </r>
       <r>    8.8753    0.0000 </r>
       <r>    8.8929    0.0000 </r>
       <r>    9.2178    0.0000 </r>
       <r>    9.3766    0.0000 </r>
      </set>
      <set comment="kpoint 45">
       <r>  -35.3649    1.0000 </r>
       <r>  -13.9386    1.0000 </r>
       <r>  -13.9349    1.0000 </r>
       <r>  -13.9196    1.0000 </r>
       <r>  -13.9098    1.0000 </r>
       <r>  -13.9096    1.0000 </r>
       <r>  -10.6952    1.0000 </r>
       <r>  -10.6105    1.0000 </r>
       <r>  -10.6051    1.0000 </r>
       <r>   -2.4854    1.0000 </r>
       <r>    3.7519    1.0000 </r>
       <r>    4.4753    1.0000 </r>
       <r>    4.5998    1.0000 </r>
       <r>    4.8319    1.0000 </r>
       <r>    5.1766    1.0000 </r>
       <r>    5.3407    1.0000 </r>
       <r>    7.0833    1.0000 </r>
       <r>    7.2629    1.0000 </r>
       <r>    8.6613    1.0000 </r>
       <r>    8.8415    0.1136 </r>
       <r>    8.8908    0.0000 </r>
       <r>    8.9440    0.0000 </r>
       <r>    9.2313    0.0000 </r>
       <r>    9.2520    0.0000 </r>
      </set>
      <set comment="kpoint 46">
       <r>  -35.3647    1.0000 </r>
       <r>  -13.9379    1.0000 </r>
       <r>  -13.9374    1.0000 </r>
       <r>  -13.9191    1.0000 </r>
       <r>  -13.9103    1.0000 </r>
       <r>  -13.9095    1.0000 </r>
       <r>  -10.6944    1.0000 </r>
       <r>  -10.6213    1.0000 </r>
       <r>  -10.5980    1.0000 </r>
       <r>   -2.4499    1.0000 </r>
       <r>    3.9367    1.0000 </r>
       <r>    4.3276    1.0000 </r>
       <r>    4.5120    1.0000 </r>
       <r>    4.9410    1.0000 </r>
       <r>    5.2068    1.0000 </r>
       <r>    5.2340    1.0000 </r>
       <r>    6.7028    1.0000 </r>
       <r>    7.2406    1.0000 </r>
       <r>    8.6842    1.0000 </r>
       <r>    8.8403    0.1495 </r>
       <r>    8.9100    0.0000 </r>
       <r>    9.0372    0.0000 </r>
       <r>    9.1618    0.0000 </r>
       <r>    9.2234    0.0000 </r>
      </set>
      <set comment="kpoint 47">
       <r>  -35.3647    1.0000 </r>
       <r>  -13.9424    1.0000 </r>
       <r>  -13.9381    1.0000 </r>
       <r>  -13.9180    1.0000 </r>
       <r>  -13.9115    1.0000 </r>
       <r>  -13.9098    1.0000 </r>
       <r>  -10.6844    1.0000 </r>
       <r>  -10.6359    1.0000 </r>
       <r>  -10.5867    1.0000 </r>
       <r>   -2.4011    1.0000 </r>
       <r>    3.9536    1.0000 </r>
       <r>    4.2194    1.0000 </r>
       <r>    4.3972    1.0000 </r>
       <r>    4.9564    1.0000 </r>
       <r>    5.2408    1.0000 </r>
       <r>    5.3703    1.0000 </r>
       <r>    6.3368    1.0000 </r>
       <r>    7.1958    1.0000 </r>
       <r>    8.6436    1.0000 </r>
       <r>    8.8395    0.1762 </r>
       <r>    8.9304    0.0000 </r>
       <r>    9.1045    0.0000 </r>
       <r>    9.1494    0.0000 </r>
       <r>    9.1530    0.0000 </r>
      </set>
      <set comment="kpoint 48">
       <r>  -35.3648    1.0000 </r>
       <r>  -13.9360    1.0000 </r>
       <r>  -13.9336    1.0000 </r>
       <r>  -13.9200    1.0000 </r>
       <r>  -13.9092    1.0000 </r>
       <r>  -13.9092    1.0000 </r>
       <r>  -10.7033    1.0000 </r>
       <r>  -10.6091    1.0000 </r>
       <r>  -10.6091    1.0000 </r>
       <r>   -2.5008    1.0000 </r>
       <r>    3.9530    1.0000 </r>
       <r>    4.6143    1.0000 </r>
       <r>    4.6143    1.0000 </r>
       <r>    4.6388    1.0000 </r>
       <r>    5.1402    1.0000 </r>
       <r>    5.1858    1.0000 </r>
       <r>    7.3059    1.0000 </r>
       <r>    7.3059    1.0000 </r>
       <r>    8.7587    1.0000 </r>
       <r>    8.8746    0.0000 </r>
       <r>    8.8968    0.0000 </r>
       <r>    8.8968    0.0000 </r>
       <r>    9.1799    0.0000 </r>
       <r>    9.2576    0.0000 </r>
      </set>
      <set comment="kpoint 49">
       <r>  -35.3647    1.0000 </r>
       <r>  -13.9356    1.0000 </r>
       <r>  -13.9346    1.0000 </r>
       <r>  -13.9199    1.0000 </r>
       <r>  -13.9094    1.0000 </r>
       <r>  -13.9092    1.0000 </r>
       <r>  -10.7029    1.0000 </r>
       <r>  -10.6131    1.0000 </r>
       <r>  -10.6065    1.0000 </r>
       <r>   -2.4886    1.0000 </r>
       <r>    4.0408    1.0000 </r>
       <r>    4.4574    1.0000 </r>
       <r>    4.5829    1.0000 </r>
       <r>    4.8003    1.0000 </r>
       <r>    5.0694    1.0000 </r>
       <r>    5.1966    1.0000 </r>
       <r>    7.1155    1.0000 </r>
       <r>    7.2947    1.0000 </r>
       <r>    8.7743    1.0000 </r>
       <r>    8.8394    0.1819 </r>
       <r>    8.9035    0.0000 </r>
       <r>    8.9918    0.0000 </r>
       <r>    9.1190    0.0000 </r>
       <r>    9.2574    0.0000 </r>
      </set>
      <set comment="kpoint 50">
       <r>  -35.3671    1.0000 </r>
       <r>  -13.9468    1.0000 </r>
       <r>  -13.9388    1.0000 </r>
       <r>  -13.9155    1.0000 </r>
       <r>  -13.9135    1.0000 </r>
       <r>  -13.9134    1.0000 </r>
       <r>  -10.6243    1.0000 </r>
       <r>  -10.5922    1.0000 </r>
       <r>  -10.5737    1.0000 </r>
       <r>   -2.8674    1.0000 </r>
       <r>    3.7525    1.0000 </r>
       <r>    4.3955    1.0000 </r>
       <r>    4.6698    1.0000 </r>
       <r>    4.9996    1.0000 </r>
       <r>    5.1929    1.0000 </r>
       <r>    6.2634    1.0000 </r>
       <r>    7.1955    1.0000 </r>
       <r>    7.5404    1.0000 </r>
       <r>    8.3122    1.0000 </r>
       <r>    8.7892    1.0000 </r>
       <r>    8.8204    0.9621 </r>
       <r>    8.9748    0.0000 </r>
       <r>    9.0460    0.0000 </r>
       <r>    9.1806    0.0000 </r>
      </set>
      <set comment="kpoint 51">
       <r>  -35.3666    1.0000 </r>
       <r>  -13.9501    1.0000 </r>
       <r>  -13.9407    1.0000 </r>
       <r>  -13.9161    1.0000 </r>
       <r>  -13.9131    1.0000 </r>
       <r>  -13.9128    1.0000 </r>
       <r>  -10.6512    1.0000 </r>
       <r>  -10.5926    1.0000 </r>
       <r>  -10.5653    1.0000 </r>
       <r>   -2.6884    1.0000 </r>
       <r>    3.5115    1.0000 </r>
       <r>    4.2492    1.0000 </r>
       <r>    4.6172    1.0000 </r>
       <r>    5.0172    1.0000 </r>
       <r>    5.2504    1.0000 </r>
       <r>    5.9711    1.0000 </r>
       <r>    6.9783    1.0000 </r>
       <r>    7.4621    1.0000 </r>
       <r>    8.3285    1.0000 </r>
       <r>    8.8076    0.9998 </r>
       <r>    8.8243    0.8900 </r>
       <r>    9.0504    0.0000 </r>
       <r>    9.0549    0.0000 </r>
       <r>    9.2351    0.0000 </r>
      </set>
      <set comment="kpoint 52">
       <r>  -35.3660    1.0000 </r>
       <r>  -13.9525    1.0000 </r>
       <r>  -13.9439    1.0000 </r>
       <r>  -13.9166    1.0000 </r>
[...]
       <r>    8.6057    1.0000 </r>
       <r>    8.8601    0.0001 </r>
       <r>    8.9927    0.0000 </r>
       <r>    9.0487    0.0000 </r>
       <r>    9.1065    0.0000 </r>
       <r>    9.1783    0.0000 </r>
      </set>
      <set comment="kpoint 81">
       <r>  -35.3649    1.0000 </r>
       <r>  -13.9490    1.0000 </r>
       <r>  -13.9390    1.0000 </r>
       <r>  -13.9161    1.0000 </r>
       <r>  -13.9139    1.0000 </r>
       <r>  -13.9100    1.0000 </r>
       <r>  -10.6754    1.0000 </r>
       <r>  -10.6376    1.0000 </r>
       <r>  -10.5766    1.0000 </r>
       <r>   -2.3534    1.0000 </r>
       <r>    3.6780    1.0000 </r>
       <r>    4.0877    1.0000 </r>
       <r>    4.4858    1.0000 </r>
       <r>    5.0468    1.0000 </r>
       <r>    5.2368    1.0000 </r>
       <r>    5.5778    1.0000 </r>
       <r>    5.9761    1.0000 </r>
       <r>    7.2880    1.0000 </r>
       <r>    8.5857    1.0000 </r>
       <r>    8.8458    0.0345 </r>
       <r>    8.9848    0.0000 </r>
       <r>    9.0377    0.0000 </r>
       <r>    9.0882    0.0000 </r>
       <r>    9.1837    0.0000 </r>
      </set>
      <set comment="kpoint 82">
       <r>  -35.3647    1.0000 </r>
       <r>  -13.9430    1.0000 </r>
       <r>  -13.9354    1.0000 </r>
       <r>  -13.9182    1.0000 </r>
       <r>  -13.9119    1.0000 </r>
       <r>  -13.9092    1.0000 </r>
       <r>  -10.6858    1.0000 </r>
       <r>  -10.6263    1.0000 </r>
       <r>  -10.5981    1.0000 </r>
       <r>   -2.4191    1.0000 </r>
       <r>    3.9537    1.0000 </r>
       <r>    4.1772    1.0000 </r>
       <r>    4.5995    1.0000 </r>
       <r>    5.0243    1.0000 </r>
       <r>    5.2148    1.0000 </r>
       <r>    5.2758    1.0000 </r>
       <r>    6.1893    1.0000 </r>
       <r>    7.3546    1.0000 </r>
       <r>    8.6578    1.0000 </r>
       <r>    8.8603    0.0001 </r>
       <r>    8.9459    0.0000 </r>
       <r>    9.0742    0.0000 </r>
       <r>    9.1440    0.0000 </r>
       <r>    9.1731    0.0000 </r>
      </set>
      <set comment="kpoint 83">
       <r>  -35.3647    1.0000 </r>
       <r>  -13.9454    1.0000 </r>
       <r>  -13.9355    1.0000 </r>
       <r>  -13.9172    1.0000 </r>
       <r>  -13.9131    1.0000 </r>
       <r>  -13.9092    1.0000 </r>
       <r>  -10.6771    1.0000 </r>
       <r>  -10.6369    1.0000 </r>
       <r>  -10.5938    1.0000 </r>
       <r>   -2.3923    1.0000 </r>
       <r>    4.0097    1.0000 </r>
       <r>    4.0955    1.0000 </r>
       <r>    4.5702    1.0000 </r>
       <r>    5.0319    1.0000 </r>
       <r>    5.2440    1.0000 </r>
       <r>    5.3701    1.0000 </r>
       <r>    5.8897    1.0000 </r>
       <r>    7.3517    1.0000 </r>
       <r>    8.6392    1.0000 </r>
       <r>    8.8702    0.0000 </r>
       <r>    8.9736    0.0000 </r>
       <r>    9.0930    0.0000 </r>
       <r>    9.1265    0.0000 </r>
       <r>    9.1428    0.0000 </r>
      </set>
      <set comment="kpoint 84">
       <r>  -35.3647    1.0000 </r>
       <r>  -13.9469    1.0000 </r>
       <r>  -13.9355    1.0000 </r>
       <r>  -13.9163    1.0000 </r>
       <r>  -13.9142    1.0000 </r>
       <r>  -13.9092    1.0000 </r>
       <r>  -10.6717    1.0000 </r>
       <r>  -10.6408    1.0000 </r>
       <r>  -10.5928    1.0000 </r>
       <r>   -2.3799    1.0000 </r>
       <r>    3.9924    1.0000 </r>
       <r>    4.0545    1.0000 </r>
       <r>    4.5838    1.0000 </r>
       <r>    5.0687    1.0000 </r>
       <r>    5.2674    1.0000 </r>
       <r>    5.4627    1.0000 </r>
       <r>    5.6736    1.0000 </r>
       <r>    7.3674    1.0000 </r>
       <r>    8.6279    1.0000 </r>
       <r>    8.8767    0.0000 </r>
       <r>    9.0019    0.0000 </r>
       <r>    9.0609    0.0000 </r>
       <r>    9.1122    0.0000 </r>
       <r>    9.1630    0.0000 </r>
      </set>
     </set>
    </set>
   </array>
  </eigenvalues>
  <separator name="orbital magnetization" >
   <v name="MAGDIPOLOUT">      0.00000000      0.00000000      0.00000000</v>
  </separator>
  <dos>
   <i name="efermi">      8.83294722 </i>
   <total>
    <array>
     <dimension dim="1">gridpoints</dimension>
     <dimension dim="2">spin</dimension>
     <field>energy</field>
     <field>total</field>
     <field>integrated</field>
     <set>
      <set comment="spin 1">
       <r>   -37.6052     0.0000     0.0000 </r>
       <r>   -37.4412     0.0000     0.0000 </r>
       <r>   -37.2771     0.0000     0.0000 </r>
       <r>   -37.1130     0.0000     0.0000 </r>
       <r>   -36.9490     0.0000     0.0000 </r>
       <r>   -36.7849     0.0000     0.0000 </r>
       <r>   -36.6208     0.0000     0.0000 </r>
       <r>   -36.4568     0.0000     0.0000 </r>
       <r>   -36.2927     0.0000     0.0000 </r>
       <r>   -36.1286     0.0000     0.0000 </r>
       <r>   -35.9646     0.0000     0.0000 </r>
       <r>   -35.8005     0.0000     0.0000 </r>
       <r>   -35.6364     0.0000     0.0000 </r>
       <r>   -35.4724     0.0000     0.0000 </r>
       <r>   -35.3083    12.1902     2.0000 </r>
       <r>   -35.1442     0.0000     2.0000 </r>
       <r>   -34.9802     0.0000     2.0000 </r>
       <r>   -34.8161     0.0000     2.0000 </r>
       <r>   -34.6520     0.0000     2.0000 </r>
       <r>   -34.4880     0.0000     2.0000 </r>
       <r>   -34.3239     0.0000     2.0000 </r>
       <r>   -34.1598     0.0000     2.0000 </r>
       <r>   -33.9958     0.0000     2.0000 </r>
       <r>   -33.8317     0.0000     2.0000 </r>
       <r>   -33.6676     0.0000     2.0000 </r>
       <r>   -33.5036     0.0000     2.0000 </r>
       <r>   -33.3395     0.0000     2.0000 </r>
       <r>   -33.1754     0.0000     2.0000 </r>
       <r>   -33.0114     0.0000     2.0000 </r>
       <r>   -32.8473     0.0000     2.0000 </r>
       <r>   -32.6832     0.0000     2.0000 </r>
       <r>   -32.5192     0.0000     2.0000 </r>
       <r>   -32.3551     0.0000     2.0000 </r>
       <r>   -32.1910     0.0000     2.0000 </r>
       <r>   -32.0270     0.0000     2.0000 </r>
       <r>   -31.8629     0.0000     2.0000 </r>
       <r>   -31.6988     0.0000     2.0000 </r>
       <r>   -31.5348     0.0000     2.0000 </r>
       <r>   -31.3707     0.0000     2.0000 </r>
       <r>   -31.2066     0.0000     2.0000 </r>
       <r>   -31.0426     0.0000     2.0000 </r>
       <r>   -30.8785     0.0000     2.0000 </r>
       <r>   -30.7144     0.0000     2.0000 </r>
       <r>   -30.5504     0.0000     2.0000 </r>
       <r>   -30.3863     0.0000     2.0000 </r>
       <r>   -30.2222     0.0000     2.0000 </r>
       <r>   -30.0582     0.0000     2.0000 </r>
       <r>   -29.8941     0.0000     2.0000 </r>
       <r>   -29.7300     0.0000     2.0000 </r>
       <r>   -29.5660     0.0000     2.0000 </r>
       <r>   -29.4019     0.0000     2.0000 </r>
       <r>   -29.2378     0.0000     2.0000 </r>
       <r>   -29.0738     0.0000     2.0000 </r>
       <r>   -28.9097     0.0000     2.0000 </r>
       <r>   -28.7456     0.0000     2.0000 </r>
       <r>   -28.5816     0.0000     2.0000 </r>
       <r>   -28.4175     0.0000     2.0000 </r>
       <r>   -28.2534     0.0000     2.0000 </r>
       <r>   -28.0894     0.0000     2.0000 </r>
       <r>   -27.9253     0.0000     2.0000 </r>
       <r>   -27.7612     0.0000     2.0000 </r>
       <r>   -27.5972     0.0000     2.0000 </r>
       <r>   -27.4331     0.0000     2.0000 </r>
       <r>   -27.2690     0.0000     2.0000 </r>
       <r>   -27.1050     0.0000     2.0000 </r>
       <r>   -26.9409     0.0000     2.0000 </r>
       <r>   -26.7768     0.0000     2.0000 </r>
       <r>   -26.6128     0.0000     2.0000 </r>
       <r>   -26.4487     0.0000     2.0000 </r>
       <r>   -26.2846     0.0000     2.0000 </r>
       <r>   -26.1206     0.0000     2.0000 </r>
       <r>   -25.9565     0.0000     2.0000 </r>
       <r>   -25.7924     0.0000     2.0000 </r>
       <r>   -25.6284     0.0000     2.0000 </r>
       <r>   -25.4643     0.0000     2.0000 </r>
       <r>   -25.3002     0.0000     2.0000 </r>
       <r>   -25.1362     0.0000     2.0000 </r>
       <r>   -24.9721     0.0000     2.0000 </r>
       <r>   -24.8080     0.0000     2.0000 </r>
       <r>   -24.6440     0.0000     2.0000 </r>
       <r>   -24.4799     0.0000     2.0000 </r>
       <r>   -24.3158     0.0000     2.0000 </r>
       <r>   -24.1518     0.0000     2.0000 </r>
       <r>   -23.9877     0.0000     2.0000 </r>
       <r>   -23.8236     0.0000     2.0000 </r>
       <r>   -23.6596     0.0000     2.0000 </r>
       <r>   -23.4955     0.0000     2.0000 </r>
       <r>   -23.3314     0.0000     2.0000 </r>
       <r>   -23.1674     0.0000     2.0000 </r>
       <r>   -23.0033     0.0000     2.0000 </r>
       <r>   -22.8392     0.0000     2.0000 </r>
       <r>   -22.6752     0.0000     2.0000 </r>
       <r>   -22.5111     0.0000     2.0000 </r>
       <r>   -22.3470     0.0000     2.0000 </r>
       <r>   -22.1830     0.0000     2.0000 </r>
       <r>   -22.0189     0.0000     2.0000 </r>
       <r>   -21.8548     0.0000     2.0000 </r>
       <r>   -21.6908     0.0000     2.0000 </r>
       <r>   -21.5267     0.0000     2.0000 </r>
       <r>   -21.3626     0.0000     2.0000 </r>
       <r>   -21.1986     0.0000     2.0000 </r>
       <r>   -21.0345     0.0000     2.0000 </r>
       <r>   -20.8704     0.0000     2.0000 </r>
       <r>   -20.7064     0.0000     2.0000 </r>
       <r>   -20.5423     0.0000     2.0000 </r>
       <r>   -20.3782     0.0000     2.0000 </r>
       <r>   -20.2142     0.0000     2.0000 </r>
       <r>   -20.0501     0.0000     2.0000 </r>
       <r>   -19.8860     0.0000     2.0000 </r>
       <r>   -19.7220     0.0000     2.0000 </r>
       <r>   -19.5579     0.0000     2.0000 </r>
       <r>   -19.3938     0.0000     2.0000 </r>
       <r>   -19.2298     0.0000     2.0000 </r>
       <r>   -19.0657     0.0000     2.0000 </r>
       <r>   -18.9016     0.0000     2.0000 </r>
       <r>   -18.7376     0.0000     2.0000 </r>
       <r>   -18.5735     0.0000     2.0000 </r>
       <r>   -18.4094     0.0000     2.0000 </r>
       <r>   -18.2454     0.0000     2.0000 </r>
       <r>   -18.0813     0.0000     2.0000 </r>
       <r>   -17.9172     0.0000     2.0000 </r>
       <r>   -17.7532     0.0000     2.0000 </r>
       <r>   -17.5891     0.0000     2.0000 </r>
       <r>   -17.4250     0.0000     2.0000 </r>
       <r>   -17.2610     0.0000     2.0000 </r>
       <r>   -17.0969     0.0000     2.0000 </r>
       <r>   -16.9329     0.0000     2.0000 </r>
       <r>   -16.7688     0.0000     2.0000 </r>
       <r>   -16.6047     0.0000     2.0000 </r>
       <r>   -16.4407     0.0000     2.0000 </r>
       <r>   -16.2766     0.0000     2.0000 </r>
       <r>   -16.1125     0.0000     2.0000 </r>
       <r>   -15.9485     0.0000     2.0000 </r>
       <r>   -15.7844     0.0000     2.0000 </r>
       <r>   -15.6203     0.0000     2.0000 </r>
       <r>   -15.4563     0.0000     2.0000 </r>
       <r>   -15.2922     0.0000     2.0000 </r>
       <r>   -15.1281     0.0000     2.0000 </r>
       <r>   -14.9641     0.0000     2.0000 </r>
       <r>   -14.8000     0.0000     2.0000 </r>
       <r>   -14.6359     0.0000     2.0000 </r>
       <r>   -14.4719     0.0000     2.0000 </r>
       <r>   -14.3078     0.0000     2.0000 </r>
       <r>   -14.1437     0.0000     2.0000 </r>
       <r>   -13.9797     0.0005     2.0001 </r>
       <r>   -13.8156     0.0000    12.0000 </r>
       <r>   -13.6515     0.0000    12.0000 </r>
       <r>   -13.4875     0.0000    12.0000 </r>
       <r>   -13.3234     0.0000    12.0000 </r>
       <r>   -13.1593     0.0000    12.0000 </r>
       <r>   -12.9953     0.0000    12.0000 </r>
       <r>   -12.8312     0.0000    12.0000 </r>
       <r>   -12.6671     0.0000    12.0000 </r>
       <r>   -12.5031     0.0000    12.0000 </r>
       <r>   -12.3390     0.0000    12.0000 </r>
       <r>   -12.1749     0.0000    12.0000 </r>
       <r>   -12.0109     0.0000    12.0000 </r>
       <r>   -11.8468     0.0000    12.0000 </r>
       <r>   -11.6827     0.0000    12.0000 </r>
       <r>   -11.5187     0.0000    12.0000 </r>
       <r>   -11.3546     0.0000    12.0000 </r>
       <r>   -11.1905     0.0000    12.0000 </r>
       <r>   -11.0265     0.0000    12.0000 </r>
       <r>   -10.8624     0.0000    12.0000 </r>
       <r>   -10.6983     2.6894    12.4412 </r>
       <r>   -10.5343    20.4960    17.9990 </r>
       <r>   -10.3702     0.0000    18.0000 </r>
       <r>   -10.2061     0.0000    18.0000 </r>
       <r>   -10.0421     0.0000    18.0000 </r>
       <r>    -9.8780     0.0000    18.0000 </r>
       <r>    -9.7139     0.0000    18.0000 </r>
       <r>    -9.5499     0.0000    18.0000 </r>
       <r>    -9.3858     0.0000    18.0000 </r>
       <r>    -9.2217     0.0000    18.0000 </r>
       <r>    -9.0577     0.0000    18.0000 </r>
       <r>    -8.8936     0.0000    18.0000 </r>
       <r>    -8.7295     0.0000    18.0000 </r>
       <r>    -8.5655     0.0000    18.0000 </r>
       <r>    -8.4014     0.0000    18.0000 </r>
       <r>    -8.2373     0.0000    18.0000 </r>
       <r>    -8.0733     0.0000    18.0000 </r>
       <r>    -7.9092     0.0000    18.0000 </r>
       <r>    -7.7451     0.0000    18.0000 </r>
       <r>    -7.5811     0.0000    18.0000 </r>
       <r>    -7.4170     0.0000    18.0000 </r>
       <r>    -7.2529     0.0000    18.0000 </r>
       <r>    -7.0889     0.0000    18.0000 </r>
       <r>    -6.9248     0.0000    18.0000 </r>
       <r>    -6.7607     0.0000    18.0000 </r>
       <r>    -6.5967     0.0000    18.0000 </r>
       <r>    -6.4326     0.0000    18.0000 </r>
       <r>    -6.2685     0.0000    18.0000 </r>
       <r>    -6.1045     0.0000    18.0000 </r>
       <r>    -5.9404     0.0000    18.0000 </r>
       <r>    -5.7763     0.0000    18.0000 </r>
       <r>    -5.6123     0.0000    18.0000 </r>
       <r>    -5.4482     0.0000    18.0000 </r>
       <r>    -5.2841     0.0000    18.0000 </r>
       <r>    -5.1201     0.0000    18.0000 </r>
       <r>    -4.9560     0.0000    18.0000 </r>
       <r>    -4.7919     0.0000    18.0000 </r>
       <r>    -4.6279     0.0000    18.0000 </r>
       <r>    -4.4638     0.0000    18.0000 </r>
       <r>    -4.2997     0.0000    18.0000 </r>
       <r>    -4.1357     0.0000    18.0000 </r>
       <r>    -3.9716     0.0000    18.0000 </r>
       <r>    -3.8075     0.0000    18.0000 </r>
       <r>    -3.6435     0.0000    18.0000 </r>
       <r>    -3.4794     0.0000    18.0000 </r>
       <r>    -3.3153     0.0000    18.0000 </r>
       <r>    -3.1513     0.0055    18.0009 </r>
       <r>    -2.9872     0.1800    18.0432 </r>
       <r>    -2.8231     0.2697    18.1034 </r>
       <r>    -2.6591     0.5668    18.2468 </r>
       <r>    -2.4950     1.1501    18.5119 </r>
       <r>    -2.3309     4.1761    19.5563 </r>
       <r>    -2.1669     0.1776    20.0000 </r>
       <r>    -2.0028     0.0000    20.0000 </r>
       <r>    -1.8387     0.0000    20.0000 </r>
       <r>    -1.6747     0.0000    20.0000 </r>
       <r>    -1.5106     0.0000    20.0000 </r>
       <r>    -1.3465     0.0000    20.0000 </r>
       <r>    -1.1825     0.0000    20.0000 </r>
       <r>    -1.0184     0.0000    20.0000 </r>
       <r>    -0.8543     0.0000    20.0000 </r>
       <r>    -0.6903     0.0000    20.0000 </r>
       <r>    -0.5262     0.0000    20.0000 </r>
       <r>    -0.3621     0.0000    20.0000 </r>
       <r>    -0.1981     0.0000    20.0000 </r>
       <r>    -0.0340     0.0000    20.0000 </r>
       <r>     0.1301     0.0000    20.0000 </r>
       <r>     0.2941     0.0000    20.0000 </r>
       <r>     0.4582     0.0000    20.0000 </r>
       <r>     0.6223     0.0000    20.0000 </r>
       <r>     0.7863     0.0000    20.0000 </r>
       <r>     0.9504     0.0000    20.0000 </r>
       <r>     1.1145     0.0000    20.0000 </r>
       <r>     1.2785     0.0000    20.0000 </r>
       <r>     1.4426     0.0000    20.0000 </r>
       <r>     1.6067     0.0000    20.0000 </r>
       <r>     1.7707     0.0000    20.0000 </r>
       <r>     1.9348     0.0000    20.0000 </r>
       <r>     2.0989     0.0000    20.0000 </r>
       <r>     2.2629     0.0000    20.0000 </r>
       <r>     2.4270     0.0000    20.0000 </r>
       <r>     2.5911     0.0000    20.0000 </r>
       <r>     2.7551     0.0000    20.0000 </r>
       <r>     2.9192     0.0000    20.0000 </r>
       <r>     3.0833     0.2207    20.0362 </r>
       <r>     3.2473     0.8019    20.2554 </r>
       <r>     3.4114     1.8877    20.9524 </r>
       <r>     3.5755     1.4320    21.3055 </r>
       <r>     3.7395     0.4885    21.5057 </r>
       <r>     3.9036     0.4483    21.7522 </r>
       <r>     4.0676     1.0588    22.0435 </r>
       <r>     4.2317     3.9462    23.2710 </r>
       <r>     4.3958     3.1944    24.3111 </r>
       <r>     4.5598     3.2853    25.2472 </r>
       <r>     4.7239     0.8954    26.0104 </r>
       <r>     4.8880     0.2996    26.0710 </r>
       <r>     5.0520     8.4307    27.5598 </r>
       <r>     5.2161     5.9777    29.4405 </r>
       <r>     5.3802     1.8180    30.5149 </r>
       <r>     5.5442     1.4720    31.1136 </r>
       <r>     5.7083     1.1996    31.5295 </r>
       <r>     5.8724     0.4875    31.7295 </r>
       <r>     6.0364     0.9113    31.9866 </r>
       <r>     6.2005     0.6933    32.1584 </r>
       <r>     6.3646     0.5456    32.4564 </r>
       <r>     6.5286     0.6800    32.7097 </r>
       <r>     6.6927     1.0757    33.0258 </r>
       <r>     6.8568     0.2843    33.2146 </r>
       <r>     7.0208     1.0693    33.5519 </r>
       <r>     7.1849     0.3760    33.7003 </r>
       <r>     7.3490     5.0840    35.3029 </r>
       <r>     7.5130     1.0005    35.8128 </r>
       <r>     7.6771     0.2574    35.9676 </r>
       <r>     7.8412     0.0166    36.0009 </r>
       <r>     8.0052     0.0444    36.0082 </r>
       <r>     8.1693     0.1433    36.0536 </r>
       <r>     8.3334     1.0276    36.3825 </r>
       <r>     8.4974     2.3931    37.1364 </r>
       <r>     8.6615     2.3577    37.9007 </r>
       <r>     8.8256     4.4474    38.7187 </r>
       <r>     8.9896     6.4118    42.1762 </r>
       <r>     9.1537    11.8524    46.0502 </r>
       <r>     9.3178     1.9427    47.9837 </r>
       <r>     9.4818     0.0000    48.0000 </r>
       <r>     9.6459     0.0000    48.0000 </r>
       <r>     9.8100     0.0000    48.0000 </r>
       <r>     9.9740     0.0000    48.0000 </r>
       <r>    10.1381     0.0000    48.0000 </r>
       <r>    10.3022     0.0000    48.0000 </r>
       <r>    10.4662     0.0000    48.0000 </r>
       <r>    10.6303     0.0000    48.0000 </r>
       <r>    10.7944     0.0000    48.0000 </r>
       <r>    10.9584     0.0000    48.0000 </r>
       <r>    11.1225     0.0000    48.0000 </r>
       <r>    11.2866     0.0000    48.0000 </r>
       <r>    11.4506     0.0000    48.0000 </r>
       <r>    11.6147     0.0000    48.0000 </r>
      </set>
     </set>
    </array>
   </total>
  </dos>
 </calculation>
 <structure name="finalpos" >
  <crystal>
   <varray name="basis" >
    <v>       0.00000000       3.42473483       3.42473483 </v>
    <v>       3.42473483       0.00000000       3.42473483 </v>
    <v>       3.42473483       3.42473483       0.00000000 </v>
   </varray>
   <i name="volume">     80.33611935 </i>
   <varray name="rec_basis" >
    <v>      -0.14599670       0.14599670       0.14599670 </v>
    <v>       0.14599670      -0.14599670       0.14599670 </v>
    <v>       0.14599670       0.14599670      -0.14599670 </v>
   </varray>
  </crystal>
  <varray name="positions" >
   <v>       0.25000000       0.25000000       0.25000000 </v>
   <v>       0.75000000       0.75000000       0.75000000 </v>
   <v>       0.00000000       0.00000000       0.00000000 </v>
  </varray>
 </structure>
</modeling>
