 running  128 mpi-ranks, with    1 threads/rank, on    1 nodes
 distrk:  each k-point on   32 cores,    4 groups
 distr:  one band on   16 cores,    2 groups
 vasp.6.4.3 19Mar24 (build Jun  3 2025 16:21:13) complex                         
 POSCAR found type information on POSCAR NiO 
 POSCAR found :  2 types and       2 ions
 Reading from existing POTCAR
 scaLAPACK will be used
 Reading from existing POTCAR
 LDA part: xc-table for (Slater+PW92), standard interpolation
 -----------------------------------------------------------------------------
|                                                                             |
|           W    W    AA    RRRRR   N    N  II  N    N   GGGG   !!!           |
|           W    W   A  A   R    R  NN   N  II  NN   N  G    G  !!!           |
|           W    W  A    A  R    R  N N  N  II  N N  N  G       !!!           |
|           W WW W  AAAAAA  RRRRR   N  N N  II  N  N N  G  GGG   !            |
|           WW  WW  A    A  R   R   N   NN  II  N   NN  G    G                |
|           W    W  A    A  R    R  N    N  II  N    N   GGGG   !!!           |
|                                                                             |
|     The requested file  could not be found or opened for reading            |
|     k-point information. Automatic k-point generation is used as a          |
|     fallback, which may lead to unwanted results.                           |
|                                                                             |
 -----------------------------------------------------------------------------

 INCAR ok, starting setup
 POSCAR ok, starting setup
 FFT: planning ... GRIDC
 FFT: planning ... GRID_SOFT
 FFT: planning ... GRID
 WAVECAR not read
 entering main loop
       N       E                     dE             d eps       ncg     rms          rms(c)
DAV:   1     0.108506970633E+03    0.10851E+03   -0.62049E+03 23952   0.630E+02
DAV:   2     0.538727465108E+00   -0.10797E+03   -0.94992E+02 21920   0.186E+02
DAV:   3    -0.710838583948E+01   -0.76471E+01   -0.74221E+01 26152   0.438E+01
DAV:   4    -0.717301196192E+01   -0.64626E-01   -0.64580E-01 24264   0.406E+00
DAV:   5    -0.717314066812E+01   -0.12871E-03   -0.12873E-03 25440   0.175E-01    0.220E+01
DAV:   6    -0.121418131106E+02   -0.49687E+01   -0.32844E+01 24528   0.565E+01    0.256E+01
DAV:   7    -0.862044762706E+01    0.35214E+01   -0.64478E+00 24144   0.340E+01    0.879E+00
DAV:   8    -0.983098204844E+01   -0.12105E+01   -0.84522E-01 23328   0.935E+00    0.596E+00
DAV:   9    -0.100457301126E+02   -0.21475E+00   -0.11865E-01 23664   0.748E+00    0.252E+00
DAV:  10    -0.100882771291E+02   -0.42547E-01   -0.54016E-02 24896   0.504E+00    0.727E-01
DAV:  11    -0.100896428410E+02   -0.13657E-02   -0.20658E-02 24320   0.801E-01    0.466E-01
DAV:  12    -0.100902000566E+02   -0.55722E-03   -0.76408E-04 23824   0.319E-01    0.165E-01
DAV:  13    -0.100902082833E+02   -0.82267E-05   -0.13111E-04 24896   0.926E-02    0.858E-02
DAV:  14    -0.100902220892E+02   -0.13806E-04   -0.28623E-05 24360   0.514E-02    0.473E-02
DAV:  15    -0.100902255877E+02   -0.34985E-05   -0.31458E-06 25088   0.581E-02    0.265E-02
DAV:  16    -0.100902295958E+02   -0.40081E-05   -0.31927E-06 26384   0.571E-02    0.775E-03
DAV:  17    -0.100902297878E+02   -0.19207E-06   -0.12285E-06 25960   0.126E-02    0.339E-03
DAV:  18    -0.100902300122E+02   -0.22432E-06   -0.23620E-07 25880   0.133E-02    0.195E-03
DAV:  19    -0.100902300340E+02   -0.21829E-07   -0.17022E-07 22064   0.397E-03
   1 F= -.10090230E+02 E0= -.10090230E+02  d E =0.000000E+00  mag=     2.0000
 PROFILE, used timers:     427
