   2   2   0   0
  0.3025399E+02  0.4406657E-09  0.4406657E-09  0.4406657E-09  0.1000000E-15
  1.000000000000000E-004
  CAR 
 unknown system                          
     13.85142170     -7.07492000  301      4.78361278      1.00000000
     -7.075  0.0000E+00  0.0000E+00
     -7.005  0.0000E+00  0.0000E+00
     -6.935  0.0000E+00  0.0000E+00
     -6.866  0.0000E+00  0.0000E+00
     -6.796  0.0000E+00  0.0000E+00
     -6.726  0.0000E+00  0.0000E+00
     -6.656  0.1933E-19  0.1349E-20
     -6.587  0.4281E-16  0.2987E-17
     -6.517  0.4033E-13  0.2816E-14
     -6.447  0.1533E-10  0.1072E-11
     -6.377  0.2419E-08  0.1698E-09
     -6.308  0.1640E-06  0.1161E-07
     -6.238  0.4905E-05  0.3538E-06
     -6.168  0.6614E-04  0.4968E-05
     -6.098  0.4177E-03  0.3411E-04
     -6.029  0.1369E-02  0.1296E-03
     -5.959  0.2766E-02  0.3225E-03
     -5.889  0.4008E-02  0.6020E-03
     -5.819  0.5007E-02  0.9513E-03
     -5.750  0.6115E-02  0.1378E-02
     -5.680  0.6636E-02  0.1841E-02
     -5.610  0.7379E-02  0.2355E-02
     -5.540  0.8835E-02  0.2972E-02
     -5.471  0.9138E-02  0.3609E-02
     -5.401  0.9301E-02  0.4258E-02
     -5.331  0.1127E-01  0.5044E-02
     -5.261  0.1258E-01  0.5922E-02
     -5.192  0.1205E-01  0.6762E-02
     -5.122  0.1339E-01  0.7696E-02
     -5.052  0.1619E-01  0.8825E-02
     -4.982  0.1744E-01  0.1004E-01
     -4.913  0.1798E-01  0.1130E-01
     -4.843  0.2158E-01  0.1280E-01
     -4.773  0.2683E-01  0.1467E-01
     -4.703  0.2883E-01  0.1668E-01
     -4.634  0.2956E-01  0.1875E-01
     -4.564  0.3094E-01  0.2090E-01
     -4.494  0.3085E-01  0.2306E-01
     -4.424  0.3082E-01  0.2521E-01
     -4.354  0.3194E-01  0.2743E-01
     -4.285  0.3285E-01  0.2973E-01
     -4.215  0.2876E-01  0.3173E-01
     -4.145  0.1685E-01  0.3291E-01
     -4.075  0.5282E-02  0.3328E-01
     -4.006  0.7785E-03  0.3333E-01
     -3.936  0.5082E-04  0.3333E-01
     -3.866  0.1423E-05  0.3333E-01
     -3.796  0.1672E-07  0.3333E-01
     -3.727  0.8081E-10  0.3333E-01
     -3.657  0.1579E-12  0.3333E-01
     -3.587  0.1223E-15  0.3333E-01
     -3.517  0.0000E+00  0.3333E-01
     -3.448  0.0000E+00  0.3333E-01
     -3.378  0.0000E+00  0.3333E-01
     -3.308  0.0000E+00  0.3333E-01
     -3.238  0.0000E+00  0.3333E-01
     -3.169  0.0000E+00  0.3333E-01
     -3.099  0.0000E+00  0.3333E-01
     -3.029  0.0000E+00  0.3333E-01
     -2.959  0.0000E+00  0.3333E-01
     -2.890  0.0000E+00  0.3333E-01
     -2.820  0.0000E+00  0.3333E-01
     -2.750  0.0000E+00  0.3333E-01
     -2.680  0.0000E+00  0.3333E-01
     -2.611  0.0000E+00  0.3333E-01
     -2.541  0.0000E+00  0.3333E-01
     -2.471  0.0000E+00  0.3333E-01
     -2.401  0.0000E+00  0.3333E-01
     -2.332  0.0000E+00  0.3333E-01
     -2.262  0.0000E+00  0.3333E-01
     -2.192  0.0000E+00  0.3333E-01
     -2.122  0.0000E+00  0.3333E-01
     -2.053  0.0000E+00  0.3333E-01
     -1.983  0.0000E+00  0.3333E-01
     -1.913  0.0000E+00  0.3333E-01
     -1.843  0.0000E+00  0.3333E-01
     -1.774  0.0000E+00  0.3333E-01
     -1.704  0.0000E+00  0.3333E-01
     -1.634  0.0000E+00  0.3333E-01
     -1.564  0.8701E-19  0.3333E-01
     -1.495  0.2018E-15  0.3333E-01
     -1.425  0.1808E-12  0.3333E-01
     -1.355  0.6462E-10  0.3333E-01
     -1.285  0.9437E-08  0.3333E-01
     -1.216  0.5815E-06  0.3333E-01
     -1.146  0.1582E-04  0.3333E-01
     -1.076  0.2019E-03  0.3335E-01
     -1.006  0.1321E-02  0.3344E-01
     -0.937  0.5024E-02  0.3379E-01
     -0.867  0.1305E-01  0.3470E-01
     -0.797  0.2681E-01  0.3657E-01
     -0.727  0.4392E-01  0.3964E-01
     -0.658  0.5071E-01  0.4317E-01
     -0.588  0.4147E-01  0.4607E-01
     -0.518  0.3061E-01  0.4820E-01
     -0.448  0.2495E-01  0.4994E-01
     -0.378  0.1978E-01  0.5132E-01
     -0.309  0.1501E-01  0.5237E-01
     -0.239  0.1376E-01  0.5333E-01
     -0.169  0.1410E-01  0.5431E-01
     -0.099  0.1369E-01  0.5527E-01
     -0.030  0.1029E-01  0.5598E-01
      0.040  0.7851E-02  0.5653E-01
      0.110  0.9306E-02  0.5718E-01
      0.180  0.8726E-02  0.5779E-01
      0.249  0.7232E-02  0.5829E-01
      0.319  0.8403E-02  0.5888E-01
      0.389  0.8610E-02  0.5948E-01
      0.459  0.6257E-02  0.5992E-01
      0.528  0.3675E-02  0.6017E-01
      0.598  0.4082E-02  0.6046E-01
      0.668  0.6079E-02  0.6088E-01
      0.738  0.6346E-02  0.6133E-01
      0.807  0.5234E-02  0.6169E-01
      0.877  0.4418E-02  0.6200E-01
      0.947  0.4534E-02  0.6232E-01
      1.017  0.3900E-02  0.6259E-01
      1.086  0.3305E-02  0.6282E-01
      1.156  0.4438E-02  0.6313E-01
      1.226  0.7609E-02  0.6366E-01
      1.296  0.1259E-01  0.6454E-01
      1.365  0.1799E-01  0.6579E-01
      1.435  0.2514E-01  0.6754E-01
      1.505  0.2925E-01  0.6958E-01
      1.575  0.2524E-01  0.7135E-01
      1.644  0.2114E-01  0.7282E-01
      1.714  0.2046E-01  0.7425E-01
      1.784  0.2072E-01  0.7569E-01
      1.854  0.2050E-01  0.7712E-01
      1.923  0.2121E-01  0.7860E-01
      1.993  0.2398E-01  0.8027E-01
      2.063  0.2493E-01  0.8201E-01
      2.133  0.2497E-01  0.8375E-01
      2.202  0.2757E-01  0.8568E-01
      2.272  0.3030E-01  0.8779E-01
      2.342  0.3180E-01  0.9001E-01
      2.412  0.3326E-01  0.9233E-01
      2.481  0.3096E-01  0.9449E-01
      2.551  0.2720E-01  0.9639E-01
      2.621  0.3035E-01  0.9850E-01
      2.691  0.3776E-01  0.1011E+00
      2.760  0.3696E-01  0.1037E+00
      2.830  0.2786E-01  0.1057E+00
      2.900  0.2417E-01  0.1073E+00
      2.970  0.2714E-01  0.1092E+00
      3.039  0.2957E-01  0.1113E+00
      3.109  0.3069E-01  0.1134E+00
      3.179  0.3048E-01  0.1156E+00
      3.249  0.2910E-01  0.1176E+00
      3.318  0.2721E-01  0.1195E+00
      3.388  0.2393E-01  0.1212E+00
      3.458  0.2478E-01  0.1229E+00
      3.528  0.2539E-01  0.1247E+00
      3.598  0.2062E-01  0.1261E+00
      3.667  0.1775E-01  0.1273E+00
      3.737  0.1580E-01  0.1284E+00
      3.807  0.1271E-01  0.1293E+00
      3.877  0.1113E-01  0.1301E+00
      3.946  0.1070E-01  0.1309E+00
      4.016  0.9992E-02  0.1315E+00
      4.086  0.7828E-02  0.1321E+00
      4.156  0.5718E-02  0.1325E+00
      4.225  0.4590E-02  0.1328E+00
      4.295  0.3501E-02  0.1331E+00
      4.365  0.2450E-02  0.1332E+00
      4.435  0.1171E-02  0.1333E+00
      4.504  0.2854E-03  0.1333E+00
      4.574  0.3294E-04  0.1333E+00
      4.644  0.1783E-05  0.1333E+00
      4.714  0.4389E-07  0.1333E+00
      4.783  0.4656E-09  0.1333E+00
      4.853  0.2028E-11  0.1333E+00
      4.923  0.3506E-14  0.1333E+00
      4.993  0.2320E-17  0.1333E+00
      5.062  0.8981E-17  0.1333E+00
      5.132  0.1212E-13  0.1333E+00
      5.202  0.6428E-11  0.1333E+00
      5.272  0.1361E-08  0.1333E+00
      5.341  0.1171E-06  0.1333E+00
      5.411  0.4181E-05  0.1333E+00
      5.481  0.6347E-04  0.1333E+00
      5.551  0.4257E-03  0.1334E+00
      5.620  0.1389E-02  0.1335E+00
      5.690  0.2769E-02  0.1337E+00
      5.760  0.4289E-02  0.1340E+00
      5.830  0.5355E-02  0.1343E+00
      5.899  0.7146E-02  0.1348E+00
      5.969  0.1184E-01  0.1357E+00
      6.039  0.1603E-01  0.1368E+00
      6.109  0.1733E-01  0.1380E+00
      6.178  0.1804E-01  0.1392E+00
      6.248  0.1867E-01  0.1405E+00
      6.318  0.2052E-01  0.1420E+00
      6.388  0.2417E-01  0.1437E+00
      6.457  0.3007E-01  0.1458E+00
      6.527  0.3450E-01  0.1482E+00
      6.597  0.3287E-01  0.1505E+00
      6.667  0.2984E-01  0.1525E+00
      6.736  0.3175E-01  0.1548E+00
      6.806  0.3691E-01  0.1573E+00
      6.876  0.3545E-01  0.1598E+00
      6.946  0.2665E-01  0.1617E+00
      7.015  0.1933E-01  0.1630E+00
      7.085  0.1863E-01  0.1643E+00
      7.155  0.2067E-01  0.1658E+00
      7.225  0.2059E-01  0.1672E+00
      7.295  0.2119E-01  0.1687E+00
      7.364  0.1869E-01  0.1700E+00
      7.434  0.1589E-01  0.1711E+00
      7.504  0.1872E-01  0.1724E+00
      7.574  0.2021E-01  0.1738E+00
      7.643  0.1749E-01  0.1750E+00
      7.713  0.1472E-01  0.1760E+00
      7.783  0.1713E-01  0.1772E+00
      7.853  0.2819E-01  0.1792E+00
      7.922  0.4437E-01  0.1823E+00
      7.992  0.5342E-01  0.1860E+00
      8.062  0.4879E-01  0.1894E+00
      8.132  0.3945E-01  0.1922E+00
      8.201  0.3310E-01  0.1945E+00
      8.271  0.2620E-01  0.1963E+00
      8.341  0.1971E-01  0.1977E+00
      8.411  0.1682E-01  0.1989E+00
      8.480  0.1598E-01  0.2000E+00
      8.550  0.1869E-01  0.2013E+00
      8.620  0.2697E-01  0.2032E+00
      8.690  0.3457E-01  0.2056E+00
      8.759  0.3471E-01  0.2080E+00
      8.829  0.3013E-01  0.2101E+00
      8.899  0.2673E-01  0.2120E+00
      8.969  0.2761E-01  0.2139E+00
      9.038  0.2916E-01  0.2159E+00
      9.108  0.2753E-01  0.2178E+00
      9.178  0.2624E-01  0.2197E+00
      9.248  0.2746E-01  0.2216E+00
      9.317  0.3198E-01  0.2238E+00
      9.387  0.3511E-01  0.2263E+00
      9.457  0.3074E-01  0.2284E+00
      9.527  0.2354E-01  0.2301E+00
      9.596  0.2006E-01  0.2315E+00
      9.666  0.2011E-01  0.2329E+00
      9.736  0.2158E-01  0.2344E+00
      9.806  0.1960E-01  0.2357E+00
      9.875  0.1681E-01  0.2369E+00
      9.945  0.1850E-01  0.2382E+00
     10.015  0.1981E-01  0.2396E+00
     10.085  0.1702E-01  0.2408E+00
     10.154  0.1302E-01  0.2417E+00
     10.224  0.1410E-01  0.2427E+00
     10.294  0.1975E-01  0.2440E+00
     10.364  0.2587E-01  0.2458E+00
     10.433  0.2883E-01  0.2478E+00
     10.503  0.2699E-01  0.2497E+00
     10.573  0.2172E-01  0.2512E+00
     10.643  0.1637E-01  0.2524E+00
     10.712  0.1556E-01  0.2535E+00
     10.782  0.1581E-01  0.2546E+00
     10.852  0.1428E-01  0.2556E+00
     10.922  0.1170E-01  0.2564E+00
     10.991  0.9716E-02  0.2571E+00
     11.061  0.1092E-01  0.2578E+00
     11.131  0.1321E-01  0.2587E+00
     11.201  0.1271E-01  0.2596E+00
     11.271  0.1294E-01  0.2605E+00
     11.340  0.1530E-01  0.2616E+00
     11.410  0.1398E-01  0.2626E+00
     11.480  0.9744E-02  0.2633E+00
     11.550  0.6801E-02  0.2637E+00
     11.619  0.3880E-02  0.2640E+00
     11.689  0.1620E-02  0.2641E+00
     11.759  0.1273E-02  0.2642E+00
     11.829  0.1697E-02  0.2643E+00
     11.898  0.1853E-02  0.2645E+00
     11.968  0.3394E-02  0.2647E+00
     12.038  0.4968E-02  0.2650E+00
     12.108  0.3748E-02  0.2653E+00
     12.177  0.2354E-02  0.2655E+00
     12.247  0.2694E-02  0.2656E+00
     12.317  0.3563E-02  0.2659E+00
     12.387  0.4225E-02  0.2662E+00
     12.456  0.3665E-02  0.2664E+00
     12.526  0.1691E-02  0.2666E+00
     12.596  0.3557E-03  0.2666E+00
     12.666  0.3626E-04  0.2666E+00
     12.735  0.4930E-04  0.2666E+00
     12.805  0.2151E-03  0.2666E+00
     12.875  0.3904E-03  0.2666E+00
     12.945  0.2888E-03  0.2667E+00
     13.014  0.8690E-04  0.2667E+00
     13.084  0.1055E-04  0.2667E+00
     13.154  0.5119E-06  0.2667E+00
     13.224  0.9807E-08  0.2667E+00
     13.293  0.7349E-10  0.2667E+00
     13.363  0.2138E-12  0.2667E+00
     13.433  0.2399E-15  0.2667E+00
     13.503  0.1160E-18  0.2667E+00
     13.572  0.0000E+00  0.2667E+00
     13.642  0.0000E+00  0.2667E+00
     13.712  0.0000E+00  0.2667E+00
     13.782  0.0000E+00  0.2667E+00
     13.851  0.0000E+00  0.2667E+00
