    2    2   60    1
  0.3025399E+02  0.4406657E-09  0.4406657E-09  0.4406657E-09  0.1000000E-15
  1.000000000000000E-004
  CAR 
 unknown system                          
      8    104      8
 
  0.0000000E+00  0.0000000E+00  0.0000000E+00  0.3644315E-03
    1       -6.074920   1.000000
    2        4.374628   1.000000
    3        4.374628   1.000000
    4        4.374628   1.000000
    5        5.652747   0.000000
    6        7.445487   0.000000
    7        7.445487   0.000000
    8        7.445487   0.000000
 
  0.7142857E-01  0.0000000E+00  0.0000000E+00  0.2915452E-02
    1       -6.030069   1.000000
    2        3.721130   1.000000
    3        4.310570   1.000000
    4        4.310570   1.000000
    5        6.073595   0.000000
    6        7.545154   0.000000
    7        7.545154   0.000000
    8        7.581931   0.000000
 
  0.1428571E+00  0.0000000E+00  0.0000000E+00  0.2915452E-02
    1       -5.897992   1.000000
    2        2.670661   1.000000
    3        4.150308   1.000000
    4        4.150308   1.000000
    5        6.261778   0.000000
    6        7.786418   0.000000
    7        7.786418   0.000000
    8        8.232823   0.000000
 
  0.2142857E+00  0.0000000E+00  0.0000000E+00  0.2915452E-02
    1       -5.687302   1.000000
    2        1.626774   1.000000
    3        3.954715   1.000000
    4        3.954715   1.000000
    5        6.113568   0.000000
    6        8.032240   0.000000
    7        8.032241   0.000000
    8        9.230567   0.000000
 
  0.2857143E+00  0.0000000E+00  0.0000000E+00  0.2915452E-02
    1       -5.416558   1.000000
    2        0.677924   1.000000
    3        3.771121   1.000000
    4        3.771121   1.000000
    5        5.911368   0.000000
    6        8.156501   0.000000
    7        8.156501   0.000000
    8       10.278909   0.000000
 
  0.3571429E+00  0.0000000E+00  0.0000000E+00  0.2915452E-02
    1       -5.122954   1.000000
    2       -0.112346   1.000000
    3        3.626855   1.000000
    4        3.626855   1.000000
    5        5.743878   0.000000
    6        8.154220   0.000000
    7        8.154220   0.000000
    8       10.965525   0.000000
 
  0.4285714E+00  0.0000000E+00  0.0000000E+00  0.2915452E-02
    1       -4.876000   1.000000
    2       -0.661516   1.000000
    3        3.536018   1.000000
    4        3.536018   1.000000
    5        5.637696   0.000000
    6        8.109149   0.000000
    7        8.109149   0.000000
    8       10.968149   0.000000
 
  0.5000000E+00  0.0000000E+00  0.0000000E+00  0.1457726E-02
    1       -4.774888   1.000000
    2       -0.864016   1.000000
    3        3.505111   1.000000
    4        3.505111   1.000000
    5        5.601594   0.000000
    6        8.087141   0.000000
    7        8.087142   0.000000
    8       10.929262   0.000000
 
  0.7142857E-01  0.7142857E-01  0.0000000E+00  0.2186589E-02
    1       -6.015051   1.000000
    2        3.712182   1.000000
    3        4.177407   1.000000
    4        4.177407   1.000000
    5        6.292140   0.000000
    6        7.270703   0.000000
    7        7.729007   0.000000
    8        7.729007   0.000000
 
  0.1428571E+00  0.7142857E-01  0.0000000E+00  0.8746356E-02
    1       -5.911837   1.000000
    2        2.906661   1.000000
    3        3.974654   1.000000
    4        4.057542   1.000000
    5        6.597616   0.000000
    6        7.282827   0.000000
    7        8.038110   0.000000
    8        8.196924   0.000000
 
  0.2142857E+00  0.7142857E-01  0.0000000E+00  0.8746356E-02
    1       -5.726754   1.000000
    2        1.916909   1.000000
    3        3.764111   1.000000
    4        3.878531   1.000000
    5        6.526252   0.000000
    6        7.549114   0.000000
    7        8.338905   0.000000
    8        8.931832   0.000000
 
  0.2857143E+00  0.7142857E-01  0.0000000E+00  0.8746356E-02
    1       -5.474444   1.000000
    2        0.964476   1.000000
    3        3.586578   1.000000
    4        3.654632   1.000000
    5        6.339118   0.000000
    6        7.815127   0.000000
    7        8.496201   0.000000
    8        9.602773   0.000000
 
  0.3571429E+00  0.7142857E-01  0.0000000E+00  0.8746356E-02
    1       -5.184554   1.000000
    2        0.133765   1.000000
    3        3.440127   1.000000
    4        3.463989   1.000000
    5        6.163675   0.000000
    6        7.930717   0.000000
    7        8.480773   0.000000
    8       10.257211   0.000000
 
  0.4285714E+00  0.7142857E-01  0.0000000E+00  0.8746356E-02
    1       -4.914151   1.000000
    2       -0.494821   1.000000
    3        3.266670   1.000000
    4        3.406463   1.000000
    5        6.038201   0.000000
    6        7.953105   0.000000
    7        8.378903   0.000000
    8       10.882494   0.000000
 
  0.5000000E+00  0.7142857E-01  0.0000000E+00  0.8746356E-02
    1       -4.755382   1.000000
    2       -0.818033   1.000000
    3        3.151257   1.000000
    4        3.416838   1.000000
    5        5.976674   0.000000
    6        7.980354   0.000000
    7        8.275578   0.000000
    8       11.114558   0.000000
 
 -0.4285714E+00  0.7142857E-01  0.0000000E+00  0.8746356E-02
    1       -4.789861   1.000000
    2       -0.750018   1.000000
    3        3.103382   1.000000
    4        3.492825   1.000000
    5        5.983878   0.000000
    6        8.054521   0.000000
    7        8.208819   0.000000
    8       11.141381   0.000000
 
 -0.3571429E+00  0.7142857E-01  0.0000000E+00  0.8746356E-02
    1       -4.997718   1.000000
    2       -0.311750   1.000000
    3        3.128293   1.000000
    4        3.627380   1.000000
    5        6.059295   0.000000
    6        8.168133   0.000000
    7        8.173437   0.000000
    8       10.955962   0.000000
 
 -0.2857143E+00  0.7142857E-01  0.0000000E+00  0.8746356E-02
    1       -5.283305   1.000000
    2        0.394216   1.000000
    3        3.228071   1.000000
    4        3.807607   1.000000
    5        6.196237   0.000000
    6        8.120751   0.000000
    7        8.258503   0.000000
    8       10.277997   0.000000
 
 -0.2142857E+00  0.7142857E-01  0.0000000E+00  0.8746356E-02
    1       -5.565240   1.000000
    2        1.269969   1.000000
    3        3.401793   1.000000
    4        4.011173   1.000000
    5        6.373600   0.000000
    6        7.978501   0.000000
    7        8.183362   0.000000
    8        9.493010   0.000000
 
 -0.1428571E+00  0.7142857E-01  0.0000000E+00  0.8746356E-02
    1       -5.797310   1.000000
    2        2.230663   1.000000
    3        3.647100   1.000000
    4        4.200192   1.000000
    5        6.520482   0.000000
    6        7.750192   0.000000
    7        7.847077   0.000000
    8        8.777539   0.000000
 
 -0.7142857E-01  0.7142857E-01  0.0000000E+00  0.4373178E-02
    1       -5.956041   1.000000
    2        3.142760   1.000000
    3        3.971746   1.000000
    4        4.317926   1.000000
    5        6.411183   0.000000
    6        7.551470   0.000000
    7        7.562265   0.000000
    8        8.103214   0.000000
 
  0.1428571E+00  0.1428571E+00  0.0000000E+00  0.2186589E-02
    1       -5.838022   1.000000
    2        2.694295   1.000000
    3        3.741640   1.000000
    4        3.741640   1.000000
    5        6.694321   0.000000
    6        7.341548   0.000000
    7        8.420039   0.000000
    8        8.420039   0.000000
 
  0.2142857E+00  0.1428571E+00  0.0000000E+00  0.8746356E-02
    1       -5.680991   1.000000
    2        1.996343   1.000000
    3        3.513659   1.000000
    4        3.523360   1.000000
    5        6.649298   0.000000
    6        7.478944   0.000000
    7        8.805146   0.000000
    8        8.858030   0.000000
 
  0.2857143E+00  0.1428571E+00  0.0000000E+00  0.8746356E-02
    1       -5.452294   1.000000
    2        1.159881   1.000000
    3        3.256457   1.000000
    4        3.329469   1.000000
    5        6.688431   0.000000
    6        7.625605   0.000000
    7        8.982614   0.000000
    8        9.046810   0.000000
 
  0.3571429E+00  0.1428571E+00  0.0000000E+00  0.8746356E-02
    1       -5.175750   1.000000
    2        0.362648   1.000000
    3        2.966978   1.000000
    4        3.209783   1.000000
    5        6.623100   0.000000
    6        7.890351   0.000000
    7        9.071841   0.000000
    8        9.157741   0.000000
 
  0.4285714E+00  0.1428571E+00  0.0000000E+00  0.8746356E-02
    1       -4.897548   1.000000
    2       -0.292079   1.000000
    3        2.709073   1.000000
    4        3.164161   1.000000
    5        6.531581   0.000000
    6        7.999899   0.000000
    7        8.953211   0.000000
    8        9.757749   0.000000
 
  0.5000000E+00  0.1428571E+00  0.0000000E+00  0.8746356E-02
    1       -4.697452   1.000000
    2       -0.698898   1.000000
    3        2.513414   1.000000
    4        3.194924   1.000000
    5        6.482808   0.000000
    6        8.022972   0.000000
    7        8.795945   0.000000
    8       10.626266   0.000000
 
 -0.4285714E+00  0.1428571E+00  0.0000000E+00  0.8746356E-02
    1       -4.666693   1.000000
    2       -0.756138   1.000000
    3        2.397221   1.000000
    4        3.298645   1.000000
    5        6.496776   0.000000
    6        8.076488   0.000000
    7        8.655820   0.000000
    8       11.349236   0.000000
 
 -0.3571429E+00  0.1428571E+00  0.0000000E+00  0.8746356E-02
    1       -4.822467   1.000000
    2       -0.446852   1.000000
    3        2.373075   1.000000
    4        3.465866   1.000000
    5        6.572719   0.000000
    6        8.187759   0.000000
    7        8.538928   0.000000
    8       10.925197   0.000000
 
 -0.2857143E+00  0.1428571E+00  0.0000000E+00  0.8746356E-02
    1       -5.086267   1.000000
    2        0.137429   1.000000
    3        2.454934   1.000000
    4        3.679044   1.000000
    5        6.696633   0.000000
    6        8.318493   0.000000
    7        8.404891   0.000000
    8       10.057820   0.000000
 
 -0.2142857E+00  0.1428571E+00  0.0000000E+00  0.8746356E-02
    1       -5.369432   1.000000
    2        0.871663   1.000000
    3        2.667321   1.000000
    4        3.908019   1.000000
    5        6.829053   0.000000
    6        8.191511   0.000000
    7        8.286318   0.000000
    8        9.412552   0.000000
 
 -0.1428571E+00  0.1428571E+00  0.0000000E+00  0.4373178E-02
    1       -5.616241   1.000000
    2        1.617178   1.000000
    3        3.058646   1.000000
    4        4.103728   1.000000
    5        6.836324   0.000000
    6        7.924996   0.000000
    7        7.963588   0.000000
    8        9.165609   0.000000
 
  0.2142857E+00  0.2142857E+00  0.0000000E+00  0.2186589E-02
    1       -5.552721   1.000000
    2        1.683148   1.000000
    3        3.269083   1.000000
    4        3.269083   1.000000
    5        6.302320   0.000000
    6        7.569684   0.000000
    7        9.307788   0.000000
    8        9.307788   0.000000
 
  0.2857143E+00  0.2142857E+00  0.0000000E+00  0.8746356E-02
    1       -5.351157   1.000000
    2        1.094207   1.000000
    3        2.998432   1.000000
    4        3.071001   1.000000
    5        6.278179   0.000000
    6        7.457418   0.000000
    7        9.437068   0.000000
    8        9.692326   0.000000
 
  0.3571429E+00  0.2142857E+00  0.0000000E+00  0.8746356E-02
    1       -5.095851   1.000000
    2        0.438943   1.000000
    3        2.637910   1.000000
    4        2.941333   1.000000
    5        6.401278   0.000000
    6        7.616842   0.000000
    7        9.266071   0.000000
    8        9.825492   0.000000
 
  0.4285714E+00  0.2142857E+00  0.0000000E+00  0.8746356E-02
    1       -4.824617   1.000000
    2       -0.153800   1.000000
    3        2.274291   1.000000
    4        2.890615   1.000000
    5        6.429015   0.000000
    6        8.189691   0.000000
    7        9.134561   0.000000
    8        9.738681   0.000000
 
  0.5000000E+00  0.2142857E+00  0.0000000E+00  0.8746356E-02
    1       -4.604099   1.000000
    2       -0.574210   1.000000
    3        1.975772   1.000000
    4        2.921982   1.000000
    5        6.441618   0.000000
    6        8.680188   0.000000
    7        9.432016   0.000000
    8        9.558706   0.000000
 
 -0.4285714E+00  0.2142857E+00  0.0000000E+00  0.8746356E-02
    1       -4.521557   1.000000
    2       -0.715409   1.000000
    3        1.777158   1.000000
    4        3.032586   1.000000
    5        6.511880   0.000000
    6        8.724097   0.000000
    7        9.364678   0.000000
    8       10.397122   0.000000
 
 -0.3571429E+00  0.2142857E+00  0.0000000E+00  0.8746356E-02
    1       -4.619883   1.000000
    2       -0.534913   1.000000
    3        1.703760   1.000000
    4        3.213060   1.000000
    5        6.649330   0.000000
    6        8.753384   0.000000
    7        9.168482   0.000000
    8       10.866959   0.000000
 
 -0.2857143E+00  0.2142857E+00  0.0000000E+00  0.8746356E-02
    1       -4.847608   1.000000
    2       -0.111575   1.000000
    3        1.790865   1.000000
    4        3.444871   1.000000
    5        6.827168   0.000000
    6        8.828520   0.000000
    7        8.920169   0.000000
    8        9.884269   0.000000
 
 -0.2142857E+00  0.2142857E+00  0.0000000E+00  0.4373178E-02
    1       -5.118408   1.000000
    2        0.402319   1.000000
    3        2.097718   1.000000
    4        3.694845   1.000000
    5        6.960265   0.000000
    6        8.564703   0.000000
    7        8.705680   0.000000
    8        9.296774   0.000000
 
  0.2857143E+00  0.2857143E+00  0.0000000E+00  0.2186589E-02
    1       -5.178459   1.000000
    2        0.733898   1.000000
    3        2.856220   1.000000
    4        2.856220   1.000000
    5        5.948063   0.000000
    6        7.092732   0.000000
    7       10.285523   0.000000
    8       10.285523   0.000000
 
  0.3571429E+00  0.2857143E+00  0.0000000E+00  0.8746356E-02
    1       -4.950955   1.000000
    2        0.250275   1.000000
    3        2.574052   1.000000
    4        2.709823   1.000000
    5        5.978199   0.000000
    6        6.925856   0.000000
    7       10.365837   0.000000
    8       10.629843   0.000000
 
  0.4285714E+00  0.2857143E+00  0.0000000E+00  0.8746356E-02
    1       -4.700855   1.000000
    2       -0.215011   1.000000
    3        2.152699   1.000000
    4        2.644163   1.000000
    5        6.113330   0.000000
    6        7.216719   0.000000
    7       10.184760   0.000000
    8       10.649652   0.000000
 
  0.5000000E+00  0.2857143E+00  0.0000000E+00  0.8746356E-02
    1       -4.483928   1.000000
    2       -0.564725   1.000000
    3        1.736881   1.000000
    4        2.663712   1.000000
    5        6.170462   0.000000
    6        7.988087   0.000000
    7       10.008407   0.000000
    8       10.482159   0.000000
 
 -0.4285714E+00  0.2857143E+00  0.0000000E+00  0.8746356E-02
    1       -4.375524   1.000000
    2       -0.713356   1.000000
    3        1.426469   1.000000
    4        2.766831   1.000000
    5        6.262556   0.000000
    6        8.998307   0.000000
    7        9.900373   0.000000
    8       10.244970   0.000000
 
 -0.3571429E+00  0.2857143E+00  0.0000000E+00  0.8746356E-02
    1       -4.425198   1.000000
    2       -0.626899   1.000000
    3        1.287097   1.000000
    4        2.945351   1.000000
    5        6.428520   0.000000
    6        9.699914   0.000000
    7        9.944852   0.000000
    8       10.279834   0.000000
 
 -0.2857143E+00  0.2857143E+00  0.0000000E+00  0.4373178E-02
    1       -4.606455   1.000000
    2       -0.382471   1.000000
    3        1.388802   1.000000
    4        3.182026   1.000000
    5        6.648213   0.000000
    6        9.497977   0.000000
    7        9.675274   0.000000
    8        9.875097   0.000000
 
  0.3571429E+00  0.3571429E+00  0.0000000E+00  0.2186589E-02
    1       -4.756474   1.000000
    2       -0.104481   1.000000
    3        2.543916   1.000000
    4        2.543916   1.000000
    5        5.717374   0.000000
    6        6.504127   0.000000
    7       11.299669   0.000000
    8       11.299669   0.000000
 
  0.4285714E+00  0.3571429E+00  0.0000000E+00  0.8746356E-02
    1       -4.541935   1.000000
    2       -0.462687   1.000000
    3        2.281470   1.000000
    4        2.458356   1.000000
    5        5.803437   0.000000
    6        6.426859   0.000000
    7       11.401398   0.000000
    8       11.578538   0.000000
 
  0.5000000E+00  0.3571429E+00  0.0000000E+00  0.8746356E-02
    1       -4.355932   1.000000
    2       -0.718949   1.000000
    3        1.851003   1.000000
    4        2.459299   1.000000
    5        5.922359   0.000000
    6        6.916662   0.000000
    7       11.231889   0.000000
    8       11.486493   0.000000
 
 -0.4285714E+00  0.3571429E+00  0.0000000E+00  0.8746356E-02
    1       -4.258785   1.000000
    2       -0.811957   1.000000
    3        1.446061   1.000000
    4        2.546565   1.000000
    5        6.020447   0.000000
    6        7.834820   0.000000
    7       11.046778   0.000000
    8       11.196879   0.000000
 
 -0.3571429E+00  0.3571429E+00  0.0000000E+00  0.4373178E-02
    1       -4.287714   1.000000
    2       -0.748243   1.000000
    3        1.216447   1.000000
    4        2.713592   1.000000
    5        6.191286   0.000000
    6        8.957850   0.000000
    7       10.691118   0.000000
    8       10.770608   0.000000
 
  0.4285714E+00  0.4285714E+00  0.0000000E+00  0.2186589E-02
    1       -4.377731   1.000000
    2       -0.736013   1.000000
    3        2.350892   1.000000
    4        2.350892   1.000000
    5        5.636098   0.000000
    6        6.049774   0.000000
    7       12.281061   0.000000
    8       12.281061   0.000000
 
  0.5000000E+00  0.4285714E+00  0.0000000E+00  0.8746356E-02
    1       -4.252467   1.000000
    2       -0.907031   1.000000
    3        2.132941   1.000000
    4        2.329879   1.000000
    5        5.754224   0.000000
    6        6.120668   0.000000
    7       12.360532   0.000000
    8       12.417601   0.000000
 
 -0.4285714E+00  0.4285714E+00  0.0000000E+00  0.4373178E-02
    1       -4.209037   1.000000
    2       -0.920091   1.000000
    3        1.749415   1.000000
    4        2.396701   1.000000
    5        5.855998   0.000000
    6        6.812625   0.000000
    7       12.011999   0.000000
    8       12.017953   0.000000
 
  0.5000000E+00  0.5000000E+00  0.0000000E+00  0.1093294E-02
    1       -4.211759   1.000000
    2       -0.986855   1.000000
    3        2.285718   1.000000
    4        2.285718   1.000000
    5        5.671521   0.000000
    6        5.830979   0.000000
    7       12.851422   0.000000
    8       12.851422   0.000000
 
  0.2142857E+00  0.1428571E+00  0.7142857E-01  0.8746356E-02
    1       -5.781761   1.000000
    2        2.296934   1.000000
    3        3.523609   1.000000
    4        3.997548   1.000000
    5        6.838551   0.000000
    6        7.278293   0.000000
    7        8.275838   0.000000
    8        8.741791   0.000000
 
  0.2857143E+00  0.1428571E+00  0.7142857E-01  0.1749271E-01
    1       -5.574573   1.000000
    2        1.479706   1.000000
    3        3.154859   1.000000
    4        3.853702   1.000000
    5        6.843769   0.000000
    6        7.517745   0.000000
    7        8.590470   0.000000
    8        9.081477   0.000000
 
  0.3571429E+00  0.1428571E+00  0.7142857E-01  0.1749271E-01
    1       -5.308932   1.000000
    2        0.641624   1.000000
    3        2.905449   1.000000
    4        3.653663   1.000000
    5        6.704110   0.000000
    6        7.804643   0.000000
    7        8.736645   0.000000
    8        9.407280   0.000000
 
  0.4285714E+00  0.1428571E+00  0.7142857E-01  0.1749271E-01
    1       -5.021863   1.000000
    2       -0.089294   1.000000
    3        2.746040   1.000000
    4        3.465452   1.000000
    5        6.564835   0.000000
    6        7.902061   0.000000
    7        8.710973   0.000000
    8       10.029862   0.000000
 
  0.5000000E+00  0.1428571E+00  0.7142857E-01  0.1749271E-01
    1       -4.781556   1.000000
    2       -0.606420   1.000000
    3        2.659128   1.000000
    4        3.334163   1.000000
    5        6.471606   0.000000
    6        7.886192   0.000000
    7        8.653073   0.000000
    8       10.825071   0.000000
 
 -0.4285714E+00  0.1428571E+00  0.7142857E-01  0.8746356E-02
    1       -4.683569   1.000000
    2       -0.798181   1.000000
    3        2.631974   1.000000
    4        3.287096   1.000000
    5        6.439309   0.000000
    6        7.870208   0.000000
    7        8.627018   0.000000
    8       11.300893   0.000000
 
  0.2857143E+00  0.2142857E+00  0.7142857E-01  0.8746356E-02
    1       -5.501592   1.000000
    2        1.433660   1.000000
    3        3.045312   1.000000
    4        3.456210   1.000000
    5        6.636506   0.000000
    6        7.558190   0.000000
    7        8.971330   0.000000
    8        9.205421   0.000000
 
  0.3571429E+00  0.2142857E+00  0.7142857E-01  0.1749271E-01
    1       -5.258662   1.000000
    2        0.753068   1.000000
    3        2.672422   1.000000
    4        3.292748   1.000000
    5        6.776229   0.000000
    6        7.687427   0.000000
    7        8.838018   0.000000
    8        9.514875   0.000000
 
  0.4285714E+00  0.2142857E+00  0.7142857E-01  0.1749271E-01
    1       -4.982112   1.000000
    2        0.086752   1.000000
    3        2.393834   1.000000
    4        3.121831   1.000000
    5        6.795010   0.000000
    6        8.011747   0.000000
    7        8.861090   0.000000
    8        9.601432   0.000000
 
  0.5000000E+00  0.2142857E+00  0.7142857E-01  0.1749271E-01
    1       -4.727785   1.000000
    2       -0.443290   1.000000
    3        2.187418   1.000000
    4        3.020353   1.000000
    5        6.769087   0.000000
    6        8.073858   0.000000
    7        9.305357   0.000000
    8        9.722837   0.000000
 
 -0.4285714E+00  0.2142857E+00  0.7142857E-01  0.1749271E-01
    1       -4.581822   1.000000
    2       -0.717158   1.000000
    3        2.048526   1.000000
    4        3.017888   1.000000
    5        6.784040   0.000000
    6        8.011499   0.000000
    7        9.347466   0.000000
    8       10.554138   0.000000
 
 -0.3571429E+00  0.2142857E+00  0.7142857E-01  0.1749271E-01
    1       -4.616691   1.000000
    2       -0.650755   1.000000
    3        1.989390   1.000000
    4        3.112451   1.000000
    5        6.856067   0.000000
    6        7.984388   0.000000
    7        9.283526   0.000000
    8       10.811634   0.000000
 
 -0.2857143E+00  0.2142857E+00  0.7142857E-01  0.1749271E-01
    1       -4.812954   1.000000
    2       -0.270518   1.000000
    3        2.032023   1.000000
    4        3.285597   1.000000
    5        6.973977   0.000000
    6        7.996218   0.000000
    7        9.183737   0.000000
    8        9.945417   0.000000
 
 -0.2142857E+00  0.2142857E+00  0.7142857E-01  0.1749271E-01
    1       -5.083529   1.000000
    2        0.304685   1.000000
    3        2.209996   1.000000
    4        3.505870   1.000000
    5        7.105495   0.000000
    6        7.916035   0.000000
    7        8.988807   0.000000
    8        9.369655   0.000000
 
 -0.1428571E+00  0.2142857E+00  0.7142857E-01  0.8746356E-02
    1       -5.352334   1.000000
    2        0.929953   1.000000
    3        2.575073   1.000000
    4        3.721616   1.000000
    5        7.137676   0.000000
    6        7.623270   0.000000
    7        8.947421   0.000000
    8        8.980153   0.000000
 
  0.3571429E+00  0.2857143E+00  0.7142857E-01  0.8746356E-02
    1       -5.135742   1.000000
    2        0.601283   1.000000
    3        2.634996   1.000000
    4        2.940992   1.000000
    5        6.299642   0.000000
    6        7.297596   0.000000
    7        9.498916   0.000000
    8       10.227270   0.000000
 
  0.4285714E+00  0.2857143E+00  0.7142857E-01  0.1749271E-01
    1       -4.880329   1.000000
    2        0.077969   1.000000
    3        2.261449   1.000000
    4        2.784122   1.000000
    5        6.490891   0.000000
    6        7.464117   0.000000
    7        9.305148   0.000000
    8       10.500213   0.000000
 
  0.5000000E+00  0.2857143E+00  0.7142857E-01  0.1749271E-01
    1       -4.630989   1.000000
    2       -0.375419   1.000000
    3        1.914043   1.000000
    4        2.696788   1.000000
    5        6.562844   0.000000
    6        8.120937   0.000000
    7        9.102451   0.000000
    8       10.481410   0.000000
 
 -0.4285714E+00  0.2857143E+00  0.7142857E-01  0.1749271E-01
    1       -4.460844   1.000000
    2       -0.653888   1.000000
    3        1.640762   1.000000
    4        2.713996   1.000000
    5        6.625760   0.000000
    6        8.744637   0.000000
    7        9.257430   0.000000
    8       10.360756   0.000000
 
 -0.3571429E+00  0.2857143E+00  0.7142857E-01  0.1749271E-01
    1       -4.443976   1.000000
    2       -0.671808   1.000000
    3        1.485887   1.000000
    4        2.829090   1.000000
    5        6.750984   0.000000
    6        8.692592   0.000000
    7       10.026860   0.000000
    8       10.411546   0.000000
 
 -0.2857143E+00  0.2857143E+00  0.7142857E-01  0.1749271E-01
    1       -4.588145   1.000000
    2       -0.437417   1.000000
    3        1.493125   1.000000
    4        3.023606   1.000000
    5        6.935646   0.000000
    6        8.605762   0.000000
    7        9.575028   0.000000
    8       10.295123   0.000000
 
 -0.2142857E+00  0.2857143E+00  0.7142857E-01  0.8746356E-02
    1       -4.826514   1.000000
    2       -0.068343   1.000000
    3        1.720348   1.000000
    4        3.266956   1.000000
    5        7.123689   0.000000
    6        8.347719   0.000000
    7        9.055154   0.000000
    8        9.855722   0.000000
 
  0.4285714E+00  0.3571429E+00  0.7142857E-01  0.8746356E-02
    1       -4.726465   1.000000
    2       -0.150648   1.000000
    3        2.334012   1.000000
    4        2.535573   1.000000
    5        6.067733   0.000000
    6        6.772851   0.000000
    7       10.383382   0.000000
    8       11.276481   0.000000
 
  0.5000000E+00  0.3571429E+00  0.7142857E-01  0.1749271E-01
    1       -4.501971   1.000000
    2       -0.496612   1.000000
    3        1.956963   1.000000
    4        2.429516   1.000000
    5        6.272947   0.000000
    6        7.088515   0.000000
    7       10.168953   0.000000
    8       11.494576   0.000000
 
 -0.4285714E+00  0.3571429E+00  0.7142857E-01  0.1749271E-01
    1       -4.338177   1.000000
    2       -0.709030   1.000000
    3        1.561980   1.000000
    4        2.447162   1.000000
    5        6.366119   0.000000
    6        7.922718   0.000000
    7        9.945546   0.000000
    8       11.330632   0.000000
 
 -0.3571429E+00  0.3571429E+00  0.7142857E-01  0.1749271E-01
    1       -4.297398   1.000000
    2       -0.738161   1.000000
    3        1.290901   1.000000
    4        2.565702   1.000000
    5        6.501870   0.000000
    6        8.985950   0.000000
    7        9.758863   0.000000
    8       10.712106   0.000000
 
 -0.2857143E+00  0.3571429E+00  0.7142857E-01  0.8746356E-02
    1       -4.395554   1.000000
    2       -0.613033   1.000000
    3        1.242492   1.000000
    4        2.766982   1.000000
    5        6.707180   0.000000
    6        9.417200   0.000000
    7        9.760901   0.000000
    8       10.340207   0.000000
 
  0.5000000E+00  0.4285714E+00  0.7142857E-01  0.8746356E-02
    1       -4.363714   1.000000
    2       -0.724457   1.000000
    3        2.160948   1.000000
    4        2.271469   1.000000
    5        5.972316   0.000000
    6        6.359327   0.000000
    7       11.343792   0.000000
    8       12.237647   0.000000
 
 -0.4285714E+00  0.4285714E+00  0.7142857E-01  0.1749271E-01
    1       -4.242008   1.000000
    2       -0.856087   1.000000
    3        1.793053   1.000000
    4        2.253571   1.000000
    5        6.160615   0.000000
    6        6.875138   0.000000
    7       11.107915   0.000000
    8       11.994040   0.000000
 
 -0.3571429E+00  0.4285714E+00  0.7142857E-01  0.8746356E-02
    1       -4.218870   1.000000
    2       -0.837456   1.000000
    3        1.433213   1.000000
    4        2.365990   1.000000
    5        6.294789   0.000000
    6        7.844224   0.000000
    7       10.741279   0.000000
    8       11.084819   0.000000
 
 -0.4285714E+00  0.5000000E+00  0.7142857E-01  0.4373178E-02
    1       -4.206843   1.000000
    2       -0.952810   1.000000
    3        2.112769   1.000000
    4        2.172100   1.000000
    5        5.982387   0.000000
    6        6.174290   0.000000
    7       12.117768   0.000000
    8       12.403494   0.000000
 
  0.4285714E+00  0.2857143E+00  0.1428571E+00  0.8746356E-02
    1       -5.012855   1.000000
    2        0.288465   1.000000
    3        2.174563   1.000000
    4        3.124800   1.000000
    5        7.127021   0.000000
    6        7.717267   0.000000
    7        8.616054   0.000000
    8       10.068046   0.000000
 
  0.5000000E+00  0.2857143E+00  0.1428571E+00  0.1749271E-01
    1       -4.751248   1.000000
    2       -0.183055   1.000000
    3        1.849097   1.000000
    4        2.912376   1.000000
    5        7.298567   0.000000
    6        7.963730   0.000000
    7        8.638206   0.000000
    8       10.374972   0.000000
 
 -0.4285714E+00  0.2857143E+00  0.1428571E+00  0.1749271E-01
    1       -4.536482   1.000000
    2       -0.552093   1.000000
    3        1.678143   1.000000
    4        2.750677   1.000000
    5        7.310697   0.000000
    6        7.935986   0.000000
    7        9.369026   0.000000
    8       10.445880   0.000000
 