       N       E                     dE             d eps       ncg     rms          rms(c)
DAV:   1     0.129776076785E+02    0.12978E+02   -0.27955E+03  1664   0.728E+02
DAV:   2    -0.782384621212E+01   -0.20801E+02   -0.20185E+02  2256   0.823E+01
DAV:   3    -0.827277901758E+01   -0.44893E+00   -0.44893E+00  2264   0.140E+01
DAV:   4    -0.827537118410E+01   -0.25922E-02   -0.25922E-02  2456   0.131E+00
DAV:   5    -0.827538301534E+01   -0.11831E-04   -0.11832E-04  2296   0.729E-02    0.206E+00
RMM:   6    -0.821563413203E+01    0.59749E-01   -0.52521E-02  1664   0.129E+00    0.124E+00
RMM:   7    -0.819770062011E+01    0.17934E-01   -0.63401E-02  1664   0.153E+00    0.220E-01
RMM:   8    -0.819836712150E+01   -0.66650E-03   -0.36779E-03  1665   0.434E-01    0.501E-02
RMM:   9    -0.819875160570E+01   -0.38448E-03   -0.62145E-04  1664   0.173E-01    0.153E-02
RMM:  10    -0.819875728379E+01   -0.56781E-05   -0.52089E-05  1663   0.531E-02
   1 F= -.81987573E+01 E0= -.81987573E+01  d E =-.819876E+01
       N       E                     dE             d eps       ncg     rms          rms(c)
DAV:   1    -0.819876885781E+01   -0.17252E-04   -0.41711E-05  2408   0.370E-02    0.450E-03
RMM:   2    -0.819876786315E+01    0.99467E-06   -0.76302E-07   743   0.719E-03    0.254E-03
RMM:   3    -0.819876745680E+01    0.40635E-06   -0.15412E-06   796   0.718E-03    0.480E-04
RMM:   4    -0.819876732823E+01    0.12857E-06    0.00000E+00    93   0.335E-03    0.180E-04
RMM:   5    -0.819876733118E+01   -0.29571E-08   -0.11759E-08    48   0.334E-03
   2 F= -.81987673E+01 E0= -.81987673E+01  d E =-.100474E-04
       N       E                     dE             d eps       ncg     rms          rms(c)
DAV:   1    -0.819877318696E+01   -0.58587E-05   -0.47863E-05  1824   0.360E-02    0.462E-03
RMM:   2    -0.819877182232E+01    0.13646E-05   -0.14079E-06   831   0.828E-03    0.236E-03
RMM:   3    -0.819877107283E+01    0.74949E-06   -0.25424E-07   358   0.538E-03    0.676E-04
RMM:   4    -0.819877098059E+01    0.92241E-07   -0.95188E-07   493   0.549E-03    0.610E-04
RMM:   5    -0.819877095225E+01    0.28335E-07    0.00000E+00     0   0.270E-03
   3 F= -.81987710E+01 E0= -.81987710E+01  d E =-.136685E-04
