unknown system                          
           1
     0.000000    3.115977    3.115977
     3.115977    0.000000    3.115977
     3.115977    3.115977    0.000000
   Al   Sb
   1   1
Direct configuration=     1
   0.25000000  0.25000000  0.25000000
   0.00000000  0.00000000  0.00000000
unknown system                          
           1
    -0.000000    3.116390    3.116390
     3.116390   -0.000000    3.116390
     3.116390    3.116390   -0.000000
   Al   Sb
   1   1
Direct configuration=     2
   0.25000000  0.25000000  0.25000000
  -0.00000000 -0.00000000  0.00000000
unknown system                          
           1
    -0.000000    3.116817    3.116817
     3.116817   -0.000000    3.116817
     3.116817    3.116817   -0.000000
   Al   Sb
   1   1
Direct configuration=     3
   0.25000000  0.25000000  0.25000000
  -0.00000000 -0.00000000  0.00000000
