unknown system                          
            1
    -1.428129    1.428129    1.428129
     1.428129   -1.428129    1.428129
     1.428129    1.428129   -1.428129
   Fe
     1
Direct configuration=     1
   0.00000000  0.00000000  0.00000000
