   2   2   1   0
  0.9827491E+01  0.3029209E-09  0.3029209E-09  0.3029209E-09  0.0000000E+00
   1.0000000000000000E-004
  CAR 
 unknown system                          
     38.23146753    -16.16641967  301      5.14086167      1.00000000
    -16.166  0.0000E+00  0.0000E+00  0.0000E+00  0.0000E+00
    -15.985  0.0000E+00  0.0000E+00  0.0000E+00  0.0000E+00
    -15.804  0.0000E+00  0.0000E+00  0.0000E+00  0.0000E+00
    -15.622  0.0000E+00  0.0000E+00  0.0000E+00  0.0000E+00
    -15.441  0.0000E+00  0.0000E+00  0.0000E+00  0.0000E+00
    -15.260  0.0000E+00  0.0000E+00  0.0000E+00  0.0000E+00
    -15.078  0.0000E+00  0.0000E+00  0.0000E+00  0.0000E+00
    -14.897  0.0000E+00  0.0000E+00  0.0000E+00  0.0000E+00
    -14.716  0.0000E+00  0.0000E+00  0.0000E+00  0.0000E+00
    -14.534  0.0000E+00  0.0000E+00  0.0000E+00  0.0000E+00
    -14.353  0.0000E+00  0.0000E+00  0.0000E+00  0.0000E+00
    -14.172  0.0000E+00  0.0000E+00  0.0000E+00  0.0000E+00
    -13.991  0.0000E+00  0.0000E+00  0.0000E+00  0.0000E+00
    -13.809  0.0000E+00  0.0000E+00  0.0000E+00  0.0000E+00
    -13.628  0.6650E-01  0.6674E-01  0.2290E-02  0.2311E-02
    -13.447  0.1834E+00  0.1836E+00  0.2240E-01  0.2245E-01
    -13.265  0.2405E+00  0.2407E+00  0.5739E-01  0.5747E-01
    -13.084  0.3440E+00  0.3443E+00  0.1094E+00  0.1095E+00
    -12.903  0.5245E+00  0.5249E+00  0.1855E+00  0.1856E+00
    -12.721  0.8574E+00  0.8583E+00  0.3040E+00  0.3043E+00
    -12.540  0.2852E+01  0.2885E+01  0.5428E+00  0.5437E+00
    -12.359  0.1950E+01  0.1918E+01  0.1000E+01  0.1000E+01
    -12.177  0.0000E+00  0.0000E+00  0.1000E+01  0.1000E+01
    -11.996  0.0000E+00  0.0000E+00  0.1000E+01  0.1000E+01
    -11.815  0.0000E+00  0.0000E+00  0.1000E+01  0.1000E+01
    -11.633  0.0000E+00  0.0000E+00  0.1000E+01  0.1000E+01
    -11.452  0.0000E+00  0.0000E+00  0.1000E+01  0.1000E+01
    -11.271  0.0000E+00  0.0000E+00  0.1000E+01  0.1000E+01
    -11.089  0.0000E+00  0.0000E+00  0.1000E+01  0.1000E+01
    -10.908  0.0000E+00  0.0000E+00  0.1000E+01  0.1000E+01
    -10.727  0.0000E+00  0.0000E+00  0.1000E+01  0.1000E+01
    -10.545  0.0000E+00  0.0000E+00  0.1000E+01  0.1000E+01
    -10.364  0.0000E+00  0.0000E+00  0.1000E+01  0.1000E+01
    -10.183  0.0000E+00  0.0000E+00  0.1000E+01  0.1000E+01
    -10.001  0.0000E+00  0.0000E+00  0.1000E+01  0.1000E+01
     -9.820  0.0000E+00  0.0000E+00  0.1000E+01  0.1000E+01
     -9.639  0.0000E+00  0.0000E+00  0.1000E+01  0.1000E+01
     -9.457  0.0000E+00  0.0000E+00  0.1000E+01  0.1000E+01
     -9.276  0.0000E+00  0.0000E+00  0.1000E+01  0.1000E+01
     -9.095  0.0000E+00  0.0000E+00  0.1000E+01  0.1000E+01
     -8.913  0.0000E+00  0.0000E+00  0.1000E+01  0.1000E+01
     -8.732  0.0000E+00  0.0000E+00  0.1000E+01  0.1000E+01
     -8.551  0.0000E+00  0.0000E+00  0.1000E+01  0.1000E+01
     -8.369  0.0000E+00  0.0000E+00  0.1000E+01  0.1000E+01
     -8.188  0.0000E+00  0.0000E+00  0.1000E+01  0.1000E+01
     -8.007  0.0000E+00  0.0000E+00  0.1000E+01  0.1000E+01
     -7.825  0.0000E+00  0.0000E+00  0.1000E+01  0.1000E+01
     -7.644  0.0000E+00  0.0000E+00  0.1000E+01  0.1000E+01
     -7.463  0.0000E+00  0.0000E+00  0.1000E+01  0.1000E+01
     -7.281  0.0000E+00  0.0000E+00  0.1000E+01  0.1000E+01
     -7.100  0.0000E+00  0.0000E+00  0.1000E+01  0.1000E+01
     -6.919  0.0000E+00  0.0000E+00  0.1000E+01  0.1000E+01
     -6.737  0.0000E+00  0.0000E+00  0.1000E+01  0.1000E+01
     -6.556  0.0000E+00  0.0000E+00  0.1000E+01  0.1000E+01
     -6.375  0.0000E+00  0.0000E+00  0.1000E+01  0.1000E+01
     -6.193  0.0000E+00  0.0000E+00  0.1000E+01  0.1000E+01
     -6.012  0.0000E+00  0.0000E+00  0.1000E+01  0.1000E+01
     -5.831  0.0000E+00  0.0000E+00  0.1000E+01  0.1000E+01
     -5.649  0.0000E+00  0.0000E+00  0.1000E+01  0.1000E+01
     -5.468  0.0000E+00  0.0000E+00  0.1000E+01  0.1000E+01
     -5.287  0.0000E+00  0.0000E+00  0.1000E+01  0.1000E+01
     -5.106  0.0000E+00  0.0000E+00  0.1000E+01  0.1000E+01
     -4.924  0.0000E+00  0.0000E+00  0.1000E+01  0.1000E+01
     -4.743  0.0000E+00  0.0000E+00  0.1000E+01  0.1000E+01
     -4.562  0.0000E+00  0.0000E+00  0.1000E+01  0.1000E+01
     -4.380  0.0000E+00  0.0000E+00  0.1000E+01  0.1000E+01
     -4.199  0.0000E+00  0.0000E+00  0.1000E+01  0.1000E+01
     -4.018  0.0000E+00  0.0000E+00  0.1000E+01  0.1000E+01
     -3.836  0.0000E+00  0.0000E+00  0.1000E+01  0.1000E+01
     -3.655  0.0000E+00  0.0000E+00  0.1000E+01  0.1000E+01
     -3.474  0.0000E+00  0.0000E+00  0.1000E+01  0.1000E+01
     -3.292  0.0000E+00  0.0000E+00  0.1000E+01  0.1000E+01
     -3.111  0.0000E+00  0.0000E+00  0.1000E+01  0.1000E+01
     -2.930  0.0000E+00  0.0000E+00  0.1000E+01  0.1000E+01
     -2.748  0.0000E+00  0.0000E+00  0.1000E+01  0.1000E+01
     -2.567  0.0000E+00  0.0000E+00  0.1000E+01  0.1000E+01
     -2.386  0.0000E+00  0.0000E+00  0.1000E+01  0.1000E+01
     -2.204  0.0000E+00  0.0000E+00  0.1000E+01  0.1000E+01
     -2.023  0.0000E+00  0.0000E+00  0.1000E+01  0.1000E+01
     -1.842  0.0000E+00  0.0000E+00  0.1000E+01  0.1000E+01
     -1.660  0.1170E-01  0.1273E-01  0.1000E+01  0.1000E+01
     -1.479  0.1744E+00  0.1745E+00  0.1018E+01  0.1018E+01
     -1.298  0.2420E+00  0.2421E+00  0.1054E+01  0.1054E+01
     -1.116  0.3390E+00  0.3391E+00  0.1106E+01  0.1106E+01
     -0.935  0.4981E+00  0.4985E+00  0.1180E+01  0.1180E+01
     -0.754  0.8960E+00  0.8976E+00  0.1299E+01  0.1299E+01
     -0.572  0.1051E+01  0.1051E+01  0.1459E+01  0.1459E+01
     -0.391  0.1068E+01  0.1068E+01  0.1651E+01  0.1652E+01
     -0.210  0.8237E+00  0.8236E+00  0.1804E+01  0.1804E+01
     -0.028  0.2800E+00  0.2797E+00  0.1886E+01  0.1886E+01
      0.153  0.3872E+00  0.3879E+00  0.1929E+01  0.1929E+01
      0.334  0.1539E+01  0.1543E+01  0.2083E+01  0.2083E+01
      0.516  0.2372E+01  0.2372E+01  0.2393E+01  0.2394E+01
      0.697  0.3075E+01  0.3068E+01  0.2854E+01  0.2855E+01
      0.878  0.1481E+01  0.1480E+01  0.3176E+01  0.3177E+01
      1.060  0.1161E+01  0.1160E+01  0.3409E+01  0.3410E+01
      1.241  0.9076E+00  0.9070E+00  0.3594E+01  0.3595E+01
      1.422  0.7618E+00  0.7614E+00  0.3742E+01  0.3743E+01
      1.604  0.5406E+00  0.5402E+00  0.3861E+01  0.3861E+01
      1.785  0.3306E+00  0.3298E+00  0.3942E+01  0.3942E+01
      1.966  0.2380E+00  0.2381E+00  0.3987E+01  0.3987E+01
      2.148  0.6824E+00  0.6814E+00  0.4056E+01  0.4057E+01
      2.329  0.1436E+01  0.1454E+01  0.4231E+01  0.4231E+01
      2.510  0.2092E+01  0.2059E+01  0.4503E+01  0.4503E+01
      2.692  0.4756E+01  0.4748E+01  0.4991E+01  0.4992E+01
      2.873  0.7503E+01  0.7490E+01  0.5864E+01  0.5865E+01
      3.054  0.2028E+01  0.2031E+01  0.6119E+01  0.6119E+01
      3.235  0.6265E+01  0.6255E+01  0.6673E+01  0.6674E+01
      3.417  0.1425E+01  0.1424E+01  0.6999E+01  0.6999E+01
      3.598  0.9677E+00  0.9724E+00  0.7158E+01  0.7159E+01
      3.779  0.1373E+01  0.1364E+01  0.7364E+01  0.7365E+01
      3.961  0.8572E+00  0.8568E+00  0.7551E+01  0.7552E+01
      4.142  0.8012E+00  0.8011E+00  0.7700E+01  0.7700E+01
      4.323  0.7845E+00  0.7845E+00  0.7843E+01  0.7844E+01
      4.505  0.8588E+00  0.8590E+00  0.7990E+01  0.7990E+01
      4.686  0.8166E+00  0.8165E+00  0.8142E+01  0.8143E+01
      4.867  0.7849E+00  0.7848E+00  0.8288E+01  0.8288E+01
      5.049  0.7758E+00  0.7759E+00  0.8429E+01  0.8429E+01
      5.230  0.7534E+00  0.7535E+00  0.8567E+01  0.8568E+01
      5.411  0.7553E+00  0.7557E+00  0.8703E+01  0.8704E+01
      5.593  0.7373E+00  0.7369E+00  0.8842E+01  0.8843E+01
      5.774  0.6108E+00  0.6054E+00  0.8979E+01  0.8979E+01
      5.955  0.4490E-02  0.4490E-02  0.9000E+01  0.9000E+01
      6.137  0.0000E+00  0.0000E+00  0.9000E+01  0.9000E+01
      6.318  0.0000E+00  0.0000E+00  0.9000E+01  0.9000E+01
      6.499  0.0000E+00  0.0000E+00  0.9000E+01  0.9000E+01
      6.681  0.0000E+00  0.0000E+00  0.9000E+01  0.9000E+01
      6.862  0.0000E+00  0.0000E+00  0.9000E+01  0.9000E+01
      7.043  0.4886E-04  0.4936E-04  0.9000E+01  0.9000E+01
      7.225  0.3885E-02  0.3890E-02  0.9000E+01  0.9000E+01
      7.406  0.7206E-02  0.7208E-02  0.9001E+01  0.9001E+01
      7.587  0.1004E-01  0.1005E-01  0.9003E+01  0.9003E+01
      7.769  0.1316E-01  0.1316E-01  0.9005E+01  0.9005E+01
      7.950  0.1591E-01  0.1591E-01  0.9008E+01  0.9008E+01
      8.131  0.1897E-01  0.1898E-01  0.9011E+01  0.9011E+01
      8.313  0.2220E-01  0.2220E-01  0.9015E+01  0.9015E+01
      8.494  0.2577E-01  0.2578E-01  0.9019E+01  0.9019E+01
      8.675  0.2964E-01  0.2964E-01  0.9024E+01  0.9024E+01
      8.857  0.3368E-01  0.3369E-01  0.9030E+01  0.9030E+01
      9.038  0.3792E-01  0.3793E-01  0.9036E+01  0.9036E+01
      9.219  0.4288E-01  0.4289E-01  0.9043E+01  0.9043E+01
      9.401  0.4827E-01  0.4828E-01  0.9052E+01  0.9052E+01
      9.582  0.5405E-01  0.5405E-01  0.9061E+01  0.9061E+01
      9.763  0.6018E-01  0.6018E-01  0.9071E+01  0.9071E+01
      9.945  0.6725E-01  0.6726E-01  0.9083E+01  0.9083E+01
     10.126  0.7530E-01  0.7531E-01  0.9096E+01  0.9096E+01
     10.307  0.8423E-01  0.8424E-01  0.9110E+01  0.9110E+01
     10.489  0.9407E-01  0.9408E-01  0.9126E+01  0.9126E+01
     10.670  0.1054E+00  0.1055E+00  0.9144E+01  0.9144E+01
     10.851  0.1195E+00  0.1195E+00  0.9165E+01  0.9165E+01
     11.033  0.1363E+00  0.1363E+00  0.9188E+01  0.9188E+01
     11.214  0.1569E+00  0.1569E+00  0.9214E+01  0.9214E+01
     11.395  0.2074E+00  0.2074E+00  0.9246E+01  0.9246E+01
     11.577  0.3271E+00  0.3272E+00  0.9294E+01  0.9294E+01
     11.758  0.3519E+00  0.3519E+00  0.9357E+01  0.9357E+01
     11.939  0.3398E+00  0.3398E+00  0.9420E+01  0.9420E+01
     12.120  0.3325E+00  0.3325E+00  0.9481E+01  0.9481E+01
     12.302  0.3249E+00  0.3249E+00  0.9541E+01  0.9541E+01
     12.483  0.3156E+00  0.3156E+00  0.9598E+01  0.9598E+01
     12.664  0.3063E+00  0.3063E+00  0.9655E+01  0.9655E+01
     12.846  0.2927E+00  0.2927E+00  0.9709E+01  0.9709E+01
     13.027  0.2829E+00  0.2829E+00  0.9761E+01  0.9762E+01
     13.208  0.2807E+00  0.2807E+00  0.9812E+01  0.9813E+01
     13.390  0.2838E+00  0.2839E+00  0.9863E+01  0.9863E+01
     13.571  0.3106E+00  0.3106E+00  0.9918E+01  0.9918E+01
     13.752  0.2210E+00  0.2209E+00  0.9966E+01  0.9966E+01
     13.934  0.9934E-01  0.9924E-01  0.9995E+01  0.9995E+01
     14.115  0.3172E-02  0.3200E-02  0.1000E+02  0.1000E+02
     14.296  0.1142E+00  0.1143E+00  0.1001E+02  0.1001E+02
     14.478  0.2429E+00  0.2430E+00  0.1004E+02  0.1004E+02
     14.659  0.3240E+00  0.3240E+00  0.1009E+02  0.1009E+02
     14.840  0.4073E+00  0.4075E+00  0.1016E+02  0.1016E+02
     15.022  0.4106E+00  0.4105E+00  0.1023E+02  0.1023E+02
     15.203  0.3495E+00  0.3495E+00  0.1030E+02  0.1030E+02
     15.384  0.3693E+00  0.3694E+00  0.1036E+02  0.1036E+02
     15.566  0.3708E+00  0.3708E+00  0.1043E+02  0.1043E+02
     15.747  0.4389E+00  0.4390E+00  0.1050E+02  0.1050E+02
     15.928  0.5464E+00  0.5467E+00  0.1059E+02  0.1059E+02
     16.110  0.7540E+00  0.7546E+00  0.1071E+02  0.1071E+02
     16.291  0.6319E+00  0.6319E+00  0.1082E+02  0.1082E+02
     16.472  0.5953E+00  0.5952E+00  0.1093E+02  0.1093E+02
     16.654  0.5706E+00  0.5706E+00  0.1103E+02  0.1103E+02
     16.835  0.5260E+00  0.5259E+00  0.1113E+02  0.1113E+02
     17.016  0.5044E+00  0.5044E+00  0.1122E+02  0.1122E+02
     17.198  0.4684E+00  0.4683E+00  0.1131E+02  0.1131E+02
     17.379  0.3787E+00  0.3786E+00  0.1139E+02  0.1139E+02
     17.560  0.3269E+00  0.3269E+00  0.1145E+02  0.1145E+02
     17.742  0.2925E+00  0.2925E+00  0.1151E+02  0.1151E+02
     17.923  0.2597E+00  0.2597E+00  0.1156E+02  0.1156E+02
     18.104  0.2409E+00  0.2409E+00  0.1160E+02  0.1160E+02
     18.286  0.2169E+00  0.2169E+00  0.1164E+02  0.1164E+02
     18.467  0.1970E+00  0.1970E+00  0.1168E+02  0.1168E+02
     18.648  0.1840E+00  0.1840E+00  0.1172E+02  0.1172E+02
     18.830  0.1923E+00  0.1923E+00  0.1175E+02  0.1175E+02
     19.011  0.1956E+00  0.1956E+00  0.1179E+02  0.1179E+02
     19.192  0.2032E+00  0.2032E+00  0.1182E+02  0.1182E+02
     19.374  0.2054E+00  0.2054E+00  0.1186E+02  0.1186E+02
     19.555  0.3145E+00  0.3146E+00  0.1190E+02  0.1190E+02
     19.736  0.4409E+00  0.4410E+00  0.1197E+02  0.1197E+02
     19.918  0.7396E+00  0.7395E+00  0.1207E+02  0.1207E+02
     20.099  0.7035E+00  0.7035E+00  0.1220E+02  0.1220E+02
     20.280  0.7082E+00  0.7082E+00  0.1233E+02  0.1233E+02
     20.461  0.5538E+00  0.5538E+00  0.1245E+02  0.1245E+02
     20.643  0.4648E+00  0.4648E+00  0.1254E+02  0.1254E+02
     20.824  0.4207E+00  0.4207E+00  0.1262E+02  0.1262E+02
     21.005  0.3806E+00  0.3806E+00  0.1269E+02  0.1269E+02
     21.187  0.3593E+00  0.3593E+00  0.1276E+02  0.1276E+02
     21.368  0.3371E+00  0.3371E+00  0.1282E+02  0.1282E+02
     21.549  0.2153E+00  0.2153E+00  0.1287E+02  0.1287E+02
     21.731  0.2012E+00  0.2012E+00  0.1290E+02  0.1290E+02
     21.912  0.1919E+00  0.1919E+00  0.1294E+02  0.1294E+02
     22.093  0.1963E+00  0.1963E+00  0.1297E+02  0.1297E+02
     22.275  0.1840E+00  0.1840E+00  0.1301E+02  0.1301E+02
     22.456  0.1728E+00  0.1728E+00  0.1304E+02  0.1304E+02
     22.637  0.1731E+00  0.1731E+00  0.1307E+02  0.1307E+02
     22.819  0.1800E+00  0.1800E+00  0.1310E+02  0.1310E+02
     23.000  0.1842E+00  0.1842E+00  0.1314E+02  0.1314E+02
     23.181  0.1834E+00  0.1834E+00  0.1317E+02  0.1317E+02
     23.363  0.1887E+00  0.1887E+00  0.1320E+02  0.1320E+02
     23.544  0.1779E+00  0.1778E+00  0.1324E+02  0.1324E+02
     23.725  0.1648E+00  0.1648E+00  0.1327E+02  0.1327E+02
     23.907  0.1735E+00  0.1735E+00  0.1330E+02  0.1330E+02
     24.088  0.1859E+00  0.1859E+00  0.1333E+02  0.1333E+02
     24.269  0.1947E+00  0.1947E+00  0.1337E+02  0.1337E+02
     24.451  0.2041E+00  0.2041E+00  0.1340E+02  0.1340E+02
     24.632  0.2164E+00  0.2164E+00  0.1344E+02  0.1344E+02
     24.813  0.2266E+00  0.2266E+00  0.1348E+02  0.1348E+02
     24.995  0.2325E+00  0.2325E+00  0.1352E+02  0.1352E+02
     25.176  0.2231E+00  0.2231E+00  0.1356E+02  0.1356E+02
     25.357  0.2267E+00  0.2267E+00  0.1360E+02  0.1360E+02
     25.539  0.2442E+00  0.2442E+00  0.1365E+02  0.1365E+02
     25.720  0.2732E+00  0.2732E+00  0.1369E+02  0.1369E+02
     25.901  0.3081E+00  0.3081E+00  0.1375E+02  0.1375E+02
     26.083  0.3418E+00  0.3418E+00  0.1380E+02  0.1380E+02
     26.264  0.3526E+00  0.3527E+00  0.1387E+02  0.1387E+02
     26.445  0.2975E+00  0.2975E+00  0.1393E+02  0.1393E+02
     26.627  0.2464E+00  0.2464E+00  0.1398E+02  0.1398E+02
     26.808  0.2157E+00  0.2157E+00  0.1402E+02  0.1402E+02
     26.989  0.2007E+00  0.2007E+00  0.1406E+02  0.1406E+02
     27.171  0.1484E+00  0.1484E+00  0.1409E+02  0.1409E+02
     27.352  0.1596E+00  0.1596E+00  0.1411E+02  0.1411E+02
     27.533  0.2872E+00  0.2872E+00  0.1416E+02  0.1416E+02
     27.715  0.3162E+00  0.3162E+00  0.1421E+02  0.1421E+02
     27.896  0.4115E+00  0.4115E+00  0.1427E+02  0.1427E+02
     28.077  0.3785E+00  0.3785E+00  0.1434E+02  0.1434E+02
     28.259  0.4072E+00  0.4073E+00  0.1441E+02  0.1441E+02
     28.440  0.3966E+00  0.3966E+00  0.1449E+02  0.1449E+02
     28.621  0.3603E+00  0.3603E+00  0.1456E+02  0.1456E+02
     28.803  0.3624E+00  0.3625E+00  0.1462E+02  0.1462E+02
     28.984  0.3577E+00  0.3577E+00  0.1469E+02  0.1469E+02
     29.165  0.3404E+00  0.3404E+00  0.1475E+02  0.1475E+02
     29.346  0.3253E+00  0.3253E+00  0.1481E+02  0.1481E+02
     29.528  0.3130E+00  0.3130E+00  0.1487E+02  0.1487E+02
     29.709  0.3091E+00  0.3091E+00  0.1493E+02  0.1493E+02
     29.890  0.3354E+00  0.3353E+00  0.1499E+02  0.1499E+02
     30.072  0.2892E+00  0.2892E+00  0.1504E+02  0.1504E+02
     30.253  0.2625E+00  0.2625E+00  0.1509E+02  0.1509E+02
     30.434  0.2426E+00  0.2425E+00  0.1514E+02  0.1514E+02
     30.616  0.2266E+00  0.2266E+00  0.1518E+02  0.1518E+02
     30.797  0.2153E+00  0.2153E+00  0.1522E+02  0.1522E+02
     30.978  0.2086E+00  0.2086E+00  0.1526E+02  0.1526E+02
     31.160  0.2020E+00  0.2020E+00  0.1530E+02  0.1530E+02
     31.341  0.1947E+00  0.1947E+00  0.1533E+02  0.1533E+02
     31.522  0.1866E+00  0.1866E+00  0.1537E+02  0.1537E+02
     31.704  0.1809E+00  0.1809E+00  0.1540E+02  0.1540E+02
     31.885  0.1740E+00  0.1740E+00  0.1543E+02  0.1543E+02
     32.066  0.1691E+00  0.1691E+00  0.1546E+02  0.1546E+02
     32.248  0.1781E+00  0.1782E+00  0.1550E+02  0.1550E+02
     32.429  0.2193E+00  0.2194E+00  0.1553E+02  0.1553E+02
     32.610  0.2702E+00  0.2703E+00  0.1558E+02  0.1558E+02
     32.792  0.1596E+00  0.1594E+00  0.1562E+02  0.1562E+02
     32.973  0.1095E+00  0.1095E+00  0.1564E+02  0.1564E+02
     33.154  0.1281E+00  0.1282E+00  0.1566E+02  0.1566E+02
     33.336  0.3596E+00  0.3599E+00  0.1570E+02  0.1570E+02
     33.517  0.4030E+00  0.4027E+00  0.1578E+02  0.1578E+02
     33.698  0.2765E+00  0.2764E+00  0.1584E+02  0.1584E+02
     33.880  0.2147E+00  0.2147E+00  0.1589E+02  0.1589E+02
     34.061  0.1981E+00  0.1981E+00  0.1592E+02  0.1592E+02
     34.242  0.1891E+00  0.1890E+00  0.1596E+02  0.1596E+02
     34.424  0.9883E-01  0.9871E-01  0.1598E+02  0.1598E+02
     34.605  0.1150E-01  0.1150E-01  0.1599E+02  0.1599E+02
     34.786  0.9070E-02  0.9069E-02  0.1599E+02  0.1599E+02
     34.968  0.7649E-02  0.7648E-02  0.1600E+02  0.1600E+02
     35.149  0.6246E-02  0.6245E-02  0.1600E+02  0.1600E+02
     35.330  0.4861E-02  0.4860E-02  0.1600E+02  0.1600E+02
     35.512  0.3494E-02  0.3493E-02  0.1600E+02  0.1600E+02
     35.693  0.4662E-02  0.4664E-02  0.1600E+02  0.1600E+02
     35.874  0.0000E+00  0.0000E+00  0.1600E+02  0.1600E+02
     36.056  0.0000E+00  0.0000E+00  0.1600E+02  0.1600E+02
     36.237  0.0000E+00  0.0000E+00  0.1600E+02  0.1600E+02
     36.418  0.0000E+00  0.0000E+00  0.1600E+02  0.1600E+02
     36.600  0.0000E+00  0.0000E+00  0.1600E+02  0.1600E+02
     36.781  0.0000E+00  0.0000E+00  0.1600E+02  0.1600E+02
     36.962  0.0000E+00  0.0000E+00  0.1600E+02  0.1600E+02
     37.144  0.0000E+00  0.0000E+00  0.1600E+02  0.1600E+02
     37.325  0.0000E+00  0.0000E+00  0.1600E+02  0.1600E+02
     37.506  0.0000E+00  0.0000E+00  0.1600E+02  0.1600E+02
     37.687  0.0000E+00  0.0000E+00  0.1600E+02  0.1600E+02
     37.869  0.0000E+00  0.0000E+00  0.1600E+02  0.1600E+02
     38.050  0.0000E+00  0.0000E+00  0.1600E+02  0.1600E+02
     38.231  0.0000E+00  0.0000E+00  0.1600E+02  0.1600E+02
     38.23146753    -16.16641967  301      5.14086167      1.00000000
    -16.166  0.0000E+00  0.0000E+00  0.0000E+00  0.0000E+00  0.0000E+00  0.0000E+00  0.0000E+00  0.0000E+00  0.0000E+00  0.0000E+00  0.0000E+00  0.0000E+00  0.0000E+00  0.0000E+00  0.0000E+00  0.0000E+00  0.0000E+00  0.0000E+00
    -15.985  0.0000E+00  0.0000E+00  0.0000E+00  0.0000E+00  0.0000E+00  0.0000E+00  0.0000E+00  0.0000E+00  0.0000E+00  0.0000E+00  0.0000E+00  0.0000E+00  0.0000E+00  0.0000E+00  0.0000E+00  0.0000E+00  0.0000E+00  0.0000E+00
    -15.804  0.0000E+00  0.0000E+00  0.0000E+00  0.0000E+00  0.0000E+00  0.0000E+00  0.0000E+00  0.0000E+00  0.0000E+00  0.0000E+00  0.0000E+00  0.0000E+00  0.0000E+00  0.0000E+00  0.0000E+00  0.0000E+00  0.0000E+00  0.0000E+00
    -15.622  0.0000E+00  0.0000E+00  0.0000E+00  0.0000E+00  0.0000E+00  0.0000E+00  0.0000E+00  0.0000E+00  0.0000E+00  0.0000E+00  0.0000E+00  0.0000E+00  0.0000E+00  0.0000E+00  0.0000E+00  0.0000E+00  0.0000E+00  0.0000E+00
    -15.441  0.0000E+00  0.0000E+00  0.0000E+00  0.0000E+00  0.0000E+00  0.0000E+00  0.0000E+00  0.0000E+00  0.0000E+00  0.0000E+00  0.0000E+00  0.0000E+00  0.0000E+00  0.0000E+00  0.0000E+00  0.0000E+00  0.0000E+00  0.0000E+00
    -15.260  0.0000E+00  0.0000E+00  0.0000E+00  0.0000E+00  0.0000E+00  0.0000E+00  0.0000E+00  0.0000E+00  0.0000E+00  0.0000E+00  0.0000E+00  0.0000E+00  0.0000E+00  0.0000E+00  0.0000E+00  0.0000E+00  0.0000E+00  0.0000E+00
    -15.078  0.0000E+00  0.0000E+00  0.0000E+00  0.0000E+00  0.0000E+00  0.0000E+00  0.0000E+00  0.0000E+00  0.0000E+00  0.0000E+00  0.0000E+00  0.0000E+00  0.0000E+00  0.0000E+00  0.0000E+00  0.0000E+00  0.0000E+00  0.0000E+00
    -14.897  0.0000E+00  0.0000E+00  0.0000E+00  0.0000E+00  0.0000E+00  0.0000E+00  0.0000E+00  0.0000E+00  0.0000E+00  0.0000E+00  0.0000E+00  0.0000E+00  0.0000E+00  0.0000E+00  0.0000E+00  0.0000E+00  0.0000E+00  0.0000E+00
    -14.716  0.0000E+00  0.0000E+00  0.0000E+00  0.0000E+00  0.0000E+00  0.0000E+00  0.0000E+00  0.0000E+00  0.0000E+00  0.0000E+00  0.0000E+00  0.0000E+00  0.0000E+00  0.0000E+00  0.0000E+00  0.0000E+00  0.0000E+00  0.0000E+00
    -14.534  0.0000E+00  0.0000E+00  0.0000E+00  0.0000E+00  0.0000E+00  0.0000E+00  0.0000E+00  0.0000E+00  0.0000E+00  0.0000E+00  0.0000E+00  0.0000E+00  0.0000E+00  0.0000E+00  0.0000E+00  0.0000E+00  0.0000E+00  0.0000E+00
    -14.353  0.0000E+00  0.0000E+00  0.0000E+00  0.0000E+00  0.0000E+00  0.0000E+00  0.0000E+00  0.0000E+00  0.0000E+00  0.0000E+00  0.0000E+00  0.0000E+00  0.0000E+00  0.0000E+00  0.0000E+00  0.0000E+00  0.0000E+00  0.0000E+00
    -14.172  0.0000E+00  0.0000E+00  0.0000E+00  0.0000E+00  0.0000E+00  0.0000E+00  0.0000E+00  0.0000E+00  0.0000E+00  0.0000E+00  0.0000E+00  0.0000E+00  0.0000E+00  0.0000E+00  0.0000E+00  0.0000E+00  0.0000E+00  0.0000E+00
    -13.991  0.0000E+00  0.0000E+00  0.0000E+00  0.0000E+00  0.0000E+00  0.0000E+00  0.0000E+00  0.0000E+00  0.0000E+00  0.0000E+00  0.0000E+00  0.0000E+00  0.0000E+00  0.0000E+00  0.0000E+00  0.0000E+00  0.0000E+00  0.0000E+00
    -13.809  0.0000E+00  0.0000E+00  0.0000E+00  0.0000E+00  0.0000E+00  0.0000E+00  0.0000E+00  0.0000E+00  0.0000E+00  0.0000E+00  0.0000E+00  0.0000E+00  0.0000E+00  0.0000E+00  0.0000E+00  0.0000E+00  0.0000E+00  0.0000E+00
    -13.628  0.4858E-02  0.4875E-02  0.4712E-04  0.4744E-04  0.4712E-04  0.4744E-04  0.4712E-04  0.4744E-04  0.1550E-07  0.1565E-07  0.1550E-07  0.1565E-07  0.1316E-05  0.1330E-05  0.1550E-07  0.1565E-07  0.1316E-05  0.1330E-05
    -13.447  0.1154E-01  0.1154E-01  0.4143E-03  0.4152E-03  0.4143E-03  0.4152E-03  0.4143E-03  0.4152E-03  0.3654E-06  0.3666E-06  0.3654E-06  0.3666E-06  0.3539E-04  0.3552E-04  0.3654E-06  0.3666E-06  0.3539E-04  0.3552E-04
    -13.265  0.1218E-01  0.1218E-01  0.9445E-03  0.9458E-03  0.9445E-03  0.9458E-03  0.9445E-03  0.9458E-03  0.1270E-05  0.1272E-05  0.1270E-05  0.1272E-05  0.1637E-03  0.1641E-03  0.1270E-05  0.1272E-05  0.1637E-03  0.1641E-03
    -13.084  0.1351E-01  0.1351E-01  0.1800E-02  0.1802E-02  0.1800E-02  0.1802E-02  0.1800E-02  0.1802E-02  0.2922E-05  0.2925E-05  0.2922E-05  0.2925E-05  0.5057E-03  0.5067E-03  0.2922E-05  0.2925E-05  0.5057E-03  0.5067E-03
    -12.903  0.1475E-01  0.1475E-01  0.3248E-02  0.3251E-02  0.3248E-02  0.3251E-02  0.3248E-02  0.3251E-02  0.5429E-05  0.5433E-05  0.5429E-05  0.5433E-05  0.1433E-02  0.1436E-02  0.5429E-05  0.5433E-05  0.1433E-02  0.1436E-02
    -12.721  0.1454E-01  0.1454E-01  0.5804E-02  0.5811E-02  0.5804E-02  0.5811E-02  0.5804E-02  0.5811E-02  0.8542E-05  0.8546E-05  0.8542E-05  0.8546E-05  0.3955E-02  0.3963E-02  0.8542E-05  0.8546E-05  0.3955E-02  0.3963E-02
    -12.540  0.1626E-01  0.1655E-01  0.2115E-01  0.2128E-01  0.2115E-01  0.2128E-01  0.2115E-01  0.2128E-01  0.1748E-04  0.1753E-04  0.1748E-04  0.1753E-04  0.1795E-01  0.1833E-01  0.1748E-04  0.1753E-04  0.1795E-01  0.1833E-01
    -12.359  0.4491E-02  0.4205E-02  0.9697E-02  0.9651E-02  0.9697E-02  0.9651E-02  0.9697E-02  0.9651E-02  0.6007E-05  0.5990E-05  0.6007E-05  0.5990E-05  0.2272E-01  0.2220E-01  0.6007E-05  0.5990E-05  0.2272E-01  0.2220E-01
    -12.177  0.0000E+00  0.0000E+00  0.0000E+00  0.0000E+00  0.0000E+00  0.0000E+00  0.0000E+00  0.0000E+00  0.0000E+00  0.0000E+00  0.0000E+00  0.0000E+00  0.0000E+00  0.0000E+00  0.0000E+00  0.0000E+00  0.0000E+00  0.0000E+00
    -11.996  0.0000E+00  0.0000E+00  0.0000E+00  0.0000E+00  0.0000E+00  0.0000E+00  0.0000E+00  0.0000E+00  0.0000E+00  0.0000E+00  0.0000E+00  0.0000E+00  0.0000E+00  0.0000E+00  0.0000E+00  0.0000E+00  0.0000E+00  0.0000E+00
    -11.815  0.0000E+00  0.0000E+00  0.0000E+00  0.0000E+00  0.0000E+00  0.0000E+00  0.0000E+00  0.0000E+00  0.0000E+00  0.0000E+00  0.0000E+00  0.0000E+00  0.0000E+00  0.0000E+00  0.0000E+00  0.0000E+00  0.0000E+00  0.0000E+00
    -11.633  0.0000E+00  0.0000E+00  0.0000E+00  0.0000E+00  0.0000E+00  0.0000E+00  0.0000E+00  0.0000E+00  0.0000E+00  0.0000E+00  0.0000E+00  0.0000E+00  0.0000E+00  0.0000E+00  0.0000E+00  0.0000E+00  0.0000E+00  0.0000E+00
    -11.452  0.0000E+00  0.0000E+00  0.0000E+00  0.0000E+00  0.0000E+00  0.0000E+00  0.0000E+00  0.0000E+00  0.0000E+00  0.0000E+00  0.0000E+00  0.0000E+00  0.0000E+00  0.0000E+00  0.0000E+00  0.0000E+00  0.0000E+00  0.0000E+00
    -11.271  0.0000E+00  0.0000E+00  0.0000E+00  0.0000E+00  0.0000E+00  0.0000E+00  0.0000E+00  0.0000E+00  0.0000E+00  0.0000E+00  0.0000E+00  0.0000E+00  0.0000E+00  0.0000E+00  0.0000E+00  0.0000E+00  0.0000E+00  0.0000E+00
    -11.089  0.0000E+00  0.0000E+00  0.0000E+00  0.0000E+00  0.0000E+00  0.0000E+00  0.0000E+00  0.0000E+00  0.0000E+00  0.0000E+00  0.0000E+00  0.0000E+00  0.0000E+00  0.0000E+00  0.0000E+00  0.0000E+00  0.0000E+00  0.0000E+00
    -10.908  0.0000E+00  0.0000E+00  0.0000E+00  0.0000E+00  0.0000E+00  0.0000E+00  0.0000E+00  0.0000E+00  0.0000E+00  0.0000E+00  0.0000E+00  0.0000E+00  0.0000E+00  0.0000E+00  0.0000E+00  0.0000E+00  0.0000E+00  0.0000E+00
    -10.727  0.0000E+00  0.0000E+00  0.0000E+00  0.0000E+00  0.0000E+00  0.0000E+00  0.0000E+00  0.0000E+00  0.0000E+00  0.0000E+00  0.0000E+00  0.0000E+00  0.0000E+00  0.0000E+00  0.0000E+00  0.0000E+00  0.0000E+00  0.0000E+00
    -10.545  0.0000E+00  0.0000E+00  0.0000E+00  0.0000E+00  0.0000E+00  0.0000E+00  0.0000E+00  0.0000E+00  0.0000E+00  0.0000E+00  0.0000E+00  0.0000E+00  0.0000E+00  0.0000E+00  0.0000E+00  0.0000E+00  0.0000E+00  0.0000E+00
    -10.364  0.0000E+00  0.0000E+00  0.0000E+00  0.0000E+00  0.0000E+00  0.0000E+00  0.0000E+00  0.0000E+00  0.0000E+00  0.0000E+00  0.0000E+00  0.0000E+00  0.0000E+00  0.0000E+00  0.0000E+00  0.0000E+00  0.0000E+00  0.0000E+00
    -10.183  0.0000E+00  0.0000E+00  0.0000E+00  0.0000E+00  0.0000E+00  0.0000E+00  0.0000E+00  0.0000E+00  0.0000E+00  0.0000E+00  0.0000E+00  0.0000E+00  0.0000E+00  0.0000E+00  0.0000E+00  0.0000E+00  0.0000E+00  0.0000E+00
    -10.001  0.0000E+00  0.0000E+00  0.0000E+00  0.0000E+00  0.0000E+00  0.0000E+00  0.0000E+00  0.0000E+00  0.0000E+00  0.0000E+00  0.0000E+00  0.0000E+00  0.0000E+00  0.0000E+00  0.0000E+00  0.0000E+00  0.0000E+00  0.0000E+00
     -9.820  0.0000E+00  0.0000E+00  0.0000E+00  0.0000E+00  0.0000E+00  0.0000E+00  0.0000E+00  0.0000E+00  0.0000E+00  0.0000E+00  0.0000E+00  0.0000E+00  0.0000E+00  0.0000E+00  0.0000E+00  0.0000E+00  0.0000E+00  0.0000E+00
     -9.639  0.0000E+00  0.0000E+00  0.0000E+00  0.0000E+00  0.0000E+00  0.0000E+00  0.0000E+00  0.0000E+00  0.0000E+00  0.0000E+00  0.0000E+00  0.0000E+00  0.0000E+00  0.0000E+00  0.0000E+00  0.0000E+00  0.0000E+00  0.0000E+00
     -9.457  0.0000E+00  0.0000E+00  0.0000E+00  0.0000E+00  0.0000E+00  0.0000E+00  0.0000E+00  0.0000E+00  0.0000E+00  0.0000E+00  0.0000E+00  0.0000E+00  0.0000E+00  0.0000E+00  0.0000E+00  0.0000E+00  0.0000E+00  0.0000E+00
     -9.276  0.0000E+00  0.0000E+00  0.0000E+00  0.0000E+00  0.0000E+00  0.0000E+00  0.0000E+00  0.0000E+00  0.0000E+00  0.0000E+00  0.0000E+00  0.0000E+00  0.0000E+00  0.0000E+00  0.0000E+00  0.0000E+00  0.0000E+00  0.0000E+00
     -9.095  0.0000E+00  0.0000E+00  0.0000E+00  0.0000E+00  0.0000E+00  0.0000E+00  0.0000E+00  0.0000E+00  0.0000E+00  0.0000E+00  0.0000E+00  0.0000E+00  0.0000E+00  0.0000E+00  0.0000E+00  0.0000E+00  0.0000E+00  0.0000E+00
     -8.913  0.0000E+00  0.0000E+00  0.0000E+00  0.0000E+00  0.0000E+00  0.0000E+00  0.0000E+00  0.0000E+00  0.0000E+00  0.0000E+00  0.0000E+00  0.0000E+00  0.0000E+00  0.0000E+00  0.0000E+00  0.0000E+00  0.0000E+00  0.0000E+00
     -8.732  0.0000E+00  0.0000E+00  0.0000E+00  0.0000E+00  0.0000E+00  0.0000E+00  0.0000E+00  0.0000E+00  0.0000E+00  0.0000E+00  0.0000E+00  0.0000E+00  0.0000E+00  0.0000E+00  0.0000E+00  0.0000E+00  0.0000E+00  0.0000E+00
     -8.551  0.0000E+00  0.0000E+00  0.0000E+00  0.0000E+00  0.0000E+00  0.0000E+00  0.0000E+00  0.0000E+00  0.0000E+00  0.0000E+00  0.0000E+00  0.0000E+00  0.0000E+00  0.0000E+00  0.0000E+00  0.0000E+00  0.0000E+00  0.0000E+00
     -8.369  0.0000E+00  0.0000E+00  0.0000E+00  0.0000E+00  0.0000E+00  0.0000E+00  0.0000E+00  0.0000E+00  0.0000E+00  0.0000E+00  0.0000E+00  0.0000E+00  0.0000E+00  0.0000E+00  0.0000E+00  0.0000E+00  0.0000E+00  0.0000E+00
     -8.188  0.0000E+00  0.0000E+00  0.0000E+00  0.0000E+00  0.0000E+00  0.0000E+00  0.0000E+00  0.0000E+00  0.0000E+00  0.0000E+00  0.0000E+00  0.0000E+00  0.0000E+00  0.0000E+00  0.0000E+00  0.0000E+00  0.0000E+00  0.0000E+00
     -8.007  0.0000E+00  0.0000E+00  0.0000E+00  0.0000E+00  0.0000E+00  0.0000E+00  0.0000E+00  0.0000E+00  0.0000E+00  0.0000E+00  0.0000E+00  0.0000E+00  0.0000E+00  0.0000E+00  0.0000E+00  0.0000E+00  0.0000E+00  0.0000E+00
     -7.825  0.0000E+00  0.0000E+00  0.0000E+00  0.0000E+00  0.0000E+00  0.0000E+00  0.0000E+00  0.0000E+00  0.0000E+00  0.0000E+00  0.0000E+00  0.0000E+00  0.0000E+00  0.0000E+00  0.0000E+00  0.0000E+00  0.0000E+00  0.0000E+00
     -7.644  0.0000E+00  0.0000E+00  0.0000E+00  0.0000E+00  0.0000E+00  0.0000E+00  0.0000E+00  0.0000E+00  0.0000E+00  0.0000E+00  0.0000E+00  0.0000E+00  0.0000E+00  0.0000E+00  0.0000E+00  0.0000E+00  0.0000E+00  0.0000E+00
     -7.463  0.0000E+00  0.0000E+00  0.0000E+00  0.0000E+00  0.0000E+00  0.0000E+00  0.0000E+00  0.0000E+00  0.0000E+00  0.0000E+00  0.0000E+00  0.0000E+00  0.0000E+00  0.0000E+00  0.0000E+00  0.0000E+00  0.0000E+00  0.0000E+00
     -7.281  0.0000E+00  0.0000E+00  0.0000E+00  0.0000E+00  0.0000E+00  0.0000E+00  0.0000E+00  0.0000E+00  0.0000E+00  0.0000E+00  0.0000E+00  0.0000E+00  0.0000E+00  0.0000E+00  0.0000E+00  0.0000E+00  0.0000E+00  0.0000E+00
     -7.100  0.0000E+00  0.0000E+00  0.0000E+00  0.0000E+00  0.0000E+00  0.0000E+00  0.0000E+00  0.0000E+00  0.0000E+00  0.0000E+00  0.0000E+00  0.0000E+00  0.0000E+00  0.0000E+00  0.0000E+00  0.0000E+00  0.0000E+00  0.0000E+00