   3   3   0   0
  0.2354396E+02  0.4639864E-09  0.4639864E-09  0.4639864E-09  0.5000000E-15
  1.000000000000000E-004
  CAR
 unknown system
     11.90483457    -26.40832390  301      7.77193987      1.00000000
    -26.408  0.0000E+00  0.0000E+00
    -26.281  0.0000E+00  0.0000E+00
    -26.153  0.0000E+00  0.0000E+00
    -26.025  0.0000E+00  0.0000E+00
    -25.897  0.0000E+00  0.0000E+00
    -25.770  0.0000E+00  0.0000E+00
    -25.642  0.0000E+00  0.0000E+00
    -25.514  0.0000E+00  0.0000E+00
    -25.387  0.0000E+00  0.0000E+00
    -25.259  0.0000E+00  0.0000E+00
    -25.131  0.0000E+00  0.0000E+00
    -25.004  0.0000E+00  0.0000E+00
    -24.876  0.0000E+00  0.0000E+00
    -24.748  0.0000E+00  0.0000E+00
    -24.620  0.4698E+02  0.6000E+01
    -24.493  0.0000E+00  0.6000E+01
    -24.365  0.0000E+00  0.6000E+01
    -24.237  0.0000E+00  0.6000E+01
    -24.110  0.0000E+00  0.6000E+01
    -23.982  0.0000E+00  0.6000E+01
    -23.854  0.0000E+00  0.6000E+01
    -23.726  0.0000E+00  0.6000E+01
    -23.599  0.0000E+00  0.6000E+01
    -23.471  0.0000E+00  0.6000E+01
    -23.343  0.0000E+00  0.6000E+01
    -23.216  0.0000E+00  0.6000E+01
    -23.088  0.0000E+00  0.6000E+01
    -22.960  0.0000E+00  0.6000E+01
    -22.832  0.0000E+00  0.6000E+01
    -22.705  0.0000E+00  0.6000E+01
    -22.577  0.0000E+00  0.6000E+01
    -22.449  0.0000E+00  0.6000E+01
    -22.322  0.0000E+00  0.6000E+01
    -22.194  0.0000E+00  0.6000E+01
    -22.066  0.0000E+00  0.6000E+01
    -21.938  0.0000E+00  0.6000E+01
    -21.811  0.0000E+00  0.6000E+01
    -21.683  0.0000E+00  0.6000E+01
    -21.555  0.0000E+00  0.6000E+01
    -21.428  0.0000E+00  0.6000E+01
    -21.300  0.0000E+00  0.6000E+01
    -21.172  0.0000E+00  0.6000E+01
    -21.044  0.0000E+00  0.6000E+01
    -20.917  0.0000E+00  0.6000E+01
    -20.789  0.0000E+00  0.6000E+01
    -20.661  0.0000E+00  0.6000E+01
    -20.534  0.0000E+00  0.6000E+01
    -20.406  0.0000E+00  0.6000E+01
    -20.278  0.0000E+00  0.6000E+01
    -20.151  0.0000E+00  0.6000E+01
    -20.023  0.0000E+00  0.6000E+01
    -19.895  0.0000E+00  0.6000E+01
    -19.767  0.0000E+00  0.6000E+01
    -19.640  0.0000E+00  0.6000E+01
    -19.512  0.0000E+00  0.6000E+01
    -19.384  0.0000E+00  0.6000E+01
    -19.257  0.0000E+00  0.6000E+01
    -19.129  0.0000E+00  0.6000E+01
    -19.001  0.0000E+00  0.6000E+01
    -18.873  0.0000E+00  0.6000E+01
    -18.746  0.0000E+00  0.6000E+01
    -18.618  0.0000E+00  0.6000E+01
    -18.490  0.0000E+00  0.6000E+01
    -18.363  0.0000E+00  0.6000E+01
    -18.235  0.0000E+00  0.6000E+01
    -18.107  0.0000E+00  0.6000E+01
    -17.979  0.0000E+00  0.6000E+01
    -17.852  0.0000E+00  0.6000E+01
    -17.724  0.0000E+00  0.6000E+01
    -17.596  0.0000E+00  0.6000E+01
    -17.469  0.0000E+00  0.6000E+01
    -17.341  0.0000E+00  0.6000E+01
    -17.213  0.0000E+00  0.6000E+01
    -17.085  0.0000E+00  0.6000E+01
    -16.958  0.0000E+00  0.6000E+01
    -16.830  0.0000E+00  0.6000E+01
    -16.702  0.0000E+00  0.6000E+01
    -16.575  0.0000E+00  0.6000E+01
    -16.447  0.0000E+00  0.6000E+01
    -16.319  0.0000E+00  0.6000E+01
    -16.191  0.0000E+00  0.6000E+01
    -16.064  0.0000E+00  0.6000E+01
    -15.936  0.0000E+00  0.6000E+01
    -15.808  0.0000E+00  0.6000E+01
    -15.681  0.0000E+00  0.6000E+01
    -15.553  0.0000E+00  0.6000E+01
    -15.425  0.0000E+00  0.6000E+01
    -15.298  0.0000E+00  0.6000E+01
    -15.170  0.0000E+00  0.6000E+01
    -15.042  0.0000E+00  0.6000E+01
    -14.914  0.0000E+00  0.6000E+01
    -14.787  0.0000E+00  0.6000E+01
    -14.659  0.0000E+00  0.6000E+01
    -14.531  0.0000E+00  0.6000E+01
    -14.404  0.0000E+00  0.6000E+01
    -14.276  0.0000E+00  0.6000E+01
    -14.148  0.0000E+00  0.6000E+01
    -14.020  0.0000E+00  0.6000E+01
    -13.893  0.0000E+00  0.6000E+01
    -13.765  0.0000E+00  0.6000E+01
    -13.637  0.0000E+00  0.6000E+01
    -13.510  0.0000E+00  0.6000E+01
    -13.382  0.0000E+00  0.6000E+01
    -13.254  0.0000E+00  0.6000E+01
    -13.126  0.0000E+00  0.6000E+01
    -12.999  0.0000E+00  0.6000E+01
    -12.871  0.0000E+00  0.6000E+01
    -12.743  0.0000E+00  0.6000E+01
    -12.616  0.0000E+00  0.6000E+01
    -12.488  0.0000E+00  0.6000E+01
    -12.360  0.0000E+00  0.6000E+01
    -12.232  0.0000E+00  0.6000E+01
    -12.105  0.0000E+00  0.6000E+01
    -11.977  0.0000E+00  0.6000E+01
    -11.849  0.0000E+00  0.6000E+01
    -11.722  0.0000E+00  0.6000E+01
    -11.594  0.0000E+00  0.6000E+01
    -11.466  0.0000E+00  0.6000E+01
    -11.338  0.0000E+00  0.6000E+01
    -11.211  0.0000E+00  0.6000E+01
    -11.083  0.0000E+00  0.6000E+01
    -10.955  0.0000E+00  0.6000E+01
    -10.828  0.0000E+00  0.6000E+01
    -10.700  0.0000E+00  0.6000E+01
    -10.572  0.0000E+00  0.6000E+01
    -10.445  0.0000E+00  0.6000E+01
    -10.317  0.0000E+00  0.6000E+01
    -10.189  0.0000E+00  0.6000E+01
    -10.061  0.0000E+00  0.6000E+01
     -9.934  0.0000E+00  0.6000E+01
     -9.806  0.0000E+00  0.6000E+01
     -9.678  0.0000E+00  0.6000E+01
     -9.551  0.0000E+00  0.6000E+01
     -9.423  0.0000E+00  0.6000E+01
     -9.295  0.0000E+00  0.6000E+01
     -9.167  0.0000E+00  0.6000E+01
     -9.040  0.0000E+00  0.6000E+01
     -8.912  0.0000E+00  0.6000E+01
     -8.784  0.0000E+00  0.6000E+01
     -8.657  0.0000E+00  0.6000E+01
     -8.529  0.0000E+00  0.6000E+01
     -8.401  0.0000E+00  0.6000E+01
     -8.273  0.0000E+00  0.6000E+01
     -8.146  0.0000E+00  0.6000E+01
     -8.018  0.0000E+00  0.6000E+01
     -7.890  0.0000E+00  0.6000E+01
     -7.763  0.0000E+00  0.6000E+01
     -7.635  0.0000E+00  0.6000E+01
     -7.507  0.0000E+00  0.6000E+01
     -7.379  0.0000E+00  0.6000E+01
     -7.252  0.0000E+00  0.6000E+01
     -7.124  0.0000E+00  0.6000E+01
     -6.996  0.0000E+00  0.6000E+01
     -6.869  0.0000E+00  0.6000E+01
     -6.741  0.0000E+00  0.6000E+01
     -6.613  0.0000E+00  0.6000E+01
     -6.485  0.0000E+00  0.6000E+01
     -6.358  0.0000E+00  0.6000E+01
     -6.230  0.0000E+00  0.6000E+01
     -6.102  0.0000E+00  0.6000E+01
     -5.975  0.0000E+00  0.6000E+01
     -5.847  0.0000E+00  0.6000E+01
     -5.719  0.0000E+00  0.6000E+01
     -5.592  0.0000E+00  0.6000E+01
     -5.464  0.0000E+00  0.6000E+01
     -5.336  0.0000E+00  0.6000E+01
     -5.208  0.0000E+00  0.6000E+01
     -5.081  0.0000E+00  0.6000E+01
     -4.953  0.0000E+00  0.6000E+01
     -4.825  0.0000E+00  0.6000E+01
     -4.698  0.0000E+00  0.6000E+01
     -4.570  0.0000E+00  0.6000E+01
     -4.442  0.0000E+00  0.6000E+01
     -4.314  0.1000E-02  0.6000E+01
     -4.187  0.9980E-01  0.6014E+01
     -4.059  0.2281E+00  0.6054E+01
     -3.931  0.3419E+00  0.6103E+01
     -3.804  0.2281E+00  0.6154E+01
     -3.676  0.5560E+00  0.6236E+01
     -3.548  0.3442E+00  0.6302E+01
     -3.420  0.5702E+00  0.6425E+01
     -3.293  0.5841E+00  0.6558E+01
     -3.165  0.1237E+01  0.6789E+01
     -3.037  0.1818E+01  0.7089E+01
     -2.910  0.3612E+01  0.7746E+01
     -2.782  0.0000E+00  0.8000E+01
     -2.654  0.0000E+00  0.8000E+01
     -2.526  0.0000E+00  0.8000E+01
     -2.399  0.0000E+00  0.8000E+01
     -2.271  0.0000E+00  0.8000E+01
     -2.143  0.0000E+00  0.8000E+01
     -2.016  0.0000E+00  0.8000E+01
     -1.888  0.0000E+00  0.8000E+01
     -1.760  0.0000E+00  0.8000E+01
     -1.632  0.0000E+00  0.8000E+01
     -1.505  0.0000E+00  0.8000E+01
     -1.377  0.0000E+00  0.8000E+01
     -1.249  0.0000E+00  0.8000E+01
     -1.122  0.0000E+00  0.8000E+01
     -0.994  0.0000E+00  0.8000E+01
     -0.866  0.0000E+00  0.8000E+01
     -0.739  0.0000E+00  0.8000E+01
     -0.611  0.0000E+00  0.8000E+01
     -0.483  0.0000E+00  0.8000E+01
     -0.355  0.0000E+00  0.8000E+01
     -0.228  0.0000E+00  0.8000E+01
     -0.100  0.0000E+00  0.8000E+01
      0.028  0.0000E+00  0.8000E+01
      0.155  0.0000E+00  0.8000E+01
      0.283  0.0000E+00  0.8000E+01
      0.411  0.0000E+00  0.8000E+01
      0.539  0.0000E+00  0.8000E+01
      0.666  0.5892E-01  0.8008E+01
      0.794  0.6350E+00  0.8110E+01
      0.922  0.1276E+01  0.8323E+01
      1.049  0.2711E+01  0.8940E+01
      1.177  0.1904E+01  0.9394E+01
      1.305  0.1607E+01  0.9716E+01
      1.433  0.7264E+00  0.9841E+01
      1.560  0.8554E-01  0.9868E+01
      1.688  0.4419E+00  0.9924E+01
      1.816  0.1711E+00  0.9946E+01
      1.943  0.2037E+00  0.9972E+01
      2.071  0.2384E+01  0.1035E+02
      2.199  0.5981E+01  0.1144E+02
      2.327  0.4213E+01  0.1224E+02
      2.454  0.3195E+01  0.1293E+02
      2.582  0.1277E+01  0.1344E+02
      2.710  0.1960E+01  0.1388E+02
      2.837  0.1309E+01  0.1415E+02
      2.965  0.2431E+01  0.1452E+02
      3.093  0.2498E+01  0.1499E+02
      3.221  0.5293E+01  0.1590E+02
      3.348  0.6198E+01  0.1708E+02
      3.476  0.4736E+01  0.1829E+02
      3.604  0.4556E+01  0.1908E+02
      3.731  0.1610E+01  0.1953E+02
      3.859  0.4720E+00  0.1963E+02
      3.987  0.2557E+00  0.1977E+02
      4.114  0.8403E+00  0.1998E+02
      4.242  0.9029E+00  0.2012E+02
      4.370  0.1276E+01  0.2044E+02
      4.498  0.5696E+00  0.2055E+02
      4.625  0.8490E+00  0.2074E+02
      4.753  0.1047E+01  0.2101E+02
      4.881  0.4269E+00  0.2115E+02
      5.008  0.9977E+00  0.2146E+02
      5.136  0.2278E+01  0.2186E+02
      5.264  0.2297E+01  0.2250E+02
      5.392  0.1874E+01  0.2281E+02
      5.519  0.1538E+01  0.2318E+02
      5.647  0.1255E+01  0.2353E+02
      5.775  0.4908E+00  0.2368E+02
      5.902  0.5182E+00  0.2380E+02
      6.030  0.5984E+00  0.2392E+02
      6.158  0.3228E+00  0.2397E+02
      6.286  0.1813E+00  0.2399E+02
      6.413  0.2138E-01  0.2400E+02
      6.541  0.0000E+00  0.2400E+02
      6.669  0.3640E-15  0.2400E+02
      6.796  0.5702E-01  0.2401E+02
      6.924  0.4277E-01  0.2401E+02
      7.052  0.1426E+00  0.2403E+02
      7.180  0.2152E+00  0.2406E+02
      7.307  0.4959E+00  0.2414E+02
      7.435  0.1188E+01  0.2436E+02
      7.563  0.8080E+00  0.2452E+02
      7.690  0.1236E+01  0.2481E+02
      7.818  0.2754E+01  0.2524E+02
      7.946  0.1750E+01  0.2559E+02
      8.074  0.2127E+01  0.2615E+02
      8.201  0.2191E+01  0.2644E+02
      8.329  0.2147E+01  0.2681E+02
      8.457  0.2810E+01  0.2739E+02
      8.584  0.4102E+01  0.2834E+02
      8.712  0.2827E+01  0.2889E+02
      8.840  0.3851E+01  0.2955E+02
      8.967  0.2043E+01  0.2995E+02
      9.095  0.1283E+01  0.3023E+02
      9.223  0.1907E+01  0.3060E+02
      9.351  0.2209E+01  0.3105E+02
      9.478  0.1387E+01  0.3151E+02
      9.606  0.1145E+01  0.3176E+02
      9.734  0.3234E+00  0.3188E+02
      9.861  0.1711E+00  0.3199E+02
      9.989  0.0000E+00  0.3199E+02
     10.117  0.1458E-11  0.3199E+02
     10.245  0.0000E+00  0.3200E+02
     10.372  0.0000E+00  0.3200E+02
     10.500  0.0000E+00  0.3200E+02
     10.628  0.0000E+00  0.3200E+02
     10.755  0.0000E+00  0.3200E+02
     10.883  0.0000E+00  0.3200E+02
     11.011  0.0000E+00  0.3200E+02
     11.139  0.0000E+00  0.3200E+02
     11.266  0.0000E+00  0.3200E+02
     11.394  0.0000E+00  0.3200E+02
     11.522  0.0000E+00  0.3200E+02
     11.649  0.0000E+00  0.3200E+02
     11.777  0.0000E+00  0.3200E+02
     11.905  0.0000E+00  0.3200E+02
