    3    3    1    1
  0.2354396E+02  0.4639864E-09  0.4639864E-09  0.4639864E-09  0.5000000E-15
  1.000000000000000E-004
  CAR
 unknown system
     25     84     16

  0.0000000E+00  0.0000000E+00  0.0000000E+00  0.4551661E-03
    1      -24.655586   1.000000
    2      -24.655586   1.000000
    3      -24.655586   1.000000
    4       -4.306774   1.000000
    5        2.275434   1.000000
    6        2.275434   1.000000
    7        2.275434   1.000000
    8        3.076993   1.000000
    9        3.076993   1.000000
   10        6.276418   1.000000
   11        6.346148   1.000000
   12        6.346148   1.000000
   13        6.346148   1.000000
   14        8.560184   0.000000
   15        8.560184   0.000000
   16        8.560184   0.000000

  0.7692308E-01 -0.1912859E-17  0.4813925E-18  0.3641329E-02
    1      -24.656219   1.000000
    2      -24.655578   1.000000
    3      -24.655578   1.000000
    4       -4.250495   1.000000
    5        2.191011   1.000000
    6        2.256811   1.000000
    7        2.256811   1.000000
    8        3.107063   1.000000
    9        3.107063   1.000000
   10        5.660478   1.000000
   11        6.279824   1.000000
   12        6.279824   1.000000
   13        6.723206   1.000000
   14        8.409546   0.000000
   15        8.409546   0.000000
   16        8.873495   0.000000

  0.1538462E+00 -0.6221446E-19 -0.2800718E-17  0.3641329E-02
    1      -24.657970   1.000000
    2      -24.655560   1.000000
    3      -24.655560   1.000000
    4       -4.087545   1.000000
    5        1.959877   1.000000
    6        2.216198   1.000000
    7        2.216198   1.000000
    8        3.176290   1.000000
    9        3.176290   1.000000
   10        4.909195   1.000000
   11        6.113366   1.000000
   12        6.113366   1.000000
   13        6.988857   1.000000
   14        8.327411   0.000000
   15        8.327411   0.000000
   16        9.565226   0.000000

  0.2307692E+00  0.4963821E-17 -0.9258219E-17  0.3641329E-02
    1      -24.660445   1.000000
    2      -24.655539   1.000000
    3      -24.655539   1.000000
    4       -3.836971   1.000000
    5        1.628414   1.000000
    6        2.179345   1.000000
    7        2.179345   1.000000
    8        3.244288   1.000000
    9        3.244288   1.000000
   10        4.221109   1.000000
   11        5.917044   1.000000
   12        5.917044   1.000000
   13        7.210278   1.000000
   14        8.367802   0.000000
   15        8.367802   0.000000
   16       10.163327   0.000000

  0.3076923E+00 -0.1244289E-18 -0.5601435E-17  0.3641329E-02
    1      -24.663046   1.000000
    2      -24.655501   1.000000
    3      -24.655501   1.000000
    4       -3.535354   1.000000
    5        1.247886   1.000000
    6        2.160310   1.000000
    7        2.160310   1.000000
    8        3.281821   1.000000
    9        3.281821   1.000000
   10        3.687626   1.000000
   11        5.751392   1.000000
   12        5.751392   1.000000
   13        7.411857   1.000000
   14        8.496787   0.000000
   15        8.496787   0.000000
   16        9.801864   0.000000

  0.3846154E+00 -0.6481231E-17 -0.6760996E-18  0.3641329E-02
    1      -24.665184   1.000000
    2      -24.655474   1.000000
    3      -24.655474   1.000000
    4       -3.244859   1.000000
    5        0.890476   1.000000
    6        2.158427   1.000000
    7        2.158427   1.000000
    8        3.285461   1.000000
    9        3.285461   1.000000
   10        3.341122   1.000000
   11        5.644313   1.000000
   12        5.644313   1.000000
   13        7.606143   1.000000
   14        8.666036   0.000000
   15        8.666036   0.000000
   16        9.146598   0.000000

  0.4615385E+00  0.1119619E-16 -0.1978499E-16  0.3641329E-02
    1      -24.666391   1.000000
    2      -24.655468   1.000000
    3      -24.655468   1.000000
    4       -3.056947   1.000000
    5        0.662980   1.000000
    6        2.162949   1.000000
    7        2.162949   1.000000
    8        3.175094   1.000000
    9        3.275894   1.000000
   10        3.275894   1.000000
   11        5.595264   1.000000
   12        5.595264   1.000000
   13        7.775737   0.295612
   14        8.705081   0.000000
   15        8.796102   0.000000
   16        8.796103   0.000000

  0.7692308E-01  0.7692308E-01 -0.1190434E-17  0.2730997E-02
    1      -24.656215   1.000000
    2      -24.655688   1.000000
    3      -24.655688   1.000000
    4       -4.232054   1.000000
    5        2.074892   1.000000
    6        2.303171   1.000000
    7        2.303171   1.000000
    8        3.106246   1.000000
    9        3.115303   1.000000
   10        5.661811   1.000000
   11        6.158925   1.000000
   12        6.158925   1.000000
   13        6.845077   1.000000
   14        8.253620   0.000000
   15        8.757137   0.000000
   16        8.818584   0.000000

  0.1538462E+00  0.7692308E-01 -0.4897567E-17  0.1092399E-01
    1      -24.657513   1.000000
    2      -24.655773   1.000000
    3      -24.655663   1.000000
    4       -4.105668   1.000000
    5        1.868064   1.000000
    6        2.284538   1.000000
    7        2.311848   1.000000
    8        3.156781   1.000000
    9        3.158705   1.000000
   10        5.118424   1.000000
   11        5.973638   1.000000
   12        6.009981   1.000000
   13        7.106561   1.000000
   14        8.127881   0.000000
   15        8.561323   0.000000
   16        9.234870   0.000000

  0.2307692E+00  0.7692308E-01 -0.5663650E-17  0.1092399E-01
    1      -24.659698   1.000000
    2      -24.655810   1.000000
    3      -24.655618   1.000000
    4       -3.885924   1.000000
    5        1.609307   1.000000
    6        2.212885   1.000000
    7        2.295845   1.000000
    8        3.217632   1.000000
    9        3.229451   1.000000
   10        4.446320   1.000000
   11        5.788551   1.000000
   12        5.830759   1.000000
   13        7.385054   1.000000
   14        8.148349   0.000000
   15        8.472582   0.000000
   16        9.732158   0.000000

  0.3076923E+00  0.7692308E-01 -0.1338970E-16  0.1092399E-01
    1      -24.662202   1.000000
    2      -24.655794   1.000000
    3      -24.655645   1.000000
    4       -3.603194   1.000000
    5        1.303837   1.000000
    6        2.149060   1.000000
    7        2.273337   1.000000
    8        3.266908   1.000000
    9        3.277739   1.000000
   10        3.864164   1.000000
   11        5.646784   1.000000
   12        5.658962   1.000000
   13        7.543838   1.000000
   14        8.371937   0.000000
   15        8.500891   0.000000
   16        9.858413   0.000000

  0.3846154E+00  0.7692308E-01 -0.8464367E-17  0.1092399E-01
    1      -24.664435   1.000000
    2      -24.655727   1.000000
    3      -24.655726   1.000000
    4       -3.309876   1.000000
    5        0.988371   1.000000
    6        2.120915   1.000000
    7        2.249372   1.000000
    8        3.278133   1.000000
    9        3.291311   1.000000
   10        3.458842   1.000000
   11        5.528039   1.000000
   12        5.564153   1.000000
   13        7.655884   1.000000
   14        8.622010   0.000000
   15        8.658612   0.000000
   16        9.306695   0.000000

  0.4615385E+00  0.7692308E-01 -0.4807583E-17  0.1092399E-01
    1      -24.665900   1.000000
    2      -24.655835   1.000000
    3      -24.655624   1.000000
    4       -3.085935   1.000000
    5        0.745128   1.000000
    6        2.129065   1.000000
    7        2.218040   1.000000
    8        3.187313   1.000000
    9        3.289714   1.000000
   10        3.315192   1.000000
   11        5.447030   1.000000
   12        5.534100   1.000000
   13        7.791949   0.002329
   14        8.722784   0.000000
   15        8.767310   0.000000
   16        8.953790   0.000000

 -0.4615385E+00  0.7692308E-01  0.3476240E-16  0.1092399E-01
    1      -24.666289   1.000000
    2      -24.655968   1.000000
    3      -24.655515   1.000000
    4       -3.020698   1.000000
    5        0.674710   1.000000
    6        2.162845   1.000000
    7        2.175059   1.000000
    8        3.135673   1.000000
    9        3.296672   1.000000
   10        3.300754   1.000000
   11        5.405165   1.000000
   12        5.548153   1.000000
   13        7.873313   0.000000
   14        8.558306   0.000000
   15        8.820095   0.000000
   16        9.013951   0.000000

 -0.3846154E+00  0.7692308E-01  0.1565351E-16  0.1092399E-01
    1      -24.665497   1.000000
    2      -24.656061   1.000000
    3      -24.655414   1.000000
    4       -3.146555   1.000000
    5        0.814872   1.000000
    6        2.128804   1.000000
    7        2.209798   1.000000
    8        3.210272   1.000000
    9        3.312209   1.000000
   10        3.336365   1.000000
   11        5.389902   1.000000
   12        5.610988   1.000000
   13        7.776544   0.257499
   14        8.720197   0.000000
   15        8.748928   0.000000
   16        9.021647   0.000000

 -0.3076923E+00  0.7692308E-01  0.2803069E-17  0.1092399E-01
    1      -24.663718   1.000000
    2      -24.656113   1.000000
    3      -24.655352   1.000000
    4       -3.403889   1.000000
    5        1.101300   1.000000
    6        2.096779   1.000000
    7        2.260453   1.000000
    8        3.256550   1.000000
    9        3.315171   1.000000
   10        3.577954   1.000000
   11        5.405298   1.000000
   12        5.734723   1.000000
   13        7.659516   1.000000
   14        8.530472   0.000000
   15        8.633439   0.000000
   16        9.511861   0.000000

 -0.2307692E+00  0.7692308E-01  0.1469951E-17  0.1092399E-01
    1      -24.661346   1.000000
    2      -24.656088   1.000000
    3      -24.655335   1.000000
    4       -3.701244   1.000000
    5        1.437186   1.000000
    6        2.094239   1.000000
    7        2.307802   1.000000
    8        3.238784   1.000000
    9        3.286856   1.000000
   10        4.043804   1.000000
   11        5.474444   1.000000
   12        5.917769   1.000000
   13        7.540795   1.000000
   14        8.335118   0.000000
   15        8.474856   0.000000
   16        9.745392   0.000000

 -0.1538462E+00  0.7692308E-01  0.6395287E-17  0.1092399E-01
    1      -24.658940   1.000000
    2      -24.655999   1.000000
    3      -24.655387   1.000000
    4       -3.967678   1.000000
    5        1.756071   1.000000
    6        2.126924   1.000000
    7        2.339112   1.000000
    8        3.186405   1.000000
    9        3.227836   1.000000
   10        4.657316   1.000000
   11        5.629327   1.000000
   12        6.122742   1.000000
   13        7.331445   1.000000
   14        8.201889   0.000000
   15        8.449969   0.000000
   16        9.323620   0.000000

 -0.7692308E-01  0.7692308E-01 -0.3825717E-17  0.5461994E-02
    1      -24.657081   1.000000
    2      -24.655806   1.000000
    3      -24.655464   1.000000
    4       -4.158971   1.000000
    5        2.021115   1.000000
    6        2.188101   1.000000
    7        2.326359   1.000000
    8        3.131951   1.000000
    9        3.157645   1.000000
   10        5.270705   1.000000
   11        5.922973   1.000000
   12        6.269505   1.000000
   13        7.009377   1.000000
   14        8.205881   0.000000
   15        8.539099   0.000000
   16        8.939416   0.000000

  0.1538462E+00  0.1538462E+00 -0.2380868E-17  0.2730997E-02
    1      -24.657961   1.000000
    2      -24.655969   1.000000
    3      -24.655969   1.000000
    4       -4.019942   1.000000
    5        1.643870   1.000000
    6        2.382405   1.000000
    7        2.382405   1.000000
    8        3.134093   1.000000
    9        3.189882   1.000000
   10        5.053571   1.000000
   11        5.777769   1.000000
   12        5.777769   1.000000
   13        7.150899   1.000000
   14        8.057518   0.000000
   15        8.617958   0.000000
   16        9.354365   0.000000

  0.2307692E+00  0.1538462E+00 -0.5244472E-17  0.1092399E-01
    1      -24.659570   1.000000
    2      -24.656117   1.000000
    3      -24.656071   1.000000
    4       -3.841180   1.000000
    5        1.416339   1.000000
    6        2.378697   1.000000
    7        2.413353   1.000000
    8        3.147256   1.000000
    9        3.254352   1.000000
   10        4.614583   1.000000
   11        5.570220   1.000000
   12        5.593443   1.000000
   13        7.410315   1.000000
   14        8.008177   0.000000
   15        8.505867   0.000000
   16        9.646876   0.000000

  0.3076923E+00  0.1538462E+00 -0.6031631E-17  0.1092399E-01
    1      -24.661674   1.000000
    2      -24.656209   1.000000
    3      -24.656166   1.000000
    4       -3.594792   1.000000
    5        1.204178   1.000000
    6        2.295749   1.000000
    7        2.412022   1.000000
    8        3.197191   1.000000
    9        3.310416   1.000000
   10        4.064744   1.000000
   11        5.364938   1.000000
   12        5.463275   1.000000
   13        7.679707   1.000000
   14        8.185204   0.000000
   15        8.460485   0.000000
   16        9.766535   0.000000

  0.3846154E+00  0.1538462E+00 -0.6096197E-17  0.1092399E-01
    1      -24.663675   1.000000
    2      -24.656492   1.000000
    3      -24.656113   1.000000
    4       -3.324767   1.000000
    5        1.013546   1.000000
    6        2.196087   1.000000
    7        2.385370   1.000000
    8        3.239878   1.000000
    9        3.333635   1.000000
   10        3.601717   1.000000
   11        5.201122   1.000000
   12        5.398828   1.000000
   13        7.709752   1.000000
   14        8.535781   0.000000
   15        8.674235   0.000000
   16        9.391071   0.000000

  0.4615385E+00  0.1538462E+00 -0.1132730E-16  0.1092399E-01
    1      -24.665100   1.000000
    2      -24.656843   1.000000
    3      -24.655977   1.000000
    4       -3.096448   1.000000
    5        0.861320   1.000000
    6        2.129012   1.000000
    7        2.331511   1.000000
    8        3.183040   1.000000
    9        3.338447   1.000000
   10        3.381276   1.000000
   11        5.086908   1.000000
   12        5.385543   1.000000
   13        7.767254   0.746222
   14        8.702090   0.000000
   15        8.859941   0.000000
   16        9.118603   0.000000

 -0.4615385E+00  0.1538462E+00  0.5477006E-17  0.1092399E-01
    1      -24.665650   1.000000
    2      -24.657190   1.000000
    3      -24.655781   1.000000
    4       -2.986206   1.000000
    5        0.790082   1.000000
    6        2.124714   1.000000
    7        2.252494   1.000000
    8        3.081819   1.000000
    9        3.348877   1.000000
   10        3.372395   1.000000
   11        5.009744   1.000000
   12        5.410220   1.000000
   13        7.893700   0.000000
   14        8.526590   0.000000
   15        8.835421   0.000000
   16        9.369704   0.000000

 -0.3846154E+00  0.1538462E+00 -0.1363188E-16  0.1092399E-01
    1      -24.665222   1.000000
    2      -24.657417   1.000000
    3      -24.655561   1.000000
    4       -3.040583   1.000000
    5        0.839145   1.000000
    6        2.165194   1.000000
    7        2.189207   1.000000
    8        3.105654   1.000000
    9        3.365016   1.000000
   10        3.412674   1.000000
   11        4.946820   1.000000
   12        5.479227   1.000000
   13        7.948447   0.000000
   14        8.590105   0.000000
   15        8.800762   0.000000
   16        9.373437   0.000000

 -0.3076923E+00  0.1538462E+00  0.1405913E-16  0.1092399E-01
    1      -24.663959   1.000000
    2      -24.657441   1.000000
    3      -24.655387   1.000000
    4       -3.236042   1.000000
    5        0.998371   1.000000
    6        2.094048   1.000000
    7        2.294936   1.000000
    8        3.193529   1.000000
    9        3.367602   1.000000
   10        3.563442   1.000000
   11        4.895754   1.000000
   12        5.607121   1.000000
   13        7.939927   0.000000
   14        8.631565   0.000000
   15        8.878336   0.000000
   16        9.299107   0.000000

 -0.2307692E+00  0.1538462E+00 -0.1003967E-16  0.1092399E-01
    1      -24.662192   1.000000
    2      -24.657191   1.000000
    3      -24.655288   1.000000
    4       -3.500430   1.000000
    5        1.226271   1.000000
    6        2.058991   1.000000
    7        2.387057   1.000000
    8        3.224962   1.000000
    9        3.341902   1.000000
   10        3.916549   1.000000
   11        4.907373   1.000000
   12        5.791006   1.000000
   13        7.972386   0.000000
   14        8.423792   0.000000
   15        8.654255   0.000000
   16        9.458373   0.000000

 -0.1538462E+00  0.1538462E+00 -0.1244289E-18  0.5461994E-02
    1      -24.660382   1.000000
    2      -24.656663   1.000000
    3      -24.655284   1.000000
    4       -3.761519   1.000000
    5        1.488688   1.000000
    6        2.070199   1.000000
    7        2.412035   1.000000
    8        3.207172   1.000000
    9        3.290172   1.000000
   10        4.346093   1.000000
   11        5.114954   1.000000
   12        5.990073   1.000000
   13        7.808666   0.000000
   14        8.253678   0.000000
   15        8.456007   0.000000
   16        9.304416   0.000000

  0.2307692E+00  0.2307692E+00 -0.3571302E-17  0.2730997E-02
    1      -24.660474   1.000000
    2      -24.656373   1.000000
    3      -24.656373   1.000000
    4       -3.709568   1.000000
    5        1.214243   1.000000
    6        2.500550   1.000000
    7        2.500550   1.000000
    8        3.070911   1.000000
    9        3.315076   1.000000
   10        4.505107   1.000000
   11        5.400987   1.000000
   12        5.400988   1.000000
   13        7.264665   1.000000
   14        8.053464   0.000000
   15        8.417571   0.000000
   16        9.750963   0.000000

  0.3076923E+00  0.2307692E+00  0.2006881E-17  0.1092399E-01
    1      -24.662048   1.000000
    2      -24.656630   1.000000
    3      -24.656538   1.000000
    4       -3.512286   1.000000
    5        1.057446   1.000000
    6        2.490983   1.000000
    7        2.542723   1.000000
    8        3.072780   1.000000
    9        3.378876   1.000000
   10        4.141442   1.000000
   11        5.180671   1.000000
   12        5.263014   1.000000
   13        7.430342   1.000000
   14        8.155155   0.000000
   15        8.334398   0.000000
   16        9.759962   0.000000

  0.3846154E+00  0.2307692E+00 -0.8894563E-17  0.1092399E-01
    1      -24.663575   1.000000
    2      -24.657102   1.000000
    3      -24.656554   1.000000
    4       -3.285991   1.000000
    5        0.966373   1.000000
    6        2.371006   1.000000
    7        2.537784   1.000000
    8        3.149489   1.000000
    9        3.411638   1.000000
   10        3.708195   1.000000
   11        4.932056   1.000000
   12        5.199872   1.000000
   13        7.569836   1.000000
   14        8.365736   0.000000
   15        8.568108   0.000000
   16        9.462754   0.000000

  0.4615385E+00  0.2307692E+00 -0.1911557E-16  0.1092399E-01
    1      -24.664622   1.000000
    2      -24.657794   1.000000
    3      -24.656424   1.000000
    4       -3.081983   1.000000
    5        0.942808   1.000000
    6        2.223995   1.000000
    7        2.482756   1.000000
    8        3.156050   1.000000
    9        3.418971   1.000000
   10        3.427057   1.000000
   11        4.732440   1.000000
   12        5.194709   1.000000
   13        7.622704   1.000000
   14        8.546230   0.000000
   15        8.993749   0.000000
   16        9.151883   0.000000

 -0.4615385E+00  0.2307692E+00  0.2045441E-16  0.1092399E-01
    1      -24.664925   1.000000
    2      -24.658554   1.000000
    3      -24.656185   1.000000
    4       -2.957120   1.000000
    5        0.961860   1.000000
    6        2.112336   1.000000
    7        2.382738   1.000000
    8        3.008612   1.000000
    9        3.425748   1.000000
   10        3.450929   1.000000
   11        4.593968   1.000000
   12        5.225966   1.000000
   13        7.732620   1.000000
   14        8.627803   0.000000
   15        8.799877   0.000000
   16        9.484657   0.000000

 -0.3846154E+00  0.2307692E+00 -0.8634281E-17  0.1092399E-01
    1      -24.664540   1.000000
    2      -24.659117   1.000000
    3      -24.655883   1.000000
    4       -2.952546   1.000000
    5        0.980235   1.000000
    6        2.107581   1.000000
    7        2.261975   1.000000
    8        2.982013   1.000000
    9        3.433664   1.000000
   10        3.531311   1.000000
   11        4.501469   1.000000
   12        5.297581   1.000000
   13        7.910133   0.000000
   14        8.473182   0.000000
   15        8.892133   0.000000
   16        9.476820   0.000000

 -0.3076923E+00  0.2307692E+00 -0.1649482E-16  0.1092399E-01
    1      -24.663748   1.000000
    2      -24.659136   1.000000
    3      -24.655586   1.000000
    4       -3.070574   1.000000
    5        1.000732   1.000000
    6        2.152505   1.000000
    7        2.216109   1.000000
    8        3.077496   1.000000
    9        3.426006   1.000000
   10        3.638602   1.000000
   11        4.453537   1.000000
   12        5.424685   1.000000
   13        8.014917   0.000000
   14        8.710759   0.000000
   15        8.775457   0.000000
   16        9.390167   0.000000

 -0.2307692E+00  0.2307692E+00  0.9927642E-17  0.5461994E-02
    1      -24.662938   1.000000
    2      -24.658400   1.000000
    3      -24.655369   1.000000
    4       -3.272466   1.000000
    5        1.074416   1.000000
    6        2.079886   1.000000
    7        2.342569   1.000000
    8        3.182983   1.000000
    9        3.393284   1.000000
   10        3.787406   1.000000
   11        4.539365   1.000000
   12        5.602696   1.000000
   13        8.060778   0.000000
   14        8.592144   0.000000
   15        9.053354   0.000000
   16        9.315523   0.000000

  0.3076923E+00  0.3076923E+00 -0.4761736E-17  0.2730997E-02
    1      -24.663200   1.000000
    2      -24.656810   1.000000
    3      -24.656810   1.000000
    4       -3.372073   1.000000
    5        0.950614   1.000000
    6        2.634908   1.000000
    7        2.634908   1.000000
    8        2.947909   1.000000
    9        3.459071   1.000000
   10        3.956786   1.000000
   11        5.103401   1.000000
   12        5.103401   1.000000
   13        7.260308   1.000000
   14        8.180647   0.000000
   15        8.193226   0.000000
   16        9.713781   0.000000

  0.3846154E+00  0.3076923E+00  0.1659977E-17  0.1092399E-01
    1      -24.664413   1.000000
    2      -24.657170   1.000000
    3      -24.656924   1.000000
    4       -3.203660   1.000000
    5        0.923267   1.000000
    6        2.572986   1.000000
    7        2.670926   1.000000
    8        2.996645   1.000000
    9        3.509847   1.000000
   10        3.628039   1.000000
   11        4.892562   1.000000
   12        5.021034   1.000000
   13        7.338207   1.000000
   14        8.149420   0.000000
   15        8.378591   0.000000
   16        9.489913   0.000000

  0.4615385E+00  0.3076923E+00 -0.1175749E-16  0.1092399E-01
    1      -24.665096   1.000000
    2      -24.657944   1.000000
    3      -24.656865   1.000000
    4       -3.045360   1.000000
    5        0.985299   1.000000
    6        2.396512   1.000000
    7        2.639712   1.000000
    8        3.079021   1.000000
    9        3.353233   1.000000
   10        3.520402   1.000000
   11        4.600017   1.000000
   12        5.010462   1.000000
   13        7.426024   1.000000
   14        8.283133   0.000000
   15        8.874774   0.000000
   16        9.159572   0.000000

 -0.4615385E+00  0.3076923E+00 -0.8830977E-17  0.1092399E-01
    1      -24.665003   1.000000
    2      -24.659047   1.000000
    3      -24.656642   1.000000
    4       -2.935088   1.000000
    5        1.104297   1.000000
    6        2.201574   1.000000
    7        2.541742   1.000000
    8        2.905290   1.000000
    9        3.446761   1.000000
   10        3.515524   1.000000
   11        4.347256   1.000000
   12        5.044404   1.000000
   13        7.520934   1.000000
   14        8.607125   0.000000
   15        8.758440   0.000000
   16        9.358305   0.000000

 -0.3846154E+00  0.3076923E+00  0.2757128E-16  0.1092399E-01
    1      -24.664224   1.000000
    2      -24.660149   1.000000
    3      -24.656306   1.000000
    4       -2.899704   1.000000
    5        1.173139   1.000000
    6        2.056551   1.000000
    7        2.402968   1.000000
    8        2.841362   1.000000
    9        3.504041   1.000000
   10        3.616960   1.000000
   11        4.182728   1.000000
   12        5.119841   1.000000
   13        7.694384   1.000000
   14        8.523981   0.000000
   15        8.954514   0.000000
   16        9.327728   0.000000

 -0.3076923E+00  0.3076923E+00 -0.2488578E-18  0.5461994E-02
    1      -24.663546   1.000000
    2      -24.660406   1.000000
    3      -24.655922   1.000000
    4       -2.948458   1.000000
    5        1.097767   1.000000
    6        2.090484   1.000000
    7        2.262368   1.000000
    8        2.932400   1.000000
    9        3.475134   1.000000
   10        3.701611   1.000000
   11        4.188376   1.000000
   12        5.249094   1.000000
   13        7.916223   0.000000
   14        8.475643   0.000000
   15        8.920676   0.000000
   16        9.281467   0.000000

  0.3846154E+00  0.3846154E+00 -0.5952169E-17  0.2730997E-02
    1      -24.665499   1.000000
    2      -24.657162   1.000000
    3      -24.657162   1.000000
    4       -3.099007   1.000000
    5        0.940135   1.000000
    6        2.753721   1.000000
    7        2.753721   1.000000
    8        2.821606   1.000000
    9        3.375786   1.000000
   10        3.589098   1.000000
   11        4.907342   1.000000
   12        4.907342   1.000000
   13        7.221801   1.000000
   14        7.996238   0.000000
   15        8.263041   0.000000
   16        9.441528   0.000000

  0.4615385E+00  0.3846154E+00 -0.6915450E-17  0.1092399E-01
    1      -24.666124   1.000000
    2      -24.657568   1.000000
    3      -24.657214   1.000000
    4       -2.998187   1.000000
    5        1.031994   1.000000
    6        2.592974   1.000000
    7        2.764489   1.000000
    8        2.943163   1.000000
    9        3.128158   1.000000
   10        3.615931   1.000000
   11        4.723650   1.000000
   12        4.874729   1.000000
   13        7.261034   1.000000
   14        8.013466   0.000000
   15        8.454873   0.000000
   16        9.238005   0.000000

 -0.4615385E+00  0.3846154E+00  0.6146429E-17  0.1092399E-01
    1      -24.665945   1.000000
    2      -24.658451   1.000000
    3      -24.657051   1.000000
    4       -2.923969   1.000000
    5        1.166895   1.000000
    6        2.395015   1.000000
    7        2.694039   1.000000
    8        2.787062   1.000000
    9        3.270980   1.000000
   10        3.600398   1.000000
   11        4.425423   1.000000
   12        4.904104   1.000000
   13        7.344397   1.000000
   14        8.252178   0.000000
   15        8.812763   0.000000
   16        9.161515   0.000000

 -0.3846154E+00  0.3846154E+00 -0.1296246E-16  0.5461994E-02
    1      -24.665060   1.000000
    2      -24.659584   1.000000
    3      -24.656721   1.000000
    4       -2.889686   1.000000
    5        1.253894   1.000000
    6        2.165335   1.000000
    7        2.560173   1.000000
    8        2.739899   1.000000
    9        3.501873   1.000000
   10        3.561869   1.000000
   11        4.184065   1.000000
   12        4.984457   1.000000
   13        7.483059   1.000000
   14        8.676472   0.000000
   15        8.678347   0.000000
   16        9.153904   0.000000

  0.4615385E+00  0.4615385E+00 -0.7142603E-17  0.2730997E-02
    1      -24.666817   1.000000
    2      -24.657375   1.000000
    3      -24.657375   1.000000
    4       -2.955714   1.000000
    5        1.099470   1.000000
    6        2.747804   1.000000
    7        2.823781   1.000000
    8        2.823781   1.000000
    9        2.898643   1.000000
   10        3.667697   1.000000
   11        4.812967   1.000000
   12        4.812967   1.000000
   13        7.192780   1.000000
   14        7.879704   0.000000
   15        8.236981   0.000000
   16        9.238850   0.000000

 -0.4615385E+00  0.4615385E+00  0.2239239E-16  0.5461994E-02
    1      -24.666740   1.000000
    2      -24.657696   1.000000
    3      -24.657311   1.000000
    4       -2.929688   1.000000
    5        1.158027   1.000000
    6        2.618856   1.000000
    7        2.732533   1.000000
    8        2.798479   1.000000
    9        3.038350   1.000000
   10        3.658361   1.000000
   11        4.669250   1.000000
   12        4.825224   1.000000
   13        7.232414   1.000000
   14        7.964392   0.000000
   15        8.435886   0.000000
   16        9.153871   0.000000

  0.2307692E+00  0.1538462E+00  0.7692308E-01  0.1092399E-01
    1      -24.658802   1.000000
    2      -24.656151   1.000000
    3      -24.655575   1.000000
    4       -3.952019   1.000000
    5        1.634187   1.000000
    6        2.233949   1.000000
    7        2.391314   1.000000
    8        3.172832   1.000000
    9        3.220423   1.000000
   10        4.761254   1.000000
   11        5.518779   1.000000
   12        5.977656   1.000000
   13        7.421609   1.000000
   14        8.051101   0.000000
   15        8.531774   0.000000
   16        9.305665   0.000000

  0.3076923E+00  0.1538462E+00  0.7692308E-01  0.2184797E-01
    1      -24.660784   1.000000
    2      -24.656486   1.000000
    3      -24.655526   1.000000
    4       -3.718056   1.000000
    5        1.384961   1.000000
    6        2.170064   1.000000
    7        2.402235   1.000000
    8        3.212537   1.000000