 vasp.6.0.8 29Jun18 (build Jun 13 2019 12:54:44) complex

 executed on      IFC18_CrayMPICH date 2021.12.05  14:21:52
 running   64 mpi-ranks, with    1 threads/rank
 distrk:  each k-point on   16 cores,    4 groups
 distr:  one band on NCORES_PER_BAND=   4 cores,    4 groups


--------------------------------------------------------------------------------------------------------


 INCAR:
 POTCAR:    PAW_PBE Hf_pv 06Sep2000
 POTCAR:    PAW_PBE Sb 06Sep2000
 POTCAR:    PAW_PBE Pt 04Feb2005
 POTCAR:    PAW_PBE Hf_pv 06Sep2000
   VRHFIN =Hf: 5p6s5d
   LEXCH  = PE
   EATOM  =   860.9206 eV,   63.2759 Ry

   TITEL  = PAW_PBE Hf_pv 06Sep2000
   LULTRA =        F    use ultrasoft PP ?
   IUNSCR =        1    unscreen: 0-lin 1-nonlin 2-no
   RPACOR =    2.500    partial core radius
   POMASS =  178.490; ZVAL   =   10.000    mass and valenz
   RCORE  =    2.600    outmost cutoff radius
   RWIGS  =    3.050; RWIGS  =    1.614    wigner-seitz radius (au A)
   ENMAX  =  220.334; ENMIN  =  165.250 eV
   RCLOC  =    2.212    cutoff for local pot
   LCOR   =        T    correct aug charges
   LPAW   =        T    paw PP
   EAUG   =  380.878
   DEXC   =    0.000
   RMAX   =    2.665    core radius for proj-oper
   RAUG   =    1.300    factor for augmentation sphere
   RDEP   =    2.681    radius for radial grids
   RDEPT  =    2.139    core radius for aug-charge

   Atomic configuration
   15 entries
     n  l   j            E        occ.
     1  0  0.50    -65259.4397   2.0000
     2  0  0.50    -11157.9884   2.0000
     2  1  1.50     -9795.2114   6.0000
     3  0  0.50     -2541.4060   2.0000
     3  1  1.50     -2134.4772   6.0000
     3  2  2.50     -1653.5420  10.0000
     4  0  0.50      -510.9577   2.0000
     4  1  1.50      -377.5024   6.0000
     4  2  2.50      -205.2086  10.0000
     4  3  3.50       -15.4906  14.0000
     5  0  0.50       -65.6020   2.0000
     5  1  1.50       -34.2798   6.0000
     5  2  2.50        -1.9877   3.0000
     6  0  0.50        -4.7357   1.0000
     5  3  2.50        -1.3606   0.0000
   Description
     l       E           TYP  RCUT    TYP  RCUT
     1    -34.2797769     23  2.500
     1    -35.6403595     23  2.500
     2     -1.9876655     23  2.500
     2      0.0744675     23  2.500
     0     -4.7356889     23  2.600
     0      3.2364748     23  2.600
  local pseudopotential read in
  partial core-charges read in
  partial kinetic energy density read in
  atomic valenz-charges read in
  non local Contribution for L=           1  read in
    real space projection operators read in
  non local Contribution for L=           1  read in
    real space projection operators read in
  non local Contribution for L=           2  read in
    real space projection operators read in
  non local Contribution for L=           2  read in
    real space projection operators read in
  non local Contribution for L=           0  read in
    real space projection operators read in
  non local Contribution for L=           0  read in
    real space projection operators read in
    PAW grid and wavefunctions read in

   number of l-projection  operators is LMAX  =           6
   number of lm-projection operators is LMMAX =          18

 POTCAR:    PAW_PBE Sb 06Sep2000
   VRHFIN =Sb: s2p3
   LEXCH  = PE
   EATOM  =   149.9515 eV,   11.0211 Ry

   TITEL  = PAW_PBE Sb 06Sep2000
   LULTRA =        F    use ultrasoft PP ?
   IUNSCR =        1    unscreen: 0-lin 1-nonlin 2-no
   RPACOR =    2.200    partial core radius
   POMASS =  121.750; ZVAL   =    5.000    mass and valenz
   RCORE  =    2.300    outmost cutoff radius
   RWIGS  =    2.980; RWIGS  =    1.577    wigner-seitz radius (au A)
   ENMAX  =  172.069; ENMIN  =  129.052 eV
   ICORE  =        3    local potential
   LCOR   =        T    correct aug charges
   LPAW   =        T    paw PP
   EAUG   =  380.513
   DEXC   =    0.000
   RMAX   =    2.346    core radius for proj-oper
   RAUG   =    1.300    factor for augmentation sphere
   RDEP   =    2.360    radius for radial grids
   RDEPT  =    2.192    core radius for aug-charge

   Atomic configuration
   13 entries
     n  l   j            E        occ.
     1  0  0.50    -30298.2797   2.0000
     2  0  0.50     -4610.2252   2.0000
     2  1  1.50     -4138.3407   6.0000
     3  0  0.50      -903.8815   2.0000
     3  1  1.50      -750.1337   6.0000
     3  2  2.50      -515.7092  10.0000
     4  0  0.50      -148.8034   2.0000
     4  1  1.50      -101.7581   6.0000
     4  2  2.50       -33.5048  10.0000
     5  0  0.50       -12.8298   2.0000
     5  1  0.50        -4.8276   3.0000
     5  2  1.50        -4.0817   0.0000
     4  3  2.50        -4.0817   0.0000
   Description
     l       E           TYP  RCUT    TYP  RCUT
     0    -12.8297861     23  2.300
     0     13.6058260     23  2.300
     1     -4.8275512     23  2.300
     1     -0.7245443     23  2.300
     2     -4.0817478     23  2.300
     3     -1.3605826     23  2.300
  local pseudopotential read in
  partial core-charges read in
  partial kinetic energy density read in
  atomic valenz-charges read in
  non local Contribution for L=           0  read in
    real space projection operators read in
  non local Contribution for L=           0  read in
    real space projection operators read in
  non local Contribution for L=           1  read in
    real space projection operators read in
  non local Contribution for L=           1  read in
    real space projection operators read in
  non local Contribution for L=           2  read in
    real space projection operators read in
    PAW grid and wavefunctions read in

   number of l-projection  operators is LMAX  =           5
   number of lm-projection operators is LMMAX =          13

 POTCAR:    PAW_PBE Pt 04Feb2005
   VRHFIN =Pt: s1d9
   LEXCH  = PE
   EATOM  =   729.1176 eV,   53.5886 Ry

   TITEL  = PAW_PBE Pt 04Feb2005
   LULTRA =        F    use ultrasoft PP ?
   IUNSCR =        1    unscreen: 0-lin 1-nonlin 2-no
   RPACOR =    2.330    partial core radius
   POMASS =  195.080; ZVAL   =   10.000    mass and valenz
   RCORE  =    2.600    outmost cutoff radius
   RWIGS  =    2.750; RWIGS  =    1.455    wigner-seitz radius (au A)
   ENMAX  =  230.283; ENMIN  =  172.712 eV
   ICORE  =        3    local potential
   LCOR   =        T    correct aug charges
   LPAW   =        T    paw PP
   EAUG   =  358.966
   DEXC   =    0.000
   RMAX   =    2.658    core radius for proj-oper
   RAUG   =    1.300    factor for augmentation sphere
   RDEP   =    2.761    radius for radial grids
   RDEPT  =    2.203    core radius for aug-charge

   Atomic configuration
   16 entries
     n  l   j            E        occ.
     1  0  0.50    -78401.1885   2.0000
     2  0  0.50    -13770.7750   2.0000
     2  1  1.50    -11931.0468   6.0000
     3  0  0.50     -3234.7234   2.0000
     3  1  1.50     -2699.2216   6.0000
     3  2  2.50     -2119.5714  10.0000
     4  0  0.50      -695.1528   2.0000
     4  1  1.50      -519.6034   6.0000
     4  2  2.50      -306.6786  10.0000
     4  3  3.50       -70.1041  14.0000
     5  0  0.50      -101.7747   2.0000
     5  1  1.50       -55.9873   6.0000
     5  2  2.50        -6.1423   9.0000
     6  0  0.50        -5.6573   1.0000
     6  1  1.50        -6.8029   0.0000
     5  3  2.50        -1.3606   0.0000
   Description
     l       E           TYP  RCUT    TYP  RCUT
     2     -6.1423404     23  2.500
     2     -7.5029230     23  2.500
     0     -5.6573207     23  2.500
     0      0.7416693     23  2.500
     1     -2.7211652     23  2.600
     1     20.4087390     23  2.600
     3     -1.3605826     23  2.500
  local pseudopotential read in
  partial core-charges read in
  partial kinetic energy density read in
  atomic valenz-charges read in
  non local Contribution for L=           2  read in
    real space projection operators read in
  non local Contribution for L=           2  read in
    real space projection operators read in
  non local Contribution for L=           0  read in
    real space projection operators read in
  non local Contribution for L=           0  read in
    real space projection operators read in
  non local Contribution for L=           1  read in
    real space projection operators read in
  non local Contribution for L=           1  read in
    real space projection operators read in
    PAW grid and wavefunctions read in

   number of l-projection  operators is LMAX  =           6
   number of lm-projection operators is LMMAX =          18


 -----------------------------------------------------------------------------
|                                                                             |
|  ADVICE TO THIS USER RUNNING 'VASP/VAMP'   (HEAR YOUR MASTER'S VOICE ...):  |
|                                                                             |
|      You enforced a specific xc-type in the INCAR file,                     |
|      a different type was found on the POTCAR file                          |
|          I HOPE YOU KNOW, WHAT YOU ARE  DOING                               |
|                                                                             |
 -----------------------------------------------------------------------------

  PAW_PBE Hf_pv 06Sep2000               :
 energy of atom  1       EATOM= -860.9206
 kinetic energy error for atom=    0.0004 (will be added to EATOM!!)
  PAW_PBE Sb 06Sep2000                  :
 energy of atom  2       EATOM= -149.9515
 kinetic energy error for atom=    0.0002 (will be added to EATOM!!)
  PAW_PBE Pt 04Feb2005                  :
 energy of atom  3       EATOM= -729.1176
 kinetic energy error for atom=    0.0010 (will be added to EATOM!!)


 POSCAR: Hf1 Sb1 Pt1
  positions in direct lattice
  No initial velocities read in
 exchange correlation table for  LEXCH =       14
   RHO(1)=    0.500       N(1)  =     2000
   RHO(2)=  100.500       N(2)  =     4000



--------------------------------------------------------------------------------------------------------


 ion  position               nearest neighbor table
   1  0.750  0.750  0.750-   3 2.84   3 2.84   3 2.84   3 2.84   2 3.28   2 3.28   2 3.28   2 3.28
                             2 3.28   2 3.28
   2  0.250  0.250  0.250-   3 2.84   3 2.84   3 2.84   3 2.84   1 3.28   1 3.28   1 3.28   1 3.28
                             1 3.28   1 3.28
   3  0.000  0.000  0.000-   1 2.84   2 2.84   1 2.84   1 2.84   2 2.84   2 2.84   1 2.84   2 2.84


  LATTYP: Found a face centered cubic cell.
 ALAT       =     6.5617587489

  Lattice vectors:

 A1 = (   0.0000000000,   3.2808793745,   3.2808793745)
 A2 = (   3.2808793745,   0.0000000000,   3.2808793745)
 A3 = (   3.2808793745,   3.2808793745,   0.0000000000)


Analysis of symmetry for initial positions (statically):
=====================================================================
 Subroutine PRICEL returns:
 Original cell was already a primitive cell.


 Routine SETGRP: Setting up the symmetry group for a
 face centered cubic supercell.


 Subroutine GETGRP returns: Found 24 space group operations
 (whereof 24 operations were pure point group operations)
 out of a pool of 48 trial point group operations.


The static configuration has the point symmetry T_d .


Analysis of symmetry for dynamics (positions and initial velocities):
=====================================================================
 Subroutine PRICEL returns:
 Original cell was already a primitive cell.


 Routine SETGRP: Setting up the symmetry group for a
 face centered cubic supercell.


 Subroutine GETGRP returns: Found 24 space group operations
 (whereof 24 operations were pure point group operations)
 out of a pool of 48 trial point group operations.


The dynamic configuration has the point symmetry T_d .


 Subroutine INISYM returns: Found 24 space group operations
 (whereof 24 operations are pure point group operations),
 and found     1 'primitive' translations


----------------------------------------------------------------------------------------

                                     Primitive cell

  volume of cell :      70.6319

  direct lattice vectors                    reciprocal lattice vectors
     0.000000000  3.280879374  3.280879374    -0.152398166  0.152398166  0.152398166
     3.280879374  0.000000000  3.280879374     0.152398166 -0.152398166  0.152398166
     3.280879374  3.280879374  0.000000000     0.152398166  0.152398166 -0.152398166

  length of vectors
     4.639864108  4.639864108  4.639864108     0.263961367  0.263961367  0.263961367

  position of ions in fractional coordinates (direct lattice)
     0.750000000  0.750000000  0.750000000
     0.250000000  0.250000000  0.250000000
     0.000000000  0.000000000  0.000000000

  ion indices of the primitive-cell ions
   primitive index   ion index
                 1           1
                 2           2
                 3           3

----------------------------------------------------------------------------------------



 KPOINTS: KPOINTS

Automatic generation of k-mesh.
Space group operators:
 irot       det(A)        alpha          n_x          n_y          n_z        tau_x        tau_y        tau_z
    1     1.000000     0.000000     1.000000     0.000000     0.000000     0.000000     0.000000     0.000000
    2     1.000000   120.000000    -0.577350    -0.577350    -0.577350     0.000000     0.000000     0.000000
    3     1.000000   120.000000     0.577350     0.577350     0.577350     0.000000     0.000000     0.000000
    4    -1.000000    90.000000    -0.000000     0.000000    -1.000000     0.000000     0.000000     0.000000
    5    -1.000000   180.000000    -0.000000     0.707107     0.707107     0.000000     0.000000     0.000000
    6    -1.000000    90.000000    -0.000000     1.000000    -0.000000     0.000000     0.000000     0.000000
    7     1.000000   180.000000    -0.000000     0.000000     1.000000     0.000000     0.000000     0.000000
    8     1.000000   120.000000    -0.577350     0.577350     0.577350     0.000000     0.000000     0.000000
    9     1.000000   120.000000    -0.577350     0.577350    -0.577350     0.000000     0.000000     0.000000
   10    -1.000000    90.000000     0.000000     0.000000     1.000000     0.000000     0.000000     0.000000
   11    -1.000000    90.000000    -1.000000     0.000000     0.000000     0.000000     0.000000     0.000000
   12    -1.000000   180.000000     0.707107     0.000000     0.707107     0.000000     0.000000     0.000000
   13     1.000000   120.000000     0.577350    -0.577350     0.577350     0.000000     0.000000     0.000000
   14     1.000000   120.000000    -0.577350    -0.577350     0.577350     0.000000     0.000000     0.000000
   15     1.000000   180.000000     1.000000     0.000000     0.000000     0.000000     0.000000     0.000000
   16    -1.000000    90.000000     0.000000    -1.000000     0.000000     0.000000     0.000000     0.000000
   17    -1.000000   180.000000     0.707107     0.707107    -0.000000     0.000000     0.000000     0.000000
   18    -1.000000    90.000000     1.000000     0.000000     0.000000     0.000000     0.000000     0.000000
   19     1.000000   120.000000     0.577350    -0.577350    -0.577350     0.000000     0.000000     0.000000
   20     1.000000   180.000000    -0.000000     1.000000     0.000000     0.000000     0.000000     0.000000
   21     1.000000   120.000000     0.577350     0.577350    -0.577350     0.000000     0.000000     0.000000
   22    -1.000000   180.000000     0.000000    -0.707107     0.707107     0.000000     0.000000     0.000000
   23    -1.000000   180.000000     0.707107    -0.707107     0.000000     0.000000     0.000000     0.000000
   24    -1.000000   180.000000     0.707107     0.000000    -0.707107     0.000000     0.000000     0.000000

 Subroutine IBZKPT returns following result:
 ===========================================

 Found     84 irreducible k-points:

 Following reciprocal coordinates:
            Coordinates               Weight
  0.000000  0.000000  0.000000      1.000000
  0.076923 -0.000000  0.000000      8.000000
  0.153846 -0.000000 -0.000000      8.000000
  0.230769  0.000000 -0.000000      8.000000
  0.307692 -0.000000 -0.000000      8.000000
  0.384615 -0.000000 -0.000000      8.000000
  0.461538  0.000000 -0.000000      8.000000
  0.076923  0.076923 -0.000000      6.000000
  0.153846  0.076923 -0.000000     24.000000
  0.230769  0.076923 -0.000000     24.000000
  0.307692  0.076923 -0.000000     24.000000
  0.384615  0.076923 -0.000000     24.000000
  0.461538  0.076923 -0.000000     24.000000
 -0.461538  0.076923  0.000000     24.000000
 -0.384615  0.076923  0.000000     24.000000
 -0.307692  0.076923  0.000000     24.000000
 -0.230769  0.076923  0.000000     24.000000
 -0.153846  0.076923  0.000000     24.000000
 -0.076923  0.076923 -0.000000     12.000000
  0.153846  0.153846 -0.000000      6.000000
  0.230769  0.153846 -0.000000     24.000000
  0.307692  0.153846 -0.000000     24.000000
  0.384615  0.153846 -0.000000     24.000000
  0.461538  0.153846 -0.000000     24.000000
 -0.461538  0.153846  0.000000     24.000000
 -0.384615  0.153846 -0.000000     24.000000
 -0.307692  0.153846  0.000000     24.000000
 -0.230769  0.153846 -0.000000     24.000000
 -0.153846  0.153846 -0.000000     12.000000
  0.230769  0.230769 -0.000000      6.000000
  0.307692  0.230769  0.000000     24.000000
  0.384615  0.230769 -0.000000     24.000000
  0.461538  0.230769 -0.000000     24.000000
 -0.461538  0.230769  0.000000     24.000000
 -0.384615  0.230769 -0.000000     24.000000
 -0.307692  0.230769 -0.000000     24.000000
 -0.230769  0.230769  0.000000     12.000000
  0.307692  0.307692 -0.000000      6.000000
  0.384615  0.307692  0.000000     24.000000
  0.461538  0.307692 -0.000000     24.000000
 -0.461538  0.307692 -0.000000     24.000000
 -0.384615  0.307692  0.000000     24.000000
 -0.307692  0.307692 -0.000000     12.000000
  0.384615  0.384615 -0.000000      6.000000
  0.461538  0.384615 -0.000000     24.000000
 -0.461538  0.384615  0.000000     24.000000
 -0.384615  0.384615 -0.000000     12.000000
  0.461538  0.461538 -0.000000      6.000000
 -0.461538  0.461538  0.000000     12.000000
  0.230769  0.153846  0.076923     24.000000
  0.307692  0.153846  0.076923     48.000000
  0.384615  0.153846  0.076923     48.000000
  0.461538  0.153846  0.076923     48.000000
 -0.461538  0.153846  0.076923     48.000000
  0.307692  0.230769  0.076923     24.000000
  0.384615  0.230769  0.076923     48.000000
  0.461538  0.230769  0.076923     48.000000
 -0.461538  0.230769  0.076923     48.000000
 -0.384615  0.230769  0.076923     48.000000
 -0.307692  0.230769  0.076923     48.000000
 -0.230769  0.230769  0.076923     48.000000
 -0.153846  0.230769  0.076923     24.000000
  0.384615  0.307692  0.076923     24.000000
  0.461538  0.307692  0.076923     48.000000
 -0.461538  0.307692  0.076923     48.000000
 -0.384615  0.307692  0.076923     48.000000
 -0.307692  0.307692  0.076923     48.000000
 -0.230769  0.307692  0.076923     24.000000
  0.461538  0.384615  0.076923     24.000000
 -0.461538  0.384615  0.076923     48.000000
 -0.384615  0.384615  0.076923     48.000000
 -0.307692  0.384615  0.076923     24.000000
 -0.461538  0.461538  0.076923     24.000000
 -0.384615  0.461538  0.076923     24.000000
  0.461538  0.307692  0.153846     24.000000
 -0.461538  0.307692  0.153846     48.000000
 -0.384615  0.307692  0.153846     48.000000
 -0.461538  0.384615  0.153846     24.000000
 -0.384615  0.384615  0.153846     48.000000
 -0.307692  0.384615  0.153846     48.000000
 -0.230769  0.384615  0.153846     24.000000
 -0.384615  0.461538  0.153846     24.000000
 -0.307692  0.461538  0.153846     24.000000
 -0.307692  0.461538  0.230769     24.000000

 Following cartesian coordinates:
            Coordinates               Weight
  0.000000  0.000000  0.000000      1.000000
 -0.012101  0.012101  0.012101      8.000000
 -0.024203  0.024203  0.024203      8.000000
 -0.036304  0.036304  0.036304      8.000000
 -0.048405  0.048405  0.048405      8.000000
 -0.060507  0.060507  0.060507      8.000000
 -0.072608  0.072608  0.072608      8.000000
  0.000000 -0.000000  0.024203      6.000000
 -0.012101  0.012101  0.036304     24.000000
 -0.024203  0.024203  0.048405     24.000000
 -0.036304  0.036304  0.060507     24.000000
 -0.048405  0.048405  0.072608     24.000000
 -0.060507  0.060507  0.084709     24.000000
  0.084709 -0.084709 -0.060507     24.000000
  0.072608 -0.072608 -0.048405     24.000000
  0.060507 -0.060507 -0.036304     24.000000
  0.048405 -0.048405 -0.024203     24.000000
  0.036304 -0.036304 -0.012101     24.000000
  0.024203 -0.024203  0.000000     12.000000
  0.000000 -0.000000  0.048405      6.000000
 -0.012101  0.012101  0.060507     24.000000
 -0.024203  0.024203  0.072608     24.000000
 -0.036304  0.036304  0.084709     24.000000
 -0.048405  0.048405  0.096811     24.000000
  0.096811 -0.096811 -0.048405     24.000000
  0.084709 -0.084709 -0.036304     24.000000
  0.072608 -0.072608 -0.024203     24.000000
  0.060507 -0.060507 -0.012101     24.000000
  0.048405 -0.048405  0.000000     12.000000
 -0.000000  0.000000  0.072608      6.000000
 -0.012101  0.012101  0.084709     24.000000
 -0.024203  0.024203  0.096811     24.000000
 -0.036304  0.036304  0.108912     24.000000
  0.108912 -0.108912 -0.036304     24.000000
  0.096811 -0.096811 -0.024203     24.000000
  0.084709 -0.084709 -0.012101     24.000000
  0.072608 -0.072608 -0.000000     12.000000
  0.000000 -0.000000  0.096811      6.000000
 -0.012101  0.012101  0.108912     24.000000
 -0.024203  0.024203  0.121014     24.000000
  0.121014 -0.121014 -0.024203     24.000000
  0.108912 -0.108912 -0.012101     24.000000
  0.096811 -0.096811  0.000000     12.000000
 -0.000000 -0.000000  0.121014      6.000000
 -0.012101  0.012101  0.133115     24.000000
  0.133115 -0.133115 -0.012101     24.000000
  0.121014 -0.121014  0.000000     12.000000
 -0.000000  0.000000  0.145216      6.000000
  0.145216 -0.145216 -0.000000     12.000000
  0.000000  0.024203  0.048405     24.000000
 -0.012101  0.036304  0.060507     48.000000
 -0.024203  0.048405  0.072608     48.000000
 -0.036304  0.060507  0.084709     48.000000
  0.108912 -0.084709 -0.060507     48.000000
  0.000000  0.024203  0.072608     24.000000
 -0.012101  0.036304  0.084709     48.000000
 -0.024203  0.048405  0.096811     48.000000
  0.121014 -0.096811 -0.048405     48.000000
  0.108912 -0.084709 -0.036304     48.000000
  0.096811 -0.072608 -0.024203     48.000000
  0.084709 -0.060507 -0.012101     48.000000
  0.072608 -0.048405 -0.000000     24.000000
 -0.000000  0.024203  0.096811     24.000000
 -0.012101  0.036304  0.108912     48.000000
  0.133115 -0.108912 -0.036304     48.000000
  0.121014 -0.096811 -0.024203     48.000000
  0.108912 -0.084709 -0.012101     48.000000
  0.096811 -0.072608 -0.000000     24.000000
  0.000000  0.024203  0.121014     24.000000
  0.145216 -0.121014 -0.024203     48.000000
  0.133115 -0.108912 -0.012101     48.000000
  0.121014 -0.096811  0.000000     24.000000
  0.157318 -0.133115 -0.012101     24.000000
  0.145216 -0.121014 -0.000000     24.000000
  0.000000  0.048405  0.096811     24.000000
  0.145216 -0.096811 -0.048405     48.000000
  0.133115 -0.084709 -0.036304     48.000000
  0.157318 -0.108912 -0.036304     24.000000
  0.145216 -0.096811 -0.024203     48.000000
  0.133115 -0.084709 -0.012101     48.000000
  0.121014 -0.072608 -0.000000     24.000000
  0.157318 -0.108912 -0.012101     24.000000
  0.145216 -0.096811 -0.000000     24.000000
  0.157318 -0.084709 -0.012101     24.000000



--------------------------------------------------------------------------------------------------------




 Dimension of arrays:
   k-points           NKPTS =     84   k-points in BZ     NKDIM =     84   number of bands    NBANDS=     16
   number of dos      NEDOS =    301   number of ions     NIONS =      3
   non local maximal  LDIM  =      6   non local SUM 2l+1 LMDIM =     18
   total plane-waves  NPLWV =  64000
   max r-space proj   IRMAX =      1   max aug-charges    IRDMAX= 439193
   dimension x,y,z NGX =    40 NGY =   40 NGZ =   40
   dimension x,y,z NGXF=    80 NGYF=   80 NGZF=   80
   support grid    NGXF=   160 NGYF=  160 NGZF=  160
   ions per type =               1   1   1
   NGX,Y,Z   is equivalent  to a cutoff of  14.33, 14.33, 14.33 a.u.
   NGXF,Y,Z  is equivalent  to a cutoff of  28.66, 28.66, 28.66 a.u.

 SYSTEM =  unknown system
 POSCAR =  Hf1 Sb1 Pt1

 Startparameter for this run:
   NWRITE =      2    write-flag & timer
   PREC   = acc       normal or accurate (medium, high low for compatibility)
   ISTART =      0    job   : 0-new  1-cont  2-samecut
   ICHARG =      2    charge: 1-file 2-atom 10-const
   ISPIN  =      1    spin polarized calculation?
   LNONCOLLINEAR =      F non collinear calculations
   LSORBIT =      F    spin-orbit coupling
   INIWAV =      1    electr: 0-lowe 1-rand  2-diag
   LASPH  =      F    aspherical Exc in radial PAW
   METAGGA=      F    non-selfconsistent MetaGGA calc.

 Electronic Relaxation 1
   ENCUT  =  700.0 eV  51.45 Ry    7.17 a.u.  10.01 10.01 10.01*2*pi/ulx,y,z
   ENINI  =  700.0     initial cutoff
   ENAUG  =  380.9 eV  augmentation charge cutoff
   NELM   =     60;   NELMIN=  5; NELMDL= -5     # of ELM steps
   EDIFF  = 0.1E-06   stopping-criterion for ELM
   LREAL  =      F    real-space projection
   NLSPLINE    = F    spline interpolate recip. space projectors
   LCOMPAT=      F    compatible to vasp.4.4
   GGA_COMPAT  = T    GGA compatible to vasp.4.4-vasp.4.6
   LMAXPAW     = -100 max onsite density
   LMAXMIX     =    2 max onsite mixed and CHGCAR
   VOSKOWN=      0    Vosko Wilk Nusair interpolation
   ROPT   =    0.00000   0.00000   0.00000
 Ionic relaxation
   EDIFFG = 0.1E-05   stopping-criterion for IOM
   NSW    =      0    number of steps for IOM
   NBLOCK =      1;   KBLOCK =      1    inner block; outer block
   IBRION =     -1    ionic relax: 0-MD 1-quasi-New 2-CG
   NFREE  =      0    steps in history (QN), initial steepest desc. (CG)
   ISIF   =      3    stress and relaxation
   IWAVPR =     10    prediction:  0-non 1-charg 2-wave 3-comb
   ISYM   =      2    0-nonsym 1-usesym 2-fastsym
   LCORR  =      T    Harris-Foulkes like correction to forces

   POTIM  = 0.5000    time-step for ionic-motion
   TEIN   =    0.0    initial temperature
   TEBEG  =    0.0;   TEEND  =   0.0 temperature during run
   SMASS  =  -3.00    Nose mass-parameter (am)
   estimated Nose-frequenzy (Omega)   =  0.10E-29 period in steps = 0.13E+47 mass=  -0.492E-27a.u.
   SCALEE = 1.0000    scale energy and forces
   NPACO  =    256;   APACO  = 16.0  distance and # of slots for P.C.
   PSTRESS=    0.0 pullay stress

  Mass of Ions in am
   POMASS = 178.49121.75195.08
  Ionic Valenz
   ZVAL   =  10.00  5.00 10.00
  Atomic Wigner-Seitz radii
   RWIGS  =  -1.00 -1.00 -1.00
  virtual crystal weights
   VCA    =   1.00  1.00  1.00
   NELECT =      25.0000    total number of electrons
   NUPDOWN=      -1.0000    fix difference up-down

 DOS related values:
   EMIN   =  10.00;   EMAX   =-10.00  energy-range for DOS
   EFERMI =   0.00
   ISMEAR =     0;   SIGMA  =   0.01  broadening in eV -4-tet -1-fermi 0-gaus

 Electronic relaxation 2 (details)
   IALGO  =     38    algorithm
   LDIAG  =      T    sub-space diagonalisation (order eigenvalues)
   LSUBROT=      F    optimize rotation matrix (better conditioning)
   TURBO    =      0    0=normal 1=particle mesh
   IRESTART =      0    0=no restart 2=restart with 2 vectors
   NREBOOT  =      0    no. of reboots
   NMIN     =      0    reboot dimension
   EREF     =   0.00    reference energy to select bands
   IMIX   =      4    mixing-type and parameters
     AMIX     =   0.40;   BMIX     =  1.00
     AMIX_MAG =   1.60;   BMIX_MAG =  1.00
     AMIN     =   0.10
     WC   =   100.;   INIMIX=   1;  MIXPRE=   1;  MAXMIX= -45

 Intra band minimization:
   WEIMIN = 0.0000     energy-eigenvalue tresh-hold
   EBREAK =  0.16E-08  absolut break condition
   DEPER  =   0.30     relativ break condition

   TIME   =   0.40     timestep for ELM

  volume/ion in A,a.u.               =      23.54       158.88
  Fermi-wavevector in a.u.,A,eV,Ry     =   1.158034  2.188367 18.245988  1.341042
  Thomas-Fermi vector in A             =   2.294640

 Write flags
   LWAVE        =      F    write WAVECAR
   LDOWNSAMPLE  =      F    k-point downsampling of WAVECAR
   LCHARG       =      F    write CHGCAR
   LVTOT        =      F    write LOCPOT, total local potential
   LVHAR        =      F    write LOCPOT, Hartree potential only
   LELF         =      F    write electronic localiz. function (ELF)
   LORBIT       =      0    0 simple, 1 ext, 2 COOP (PROOUT), +10 PAW based schemes


 Dipole corrections
   LMONO  =      F    monopole corrections only (constant potential shift)
   LDIPOL =      F    correct potential (dipole corrections)
   IDIPOL =      0    1-x, 2-y, 3-z, 4-all directions
   EPSILON=  1.0000000 bulk dielectric constant

 Exchange correlation treatment:
   GGA     =    PS    GGA type
   LEXCH   =    14    internal setting for exchange type
   VOSKOWN=      0    Vosko Wilk Nusair interpolation
   LHFCALC =     F    Hartree Fock is set to
   LHFONE  =     F    Hartree Fock one center treatment
   AEXX    =    0.0000 exact exchange contribution

 Linear response parameters
   LEPSILON=     F    determine dielectric tensor
   LRPA    =     F    only Hartree local field effects (RPA)
   LNABLA  =     F    use nabla operator in PAW spheres
   LVEL    =     F    velocity operator in full k-point grid
   LINTERFAST=   F  fast interpolation
   KINTER  =     0    interpolate to denser k-point grid
   CSHIFT  =0.1000    complex shift for real part using Kramers Kronig
   OMEGAMAX=  -1.0    maximum frequency
   DEG_THRESHOLD= 0.2000000E-02 threshold for treating states as degnerate
   RTIME   =   -0.100 relaxation time in fs
  (WPLASMAI=    0.000 imaginary part of plasma frequency in eV, 0.658/RTIME)
   DFIELD  = 0.0000000 0.0000000 0.0000000 field for delta impulse in time

 Orbital magnetization related:
   ORBITALMAG=     F  switch on orbital magnetization
   LCHIMAG   =     F  perturbation theory with respect to B field
   DQ        =  0.001000  dq finite difference perturbation B field
   LLRAUG    =     F  two centre corrections for induced B field



--------------------------------------------------------------------------------------------------------


 Static calculation
 charge density and potential will be updated during run
 non-spin polarized calculation
 Variant of blocked Davidson
 Davidson routine will perform the subspace rotation
 perform sub-space diagonalisation
    after iterative eigenvector-optimisation
 modified Broyden-mixing scheme, WC =      100.0
 initial mixing is a Kerker type mixing with AMIX =  0.4000 and BMIX =      1.0000
 Hartree-type preconditioning will be used
 using additional bands            3
 reciprocal scheme for non local part
 use partial core corrections
 calculate Harris-corrections to forces
   (improved forces if not selfconsistent)
 use gradient corrections
 use of overlap-Matrix (Vanderbilt PP)
 Gauss-broadening in eV      SIGMA  =   0.01


--------------------------------------------------------------------------------------------------------


  energy-cutoff  :      700.00
  volume of cell :       70.63
      direct lattice vectors                 reciprocal lattice vectors
     0.000000000  3.280879374  3.280879374    -0.152398166  0.152398166  0.152398166
     3.280879374  0.000000000  3.280879374     0.152398166 -0.152398166  0.152398166
     3.280879374  3.280879374  0.000000000     0.152398166  0.152398166 -0.152398166

  length of vectors
     4.639864108  4.639864108  4.639864108     0.263961367  0.263961367  0.263961367



 k-points in units of 2pi/SCALE and weight: KPOINTS
   0.00000000  0.00000000  0.00000000       0.000
  -0.01210135  0.01210135  0.01210135       0.004
  -0.02420271  0.02420271  0.02420271       0.004
  -0.03630406  0.03630406  0.03630406       0.004
  -0.04840541  0.04840541  0.04840541       0.004
  -0.06050677  0.06050677  0.06050677       0.004
  -0.07260812  0.07260812  0.07260812       0.004
   0.00000000 -0.00000000  0.02420271       0.003
  -0.01210135  0.01210135  0.03630406       0.011
  -0.02420271  0.02420271  0.04840541       0.011
  -0.03630406  0.03630406  0.06050677       0.011
  -0.04840541  0.04840541  0.07260812       0.011
  -0.06050677  0.06050677  0.08470948       0.011
   0.08470948 -0.08470948 -0.06050677       0.011
   0.07260812 -0.07260812 -0.04840541       0.011
   0.06050677 -0.06050677 -0.03630406       0.011
   0.04840541 -0.04840541 -0.02420271       0.011
   0.03630406 -0.03630406 -0.01210135       0.011
   0.02420271 -0.02420271  0.00000000       0.005
   0.00000000 -0.00000000  0.04840541       0.003
  -0.01210135  0.01210135  0.06050677       0.011
  -0.02420271  0.02420271  0.07260812       0.011
  -0.03630406  0.03630406  0.08470948       0.011
  -0.04840541  0.04840541  0.09681083       0.011
   0.09681083 -0.09681083 -0.04840541       0.011
   0.08470948 -0.08470948 -0.03630406       0.011
   0.07260812 -0.07260812 -0.02420271       0.011
   0.06050677 -0.06050677 -0.01210135       0.011
   0.04840541 -0.04840541  0.00000000       0.005
  -0.00000000  0.00000000  0.07260812       0.003
  -0.01210135  0.01210135  0.08470948       0.011
  -0.02420271  0.02420271  0.09681083       0.011
  -0.03630406  0.03630406  0.10891218       0.011
   0.10891218 -0.10891218 -0.03630406       0.011
   0.09681083 -0.09681083 -0.02420271       0.011
   0.08470948 -0.08470948 -0.01210135       0.011
   0.07260812 -0.07260812 -0.00000000       0.005
   0.00000000 -0.00000000  0.09681083       0.003
  -0.01210135  0.01210135  0.10891218       0.011
  -0.02420271  0.02420271  0.12101354       0.011
   0.12101354 -0.12101354 -0.02420271       0.011
   0.10891218 -0.10891218 -0.01210135       0.011
   0.09681083 -0.09681083  0.00000000       0.005
  -0.00000000 -0.00000000  0.12101354       0.003
  -0.01210135  0.01210135  0.13311489       0.011
   0.13311489 -0.13311489 -0.01210135       0.011
   0.12101354 -0.12101354  0.00000000       0.005
  -0.00000000  0.00000000  0.14521624       0.003
   0.14521624 -0.14521624 -0.00000000       0.005
   0.00000000  0.02420271  0.04840541       0.011
  -0.01210135  0.03630406  0.06050677       0.022
  -0.02420271  0.04840541  0.07260812       0.022
  -0.03630406  0.06050677  0.08470948       0.022
   0.10891218 -0.08470948 -0.06050677       0.022
   0.00000000  0.02420271  0.07260812       0.011
  -0.01210135  0.03630406  0.08470948       0.022
  -0.02420271  0.04840541  0.09681083       0.022
   0.12101354 -0.09681083 -0.04840541       0.022
   0.10891218 -0.08470948 -0.03630406       0.022
   0.09681083 -0.07260812 -0.02420271       0.022
   0.08470948 -0.06050677 -0.01210135       0.022
   0.07260812 -0.04840541 -0.00000000       0.011
  -0.00000000  0.02420271  0.09681083       0.011
  -0.01210135  0.03630406  0.10891218       0.022
   0.13311489 -0.10891218 -0.03630406       0.022
   0.12101354 -0.09681083 -0.02420271       0.022
   0.10891218 -0.08470948 -0.01210135       0.022
   0.09681083 -0.07260812 -0.00000000       0.011
   0.00000000  0.02420271  0.12101354       0.011
   0.14521624 -0.12101354 -0.02420271       0.022
   0.13311489 -0.10891218 -0.01210135       0.022
   0.12101354 -0.09681083  0.00000000       0.011
   0.15731760 -0.13311489 -0.01210135       0.011
   0.14521624 -0.12101354 -0.00000000       0.011
   0.00000000  0.04840541  0.09681083       0.011
   0.14521624 -0.09681083 -0.04840541       0.022
   0.13311489 -0.08470948 -0.03630406       0.022
   0.15731760 -0.10891218 -0.03630406       0.011
   0.14521624 -0.09681083 -0.02420271       0.022
   0.13311489 -0.08470948 -0.01210135       0.022
   0.12101354 -0.07260812 -0.00000000       0.011
   0.15731760 -0.10891218 -0.01210135       0.011
   0.14521624 -0.09681083 -0.00000000       0.011
   0.15731760 -0.08470948 -0.01210135       0.011

 k-points in reciprocal lattice and weights: KPOINTS
   0.00000000  0.00000000  0.00000000       0.000
   0.07692308 -0.00000000  0.00000000       0.004
   0.15384615 -0.00000000 -0.00000000       0.004
   0.23076923  0.00000000 -0.00000000       0.004
   0.30769231 -0.00000000 -0.00000000       0.004
   0.38461538 -0.00000000 -0.00000000       0.004
   0.46153846  0.00000000 -0.00000000       0.004
   0.07692308  0.07692308 -0.00000000       0.003
   0.15384615  0.07692308 -0.00000000       0.011
   0.23076923  0.07692308 -0.00000000       0.011
   0.30769231  0.07692308 -0.00000000       0.011
   0.38461538  0.07692308 -0.00000000       0.011
   0.46153846  0.07692308 -0.00000000       0.011
  -0.46153846  0.07692308  0.00000000       0.011
  -0.38461538  0.07692308  0.00000000       0.011
  -0.30769231  0.07692308  0.00000000       0.011
  -0.23076923  0.07692308  0.00000000       0.011
  -0.15384615  0.07692308  0.00000000       0.011
  -0.07692308  0.07692308 -0.00000000       0.005
   0.15384615  0.15384615 -0.00000000       0.003
   0.23076923  0.15384615 -0.00000000       0.011
   0.30769231  0.15384615 -0.00000000       0.011
   0.38461538  0.15384615 -0.00000000       0.011
   0.46153846  0.15384615 -0.00000000       0.011
  -0.46153846  0.15384615  0.00000000       0.011
  -0.38461538  0.15384615 -0.00000000       0.011
  -0.30769231  0.15384615  0.00000000       0.011
  -0.23076923  0.15384615 -0.00000000       0.011
  -0.15384615  0.15384615 -0.00000000       0.005
   0.23076923  0.23076923 -0.00000000       0.003
   0.30769231  0.23076923  0.00000000       0.011
   0.38461538  0.23076923 -0.00000000       0.011
   0.46153846  0.23076923 -0.00000000       0.011
  -0.46153846  0.23076923  0.00000000       0.011
  -0.38461538  0.23076923 -0.00000000       0.011
  -0.30769231  0.23076923 -0.00000000       0.011
  -0.23076923  0.23076923  0.00000000       0.005
   0.30769231  0.30769231 -0.00000000       0.003
   0.38461538  0.30769231  0.00000000       0.011
   0.46153846  0.30769231 -0.00000000       0.011
  -0.46153846  0.30769231 -0.00000000       0.011
  -0.38461538  0.30769231  0.00000000       0.011
  -0.30769231  0.30769231 -0.00000000       0.005
   0.38461538  0.38461538 -0.00000000       0.003
   0.46153846  0.38461538 -0.00000000       0.011
  -0.46153846  0.38461538  0.00000000       0.011
  -0.38461538  0.38461538 -0.00000000       0.005
   0.46153846  0.46153846 -0.00000000       0.003
  -0.46153846  0.46153846  0.00000000       0.005
   0.23076923  0.15384615  0.07692308       0.011
   0.30769231  0.15384615  0.07692308       0.022
   0.38461538  0.15384615  0.07692308       0.022
   0.46153846  0.15384615  0.07692308       0.022
  -0.46153846  0.15384615  0.07692308       0.022
   0.30769231  0.23076923  0.07692308       0.011
   0.38461538  0.23076923  0.07692308       0.022
   0.46153846  0.23076923  0.07692308       0.022
  -0.46153846  0.23076923  0.07692308       0.022
  -0.38461538  0.23076923  0.07692308       0.022
  -0.30769231  0.23076923  0.07692308       0.022
  -0.23076923  0.23076923  0.07692308       0.022
  -0.15384615  0.23076923  0.07692308       0.011
   0.38461538  0.30769231  0.07692308       0.011
   0.46153846  0.30769231  0.07692308       0.022
  -0.46153846  0.30769231  0.07692308       0.022
  -0.38461538  0.30769231  0.07692308       0.022
  -0.30769231  0.30769231  0.07692308       0.022
  -0.23076923  0.30769231  0.07692308       0.011
   0.46153846  0.38461538  0.07692308       0.011
  -0.46153846  0.38461538  0.07692308       0.022
  -0.38461538  0.38461538  0.07692308       0.022
  -0.30769231  0.38461538  0.07692308       0.011
  -0.46153846  0.46153846  0.07692308       0.011
  -0.38461538  0.46153846  0.07692308       0.011
   0.46153846  0.30769231  0.15384615       0.011
  -0.46153846  0.30769231  0.15384615       0.022
  -0.38461538  0.30769231  0.15384615       0.022
  -0.46153846  0.38461538  0.15384615       0.011
  -0.38461538  0.38461538  0.15384615       0.022
  -0.30769231  0.38461538  0.15384615       0.022
  -0.23076923  0.38461538  0.15384615       0.011
  -0.38461538  0.46153846  0.15384615       0.011
  -0.30769231  0.46153846  0.15384615       0.011
  -0.30769231  0.46153846  0.23076923       0.011

 position of ions in fractional coordinates (direct lattice)
   0.75000000  0.75000000  0.75000000
   0.25000000  0.25000000  0.25000000
   0.00000000  0.00000000  0.00000000

 position of ions in cartesian coordinates  (Angst):
   4.92131906  4.92131906  4.92131906
   1.64043969  1.64043969  1.64043969
   0.00000000  0.00000000  0.00000000



--------------------------------------------------------------------------------------------------------


 k-point  1 :   0.0000 0.0000 0.0000  plane waves:    2975
 k-point  2 :   0.0769-0.0000 0.0000  plane waves:    2954
 k-point  3 :   0.1538-0.0000-0.0000  plane waves:    2963
 k-point  4 :   0.2308 0.0000-0.0000  plane waves:    2947
 k-point  5 :   0.3077-0.0000-0.0000  plane waves:    2950
 k-point  6 :   0.3846-0.0000-0.0000  plane waves:    2962
 k-point  7 :   0.4615 0.0000-0.0000  plane waves:    2962
 k-point  8 :   0.0769 0.0769-0.0000  plane waves:    2967
 k-point  9 :   0.1538 0.0769-0.0000  plane waves:    2950
 k-point 10 :   0.2308 0.0769-0.0000  plane waves:    2942
 k-point 11 :   0.3077 0.0769-0.0000  plane waves:    2961
 k-point 12 :   0.3846 0.0769-0.0000  plane waves:    2964
 k-point 13 :   0.4615 0.0769-0.0000  plane waves:    2965
 k-point 14 :  -0.4615 0.0769 0.0000  plane waves:    2964
 k-point 15 :  -0.3846 0.0769 0.0000  plane waves:    2971
 k-point 16 :  -0.3077 0.0769 0.0000  plane waves:    2961
 k-point 17 :  -0.2308 0.0769 0.0000  plane waves:    2958
 k-point 18 :  -0.1538 0.0769 0.0000  plane waves:    2958
 k-point 19 :  -0.0769 0.0769-0.0000  plane waves:    2960
 k-point 20 :   0.1538 0.1538-0.0000  plane waves:    2958
 k-point 21 :   0.2308 0.1538-0.0000  plane waves:    2947
 k-point 22 :   0.3077 0.1538-0.0000  plane waves:    2960
 k-point 23 :   0.3846 0.1538-0.0000  plane waves:    2964
 k-point 24 :   0.4615 0.1538-0.0000  plane waves:    2971
 k-point 25 :  -0.4615 0.1538 0.0000  plane waves:    2969
 k-point 26 :  -0.3846 0.1538-0.0000  plane waves:    2976
 k-point 27 :  -0.3077 0.1538 0.0000  plane waves:    2956
 k-point 28 :  -0.2308 0.1538-0.0000  plane waves:    2973
 k-point 29 :  -0.1538 0.1538-0.0000  plane waves:    2960
 k-point 30 :   0.2308 0.2308-0.0000  plane waves:    2950
 k-point 31 :   0.3077 0.2308 0.0000  plane waves:    2966
 k-point 32 :   0.3846 0.2308-0.0000  plane waves:    2966
 k-point 33 :   0.4615 0.2308-0.0000  plane waves:    2977
 k-point 34 :  -0.4615 0.2308 0.0000  plane waves:    2967
 k-point 35 :  -0.3846 0.2308-0.0000  plane waves:    2970
 k-point 36 :  -0.3077 0.2308-0.0000  plane waves:    2975
 k-point 37 :  -0.2308 0.2308 0.0000  plane waves:    2968
 k-point 38 :   0.3077 0.3077-0.0000  plane waves:    2970
 k-point 39 :   0.3846 0.3077 0.0000  plane waves:    2969
 k-point 40 :   0.4615 0.3077-0.0000  plane waves:    2970
 k-point 41 :  -0.4615 0.3077-0.0000  plane waves:    2969
 k-point 42 :  -0.3846 0.3077 0.0000  plane waves:    2974
 k-point 43 :  -0.3077 0.3077-0.0000  plane waves:    2972
 k-point 44 :   0.3846 0.3846-0.0000  plane waves:    2966
 k-point 45 :   0.4615 0.3846-0.0000  plane waves:    2970
 k-point 46 :  -0.4615 0.3846 0.0000  plane waves:    2972
 k-point 47 :  -0.3846 0.3846-0.0000  plane waves:    2972
 k-point 48 :   0.4615 0.4615-0.0000  plane waves:    2974
 k-point 49 :  -0.4615 0.4615 0.0000  plane waves:    2966
 k-point 50 :   0.2308 0.1538 0.0769  plane waves:    2947
 k-point 51 :   0.3077 0.1538 0.0769  plane waves:    2958
 k-point 52 :   0.3846 0.1538 0.0769  plane waves:    2968
 k-point 53 :   0.4615 0.1538 0.0769  plane waves:    2970
 k-point 54 :  -0.4615 0.1538 0.0769  plane waves:    2983
 k-point 55 :   0.3077 0.2308 0.0769  plane waves:    2957
 k-point 56 :   0.3846 0.2308 0.0769  plane waves:    2969
 k-point 57 :   0.4615 0.2308 0.0769  plane waves:    2979
 k-point 58 :  -0.4615 0.2308 0.0769  plane waves:    2976
 k-point 59 :  -0.3846 0.2308 0.0769  plane waves:    2970
 k-point 60 :  -0.3077 0.2308 0.0769  plane waves:    2979
 k-point 61 :  -0.2308 0.2308 0.0769  plane waves:    2967
 k-point 62 :  -0.1538 0.2308 0.0769  plane waves:    2963
 k-point 63 :   0.3846 0.3077 0.0769  plane waves:    2966
 k-point 64 :   0.4615 0.3077 0.0769  plane waves:    2976
 k-point 65 :  -0.4615 0.3077 0.0769  plane waves:    2979
 k-point 66 :  -0.3846 0.3077 0.0769  plane waves:    2986
 k-point 67 :  -0.3077 0.3077 0.0769  plane waves:    2980
 k-point 68 :  -0.2308 0.3077 0.0769  plane waves:    2979
 k-point 69 :   0.4615 0.3846 0.0769  plane waves:    2974
 k-point 70 :  -0.4615 0.3846 0.0769  plane waves:    2970
 k-point 71 :  -0.3846 0.3846 0.0769  plane waves:    2973
 k-point 72 :  -0.3077 0.3846 0.0769  plane waves:    2977
 k-point 73 :  -0.4615 0.4615 0.0769  plane waves:    2967
 k-point 74 :  -0.3846 0.4615 0.0769  plane waves:    2973
 k-point 75 :   0.4615 0.3077 0.1538  plane waves:    2971
 k-point 76 :  -0.4615 0.3077 0.1538  plane waves:    2985
 k-point 77 :  -0.3846 0.3077 0.1538  plane waves:    2982
 k-point 78 :  -0.4615 0.3846 0.1538  plane waves:    2986
 k-point 79 :  -0.3846 0.3846 0.1538  plane waves:    2979
 k-point 80 :  -0.3077 0.3846 0.1538  plane waves:    2975
 k-point 81 :  -0.2308 0.3846 0.1538  plane waves:    2985
 k-point 82 :  -0.3846 0.4615 0.1538  plane waves:    2970
 k-point 83 :  -0.3077 0.4615 0.1538  plane waves:    2982
 k-point 84 :  -0.3077 0.4615 0.2308  plane waves:    2987

 maximum and minimum number of plane-waves per node :       754      732

 maximum number of plane-waves:      2987
 maximum index in each direction:
   IXMAX=   10   IYMAX=   10   IZMAX=   10
   IXMIN=  -10   IYMIN=  -10   IZMIN=  -10


 parallel 3D FFT for wavefunctions:
    minimum data exchange during FFTs selected (reduces bandwidth)
 parallel 3D FFT for charge:
    minimum data exchange during FFTs selected (reduces bandwidth)


 total amount of memory used by VASP MPI-rank0    69426. kBytes
=======================================================================

   base      :      30000. kBytes
   nonl-proj :      27324. kBytes
   fftplans  :       5205. kBytes
   grid      :       2732. kBytes
   one-center:         15. kBytes
   wavefun   :       4150. kBytes

     INWAV:  cpu time    0.0002: real time    0.0005
 Broyden mixing: mesh for mixing (old mesh)
   NGX = 21   NGY = 21   NGZ = 21
  (NGX  = 80   NGY  = 80   NGZ  = 80)
  gives a total of   9261 points

 initial charge density was supplied:
 charge density of overlapping atoms calculated
 number of electron      25.0000000 magnetization
 keeping initial charge density in first step


--------------------------------------------------------------------------------------------------------


 Maximum index for augmentation-charges        26577 (set IRDMAX)


--------------------------------------------------------------------------------------------------------


 First call to EWALD:  gamma=   0.429
 Maximum number of real-space cells 3x 3x 3
 Maximum number of reciprocal cells 3x 3x 3

    FEWALD:  cpu time    0.0052: real time    0.0057


--------------------------------------- Iteration      1(   1)  ---------------------------------------


    POTLOK:  cpu time    0.0437: real time    0.1279
    SETDIJ:  cpu time    0.0712: real time    0.0715
     EDDAV:  cpu time    0.9252: real time    0.9493
       DOS:  cpu time    0.0035: real time    0.0043
    --------------------------------------------
      LOOP:  cpu time    1.0438: real time    1.1535

 eigenvalue-minimisations  :  2688
 total energy-change (2. order) : 0.1366955E+03  (-0.1413101E+04)
 number of electron      25.0000000 magnetization
 augmentation part       25.0000000 magnetization

 Free energy of the ion-electron system (eV)
  ---------------------------------------------------
  alpha Z        PSCENC =        96.45436617
  Ewald energy   TEWEN  =     -1515.46551916
  -Hartree energ DENC   =      -341.69030789
  -exchange      EXHF   =         0.00000000
  -V(xc)+E(xc)   XCENC  =       -19.76784951
  PAW double counting   =      1514.36848356    -1421.27055995
  entropy T*S    EENTRO =        -0.00017915
  eigenvalues    EBANDS =        82.96257666
  atomic energy  EATOM  =      1741.10451121
  Solvation  Ediel_sol  =         0.00000000
  ---------------------------------------------------
  free energy    TOTEN  =       136.69552194 eV

  energy without entropy =      136.69570109  energy(sigma->0) =      136.69561151


--------------------------------------------------------------------------------------------------------




--------------------------------------- Iteration      1(   2)  ---------------------------------------


     EDDAV:  cpu time    1.1169: real time    1.1423
       DOS:  cpu time    0.0027: real time    0.0029
    --------------------------------------------
      LOOP:  cpu time    1.1196: real time    1.1464

 eigenvalue-minimisations  :  3384
 total energy-change (2. order) :-0.1566031E+03  (-0.1548273E+03)
 number of electron      25.0000000 magnetization
 augmentation part       25.0000000 magnetization

 Free energy of the ion-electron system (eV)
  ---------------------------------------------------
  alpha Z        PSCENC =        96.45436617
  Ewald energy   TEWEN  =     -1515.46551916
  -Hartree energ DENC   =      -341.69030789
  -exchange      EXHF   =         0.00000000
  -V(xc)+E(xc)   XCENC  =       -19.76784951
  PAW double counting   =      1514.36848356    -1421.27055995
  entropy T*S    EENTRO =        -0.00030086
  eigenvalues    EBANDS =       -73.64044254
  atomic energy  EATOM  =      1741.10451121
  Solvation  Ediel_sol  =         0.00000000
  ---------------------------------------------------
  free energy    TOTEN  =       -19.90761898 eV

  energy without entropy =      -19.90731812  energy(sigma->0) =      -19.90746855


--------------------------------------------------------------------------------------------------------




--------------------------------------- Iteration      1(   3)  ---------------------------------------


     EDDAV:  cpu time    1.1631: real time    1.1778
       DOS:  cpu time    0.0024: real time    0.0026
    --------------------------------------------
      LOOP:  cpu time    1.1655: real time    1.1809

 eigenvalue-minimisations  :  3624
 total energy-change (2. order) :-0.4964784E+01  (-0.4897280E+01)
 number of electron      25.0000000 magnetization
 augmentation part       25.0000000 magnetization

 Free energy of the ion-electron system (eV)
  ---------------------------------------------------
  alpha Z        PSCENC =        96.45436617
  Ewald energy   TEWEN  =     -1515.46551916
  -Hartree energ DENC   =      -341.69030789
  -exchange      EXHF   =         0.00000000
  -V(xc)+E(xc)   XCENC  =       -19.76784951
  PAW double counting   =      1514.36848356    -1421.27055995
  entropy T*S    EENTRO =        -0.00016899
  eigenvalues    EBANDS =       -78.60535857
  atomic energy  EATOM  =      1741.10451121
  Solvation  Ediel_sol  =         0.00000000
  ---------------------------------------------------
  free energy    TOTEN  =       -24.87240313 eV

  energy without entropy =      -24.87223415  energy(sigma->0) =      -24.87231864


--------------------------------------------------------------------------------------------------------




--------------------------------------- Iteration      1(   4)  ---------------------------------------


     EDDAV:  cpu time    1.0900: real time    1.1119
       DOS:  cpu time    0.0026: real time    0.0028
    --------------------------------------------
      LOOP:  cpu time    1.0926: real time    1.1154

 eigenvalue-minimisations  :  3336
 total energy-change (2. order) :-0.6764860E-01  (-0.6761402E-01)
 number of electron      25.0000000 magnetization
 augmentation part       25.0000000 magnetization

 Free energy of the ion-electron system (eV)
  ---------------------------------------------------
  alpha Z        PSCENC =        96.45436617
  Ewald energy   TEWEN  =     -1515.46551916
  -Hartree energ DENC   =      -341.69030789
  -exchange      EXHF   =         0.00000000
  -V(xc)+E(xc)   XCENC  =       -19.76784951
  PAW double counting   =      1514.36848356    -1421.27055995
  entropy T*S    EENTRO =        -0.00016914
  eigenvalues    EBANDS =       -78.67300702
  atomic energy  EATOM  =      1741.10451121
  Solvation  Ediel_sol  =         0.00000000
  ---------------------------------------------------
  free energy    TOTEN  =       -24.94005173 eV

  energy without entropy =      -24.93988260  energy(sigma->0) =      -24.93996716


--------------------------------------------------------------------------------------------------------




--------------------------------------- Iteration      1(   5)  ---------------------------------------


     EDDAV:  cpu time    1.1538: real time    1.1891
       DOS:  cpu time    0.0026: real time    0.0032
    CHARGE:  cpu time    0.2232: real time    0.2241
    MIXING:  cpu time    0.0054: real time    0.0056
    --------------------------------------------
      LOOP:  cpu time    1.3850: real time    1.4207

 eigenvalue-minimisations  :  3664
 total energy-change (2. order) :-0.1738521E-02  (-0.1738040E-02)
 number of electron      25.0000000 magnetization
 augmentation part        4.7660263 magnetization

 Broyden mixing:
  rms(total) = 0.36323E+01    rms(broyden)= 0.36323E+01
  rms(prec ) = 0.38910E+01
  weight for this iteration     100.00

 Free energy of the ion-electron system (eV)
  ---------------------------------------------------
  alpha Z        PSCENC =        96.45436617
  Ewald energy   TEWEN  =     -1515.46551916
  -Hartree energ DENC   =      -341.69030789
  -exchange      EXHF   =         0.00000000
  -V(xc)+E(xc)   XCENC  =       -19.76784951
  PAW double counting   =      1514.36848356    -1421.27055995
  entropy T*S    EENTRO =        -0.00016707
  eigenvalues    EBANDS =       -78.67474761
  atomic energy  EATOM  =      1741.10451121
  Solvation  Ediel_sol  =         0.00000000
  ---------------------------------------------------
  free energy    TOTEN  =       -24.94179025 eV

  energy without entropy =      -24.94162318  energy(sigma->0) =      -24.94170672


--------------------------------------------------------------------------------------------------------




--------------------------------------- Iteration      1(   6)  ---------------------------------------


    POTLOK:  cpu time    0.0559: real time    0.0740
    SETDIJ:  cpu time    0.0742: real time    0.0743
     EDDAV:  cpu time    1.1229: real time    1.1231
       DOS:  cpu time    0.0026: real time    0.0028
    CHARGE:  cpu time    0.1835: real time    0.1837
    MIXING:  cpu time    0.0044: real time    0.0048
    --------------------------------------------
      LOOP:  cpu time    1.4435: real time    1.4625

 eigenvalue-minimisations  :  3504
 total energy-change (2. order) : 0.9346502E+00  (-0.2198346E+00)
 number of electron      25.0000000 magnetization
 augmentation part        4.9195480 magnetization

 Broyden mixing:
  rms(total) = 0.23043E+01    rms(broyden)= 0.23043E+01
  rms(prec ) = 0.23727E+01
  weight for this iteration     100.00

 eigenvalues of (default mixing * dielectric matrix)
  average eigenvalue GAMMA=   2.6331
  2.6331

 Free energy of the ion-electron system (eV)
  ---------------------------------------------------
  alpha Z        PSCENC =        96.45436617
  Ewald energy   TEWEN  =     -1515.46551916
  -Hartree energ DENC   =      -326.23276630
  -exchange      EXHF   =         0.00000000
  -V(xc)+E(xc)   XCENC  =       -20.31792463
  PAW double counting   =      1833.22711581    -1742.41797338
  entropy T*S    EENTRO =        -0.00009486
  eigenvalues    EBANDS =       -90.35885491
  atomic energy  EATOM  =      1741.10451121
  Solvation  Ediel_sol  =         0.00000000
  ---------------------------------------------------
  free energy    TOTEN  =       -24.00714004 eV

  energy without entropy =      -24.00704518  energy(sigma->0) =      -24.00709261


--------------------------------------------------------------------------------------------------------




--------------------------------------- Iteration      1(   7)  ---------------------------------------


    POTLOK:  cpu time    0.0488: real time    0.0695
    SETDIJ:  cpu time    0.0661: real time    0.0663
     EDDAV:  cpu time    1.1869: real time    1.1871
       DOS:  cpu time    0.0028: real time    0.0044
    CHARGE:  cpu time    0.1651: real time    0.1652
    MIXING:  cpu time    0.0037: real time    0.0038
    --------------------------------------------
      LOOP:  cpu time    1.4734: real time    1.4987

 eigenvalue-minimisations  :  3848
 total energy-change (2. order) : 0.1495570E+00  (-0.1127238E+00)
 number of electron      25.0000000 magnetization
 augmentation part        5.0159145 magnetization

 Broyden mixing:
  rms(total) = 0.30969E+00    rms(broyden)= 0.30969E+00
  rms(prec ) = 0.39874E+00
  weight for this iteration     100.00

 eigenvalues of (default mixing * dielectric matrix)
  average eigenvalue GAMMA=   1.9032
  1.3444  2.4620

 Free energy of the ion-electron system (eV)
  ---------------------------------------------------
  alpha Z        PSCENC =        96.45436617
  Ewald energy   TEWEN  =     -1515.46551916
  -Hartree energ DENC   =      -315.85321101
  -exchange      EXHF   =         0.00000000
  -V(xc)+E(xc)   XCENC  =       -20.63133306
  PAW double counting   =      2275.71243504    -2187.59814670
  entropy T*S    EENTRO =        -0.00051745
  eigenvalues    EBANDS =       -97.58016808
  atomic energy  EATOM  =      1741.10451121
  Solvation  Ediel_sol  =         0.00000000
  ---------------------------------------------------
  free energy    TOTEN  =       -23.85758305 eV

  energy without entropy =      -23.85706560  energy(sigma->0) =      -23.85732432


--------------------------------------------------------------------------------------------------------




--------------------------------------- Iteration      1(   8)  ---------------------------------------


    POTLOK:  cpu time    0.0474: real time    0.0726
    SETDIJ:  cpu time    0.0657: real time    0.0659
     EDDAV:  cpu time    1.0581: real time    1.0583
       DOS:  cpu time    0.0026: real time    0.0031
    CHARGE:  cpu time    0.1995: real time    0.1996
    MIXING:  cpu time    0.0040: real time    0.0042
    --------------------------------------------
      LOOP:  cpu time    1.3773: real time    1.4042

 eigenvalue-minimisations  :  3320
 total energy-change (2. order) : 0.2344106E-01  (-0.3490856E-01)
 number of electron      25.0000000 magnetization
 augmentation part        5.0031432 magnetization

 Broyden mixing:
  rms(total) = 0.60453E-01    rms(broyden)= 0.60453E-01
  rms(prec ) = 0.16120E+00
  weight for this iteration     100.00

 eigenvalues of (default mixing * dielectric matrix)
  average eigenvalue GAMMA=   1.5672
  2.4210  0.8749  1.4056

 Free energy of the ion-electron system (eV)
  ---------------------------------------------------
  alpha Z        PSCENC =        96.45436617
  Ewald energy   TEWEN  =     -1515.46551916
  -Hartree energ DENC   =      -318.62077042
  -exchange      EXHF   =         0.00000000
  -V(xc)+E(xc)   XCENC  =       -20.51014101
  PAW double counting   =      2289.12397393    -2200.96764682
  entropy T*S    EENTRO =        -0.00033074
  eigenvalues    EBANDS =       -94.95258515
  atomic energy  EATOM  =      1741.10451121
  Solvation  Ediel_sol  =         0.00000000
  ---------------------------------------------------
  free energy    TOTEN  =       -23.83414199 eV

  energy without entropy =      -23.83381124  energy(sigma->0) =      -23.83397662


--------------------------------------------------------------------------------------------------------




--------------------------------------- Iteration      1(   9)  ---------------------------------------


    POTLOK:  cpu time    0.0336: real time    0.0618
    SETDIJ:  cpu time    0.0652: real time    0.0655
     EDDAV:  cpu time    1.0901: real time    1.0906
       DOS:  cpu time    0.0026: real time    0.0029
    CHARGE:  cpu time    0.1620: real time    0.1621
    MIXING:  cpu time    0.0044: real time    0.0045
    --------------------------------------------
      LOOP:  cpu time    1.3579: real time    1.3850

 eigenvalue-minimisations  :  3432
 total energy-change (2. order) : 0.6432010E-02  (-0.3702904E-02)
 number of electron      25.0000000 magnetization
 augmentation part        4.9845490 magnetization

 Broyden mixing:
  rms(total) = 0.19154E-01    rms(broyden)= 0.19154E-01
  rms(prec ) = 0.39118E-01
  weight for this iteration     100.00

 eigenvalues of (default mixing * dielectric matrix)
  average eigenvalue GAMMA=   1.4099
  2.4302  1.3676  1.2041  0.6377

 Free energy of the ion-electron system (eV)
  ---------------------------------------------------
  alpha Z        PSCENC =        96.45436617
  Ewald energy   TEWEN  =     -1515.46551916
  -Hartree energ DENC   =      -318.86261373
  -exchange      EXHF   =         0.00000000
  -V(xc)+E(xc)   XCENC  =       -20.50258064
  PAW double counting   =      2295.35624973    -2207.18959697
  entropy T*S    EENTRO =        -0.00041042
  eigenvalues    EBANDS =       -94.72211617
  atomic energy  EATOM  =      1741.10451121
  Solvation  Ediel_sol  =         0.00000000
  ---------------------------------------------------
  free energy    TOTEN  =       -23.82770998 eV

  energy without entropy =      -23.82729956  energy(sigma->0) =      -23.82750477


--------------------------------------------------------------------------------------------------------




--------------------------------------- Iteration      1(  10)  ---------------------------------------


    POTLOK:  cpu time    0.0341: real time    0.0668
    SETDIJ:  cpu time    0.0659: real time    0.0661
     EDDAV:  cpu time    1.1170: real time    1.1172
       DOS:  cpu time    0.0027: real time    0.0030
    CHARGE:  cpu time    0.1611: real time    0.1615
    MIXING:  cpu time    0.0043: real time    0.0045
    --------------------------------------------
      LOOP:  cpu time    1.3853: real time    1.4186

 eigenvalue-minimisations  :  3584
 total energy-change (2. order) : 0.2355258E-03  (-0.6877404E-03)
 number of electron      25.0000000 magnetization
 augmentation part        4.9889213 magnetization

 Broyden mixing:
  rms(total) = 0.21382E-01    rms(broyden)= 0.21382E-01
  rms(prec ) = 0.28946E-01
  weight for this iteration     100.00

 eigenvalues of (default mixing * dielectric matrix)
  average eigenvalue GAMMA=   1.4518
  2.5926  1.9804  1.0170  1.0170  0.6522

 Free energy of the ion-electron system (eV)
  ---------------------------------------------------
  alpha Z        PSCENC =        96.45436617
  Ewald energy   TEWEN  =     -1515.46551916
  -Hartree energ DENC   =      -318.61317862
  -exchange      EXHF   =         0.00000000
  -V(xc)+E(xc)   XCENC  =       -20.51007012
  PAW double counting   =      2304.26063850    -2216.07046681
  entropy T*S    EENTRO =        -0.00040778
  eigenvalues    EBANDS =       -94.98734784
  atomic energy  EATOM  =      1741.10451121
  Solvation  Ediel_sol  =         0.00000000
  ---------------------------------------------------
  free energy    TOTEN  =       -23.82747445 eV

  energy without entropy =      -23.82706667  energy(sigma->0) =      -23.82727056


--------------------------------------------------------------------------------------------------------




--------------------------------------- Iteration      1(  11)  ---------------------------------------


    POTLOK:  cpu time    0.0321: real time    0.0631
    SETDIJ:  cpu time    0.0661: real time    0.0663
     EDDAV:  cpu time    1.0990: real time    1.0992
       DOS:  cpu time    0.0027: real time    0.0030
    CHARGE:  cpu time    0.1621: real time    0.1623
    MIXING:  cpu time    0.0043: real time    0.0046
    --------------------------------------------
      LOOP:  cpu time    1.3664: real time    1.3997

 eigenvalue-minimisations  :  3448
 total energy-change (2. order) : 0.1389060E-03  (-0.1242582E-03)
 number of electron      25.0000000 magnetization
 augmentation part        4.9881998 magnetization

 Broyden mixing:
  rms(total) = 0.47719E-02    rms(broyden)= 0.47719E-02
  rms(prec ) = 0.56141E-02
  weight for this iteration     100.00

 eigenvalues of (default mixing * dielectric matrix)
  average eigenvalue GAMMA=   1.3692
  2.6437  2.1251  1.1431  0.8831  0.7822  0.6378

 Free energy of the ion-electron system (eV)
  ---------------------------------------------------
  alpha Z        PSCENC =        96.45436617
  Ewald energy   TEWEN  =     -1515.46551916
  -Hartree energ DENC   =      -318.86804533
  -exchange      EXHF   =         0.00000000
  -V(xc)+E(xc)   XCENC  =       -20.49871130
  PAW double counting   =      2308.07764355    -2219.85366681
  entropy T*S    EENTRO =        -0.00041885
  eigenvalues    EBANDS =       -94.77749503
  atomic energy  EATOM  =      1741.10451121
  Solvation  Ediel_sol  =         0.00000000
  ---------------------------------------------------
  free energy    TOTEN  =       -23.82733555 eV

  energy without entropy =      -23.82691670  energy(sigma->0) =      -23.82712612


--------------------------------------------------------------------------------------------------------




--------------------------------------- Iteration      1(  12)  ---------------------------------------


    POTLOK:  cpu time    0.0344: real time    0.0612
    SETDIJ:  cpu time    0.0656: real time    0.0658
     EDDAV:  cpu time    1.0148: real time    1.0152
       DOS:  cpu time    0.0027: real time    0.0031
    CHARGE:  cpu time    0.1602: real time    0.1603
    MIXING:  cpu time    0.0045: real time    0.0048
    --------------------------------------------
      LOOP:  cpu time    1.2822: real time    1.3093

 eigenvalue-minimisations  :  3144
 total energy-change (2. order) : 0.2380211E-05  (-0.2790214E-05)
 number of electron      25.0000000 magnetization
 augmentation part        4.9881159 magnetization

 Broyden mixing:
  rms(total) = 0.28276E-02    rms(broyden)= 0.28276E-02
  rms(prec ) = 0.31003E-02
  weight for this iteration     100.00

 eigenvalues of (default mixing * dielectric matrix)
  average eigenvalue GAMMA=   1.4971
  2.4980  2.4980  1.8459  0.6618  1.0558  0.9602  0.9602

 Free energy of the ion-electron system (eV)
  ---------------------------------------------------
  alpha Z        PSCENC =        96.45436617
  Ewald energy   TEWEN  =     -1515.46551916
  -Hartree energ DENC   =      -318.86111638
  -exchange      EXHF   =         0.00000000
  -V(xc)+E(xc)   XCENC  =       -20.49907415
  PAW double counting   =      2308.60029482    -2220.37128625
  entropy T*S    EENTRO =        -0.00041807
  eigenvalues    EBANDS =       -94.78909136
  atomic energy  EATOM  =      1741.10451121
  Solvation  Ediel_sol  =         0.00000000
  ---------------------------------------------------
  free energy    TOTEN  =       -23.82733317 eV

  energy without entropy =      -23.82691510  energy(sigma->0) =      -23.82712413


--------------------------------------------------------------------------------------------------------




--------------------------------------- Iteration      1(  13)  ---------------------------------------


    POTLOK:  cpu time    0.0515: real time    0.0745
    SETDIJ:  cpu time    0.0632: real time    0.0633
     EDDAV:  cpu time    1.1766: real time    1.1768
       DOS:  cpu time    0.0026: real time    0.0031
    CHARGE:  cpu time    0.1609: real time    0.1662
    MIXING:  cpu time    0.0045: real time    0.0081
    --------------------------------------------
      LOOP:  cpu time    1.4592: real time    1.4932

 eigenvalue-minimisations  :  3800
 total energy-change (2. order) : 0.1618896E-05  (-0.9912940E-06)
 number of electron      25.0000000 magnetization
 augmentation part        4.9879814 magnetization

 Broyden mixing:
  rms(total) = 0.31303E-02    rms(broyden)= 0.31303E-02
  rms(prec ) = 0.32830E-02
  weight for this iteration     100.00

 eigenvalues of (default mixing * dielectric matrix)
  average eigenvalue GAMMA=   1.4395
  2.5914  2.5914  1.9487  1.1377  0.9759  0.6451  0.8130  0.8130

 Free energy of the ion-electron system (eV)
  ---------------------------------------------------
  alpha Z        PSCENC =        96.45436617
  Ewald energy   TEWEN  =     -1515.46551916
  -Hartree energ DENC   =      -318.85481340
  -exchange      EXHF   =         0.00000000
  -V(xc)+E(xc)   XCENC  =       -20.49944922
  PAW double counting   =      2309.93708296    -2221.69859658
  entropy T*S    EENTRO =        -0.00041708
  eigenvalues    EBANDS =       -94.80449645
  atomic energy  EATOM  =      1741.10451121
  Solvation  Ediel_sol  =         0.00000000
  ---------------------------------------------------
  free energy    TOTEN  =       -23.82733155 eV

  energy without entropy =      -23.82691447  energy(sigma->0) =      -23.82712301


--------------------------------------------------------------------------------------------------------




--------------------------------------- Iteration      1(  14)  ---------------------------------------


    POTLOK:  cpu time    0.0323: real time    0.1269
    SETDIJ:  cpu time    0.0567: real time    0.0582
     EDDAV:  cpu time    1.0429: real time    1.0438
       DOS:  cpu time    0.0027: real time    0.0057
    CHARGE:  cpu time    0.1600: real time    0.1650
    MIXING:  cpu time    0.0048: real time    0.0133
    --------------------------------------------
      LOOP:  cpu time    1.2994: real time    1.4192

 eigenvalue-minimisations  :  3232
 total energy-change (2. order) :-0.1028407E-06  (-0.1053143E-06)
 number of electron      25.0000000 magnetization
 augmentation part        4.9880200 magnetization

 Broyden mixing:
  rms(total) = 0.87259E-03    rms(broyden)= 0.87259E-03
  rms(prec ) = 0.91811E-03
  weight for this iteration     100.00

 eigenvalues of (default mixing * dielectric matrix)
  average eigenvalue GAMMA=   1.4647
  2.5029  2.5029  1.7954  1.4150  1.4150  0.6568  1.1136  0.8902  0.8902

 Free energy of the ion-electron system (eV)
  ---------------------------------------------------
  alpha Z        PSCENC =        96.45436617
  Ewald energy   TEWEN  =     -1515.46551916
  -Hartree energ DENC   =      -318.85830894
  -exchange      EXHF   =         0.00000000
  -V(xc)+E(xc)   XCENC  =       -20.49913402
  PAW double counting   =      2310.60314738    -2222.36451997
  entropy T*S    EENTRO =        -0.00041733
  eigenvalues    EBANDS =       -94.80145700
  atomic energy  EATOM  =      1741.10451121
  Solvation  Ediel_sol  =         0.00000000
  ---------------------------------------------------
  free energy    TOTEN  =       -23.82733165 eV

  energy without entropy =      -23.82691432  energy(sigma->0) =      -23.82712299


--------------------------------------------------------------------------------------------------------




--------------------------------------- Iteration      1(  15)  ---------------------------------------


    POTLOK:  cpu time    0.0308: real time    0.0974
    SETDIJ:  cpu time    0.0575: real time    0.0592
     EDDAV:  cpu time    0.9553: real time    0.9557
       DOS:  cpu time    0.0026: real time    0.0060
    --------------------------------------------
      LOOP:  cpu time    1.0460: real time    1.1110

 eigenvalue-minimisations  :  2776
 total energy-change (2. order) :-0.1686612E-07  (-0.1775961E-07)
 number of electron      25.0000000 magnetization
 augmentation part        4.9880200 magnetization

 Free energy of the ion-electron system (eV)
  ---------------------------------------------------
  alpha Z        PSCENC =        96.45436617
  Ewald energy   TEWEN  =     -1515.46551916
  -Hartree energ DENC   =      -318.86050761
  -exchange      EXHF   =         0.00000000
  -V(xc)+E(xc)   XCENC  =       -20.49902334
  PAW double counting   =      2310.45298752    -2222.21484720
  entropy T*S    EENTRO =        -0.00041743
  eigenvalues    EBANDS =       -94.79888184
  atomic energy  EATOM  =      1741.10451121
  Solvation  Ediel_sol  =         0.00000000
  ---------------------------------------------------
  free energy    TOTEN  =       -23.82733167 eV

  energy without entropy =      -23.82691424  energy(sigma->0) =      -23.82712295


--------------------------------------------------------------------------------------------------------




 average (electrostatic) potential at core
  the test charge radii are     1.1707  1.1712  1.2059
  (the norm of the test charge is              1.0000)
       1 -36.2401       2 -85.6738       3 -67.2525



 E-fermi :   7.7719     XC(G=0): -10.8937     alpha+bet :-12.3936


 k-point     1 :       0.0000    0.0000    0.0000
  band No.  band energies     occupation
      1     -24.6556      2.00000
      2     -24.6556      2.00000
      3     -24.6556      2.00000
      4      -4.3068      2.00000
      5       2.2754      2.00000
      6       2.2754      2.00000
      7       2.2754      2.00000
      8       3.0770      2.00000
      9       3.0770      2.00000
     10       6.2764      2.00000
     11       6.3461      2.00000
     12       6.3461      2.00000
     13       6.3461      2.00000
     14       8.5602      0.00000
     15       8.5602      0.00000
     16       8.5602      0.00000

 k-point     2 :       0.0769   -0.0000    0.0000
  band No.  band energies     occupation
      1     -24.6562      2.00000
      2     -24.6556      2.00000
      3     -24.6556      2.00000
      4      -4.2505      2.00000
      5       2.1910      2.00000
      6       2.2568      2.00000
      7       2.2568      2.00000
      8       3.1071      2.00000
      9       3.1071      2.00000
     10       5.6605      2.00000
     11       6.2798      2.00000
     12       6.2798      2.00000
     13       6.7232      2.00000
     14       8.4095      0.00000
     15       8.4095      0.00000
     16       8.8735      0.00000

 k-point     3 :       0.1538   -0.0000   -0.0000
  band No.  band energies     occupation
      1     -24.6580      2.00000
      2     -24.6556      2.00000
      3     -24.6556      2.00000
      4      -4.0875      2.00000
      5       1.9599      2.00000
      6       2.2162      2.00000
      7       2.2162      2.00000
      8       3.1763      2.00000
      9       3.1763      2.00000
     10       4.9092      2.00000
     11       6.1134      2.00000
     12       6.1134      2.00000
     13       6.9889      2.00000
     14       8.3274      0.00000
     15       8.3274      0.00000
     16       9.5652      0.00000

 k-point     4 :       0.2308    0.0000   -0.0000
  band No.  band energies     occupation
      1     -24.6604      2.00000
      2     -24.6555      2.00000
      3     -24.6555      2.00000
      4      -3.8370      2.00000
      5       1.6284      2.00000
      6       2.1793      2.00000
      7       2.1793      2.00000
      8       3.2443      2.00000
      9       3.2443      2.00000
     10       4.2211      2.00000
     11       5.9170      2.00000
     12       5.9170      2.00000
     13       7.2103      2.00000
     14       8.3678      0.00000
     15       8.3678      0.00000
     16      10.1633      0.00000

 k-point     5 :       0.3077   -0.0000   -0.0000
  band No.  band energies     occupation
      1     -24.6630      2.00000
      2     -24.6555      2.00000
      3     -24.6555      2.00000
      4      -3.5354      2.00000
      5       1.2479      2.00000
      6       2.1603      2.00000
      7       2.1603      2.00000
      8       3.2818      2.00000
      9       3.2818      2.00000
     10       3.6876      2.00000
     11       5.7514      2.00000
     12       5.7514      2.00000
     13       7.4119      2.00000
     14       8.4968      0.00000
     15       8.4968      0.00000
     16       9.8019      0.00000

 k-point     6 :       0.3846   -0.0000   -0.0000
  band No.  band energies     occupation
      1     -24.6652      2.00000
      2     -24.6555      2.00000
      3     -24.6555      2.00000
      4      -3.2449      2.00000
      5       0.8905      2.00000
      6       2.1584      2.00000
      7       2.1584      2.00000
      8       3.2855      2.00000
      9       3.2855      2.00000
     10       3.3411      2.00000
     11       5.6443      2.00000
     12       5.6443      2.00000
     13       7.6061      2.00000
     14       8.6660      0.00000
     15       8.6660      0.00000
     16       9.1466      0.00000

 k-point     7 :       0.4615    0.0000   -0.0000
  band No.  band energies     occupation
      1     -24.6664      2.00000
      2     -24.6555      2.00000
      3     -24.6555      2.00000
      4      -3.0569      2.00000
      5       0.6630      2.00000
      6       2.1629      2.00000
      7       2.1629      2.00000
      8       3.1751      2.00000
      9       3.2759      2.00000
     10       3.2759      2.00000
     11       5.5953      2.00000
     12       5.5953      2.00000
     13       7.7757      0.59122
     14       8.7051      0.00000
     15       8.7961      0.00000
     16       8.7961      0.00000

 k-point     8 :       0.0769    0.0769   -0.0000
  band No.  band energies     occupation
      1     -24.6562      2.00000
      2     -24.6557      2.00000
      3     -24.6557      2.00000
      4      -4.2321      2.00000
      5       2.0749      2.00000
      6       2.3032      2.00000
      7       2.3032      2.00000
      8       3.1062      2.00000
      9       3.1153      2.00000
     10       5.6618      2.00000
     11       6.1589      2.00000
     12       6.1589      2.00000
     13       6.8451      2.00000
     14       8.2536      0.00000
     15       8.7571      0.00000
     16       8.8186      0.00000

 k-point     9 :       0.1538    0.0769   -0.0000
  band No.  band energies     occupation
      1     -24.6575      2.00000
      2     -24.6558      2.00000
      3     -24.6557      2.00000
      4      -4.1057      2.00000
      5       1.8681      2.00000
      6       2.2845      2.00000
      7       2.3118      2.00000
      8       3.1568      2.00000
      9       3.1587      2.00000
     10       5.1184      2.00000
     11       5.9736      2.00000
     12       6.0100      2.00000
     13       7.1066      2.00000
     14       8.1279      0.00000
     15       8.5613      0.00000
     16       9.2349      0.00000

 k-point    10 :       0.2308    0.0769   -0.0000
  band No.  band energies     occupation
      1     -24.6597      2.00000
      2     -24.6558      2.00000
      3     -24.6556      2.00000
      4      -3.8859      2.00000
      5       1.6093      2.00000
      6       2.2129      2.00000
      7       2.2958      2.00000
      8       3.2176      2.00000
      9       3.2295      2.00000
     10       4.4463      2.00000
     11       5.7886      2.00000
     12       5.8308      2.00000
     13       7.3851      2.00000
     14       8.1483      0.00000
     15       8.4726      0.00000
     16       9.7322      0.00000

 k-point    11 :       0.3077    0.0769   -0.0000
  band No.  band energies     occupation
      1     -24.6622      2.00000
      2     -24.6558      2.00000
      3     -24.6556      2.00000
      4      -3.6032      2.00000
      5       1.3038      2.00000
      6       2.1491      2.00000
      7       2.2733      2.00000
      8       3.2669      2.00000
      9       3.2777      2.00000
[...]
  212              fftbas_plan_mpi                       0.060442                     12   6
  213                dfftw_execute                         0.026036                   36   7
  214                map_backward                          0.003915                   12   7
  215                  map_gather                            0.000758                  6   8
  216                  m_alltoallv_z                         0.001729                  6   8
  217                  map_scatter                           0.001144                  6   8
  218                map_forward                           0.027508                   12   7
  219                  map_gather                            0.015417                  6   8
  220                  m_alltoallv_z                         0.005246                  6   8
  221                  map_scatter                           0.006543                  6   8
  222            M_sumb_d                              0.005633                        6   5
  223          M_sumb_d                              0.000029                          1   4
  224        setdij_                               1.141068                           20   3
  225          fft3d_mpi                             0.214839                         40   4
  226            fftbas_plan_mpi                       0.197797                       40   5
  227              dfftw_execute                         0.085647                    120   6
  228              map_backward                          0.012618                     40   6
  229                map_gather                            0.002512                   20   7
  230                m_alltoallv_z                         0.005358                   20   7
  231                map_scatter                           0.003799                   20   7
  232              map_forward                           0.089196                     40   6
  233                map_gather                            0.050086                   20   7
  234                m_alltoallv_z                         0.017102                   20   7
  235                map_scatter                           0.021006                   20   7
  236          M_sumb_d                              0.010971                         20   4
  237        set_dd_magatom                        0.000003                            1   3
  238        set_dd_paw                            0.010092                            1   3
  239          set_rsgf_all                          0.000004                          1   4
  240          M_sumb_d                              0.009950                          8   4
  241        strkin                                0.000902                            1   3
  242          M_sumb_d                              0.000488                          1   4
  243        strelo                                0.002545                            1   3
  244          M_sumb_d                              0.000144                          2   4
  245        strenl                                0.748857                            1   3
  246          spher                                 0.599365                         19   4
  247          phase                                 0.012480                        189   4
  248          proj1                                 0.119499                        756   4
  249            crexp_mul_wave                        0.018742                     2268   5
  250            M_sumb_d                              0.032373                      756   5
  251          M_sumb_d                              0.004724                          1   4
  252        M_sumb_d                              0.000263                            6   3
  253        fft3d_mpi                             0.015062                           11   3
  254          fftbas_plan_mpi                       0.014065                         11   4
  255            dfftw_execute                         0.004991                       33   5
  256            map_forward                           0.002884                       10   5
  257              map_gather                            0.000590                      5   6
  258              m_alltoallv_z                         0.001411                      5   6
  259              map_scatter                           0.000636                      5   6
  260            map_backward                          0.003650                       12   5
  261              map_gather                            0.000755                      6   6
  262              m_alltoallv_z                         0.001477                      6   6
  263              map_scatter                           0.001121                      6   6
  264        ggaall_grid                           0.001498                            1   3
  265        forhar                                0.006196                            2   3
  266          M_sumb_d                              0.000157                          2   4
  267        strehar                               0.002708                            1   3
  268          M_sumb_d                              0.000174                          1   4
  269        chggra                                0.005853                            1   3
  270          fft3d_mpi                             0.004171                          3   4
  271            fftbas_plan_mpi                       0.003895                        3   5
  272              dfftw_execute                         0.001498                      9   6
  273              map_backward                          0.000609                      2   6
  274                map_gather                            0.000126                    1   7
  275                m_alltoallv_z                         0.000238                    1   7
  276                map_scatter                           0.000191                    1   7
  277              map_forward                           0.001046                      4   6
  278                map_gather                            0.000229                    2   7
  279                m_alltoallv_z                         0.000485                    2   7
  280                map_scatter                           0.000242                    2   7
  281          M_sumb_d                              0.000125                          3   4
  282        brmix                                 0.012467                            1   3
  283          M_sumb_d                              0.000235                          6   4
  284          brpre                                 0.000050                          1   4
  285          setg0                                 0.001115                          1   4
  286          broyd                                 0.002093                          1   4
  287            M_sumb_d                              0.000610                       17   5
  288            brsav                                 0.000100                       16   5
  289            brget                                 0.000279                       59   5
  290          M_bcast_z                             0.008003                          1   4
  291          M_bcast_d                             0.000065                          1   4
  292        M_bcast_d                             0.000121                            2   3
  293      potlok                                0.026658                              1   2
  294        fft3d_mpi                             0.018355                           13   3
  295          fftbas_plan_mpi                       0.017166                         13   4
  296            dfftw_execute                         0.005739                       39   5
  297            map_forward                           0.004238                       14   5
  298              map_gather                            0.000871                      8   6
  299              m_alltoallv_z                         0.001946                      8   6
  300              map_scatter                           0.001062                      8   6
  301            map_backward                          0.003883                       12   5
  302              map_gather                            0.000828                      6   6
  303              m_alltoallv_z                         0.001541                      6   6
  304              map_scatter                           0.001117                      6   6
  305        ggaall_grid                           0.001505                            1   3
  306        M_sumb_d                              0.000307                            6   3
  307        M_bcast_d                             0.000104                            1   3
  308      potlok_metagga                        0.000004                              1   2
  309      set_dd_magatom                        0.000004                              1   2
  310      set_dd_paw                            0.000388                              1   2
  311        set_rsgf_all                          0.000004                            1   3
  312        M_sumb_d                              0.000240                            8   3
  313      densta                                0.001987                              1   2
  314        M_sumb_d                              0.000750                           42   3
  315      lprj_proall                           0.000007                              1   2

 Flat profile
 ============

             routine name                   CPU           calls
 ---------------------------------------------------------------
 total_time                             12.526343           1
 eddav                                   3.050228          15
 dfftw_execute                           2.996425       29892
 elmin                                   2.054449           1
 fftbas_plan_mpi                         2.000497        9966
 setdij_                                 1.867385          39
 M_sumb_d                                1.495389       28073
 m_alltoallv_z                           1.138871        9987
 set_charge                              1.010187          11
 M_alltoall_d                            0.687036       32578
 spher                                   0.681655          20
 pdssyex_zheevx                          0.640425         315
 orth1                                   0.505144        6642
 vhamil                                  0.446285        4414
 proj1                                   0.430686        3994
 map_gather                              0.421615        9987
 fftwav_mpi                              0.384315        5279
 map_scatter                             0.383958        9987
 map_forward                             0.383081       10820
 gemm                                    0.367391       13242
 M_bcast_z                               0.333751        3916
 vnlac0                                  0.289327        4414
 redis_pw                                0.274107       12654
 crpa_reader                             0.253086           1
 hamiltmu                                0.240757        2207
 redis_proj                              0.240533       15829
 fft3d_mpi                               0.182316        9964
 w1_copy                                 0.181158       13242
 map_backward                            0.161052        9108
 work_mul_crexp                          0.147101       13242
 fftext_mpi                              0.144808        4414
 eccp                                    0.113052        1260
 crexp_mul_wave                          0.108407       11982
 kinhamil                                0.090045        4414
 overl                                   0.084108        7589
 potlok                                  0.077540          12
 M_bcast_d                               0.073548        2237
 force_and_stress                        0.064523           1
 pw_charge                               0.055635         865
 overl1                                  0.055063        4414
 lincom                                  0.054367         336
 apply_precond                           0.042894        3154
 setup_precond                           0.041706        1260
 phase                                   0.035941         547
 w1_projall                              0.033577        1577
 soft_charge                             0.021916          11
 fornl                                   0.021620           1
 ggaall_grid                             0.020229          13
 densta                                  0.019331          16
 truncate_high_frequency_w1              0.019210        5674
 setg0                                   0.013114          12
 strenl                                  0.012789           1
 brmix                                   0.010512          11
 broyd                                   0.007415          11
 forhar                                  0.006039           2
 forloc                                  0.003144           1
 set_dd_paw                              0.002632          13
 depsum                                  0.002548          11
 strehar                                 0.002534           1
 strelo                                  0.002401           1
 orthch                                  0.001997           1
 brget                                   0.001687         368
 chggra                                  0.001557           1
 brgrid                                  0.001068           1
 proj                                    0.001011          21
 brsav                                   0.000849         112
 choleski                                0.000782          21
 brpre                                   0.000782          11
 strkin                                  0.000414           1
 fordep                                  0.000114           1
 set_rsgf_all                            0.000072          13
 vectorpot                               0.000062          12
 potlok_metagga                          0.000049          12
 set_dd_magatom                          0.000048          13
 set_kineden                             0.000039          10
 rotate_active_occupied_orbital          0.000015           1
 lprj_proall                             0.000007           1
 redis_pw_over_bands                     0.000003           1
 ---------------------------------------------------------------
  summed up times    37.0257539749146

 Accumulative profile
 ====================

             routine name                   CPU           calls
 ---------------------------------------------------------------
 total_time                             37.025754           1
 elmin                                  21.088049           1
 eddav                                  16.220891          15
 fft3d_mpi                               7.642061        9964
 fftbas_plan_mpi                         7.485499        9966
 hamiltmu                                5.058481        2207
 fftwav_mpi                              4.203008        5279
 kinhamil                                3.239410        4414
 fftext_mpi                              3.149365        4414
 dfftw_execute                           2.996425       29892
 force_and_stress                        2.562449           1
 setdij_                                 2.339571          39
 set_charge                              1.894049          11
 M_sumb_d                                1.495389       28073
 map_forward                             1.484826       10820
 m_alltoallv_z                           1.138871        9987
 vnlac0                                  1.076966        4414
 map_backward                            1.003750        9108
 proj1                                   0.765768        3994
 strenl                                  0.748857           1
 soft_charge                             0.744762          11
 M_alltoall_d                            0.687036       32578
 spher                                   0.681655          20
 w1_projall                              0.666720        1577
 redis_pw                                0.661972       12654
 pdssyex_zheevx                          0.640425         315
 redis_proj                              0.539704       15829
 orth1                                   0.505144        6642
 vhamil                                  0.446285        4414
 map_gather                              0.421615        9987
 map_scatter                             0.383958        9987
 gemm                                    0.367391       13242
 fordep                                  0.356637           1
 M_bcast_z                               0.333751        3916
 potlok                                  0.314154          12
 crpa_reader                             0.253086           1
 eccp                                    0.186818        1260
 w1_copy                                 0.181158       13242
 work_mul_crexp                          0.147101       13242
 crexp_mul_wave                          0.108407       11982
 overl                                   0.084108        7589
 M_bcast_d                               0.073548        2237
 setup_precond                           0.071260        1260
 set_dd_paw                              0.066586          13
 pw_charge                               0.055635         865
 overl1                                  0.055063        4414
 brmix                                   0.054930          11
 lincom                                  0.054367         336
 apply_precond                           0.042894        3154
 phase                                   0.035941         547
 densta                                  0.031154          16
 fornl                                   0.030711           1
 orthch                                  0.028957           1
 ggaall_grid                             0.020229          13
 truncate_high_frequency_w1              0.019210        5674
 broyd                                   0.014627          11
 proj                                    0.014137          21
 setg0                                   0.013114          12
 forhar                                  0.006196           2
 chggra                                  0.005853           1
 depsum                                  0.005781          11
 forloc                                  0.003199           1
 strehar                                 0.002708           1
 strelo                                  0.002545           1
 brget                                   0.001687         368
 brgrid                                  0.001068           1
 strkin                                  0.000902           1
 brsav                                   0.000849         112
 choleski                                0.000782          21
 brpre                                   0.000782          11
 set_rsgf_all                            0.000072          13
 vectorpot                               0.000062          12
 potlok_metagga                          0.000049          12
 set_dd_magatom                          0.000048          13
 set_kineden                             0.000039          10
 rotate_active_occupied_orbital          0.000015           1
 lprj_proall                             0.000007           1
 redis_pw_over_bands                     0.000003           1
 ---------------------------------------------------------------

Profiling took   0.779220  0.946009  0.006490  0.005074 seconds
Profiling took   0.751841 seconds
