 ----------------------------------------------------
    OOO  PPPP  EEEEE N   N M   M PPPP
   O   O P   P E     NN  N MM MM P   P
   O   O PPPP  EEEEE N N N M M M PPPP   -- VERSION
   O   O P     E     N  NN M   M P
    OOO  P     EEEEE N   N M   M P
 ----------------------------------------------------
 running   64 mpi-ranks, with    1 threads/rank
 distrk:  each k-point on   16 cores,    4 groups
 distr:  one band on    4 cores,    4 groups
 using from now: INCAR
 vasp.6.0.8 29Jun18 (build Jun 13 2019 12:54:44) complex

 POSCAR found type information on POSCAR  Hf Sb Pt
 POSCAR found :  3 types and       3 ions
 scaLAPACK will be used

 -----------------------------------------------------------------------------
|                                                                             |
|  ADVICE TO THIS USER RUNNING 'VASP/VAMP'   (HEAR YOUR MASTER'S VOICE ...):  |
|                                                                             |
|      You enforced a specific xc-type in the INCAR file,                     |
|      a different type was found on the POTCAR file                          |
|          I HOPE YOU KNOW, WHAT YOU ARE  DOING                               |
|                                                                             |
 -----------------------------------------------------------------------------

 LDA part: xc-table for Pade appr. of Perdew
 POSCAR, INCAR and KPOINTS ok, starting setup
 FFT: planning ...
 WAVECAR not read
 entering main loop
       N       E                     dE             d eps       ncg     rms          rms(c)
 ELPA: falling back to scaLAPACK
 ELPA: falling back to scaLAPACK
 ELPA: falling back to scaLAPACK
 ELPA: falling back to scaLAPACK
DAV:   1     0.136695521941E+03    0.13670E+03   -0.14131E+04  2688   0.173E+03
DAV:   2    -0.199076189793E+02   -0.15660E+03   -0.15483E+03  3384   0.331E+02
DAV:   3    -0.248724031348E+02   -0.49648E+01   -0.48973E+01  3624   0.516E+01
DAV:   4    -0.249400517312E+02   -0.67649E-01   -0.67614E-01  3336   0.663E+00
DAV:   5    -0.249417902525E+02   -0.17385E-02   -0.17380E-02  3664   0.969E-01    0.363E+01
DAV:   6    -0.240071400358E+02    0.93465E+00   -0.21983E+00  3504   0.923E+00    0.230E+01
DAV:   7    -0.238575830495E+02    0.14956E+00   -0.11272E+00  3848   0.643E+00    0.310E+00
DAV:   8    -0.238341419892E+02    0.23441E-01   -0.34909E-01  3320   0.256E+00    0.605E-01
DAV:   9    -0.238277099795E+02    0.64320E-02   -0.37029E-02  3432   0.119E+00    0.192E-01
DAV:  10    -0.238274744537E+02    0.23553E-03   -0.68774E-03  3584   0.372E-01    0.214E-01
DAV:  11    -0.238273355477E+02    0.13891E-03   -0.12426E-03  3448   0.182E-01    0.477E-02
DAV:  12    -0.238273331675E+02    0.23802E-05   -0.27902E-05  3144   0.388E-02    0.283E-02
DAV:  13    -0.238273315486E+02    0.16189E-05   -0.99129E-06  3800   0.183E-02    0.313E-02
DAV:  14    -0.238273316515E+02   -0.10284E-06   -0.10531E-06  3232   0.608E-03    0.873E-03
DAV:  15    -0.238273316683E+02   -0.16866E-07   -0.17760E-07  2776   0.257E-03
   1 F= -.23827332E+02 E0= -.23827123E+02  d E =-.417427E-03
