<?xml version="1.0" encoding="ISO-8859-1"?>
<modeling>
 <generator>
  <i name="program" type="string">vasp </i>
  <i name="version" type="string">6.0.8  </i>
  <i name="subversion" type="string">29Jun18 (build Jun 13 2019 12:54:44) complex                          parallel </i>
  <i name="platform" type="string">IFC18_CrayMPICH </i>
  <i name="date" type="string">2021 12 05 </i>
  <i name="time" type="string">14:21:52 </i>
 </generator>
 <incar>
  <i type="int" name="KPAR">     4</i>
  <i type="int" name="NPAR">     4</i>
  <i type="int" name="ISTART">     0</i>
  <i type="string" name="PREC"> ACC</i>
  <i type="string" name="ALGO"> Normal</i>
  <i type="logical" name="ADDGRID"> T  </i>
  <i type="int" name="ISPIN">     1</i>
  <i type="int" name="NELMIN">     5</i>
  <i type="int" name="IBRION">    -1</i>
  <i name="EDIFF">      0.00000010</i>
  <i type="int" name="NSW">     0</i>
  <i type="int" name="ISIF">     3</i>
  <i name="ENCUT">    700.00000000</i>
  <i type="logical" name="LREAL"> F  </i>
  <i type="int" name="ISMEAR">     0</i>
  <i name="SIGMA">      0.01000000</i>
  <i type="logical" name="LWAVE"> F  </i>
  <i type="logical" name="LCHARG"> F  </i>
  <i type="logical" name="LVTOT"> F  </i>
  <i type="string" name="ALGO"> Normal</i>
  <i type="string" name="GGA"> PS</i>
  <i name="EDIFF">      0.00000010</i>
  <i type="int" name="ISPIN">     1</i>
 </incar>
 <structure name="primitive_cell" >
  <crystal>
   <varray name="basis" >
    <v>       0.00000000       3.28087937       3.28087937 </v>
    <v>       3.28087937       0.00000000       3.28087937 </v>
    <v>       3.28087937       3.28087937       0.00000000 </v>
   </varray>
   <i name="volume">     70.63188319 </i>
   <varray name="rec_basis" >
    <v>      -0.15239817       0.15239817       0.15239817 </v>
    <v>       0.15239817      -0.15239817       0.15239817 </v>
    <v>       0.15239817       0.15239817      -0.15239817 </v>
   </varray>
  </crystal>
  <varray name="positions" >
   <v>       0.75000000       0.75000000       0.75000000 </v>
   <v>       0.25000000       0.25000000       0.25000000 </v>
   <v>       0.00000000       0.00000000       0.00000000 </v>
  </varray>
 </structure>
 <varray name="primitive_index" >
  <v type="int" >        1 </v>
  <v type="int" >        2 </v>
  <v type="int" >        3 </v>
 </varray>
 <kpoints>
  <generation param="Gamma">
   <v type="int" name="divisions">      13       13       13 </v>
   <v name="usershift">      0.00000000       0.00000000       0.00000000 </v>
   <v name="genvec1">      0.07692308      -0.00000000       0.00000000 </v>
   <v name="genvec2">     -0.00000000       0.07692308      -0.00000000 </v>
   <v name="genvec3">      0.00000000       0.00000000       0.07692308 </v>
   <v name="shift">      0.00000000       0.00000000       0.00000000 </v>
  </generation>
  <varray name="kpointlist" >
   <v>       0.00000000       0.00000000       0.00000000 </v>
   <v>       0.07692308      -0.00000000       0.00000000 </v>
   <v>       0.15384615      -0.00000000      -0.00000000 </v>
   <v>       0.23076923       0.00000000      -0.00000000 </v>
   <v>       0.30769231      -0.00000000      -0.00000000 </v>
   <v>       0.38461538      -0.00000000      -0.00000000 </v>
   <v>       0.46153846       0.00000000      -0.00000000 </v>
   <v>       0.07692308       0.07692308      -0.00000000 </v>
   <v>       0.15384615       0.07692308      -0.00000000 </v>
   <v>       0.23076923       0.07692308      -0.00000000 </v>
   <v>       0.30769231       0.07692308      -0.00000000 </v>
   <v>       0.38461538       0.07692308      -0.00000000 </v>
   <v>       0.46153846       0.07692308      -0.00000000 </v>
   <v>      -0.46153846       0.07692308       0.00000000 </v>
   <v>      -0.38461538       0.07692308       0.00000000 </v>
   <v>      -0.30769231       0.07692308       0.00000000 </v>
   <v>      -0.23076923       0.07692308       0.00000000 </v>
   <v>      -0.15384615       0.07692308       0.00000000 </v>
   <v>      -0.07692308       0.07692308      -0.00000000 </v>
   <v>       0.15384615       0.15384615      -0.00000000 </v>
   <v>       0.23076923       0.15384615      -0.00000000 </v>
   <v>       0.30769231       0.15384615      -0.00000000 </v>
   <v>       0.38461538       0.15384615      -0.00000000 </v>
   <v>       0.46153846       0.15384615      -0.00000000 </v>
   <v>      -0.46153846       0.15384615       0.00000000 </v>
   <v>      -0.38461538       0.15384615      -0.00000000 </v>
   <v>      -0.30769231       0.15384615       0.00000000 </v>
   <v>      -0.23076923       0.15384615      -0.00000000 </v>
   <v>      -0.15384615       0.15384615      -0.00000000 </v>
   <v>       0.23076923       0.23076923      -0.00000000 </v>
   <v>       0.30769231       0.23076923       0.00000000 </v>
   <v>       0.38461538       0.23076923      -0.00000000 </v>
   <v>       0.46153846       0.23076923      -0.00000000 </v>
   <v>      -0.46153846       0.23076923       0.00000000 </v>
   <v>      -0.38461538       0.23076923      -0.00000000 </v>
   <v>      -0.30769231       0.23076923      -0.00000000 </v>
   <v>      -0.23076923       0.23076923       0.00000000 </v>
   <v>       0.30769231       0.30769231      -0.00000000 </v>
   <v>       0.38461538       0.30769231       0.00000000 </v>
   <v>       0.46153846       0.30769231      -0.00000000 </v>
   <v>      -0.46153846       0.30769231      -0.00000000 </v>
   <v>      -0.38461538       0.30769231       0.00000000 </v>
   <v>      -0.30769231       0.30769231      -0.00000000 </v>
   <v>       0.38461538       0.38461538      -0.00000000 </v>
   <v>       0.46153846       0.38461538      -0.00000000 </v>
   <v>      -0.46153846       0.38461538       0.00000000 </v>
   <v>      -0.38461538       0.38461538      -0.00000000 </v>
   <v>       0.46153846       0.46153846      -0.00000000 </v>
   <v>      -0.46153846       0.46153846       0.00000000 </v>
   <v>       0.23076923       0.15384615       0.07692308 </v>
   <v>       0.30769231       0.15384615       0.07692308 </v>
   <v>       0.38461538       0.15384615       0.07692308 </v>
   <v>       0.46153846       0.15384615       0.07692308 </v>
   <v>      -0.46153846       0.15384615       0.07692308 </v>
   <v>       0.30769231       0.23076923       0.07692308 </v>
   <v>       0.38461538       0.23076923       0.07692308 </v>
   <v>       0.46153846       0.23076923       0.07692308 </v>
   <v>      -0.46153846       0.23076923       0.07692308 </v>
   <v>      -0.38461538       0.23076923       0.07692308 </v>
   <v>      -0.30769231       0.23076923       0.07692308 </v>
   <v>      -0.23076923       0.23076923       0.07692308 </v>
   <v>      -0.15384615       0.23076923       0.07692308 </v>
   <v>       0.38461538       0.30769231       0.07692308 </v>
   <v>       0.46153846       0.30769231       0.07692308 </v>
   <v>      -0.46153846       0.30769231       0.07692308 </v>
   <v>      -0.38461538       0.30769231       0.07692308 </v>
   <v>      -0.30769231       0.30769231       0.07692308 </v>
   <v>      -0.23076923       0.30769231       0.07692308 </v>
   <v>       0.46153846       0.38461538       0.07692308 </v>
   <v>      -0.46153846       0.38461538       0.07692308 </v>
   <v>      -0.38461538       0.38461538       0.07692308 </v>
   <v>      -0.30769231       0.38461538       0.07692308 </v>
   <v>      -0.46153846       0.46153846       0.07692308 </v>
   <v>      -0.38461538       0.46153846       0.07692308 </v>
   <v>       0.46153846       0.30769231       0.15384615 </v>
   <v>      -0.46153846       0.30769231       0.15384615 </v>
   <v>      -0.38461538       0.30769231       0.15384615 </v>
   <v>      -0.46153846       0.38461538       0.15384615 </v>
   <v>      -0.38461538       0.38461538       0.15384615 </v>
   <v>      -0.30769231       0.38461538       0.15384615 </v>
   <v>      -0.23076923       0.38461538       0.15384615 </v>
   <v>      -0.38461538       0.46153846       0.15384615 </v>
   <v>      -0.30769231       0.46153846       0.15384615 </v>
   <v>      -0.30769231       0.46153846       0.23076923 </v>
  </varray>
  <varray name="weights" >
   <v>       0.00045517 </v>
   <v>       0.00364133 </v>
   <v>       0.00364133 </v>
   <v>       0.00364133 </v>
   <v>       0.00364133 </v>
   <v>       0.00364133 </v>
   <v>       0.00364133 </v>
   <v>       0.00273100 </v>
   <v>       0.01092399 </v>
   <v>       0.01092399 </v>
   <v>       0.01092399 </v>
   <v>       0.01092399 </v>
   <v>       0.01092399 </v>
   <v>       0.01092399 </v>
   <v>       0.01092399 </v>
   <v>       0.01092399 </v>
   <v>       0.01092399 </v>
   <v>       0.01092399 </v>
   <v>       0.00546199 </v>
   <v>       0.00273100 </v>
   <v>       0.01092399 </v>
   <v>       0.01092399 </v>
   <v>       0.01092399 </v>
   <v>       0.01092399 </v>
   <v>       0.01092399 </v>
   <v>       0.01092399 </v>
   <v>       0.01092399 </v>
   <v>       0.01092399 </v>
   <v>       0.00546199 </v>
   <v>       0.00273100 </v>
   <v>       0.01092399 </v>
   <v>       0.01092399 </v>
   <v>       0.01092399 </v>
   <v>       0.01092399 </v>
   <v>       0.01092399 </v>
   <v>       0.01092399 </v>
   <v>       0.00546199 </v>
   <v>       0.00273100 </v>
   <v>       0.01092399 </v>
   <v>       0.01092399 </v>
   <v>       0.01092399 </v>
   <v>       0.01092399 </v>
   <v>       0.00546199 </v>
   <v>       0.00273100 </v>
   <v>       0.01092399 </v>
   <v>       0.01092399 </v>
   <v>       0.00546199 </v>
   <v>       0.00273100 </v>
   <v>       0.00546199 </v>
   <v>       0.01092399 </v>
   <v>       0.02184797 </v>
   <v>       0.02184797 </v>
   <v>       0.02184797 </v>
   <v>       0.02184797 </v>
   <v>       0.01092399 </v>
   <v>       0.02184797 </v>
   <v>       0.02184797 </v>
   <v>       0.02184797 </v>
   <v>       0.02184797 </v>
   <v>       0.02184797 </v>
   <v>       0.02184797 </v>
   <v>       0.01092399 </v>
   <v>       0.01092399 </v>
   <v>       0.02184797 </v>
   <v>       0.02184797 </v>
   <v>       0.02184797 </v>
   <v>       0.02184797 </v>
   <v>       0.01092399 </v>
   <v>       0.01092399 </v>
   <v>       0.02184797 </v>
   <v>       0.02184797 </v>
   <v>       0.01092399 </v>
   <v>       0.01092399 </v>
   <v>       0.01092399 </v>
   <v>       0.01092399 </v>
   <v>       0.02184797 </v>
   <v>       0.02184797 </v>
   <v>       0.01092399 </v>
   <v>       0.02184797 </v>
   <v>       0.02184797 </v>
   <v>       0.01092399 </v>
   <v>       0.01092399 </v>
   <v>       0.01092399 </v>
   <v>       0.01092399 </v>
  </varray>
 </kpoints>
 <parameters>
  <separator name="general" >
   <i type="string" name="SYSTEM">unknown system</i>
   <i type="logical" name="LCOMPAT"> F  </i>
  </separator>
  <separator name="electronic" >
   <i type="string" name="PREC">acc</i>
   <i name="ENMAX">    700.00000000</i>
   <i name="ENAUG">    380.87800000</i>
   <i name="EDIFF">      0.00000010</i>
   <i type="int" name="IALGO">    38</i>
   <i type="int" name="IWAVPR">    10</i>
   <i type="int" name="NBANDS">    16</i>
   <i type="int" name="NBANDSLOW">    -1</i>
   <i type="int" name="NBANDSHIGH">    -1</i>
   <i name="NELECT">     25.00000000</i>
   <i type="int" name="TURBO">     0</i>
   <i type="int" name="IRESTART">     0</i>
   <i type="int" name="NREBOOT">     0</i>
   <i type="int" name="NMIN">     0</i>
   <i name="EREF">      0.00000000</i>
   <separator name="electronic smearing" >
    <i type="int" name="ISMEAR">     0</i>
    <i name="SIGMA">      0.01000000</i>
    <i name="KSPACING">      0.50000000</i>
    <i type="logical" name="KGAMMA"> T  </i>
    <i type="logical" name="KBLOWUP"> T  </i>
   </separator>
   <separator name="electronic projectors" >
    <i type="logical" name="LREAL"> F  </i>
    <v name="ROPT">      0.00000000      0.00000000      0.00000000</v>
    <i type="int" name="LMAXPAW">  -100</i>
    <i type="int" name="LMAXMIX">     2</i>
    <i type="logical" name="NLSPLINE"> F  </i>
   </separator>
   <separator name="electronic startup" >
    <i type="int" name="ISTART">     0</i>
    <i type="int" name="ICHARG">     2</i>
    <i type="int" name="INIWAV">     1</i>
   </separator>
   <separator name="electronic spin" >
    <i type="int" name="ISPIN">     1</i>
    <i type="logical" name="LNONCOLLINEAR"> F  </i>
    <v name="MAGMOM">      1.00000000      1.00000000      1.00000000</v>
    <i name="NUPDOWN">     -1.00000000</i>
    <i type="logical" name="LSORBIT"> F  </i>
    <v name="SAXIS">      0.00000000      0.00000000      1.00000000</v>
    <i type="logical" name="LSPIRAL"> F  </i>
    <v name="QSPIRAL">      0.00000000      0.00000000      0.00000000</v>
    <i type="logical" name="LZEROZ"> F  </i>
   </separator>
   <separator name="electronic exchange-correlation" >
    <i type="logical" name="LASPH"> F  </i>
    <i type="logical" name="LMETAGGA"> F  </i>
   </separator>
   <separator name="electronic convergence" >
    <i type="int" name="NELM">    60</i>
    <i type="int" name="NELMDL">    -5</i>
    <i type="int" name="NELMIN">     5</i>
    <i name="ENINI">    700.00000000</i>
    <separator name="electronic convergence detail" >
     <i type="logical" name="LDIAG"> T  </i>
     <i type="logical" name="LSUBROT"> F  </i>
     <i name="WEIMIN">      0.00000000</i>
     <i name="EBREAK">      0.00000000</i>
     <i name="DEPER">      0.30000000</i>
     <i type="int" name="NRMM">     4</i>
     <i name="TIME">      0.40000000</i>
    </separator>
   </separator>
   <separator name="electronic mixer" >
    <i name="AMIX">      0.40000000</i>
    <i name="BMIX">      1.00000000</i>
    <i name="AMIN">      0.10000000</i>
    <i name="AMIX_MAG">      1.60000000</i>
    <i name="BMIX_MAG">      1.00000000</i>
    <separator name="electronic mixer details" >
     <i type="int" name="IMIX">     4</i>
     <i type="logical" name="MIXFIRST"> F  </i>
     <i type="int" name="MAXMIX">   -45</i>
     <i name="WC">    100.00000000</i>
     <i type="int" name="INIMIX">     1</i>
     <i type="int" name="MIXPRE">     1</i>
     <i type="int" name="MREMOVE">     5</i>
    </separator>
   </separator>
   <separator name="electronic dipolcorrection" >
    <i type="logical" name="LDIPOL"> F  </i>
    <i type="logical" name="LMONO"> F  </i>
    <i type="int" name="IDIPOL">     0</i>
    <i name="EPSILON">      1.00000000</i>
    <v name="DIPOL">   -100.00000000   -100.00000000   -100.00000000</v>
    <i name="EFIELD">      0.00000000</i>
   </separator>
  </separator>
  <separator name="grids" >
   <i type="int" name="NGX">    40</i>
   <i type="int" name="NGY">    40</i>
   <i type="int" name="NGZ">    40</i>
   <i type="int" name="NGXF">    80</i>
   <i type="int" name="NGYF">    80</i>
   <i type="int" name="NGZF">    80</i>
   <i type="logical" name="ADDGRID"> T  </i>
  </separator>
  <separator name="ionic" >
   <i type="int" name="NSW">     0</i>
   <i type="int" name="IBRION">    -1</i>
   <i type="int" name="MDALGO">     0</i>
   <i type="int" name="ISIF">     3</i>
   <i name="PSTRESS">      0.00000000</i>
   <i name="EDIFFG">      0.00000100</i>
   <i type="int" name="NFREE">     0</i>
   <i name="POTIM">      0.50000000</i>
   <i name="SMASS">     -3.00000000</i>
   <i name="SCALEE">      1.00000000</i>
  </separator>
  <separator name="ionic md" >
   <i name="TEBEG">      0.00010000</i>
   <i name="TEEND">      0.00010000</i>
   <i type="int" name="NBLOCK">     1</i>
   <i type="int" name="KBLOCK">     1</i>
   <i type="int" name="NPACO">   256</i>
   <i name="APACO">     16.00000000</i>
  </separator>
  <separator name="symmetry" >
   <i type="int" name="ISYM">     2</i>
   <i name="SYMPREC">      0.00001000</i>
  </separator>
  <separator name="dos" >
   <i type="int" name="LORBIT">     0</i>
   <v name="RWIGS">     -1.00000000     -1.00000000     -1.00000000</v>
   <i type="int" name="NEDOS">   301</i>
   <i name="EMIN">     10.00000000</i>
   <i name="EMAX">    -10.00000000</i>
   <i name="EFERMI">      0.00000000</i>
  </separator>
  <separator name="writing" >
   <i type="int" name="NWRITE">     2</i>
   <i type="logical" name="LWAVE"> F  </i>
   <i type="logical" name="LDOWNSAMPLE"> F  </i>
   <i type="logical" name="LCHARG"> F  </i>
   <i type="logical" name="LPARD"> F  </i>
   <i type="logical" name="LVTOT"> F  </i>
   <i type="logical" name="LVHAR"> F  </i>
   <i type="logical" name="LELF"> F  </i>
   <i type="logical" name="LOPTICS"> F  </i>
   <v name="STM">      0.00000000      0.00000000      0.00000000      0.00000000      0.00000000      0.00000000      0.00000000</v>
  </separator>
  <separator name="performance" >
   <i type="int" name="NPAR">     4</i>
   <i type="int" name="NSIM">     4</i>
   <i type="int" name="NBLK">    -1</i>
   <i type="logical" name="LPLANE"> T  </i>
   <i type="logical" name="LSCALAPACK"> T  </i>
   <i type="logical" name="LSCAAWARE"> F  </i>
   <i type="logical" name="LSCALU"> F  </i>
   <i type="logical" name="LASYNC"> F  </i>
   <i type="logical" name="LORBITALREAL"> F  </i>
  </separator>
  <separator name="miscellaneous" >
   <i type="int" name="IDIOT">     3</i>
   <i type="int" name="PHON_NSTRUCT">    -1</i>
   <i type="logical" name="LMUSIC"> F  </i>
   <v name="POMASS">    178.49000000    121.75000000    195.08000000</v>
   <v name="DARWINR">      0.00000000      0.00000000      0.00000000</v>
   <v name="DARWINV">      1.00000000      1.00000000      1.00000000</v>
   <i type="logical" name="LCORR"> T  </i>
  </separator>
  <i type="logical" name="GGA_COMPAT"> T  </i>
  <i type="logical" name="LBERRY"> F  </i>
  <i type="int" name="ICORELEVEL">     0</i>
  <i type="logical" name="LDAU"> F  </i>
  <i type="int" name="I_CONSTRAINED_M">     0</i>
  <separator name="electronic exchange-correlation" >
   <i type="string" name="GGA">PS</i>
   <i type="int" name="VOSKOWN">     0</i>
   <i type="logical" name="LHFCALC"> F  </i>
   <i type="string" name="PRECFOCK"></i>
   <i type="logical" name="LSYMGRAD"> F  </i>
   <i type="logical" name="LHFONE"> F  </i>
   <i type="logical" name="LRHFCALC"> F  </i>
   <i type="logical" name="LTHOMAS"> F  </i>
   <i type="logical" name="LMODELHF"> F  </i>
   <i type="logical" name="LFOCKACE"> F  </i>
   <i name="ENCUT4O">     -1.00000000</i>
   <i type="int" name="EXXOEP">     0</i>
   <i type="int" name="FOURORBIT">     0</i>
   <i name="AEXX">      0.00000000</i>
   <i name="HFALPHA">      0.00000000</i>
   <i name="MCALPHA">      0.00000000</i>
   <i name="ALDAX">      1.00000000</i>
   <i name="AGGAX">      1.00000000</i>
   <i name="ALDAC">      1.00000000</i>
   <i name="AGGAC">      1.00000000</i>
   <i type="int" name="NKREDX">     1</i>
   <i type="int" name="NKREDY">     1</i>
   <i type="int" name="NKREDZ">     1</i>
   <i type="logical" name="SHIFTRED"> F  </i>
   <i type="logical" name="ODDONLY"> F  </i>
   <i type="logical" name="EVENONLY"> F  </i>
   <i type="int" name="LMAXFOCK">     0</i>
   <i type="int" name="NMAXFOCKAE">     0</i>
   <i type="logical" name="LFOCKAEDFT"> F  </i>
   <i name="HFSCREEN">      0.00000000</i>
   <i name="HFSCREENC">      0.00000000</i>
   <i type="int" name="NBANDSGWLOW">     0</i>
  </separator>
  <separator name="vdW DFT" >
   <i type="logical" name="LUSE_VDW"> F  </i>
   <i name="Zab_VDW">     -0.84910000</i>
   <i name="PARAM1">      0.12340000</i>
   <i name="PARAM2">      1.00000000</i>
   <i name="PARAM3">      0.00000000</i>
  </separator>
  <separator name="model GW" >
   <i type="int" name="MODEL_GW">     0</i>
   <i name="MODEL_EPS0">     14.12637664</i>
   <i name="MODEL_ALPHA">      1.00000000</i>
  </separator>
  <separator name="linear response parameters" >
   <i type="logical" name="LEPSILON"> F  </i>
   <i type="logical" name="LRPA"> F  </i>
   <i type="logical" name="LNABLA"> F  </i>
   <i type="logical" name="LVEL"> F  </i>
   <i type="int" name="KINTER">     0</i>
   <i name="CSHIFT">      0.10000000</i>
   <i name="OMEGAMAX">     -1.00000000</i>
   <i name="DEG_THRESHOLD">      0.00200000</i>
   <i name="RTIME">     -0.10000000</i>
   <i name="WPLASMAI">      0.00000000</i>
   <v name="DFIELD">      0.00000000      0.00000000      0.00000000</v>
   <v name="WPLASMA">      0.00000000      0.00000000      0.00000000      0.00000000      0.00000000      0.00000000      0.00000000      0.00000000      0.00000000</v>
  </separator>
  <separator name="orbital magnetization" >
   <i type="logical" name="NUCIND"> F  </i>
   <v name="MAGPOS">      0.00000000      0.00000000      0.00000000</v>
   <i type="logical" name="LNICSALL"> T  </i>
   <i type="logical" name="ORBITALMAG"> F  </i>
   <i type="logical" name="LMAGBLOCH"> F  </i>
   <i type="logical" name="LCHIMAG"> F  </i>
   <i type="logical" name="LGAUGE"> T  </i>
   <i type="int" name="MAGATOM">     0</i>
   <v name="MAGDIPOL">      0.00000000      0.00000000      0.00000000</v>
   <v name="AVECCONST">      0.00000000      0.00000000      0.00000000</v>
  </separator>
  <separator name="response functions" >
   <i type="logical" name="LFINITE_TEMPERATURE"> F  </i>
   <i type="logical" name="LADDER"> F  </i>
   <i type="logical" name="LRPAFORCE"> F  </i>
   <i type="logical" name="LFXC"> F  </i>
   <i type="logical" name="LHARTREE"> T  </i>
   <i type="int" name="IBSE">     0</i>
   <v type="int" name="KPOINT">    -1     0     0     0</v>
   <i type="logical" name="LTCTC"> F  </i>
   <i type="logical" name="LTCTE"> F  </i>
   <i type="logical" name="LTETE"> F  </i>
   <i type="logical" name="LTRIPLET"> F  </i>
   <i type="logical" name="LFXCEPS"> F  </i>
   <i type="logical" name="LFXHEG"> F  </i>
   <i type="int" name="NATURALO">     2</i>
   <i type="logical" name="L2ORDER"> F  </i>
   <i type="logical" name="LDMP1"> F  </i>
   <i type="logical" name="LMP2LT"> F  </i>
   <i type="logical" name="LSMP2LT"> F  </i>
   <i type="logical" name="LUSEW"> F  </i>
   <i name="ENCUTGW">     -2.00000000</i>
   <i name="ENCUTGWSOFT">     -2.00000000</i>
   <i name="ENCUTLF">     -1.00000000</i>
   <i type="int" name="LMAXMP2">    -1</i>
   <i name="SCISSOR">      0.00000000</i>
   <i type="int" name="NOMEGA">     0</i>
   <i type="int" name="NOMEGAR">     0</i>
   <i type="int" name="NBANDSGW">    -1</i>
   <i type="int" name="NBANDSO">    -1</i>
   <i type="int" name="NBANDSV">    -1</i>
   <i type="int" name="NELM">     1</i>
   <i type="int" name="NELMHF">     1</i>
   <i type="int" name="DIM">     3</i>
   <i type="int" name="IESPILON">     4</i>
   <i type="int" name="ANTIRES">     0</i>
   <i name="OMEGAMAX">    -30.00000000</i>
   <i name="OMEGAMIN">    -30.00000000</i>
   <i name="OMEGATL">   -200.00000000</i>
   <i type="int" name="OMEGAGRID">   145</i>
   <i name="CSHIFT">     -0.10000000</i>
   <i type="logical" name="LSELFENERGY"> F  </i>
   <i type="logical" name="LSPECTRAL"> F  </i>
   <i type="logical" name="LSPECTRALGW"> F  </i>
   <i type="logical" name="LSINGLES"> F  </i>
   <i type="logical" name="LFERMIGW"> F  </i>
   <i type="logical" name="ODDONLYGW"> F  </i>
   <i type="logical" name="EVENONLYGW"> F  </i>
   <i type="int" name="NKREDLFX">     1</i>
   <i type="int" name="NKREDLFY">     1</i>
   <i type="int" name="NKREDLFZ">     1</i>
   <i type="int" name="MAXMEM">  2800</i>
   <i type="int" name="TELESCOPE">     0</i>
   <i type="int" name="NTAUPAR">     1</i>
   <i type="int" name="NOMEGAPAR">    -1</i>
   <i name="LAMBDA">      1.00000000</i>
  </separator>
  <separator name="External order field" >
   <i name="OFIELD_KAPPA">      0.00000000</i>
   <v name="OFIELD_K">      0.00000000      0.00000000      0.00000000</v>
   <i name="OFIELD_Q6_NEAR">      0.00000000</i>
   <i name="OFIELD_Q6_FAR">      0.00000000</i>
   <i name="OFIELD_A">      0.00000000</i>
  </separator>
 </parameters>
 <atominfo>
  <atoms>       3 </atoms>
  <types>       3 </types>
  <array name="atoms" >
   <dimension dim="1">ion</dimension>
   <field type="string">element</field>
   <field type="int">atomtype</field>
   <set>
    <rc><c>Hf</c><c>   1</c></rc>
    <rc><c>Sb</c><c>   2</c></rc>
    <rc><c>Pt</c><c>   3</c></rc>
   </set>
  </array>
  <array name="atomtypes" >
   <dimension dim="1">type</dimension>
   <field type="int">atomspertype</field>
   <field type="string">element</field>
   <field>mass</field>
   <field>valence</field>
   <field type="string">pseudopotential</field>
   <set>
    <rc><c>   1</c><c>Hf</c><c>    178.49000000</c><c>     10.00000000</c><c>  PAW_PBE Hf_pv 06Sep2000               </c></rc>
    <rc><c>   1</c><c>Sb</c><c>    121.75000000</c><c>      5.00000000</c><c>  PAW_PBE Sb 06Sep2000                  </c></rc>
    <rc><c>   1</c><c>Pt</c><c>    195.08000000</c><c>     10.00000000</c><c>  PAW_PBE Pt 04Feb2005                  </c></rc>
   </set>
  </array>
 </atominfo>
 <structure name="initialpos" >
  <crystal>
   <varray name="basis" >
    <v>       0.00000000       3.28087937       3.28087937 </v>
    <v>       3.28087937       0.00000000       3.28087937 </v>
    <v>       3.28087937       3.28087937       0.00000000 </v>
   </varray>
   <i name="volume">     70.63188319 </i>
   <varray name="rec_basis" >
    <v>      -0.15239817       0.15239817       0.15239817 </v>
    <v>       0.15239817      -0.15239817       0.15239817 </v>
    <v>       0.15239817       0.15239817      -0.15239817 </v>
   </varray>
  </crystal>
  <varray name="positions" >
   <v>       0.75000000       0.75000000       0.75000000 </v>
   <v>       0.25000000       0.25000000       0.25000000 </v>
   <v>       0.00000000       0.00000000       0.00000000 </v>
  </varray>
 </structure>
 <calculation>
  <scstep>
   <time name="dav">    0.93    0.95</time>
   <time name="total">    1.04    1.15</time>
   <energy>
    <i name="alphaZ">     96.45436617 </i>
    <i name="ewald">  -1515.46551916 </i>
    <i name="hartreedc">   -341.69030789 </i>
    <i name="XCdc">    -19.76784951 </i>
    <i name="pawpsdc">   1514.36848356 </i>
    <i name="pawaedc">  -1421.27055995 </i>
    <i name="eentropy">     -0.00017915 </i>
    <i name="bandstr">     82.96257666 </i>
    <i name="atom">   1741.10451121 </i>
    <i name="e_fr_energy">    136.69552194 </i>
    <i name="e_wo_entrp">    136.69570109 </i>
    <i name="e_0_energy">    136.69561151 </i>
   </energy>
  </scstep>
  <scstep>
   <time name="dav">    1.12    1.14</time>
   <time name="total">    1.12    1.15</time>
   <energy>
    <i name="e_fr_energy">    -19.90761898 </i>
    <i name="e_wo_entrp">    -19.90731812 </i>
    <i name="e_0_energy">    -19.90746855 </i>
   </energy>
  </scstep>
  <scstep>
   <time name="dav">    1.16    1.18</time>
   <time name="total">    1.17    1.18</time>
   <energy>
    <i name="e_fr_energy">    -24.87240313 </i>
    <i name="e_wo_entrp">    -24.87223415 </i>
    <i name="e_0_energy">    -24.87231864 </i>
   </energy>
  </scstep>
  <scstep>
   <time name="dav">    1.09    1.11</time>
   <time name="total">    1.09    1.12</time>
   <energy>
    <i name="e_fr_energy">    -24.94005173 </i>
    <i name="e_wo_entrp">    -24.93988260 </i>
    <i name="e_0_energy">    -24.93996716 </i>
   </energy>
  </scstep>
  <scstep>
   <time name="dav">    1.15    1.19</time>
   <time name="total">    1.38    1.42</time>
   <energy>
    <i name="e_fr_energy">    -24.94179025 </i>
    <i name="e_wo_entrp">    -24.94162318 </i>
    <i name="e_0_energy">    -24.94170672 </i>
   </energy>
  </scstep>
  <scstep>
   <time name="dav">    1.12    1.12</time>
   <time name="total">    1.44    1.46</time>
   <energy>
    <i name="e_fr_energy">    -24.00714004 </i>
    <i name="e_wo_entrp">    -24.00704518 </i>
    <i name="e_0_energy">    -24.00709261 </i>
   </energy>
  </scstep>
  <scstep>
   <time name="dav">    1.19    1.19</time>
   <time name="total">    1.47    1.50</time>
   <energy>
    <i name="e_fr_energy">    -23.85758305 </i>
    <i name="e_wo_entrp">    -23.85706560 </i>
    <i name="e_0_energy">    -23.85732432 </i>
   </energy>
  </scstep>
  <scstep>
   <time name="dav">    1.06    1.06</time>
   <time name="total">    1.38    1.40</time>
   <energy>
    <i name="e_fr_energy">    -23.83414199 </i>
    <i name="e_wo_entrp">    -23.83381124 </i>
    <i name="e_0_energy">    -23.83397662 </i>
   </energy>
  </scstep>
  <scstep>
   <time name="dav">    1.09    1.09</time>
   <time name="total">    1.36    1.39</time>
   <energy>
    <i name="e_fr_energy">    -23.82770998 </i>
    <i name="e_wo_entrp">    -23.82729956 </i>
    <i name="e_0_energy">    -23.82750477 </i>
   </energy>
  </scstep>
  <scstep>
   <time name="dav">    1.12    1.12</time>
   <time name="total">    1.39    1.42</time>
   <energy>
    <i name="e_fr_energy">    -23.82747445 </i>
    <i name="e_wo_entrp">    -23.82706667 </i>
    <i name="e_0_energy">    -23.82727056 </i>
   </energy>
  </scstep>
  <scstep>
   <time name="dav">    1.10    1.10</time>
   <time name="total">    1.37    1.40</time>
   <energy>
    <i name="e_fr_energy">    -23.82733555 </i>
    <i name="e_wo_entrp">    -23.82691670 </i>
    <i name="e_0_energy">    -23.82712612 </i>
   </energy>
  </scstep>
  <scstep>
   <time name="dav">    1.01    1.02</time>
   <time name="total">    1.28    1.31</time>
   <energy>
    <i name="e_fr_energy">    -23.82733317 </i>
    <i name="e_wo_entrp">    -23.82691510 </i>
    <i name="e_0_energy">    -23.82712413 </i>
   </energy>
  </scstep>
  <scstep>
   <time name="dav">    1.18    1.18</time>
   <time name="total">    1.46    1.49</time>
   <energy>
    <i name="e_fr_energy">    -23.82733155 </i>
    <i name="e_wo_entrp">    -23.82691447 </i>
    <i name="e_0_energy">    -23.82712301 </i>
   </energy>
  </scstep>
  <scstep>
   <time name="dav">    1.04    1.04</time>
   <time name="total">    1.30    1.42</time>
   <energy>
    <i name="e_fr_energy">    -23.82733165 </i>
    <i name="e_wo_entrp">    -23.82691432 </i>
    <i name="e_0_energy">    -23.82712299 </i>
   </energy>
  </scstep>
  <scstep>
   <time name="dav">    0.96    0.96</time>
   <time name="total">    1.05    1.11</time>
   <energy>
    <i name="alphaZ">     96.45436617 </i>
    <i name="ewald">  -1515.46551916 </i>
    <i name="hartreedc">   -318.86050761 </i>
    <i name="XCdc">    -20.49902334 </i>
    <i name="pawpsdc">   2310.45298752 </i>
    <i name="pawaedc">  -2222.21484720 </i>
    <i name="eentropy">     -0.00041743 </i>
    <i name="bandstr">    -94.79888184 </i>
    <i name="atom">   1741.10451121 </i>
    <i name="e_fr_energy">    -23.82733167 </i>
    <i name="e_wo_entrp">    -23.82691424 </i>
    <i name="e_0_energy">    -23.82712295 </i>
   </energy>
  </scstep>
  <structure>
   <crystal>
    <varray name="basis" >
     <v>       0.00000000       3.28087937       3.28087937 </v>
     <v>       3.28087937       0.00000000       3.28087937 </v>
     <v>       3.28087937       3.28087937       0.00000000 </v>
    </varray>
    <i name="volume">     70.63188319 </i>
    <varray name="rec_basis" >
     <v>      -0.15239817       0.15239817       0.15239817 </v>
     <v>       0.15239817      -0.15239817       0.15239817 </v>
     <v>       0.15239817       0.15239817      -0.15239817 </v>
    </varray>
   </crystal>
   <varray name="positions" >
    <v>       0.75000000       0.75000000       0.75000000 </v>
    <v>       0.25000000       0.25000000       0.25000000 </v>
    <v>       0.00000000       0.00000000       0.00000000 </v>
   </varray>
  </structure>
  <varray name="forces" >
   <v>       0.00000000       0.00000000       0.00000000 </v>
   <v>       0.00000000       0.00000000       0.00000000 </v>
   <v>      -0.00000000      -0.00000000      -0.00000000 </v>
  </varray>
  <varray name="stress" >
   <v>    -104.80536271      -0.00000000       0.00000000 </v>
   <v>      -0.00000000    -104.80536271       0.00000000 </v>
   <v>       0.00000000      -0.00000000    -104.80536271 </v>
  </varray>
  <energy>
   <i name="e_fr_energy">    -23.82733167 </i>
   <i name="e_wo_entrp">    -23.82712295 </i>
   <i name="e_0_energy">     -0.00041743 </i>
  </energy>
  <time name="totalsc">   22.03   23.81</time>
  <eigenvalues>
   <array>
    <dimension dim="1">band</dimension>
    <dimension dim="2">kpoint</dimension>
    <dimension dim="3">spin</dimension>
    <field>eigene</field>
    <field>occ</field>
    <set>
     <set comment="spin 1">
      <set comment="kpoint 1">
       <r>  -24.6556    1.0000 </r>
       <r>  -24.6556    1.0000 </r>
       <r>  -24.6556    1.0000 </r>
       <r>   -4.3068    1.0000 </r>
       <r>    2.2754    1.0000 </r>
       <r>    2.2754    1.0000 </r>
       <r>    2.2754    1.0000 </r>
       <r>    3.0770    1.0000 </r>
       <r>    3.0770    1.0000 </r>
       <r>    6.2764    1.0000 </r>
       <r>    6.3461    1.0000 </r>
       <r>    6.3461    1.0000 </r>
       <r>    6.3461    1.0000 </r>
       <r>    8.5602    0.0000 </r>
       <r>    8.5602    0.0000 </r>
       <r>    8.5602    0.0000 </r>
      </set>
      <set comment="kpoint 2">
       <r>  -24.6562    1.0000 </r>
       <r>  -24.6556    1.0000 </r>
       <r>  -24.6556    1.0000 </r>
       <r>   -4.2505    1.0000 </r>
       <r>    2.1910    1.0000 </r>
       <r>    2.2568    1.0000 </r>
       <r>    2.2568    1.0000 </r>
       <r>    3.1071    1.0000 </r>
       <r>    3.1071    1.0000 </r>
       <r>    5.6605    1.0000 </r>
       <r>    6.2798    1.0000 </r>
       <r>    6.2798    1.0000 </r>
       <r>    6.7232    1.0000 </r>
       <r>    8.4095    0.0000 </r>
       <r>    8.4095    0.0000 </r>
       <r>    8.8735    0.0000 </r>
      </set>
      <set comment="kpoint 3">
       <r>  -24.6580    1.0000 </r>
       <r>  -24.6556    1.0000 </r>
       <r>  -24.6556    1.0000 </r>
       <r>   -4.0875    1.0000 </r>
       <r>    1.9599    1.0000 </r>
       <r>    2.2162    1.0000 </r>
       <r>    2.2162    1.0000 </r>
       <r>    3.1763    1.0000 </r>
       <r>    3.1763    1.0000 </r>
       <r>    4.9092    1.0000 </r>
       <r>    6.1134    1.0000 </r>
       <r>    6.1134    1.0000 </r>
       <r>    6.9889    1.0000 </r>
       <r>    8.3274    0.0000 </r>
       <r>    8.3274    0.0000 </r>
       <r>    9.5652    0.0000 </r>
      </set>
      <set comment="kpoint 4">
       <r>  -24.6604    1.0000 </r>
       <r>  -24.6555    1.0000 </r>
       <r>  -24.6555    1.0000 </r>
       <r>   -3.8370    1.0000 </r>
       <r>    1.6284    1.0000 </r>
       <r>    2.1793    1.0000 </r>
       <r>    2.1793    1.0000 </r>
       <r>    3.2443    1.0000 </r>
       <r>    3.2443    1.0000 </r>
       <r>    4.2211    1.0000 </r>
       <r>    5.9170    1.0000 </r>
       <r>    5.9170    1.0000 </r>
       <r>    7.2103    1.0000 </r>
       <r>    8.3678    0.0000 </r>
       <r>    8.3678    0.0000 </r>
       <r>   10.1633    0.0000 </r>
      </set>
      <set comment="kpoint 5">
       <r>  -24.6630    1.0000 </r>
       <r>  -24.6555    1.0000 </r>
       <r>  -24.6555    1.0000 </r>
       <r>   -3.5354    1.0000 </r>
       <r>    1.2479    1.0000 </r>
       <r>    2.1603    1.0000 </r>
       <r>    2.1603    1.0000 </r>
       <r>    3.2818    1.0000 </r>
       <r>    3.2818    1.0000 </r>
       <r>    3.6876    1.0000 </r>
       <r>    5.7514    1.0000 </r>
       <r>    5.7514    1.0000 </r>
       <r>    7.4119    1.0000 </r>
       <r>    8.4968    0.0000 </r>
       <r>    8.4968    0.0000 </r>
       <r>    9.8019    0.0000 </r>
      </set>
      <set comment="kpoint 6">
       <r>  -24.6652    1.0000 </r>
       <r>  -24.6555    1.0000 </r>
       <r>  -24.6555    1.0000 </r>
       <r>   -3.2449    1.0000 </r>
       <r>    0.8905    1.0000 </r>
       <r>    2.1584    1.0000 </r>
       <r>    2.1584    1.0000 </r>
       <r>    3.2855    1.0000 </r>
       <r>    3.2855    1.0000 </r>
       <r>    3.3411    1.0000 </r>
       <r>    5.6443    1.0000 </r>
       <r>    5.6443    1.0000 </r>
       <r>    7.6061    1.0000 </r>
       <r>    8.6660    0.0000 </r>
       <r>    8.6660    0.0000 </r>
       <r>    9.1466    0.0000 </r>
      </set>
      <set comment="kpoint 7">
       <r>  -24.6664    1.0000 </r>
       <r>  -24.6555    1.0000 </r>
       <r>  -24.6555    1.0000 </r>
       <r>   -3.0569    1.0000 </r>
       <r>    0.6630    1.0000 </r>
       <r>    2.1629    1.0000 </r>
       <r>    2.1629    1.0000 </r>
       <r>    3.1751    1.0000 </r>
       <r>    3.2759    1.0000 </r>
       <r>    3.2759    1.0000 </r>
       <r>    5.5953    1.0000 </r>
       <r>    5.5953    1.0000 </r>
       <r>    7.7757    0.2956 </r>
       <r>    8.7051    0.0000 </r>
       <r>    8.7961    0.0000 </r>
       <r>    8.7961    0.0000 </r>
      </set>
      <set comment="kpoint 8">
       <r>  -24.6562    1.0000 </r>
       <r>  -24.6557    1.0000 </r>
       <r>  -24.6557    1.0000 </r>
       <r>   -4.2321    1.0000 </r>
       <r>    2.0749    1.0000 </r>
       <r>    2.3032    1.0000 </r>
       <r>    2.3032    1.0000 </r>
       <r>    3.1062    1.0000 </r>
       <r>    3.1153    1.0000 </r>
       <r>    5.6618    1.0000 </r>
       <r>    6.1589    1.0000 </r>
       <r>    6.1589    1.0000 </r>
       <r>    6.8451    1.0000 </r>
       <r>    8.2536    0.0000 </r>
       <r>    8.7571    0.0000 </r>
       <r>    8.8186    0.0000 </r>
      </set>
      <set comment="kpoint 9">
       <r>  -24.6575    1.0000 </r>
       <r>  -24.6558    1.0000 </r>
       <r>  -24.6557    1.0000 </r>
       <r>   -4.1057    1.0000 </r>
       <r>    1.8681    1.0000 </r>
       <r>    2.2845    1.0000 </r>
       <r>    2.3118    1.0000 </r>
       <r>    3.1568    1.0000 </r>
       <r>    3.1587    1.0000 </r>
       <r>    5.1184    1.0000 </r>
       <r>    5.9736    1.0000 </r>
       <r>    6.0100    1.0000 </r>
       <r>    7.1066    1.0000 </r>
       <r>    8.1279    0.0000 </r>
       <r>    8.5613    0.0000 </r>
       <r>    9.2349    0.0000 </r>
      </set>
      <set comment="kpoint 10">
       <r>  -24.6597    1.0000 </r>
       <r>  -24.6558    1.0000 </r>
       <r>  -24.6556    1.0000 </r>
       <r>   -3.8859    1.0000 </r>
       <r>    1.6093    1.0000 </r>
       <r>    2.2129    1.0000 </r>
       <r>    2.2958    1.0000 </r>
       <r>    3.2176    1.0000 </r>
       <r>    3.2295    1.0000 </r>
       <r>    4.4463    1.0000 </r>
       <r>    5.7886    1.0000 </r>
       <r>    5.8308    1.0000 </r>
       <r>    7.3851    1.0000 </r>
       <r>    8.1483    0.0000 </r>
       <r>    8.4726    0.0000 </r>
       <r>    9.7322    0.0000 </r>
      </set>
      <set comment="kpoint 11">
       <r>  -24.6622    1.0000 </r>
       <r>  -24.6558    1.0000 </r>
       <r>  -24.6556    1.0000 </r>
       <r>   -3.6032    1.0000 </r>
       <r>    1.3038    1.0000 </r>
       <r>    2.1491    1.0000 </r>
       <r>    2.2733    1.0000 </r>
       <r>    3.2669    1.0000 </r>
       <r>    3.2777    1.0000 </r>
       <r>    3.8642    1.0000 </r>
       <r>    5.6468    1.0000 </r>
       <r>    5.6590    1.0000 </r>
       <r>    7.5438    1.0000 </r>
       <r>    8.3719    0.0000 </r>
       <r>    8.5009    0.0000 </r>
       <r>    9.8584    0.0000 </r>
      </set>
      <set comment="kpoint 12">
       <r>  -24.6644    1.0000 </r>
       <r>  -24.6557    1.0000 </r>
       <r>  -24.6557    1.0000 </r>
       <r>   -3.3099    1.0000 </r>
       <r>    0.9884    1.0000 </r>
       <r>    2.1209    1.0000 </r>
       <r>    2.2494    1.0000 </r>
       <r>    3.2781    1.0000 </r>
       <r>    3.2913    1.0000 </r>
       <r>    3.4588    1.0000 </r>
       <r>    5.5280    1.0000 </r>
       <r>    5.5642    1.0000 </r>
       <r>    7.6559    1.0000 </r>
       <r>    8.6220    0.0000 </r>
       <r>    8.6586    0.0000 </r>
       <r>    9.3067    0.0000 </r>
      </set>
      <set comment="kpoint 13">
       <r>  -24.6659    1.0000 </r>
       <r>  -24.6558    1.0000 </r>
       <r>  -24.6556    1.0000 </r>
       <r>   -3.0859    1.0000 </r>
       <r>    0.7451    1.0000 </r>
       <r>    2.1291    1.0000 </r>
       <r>    2.2180    1.0000 </r>
       <r>    3.1873    1.0000 </r>
       <r>    3.2897    1.0000 </r>
       <r>    3.3152    1.0000 </r>
       <r>    5.4470    1.0000 </r>
       <r>    5.5341    1.0000 </r>
       <r>    7.7919    0.0023 </r>
       <r>    8.7228    0.0000 </r>
       <r>    8.7673    0.0000 </r>
       <r>    8.9538    0.0000 </r>
      </set>
      <set comment="kpoint 14">
       <r>  -24.6663    1.0000 </r>
       <r>  -24.6560    1.0000 </r>
       <r>  -24.6555    1.0000 </r>
       <r>   -3.0207    1.0000 </r>
       <r>    0.6747    1.0000 </r>
       <r>    2.1628    1.0000 </r>
       <r>    2.1751    1.0000 </r>
       <r>    3.1357    1.0000 </r>
       <r>    3.2967    1.0000 </r>
       <r>    3.3008    1.0000 </r>
       <r>    5.4052    1.0000 </r>
       <r>    5.5482    1.0000 </r>
       <r>    7.8733    0.0000 </r>
       <r>    8.5583    0.0000 </r>
       <r>    8.8201    0.0000 </r>
       <r>    9.0140    0.0000 </r>
      </set>
      <set comment="kpoint 15">
       <r>  -24.6655    1.0000 </r>
       <r>  -24.6561    1.0000 </r>
       <r>  -24.6554    1.0000 </r>
       <r>   -3.1466    1.0000 </r>
       <r>    0.8149    1.0000 </r>
       <r>    2.1288    1.0000 </r>
       <r>    2.2098    1.0000 </r>
       <r>    3.2103    1.0000 </r>
       <r>    3.3122    1.0000 </r>
       <r>    3.3364    1.0000 </r>
       <r>    5.3899    1.0000 </r>
       <r>    5.6110    1.0000 </r>
       <r>    7.7765    0.2575 </r>
       <r>    8.7202    0.0000 </r>
       <r>    8.7489    0.0000 </r>
       <r>    9.0216    0.0000 </r>
      </set>
      <set comment="kpoint 16">
       <r>  -24.6637    1.0000 </r>
       <r>  -24.6561    1.0000 </r>
       <r>  -24.6554    1.0000 </r>
       <r>   -3.4039    1.0000 </r>
       <r>    1.1013    1.0000 </r>
       <r>    2.0968    1.0000 </r>
       <r>    2.2605    1.0000 </r>
       <r>    3.2565    1.0000 </r>
       <r>    3.3152    1.0000 </r>
       <r>    3.5780    1.0000 </r>
       <r>    5.4053    1.0000 </r>
       <r>    5.7347    1.0000 </r>
       <r>    7.6595    1.0000 </r>
       <r>    8.5305    0.0000 </r>
       <r>    8.6334    0.0000 </r>
       <r>    9.5119    0.0000 </r>
      </set>
      <set comment="kpoint 17">
       <r>  -24.6613    1.0000 </r>
       <r>  -24.6561    1.0000 </r>
       <r>  -24.6553    1.0000 </r>
       <r>   -3.7012    1.0000 </r>
       <r>    1.4372    1.0000 </r>
       <r>    2.0942    1.0000 </r>
       <r>    2.3078    1.0000 </r>
       <r>    3.2388    1.0000 </r>
       <r>    3.2869    1.0000 </r>
       <r>    4.0438    1.0000 </r>
       <r>    5.4744    1.0000 </r>
       <r>    5.9178    1.0000 </r>
       <r>    7.5408    1.0000 </r>
       <r>    8.3351    0.0000 </r>
       <r>    8.4749    0.0000 </r>
       <r>    9.7454    0.0000 </r>
      </set>
      <set comment="kpoint 18">
       <r>  -24.6589    1.0000 </r>
       <r>  -24.6560    1.0000 </r>
       <r>  -24.6554    1.0000 </r>
       <r>   -3.9677    1.0000 </r>
       <r>    1.7561    1.0000 </r>
       <r>    2.1269    1.0000 </r>
       <r>    2.3391    1.0000 </r>
       <r>    3.1864    1.0000 </r>
       <r>    3.2278    1.0000 </r>
       <r>    4.6573    1.0000 </r>
       <r>    5.6293    1.0000 </r>
       <r>    6.1227    1.0000 </r>
       <r>    7.3314    1.0000 </r>
       <r>    8.2019    0.0000 </r>
       <r>    8.4500    0.0000 </r>
       <r>    9.3236    0.0000 </r>
      </set>
      <set comment="kpoint 19">
       <r>  -24.6571    1.0000 </r>
       <r>  -24.6558    1.0000 </r>
       <r>  -24.6555    1.0000 </r>
       <r>   -4.1590    1.0000 </r>
       <r>    2.0211    1.0000 </r>
       <r>    2.1881    1.0000 </r>
       <r>    2.3264    1.0000 </r>
       <r>    3.1320    1.0000 </r>
       <r>    3.1576    1.0000 </r>
       <r>    5.2707    1.0000 </r>
       <r>    5.9230    1.0000 </r>
       <r>    6.2695    1.0000 </r>
       <r>    7.0094    1.0000 </r>
       <r>    8.2059    0.0000 </r>
       <r>    8.5391    0.0000 </r>
       <r>    8.9394    0.0000 </r>
      </set>
      <set comment="kpoint 20">
       <r>  -24.6580    1.0000 </r>
       <r>  -24.6560    1.0000 </r>
       <r>  -24.6560    1.0000 </r>
       <r>   -4.0199    1.0000 </r>
       <r>    1.6439    1.0000 </r>
       <r>    2.3824    1.0000 </r>
       <r>    2.3824    1.0000 </r>
       <r>    3.1341    1.0000 </r>
       <r>    3.1899    1.0000 </r>
       <r>    5.0536    1.0000 </r>
       <r>    5.7778    1.0000 </r>
       <r>    5.7778    1.0000 </r>
       <r>    7.1509    1.0000 </r>
       <r>    8.0575    0.0000 </r>
       <r>    8.6180    0.0000 </r>
       <r>    9.3544    0.0000 </r>
      </set>
      <set comment="kpoint 21">
       <r>  -24.6596    1.0000 </r>
       <r>  -24.6561    1.0000 </r>
       <r>  -24.6561    1.0000 </r>
       <r>   -3.8412    1.0000 </r>
       <r>    1.4163    1.0000 </r>
       <r>    2.3787    1.0000 </r>
       <r>    2.4134    1.0000 </r>
       <r>    3.1473    1.0000 </r>
       <r>    3.2544    1.0000 </r>
       <r>    4.6146    1.0000 </r>
       <r>    5.5702    1.0000 </r>
       <r>    5.5934    1.0000 </r>
       <r>    7.4103    1.0000 </r>
       <r>    8.0082    0.0000 </r>
       <r>    8.5059    0.0000 </r>
       <r>    9.6469    0.0000 </r>
      </set>
      <set comment="kpoint 22">
       <r>  -24.6617    1.0000 </r>
       <r>  -24.6562    1.0000 </r>
       <r>  -24.6562    1.0000 </r>
       <r>   -3.5948    1.0000 </r>
       <r>    1.2042    1.0000 </r>
       <r>    2.2957    1.0000 </r>
       <r>    2.4120    1.0000 </r>
       <r>    3.1972    1.0000 </r>
       <r>    3.3104    1.0000 </r>
       <r>    4.0647    1.0000 </r>
       <r>    5.3649    1.0000 </r>
       <r>    5.4633    1.0000 </r>
       <r>    7.6797    1.0000 </r>
       <r>    8.1852    0.0000 </r>
       <r>    8.4605    0.0000 </r>
       <r>    9.7665    0.0000 </r>
      </set>
      <set comment="kpoint 23">
       <r>  -24.6637    1.0000 </r>
       <r>  -24.6565    1.0000 </r>
       <r>  -24.6561    1.0000 </r>
       <r>   -3.3248    1.0000 </r>
       <r>    1.0135    1.0000 </r>
       <r>    2.1961    1.0000 </r>
       <r>    2.3854    1.0000 </r>
       <r>    3.2399    1.0000 </r>
       <r>    3.3336    1.0000 </r>
       <r>    3.6017    1.0000 </r>
       <r>    5.2011    1.0000 </r>
       <r>    5.3988    1.0000 </r>
       <r>    7.7098    1.0000 </r>
       <r>    8.5358    0.0000 </r>
       <r>    8.6742    0.0000 </r>
       <r>    9.3911    0.0000 </r>
      </set>
      <set comment="kpoint 24">
       <r>  -24.6651    1.0000 </r>
       <r>  -24.6568    1.0000 </r>
       <r>  -24.6560    1.0000 </r>
       <r>   -3.0964    1.0000 </r>
       <r>    0.8613    1.0000 </r>
       <r>    2.1290    1.0000 </r>
       <r>    2.3315    1.0000 </r>
       <r>    3.1830    1.0000 </r>
       <r>    3.3384    1.0000 </r>
       <r>    3.3813    1.0000 </r>
       <r>    5.0869    1.0000 </r>
       <r>    5.3855    1.0000 </r>
       <r>    7.7673    0.7462 </r>
       <r>    8.7021    0.0000 </r>
       <r>    8.8599    0.0000 </r>
       <r>    9.1186    0.0000 </r>
      </set>
      <set comment="kpoint 25">
       <r>  -24.6656    1.0000 </r>
       <r>  -24.6572    1.0000 </r>
       <r>  -24.6558    1.0000 </r>
       <r>   -2.9862    1.0000 </r>
       <r>    0.7901    1.0000 </r>
       <r>    2.1247    1.0000 </r>
       <r>    2.2525    1.0000 </r>
       <r>    3.0818    1.0000 </r>
       <r>    3.3489    1.0000 </r>
       <r>    3.3724    1.0000 </r>
       <r>    5.0097    1.0000 </r>
       <r>    5.4102    1.0000 </r>
       <r>    7.8937    0.0000 </r>
       <r>    8.5266    0.0000 </r>
       <r>    8.8354    0.0000 </r>
       <r>    9.3697    0.0000 </r>
      </set>
      <set comment="kpoint 26">
       <r>  -24.6652    1.0000 </r>
       <r>  -24.6574    1.0000 </r>
       <r>  -24.6556    1.0000 </r>
       <r>   -3.0406    1.0000 </r>
       <r>    0.8391    1.0000 </r>
       <r>    2.1652    1.0000 </r>
       <r>    2.1892    1.0000 </r>
       <r>    3.1057    1.0000 </r>
       <r>    3.3650    1.0000 </r>
       <r>    3.4127    1.0000 </r>
       <r>    4.9468    1.0000 </r>
       <r>    5.4792    1.0000 </r>
       <r>    7.9484    0.0000 </r>
       <r>    8.5901    0.0000 </r>
       <r>    8.8008    0.0000 </r>
       <r>    9.3734    0.0000 </r>
      </set>
      <set comment="kpoint 27">
       <r>  -24.6640    1.0000 </r>
       <r>  -24.6574    1.0000 </r>
       <r>  -24.6554    1.0000 </r>
       <r>   -3.2360    1.0000 </r>
       <r>    0.9984    1.0000 </r>
       <r>    2.0940    1.0000 </r>
       <r>    2.2949    1.0000 </r>
       <r>    3.1935    1.0000 </r>
       <r>    3.3676    1.0000 </r>
       <r>    3.5634    1.0000 </r>
       <r>    4.8958    1.0000 </r>
       <r>    5.6071    1.0000 </r>
       <r>    7.9399    0.0000 </r>
       <r>    8.6316    0.0000 </r>
       <r>    8.8783    0.0000 </r>
       <r>    9.2991    0.0000 </r>
      </set>
      <set comment="kpoint 28">
       <r>  -24.6622    1.0000 </r>
       <r>  -24.6572    1.0000 </r>
       <r>  -24.6553    1.0000 </r>
       <r>   -3.5004    1.0000 </r>
       <r>    1.2263    1.0000 </r>
       <r>    2.0590    1.0000 </r>
       <r>    2.3871    1.0000 </r>
       <r>    3.2250    1.0000 </r>
       <r>    3.3419    1.0000 </r>
       <r>    3.9165    1.0000 </r>
       <r>    4.9074    1.0000 </r>
       <r>    5.7910    1.0000 </r>
       <r>    7.9724    0.0000 </r>
       <r>    8.4238    0.0000 </r>
       <r>    8.6543    0.0000 </r>
       <r>    9.4584    0.0000 </r>
      </set>
      <set comment="kpoint 29">
       <r>  -24.6604    1.0000 </r>
       <r>  -24.6567    1.0000 </r>
       <r>  -24.6553    1.0000 </r>
       <r>   -3.7615    1.0000 </r>
       <r>    1.4887    1.0000 </r>
       <r>    2.0702    1.0000 </r>
       <r>    2.4120    1.0000 </r>
       <r>    3.2072    1.0000 </r>
       <r>    3.2902    1.0000 </r>
       <r>    4.3461    1.0000 </r>
       <r>    5.1150    1.0000 </r>
       <r>    5.9901    1.0000 </r>
       <r>    7.8087    0.0000 </r>
       <r>    8.2537    0.0000 </r>
       <r>    8.4560    0.0000 </r>
       <r>    9.3044    0.0000 </r>
      </set>
      <set comment="kpoint 30">
       <r>  -24.6605    1.0000 </r>
       <r>  -24.6564    1.0000 </r>
       <r>  -24.6564    1.0000 </r>
       <r>   -3.7096    1.0000 </r>
       <r>    1.2142    1.0000 </r>
       <r>    2.5006    1.0000 </r>
       <r>    2.5006    1.0000 </r>
       <r>    3.0709    1.0000 </r>
       <r>    3.3151    1.0000 </r>
       <r>    4.5051    1.0000 </r>
       <r>    5.4010    1.0000 </r>
       <r>    5.4010    1.0000 </r>
       <r>    7.2647    1.0000 </r>
       <r>    8.0535    0.0000 </r>
       <r>    8.4176    0.0000 </r>
       <r>    9.7510    0.0000 </r>
      </set>
      <set comment="kpoint 31">
       <r>  -24.6620    1.0000 </r>
       <r>  -24.6566    1.0000 </r>
       <r>  -24.6565    1.0000 </r>
       <r>   -3.5123    1.0000 </r>
       <r>    1.0574    1.0000 </r>
       <r>    2.4910    1.0000 </r>
       <r>    2.5427    1.0000 </r>
       <r>    3.0728    1.0000 </r>
       <r>    3.3789    1.0000 </r>
       <r>    4.1414    1.0000 </r>
       <r>    5.1807    1.0000 </r>
       <r>    5.2630    1.0000 </r>
       <r>    7.4303    1.0000 </r>
       <r>    8.1552    0.0000 </r>
       <r>    8.3344    0.0000 </r>
       <r>    9.7600    0.0000 </r>
      </set>
      <set comment="kpoint 32">
       <r>  -24.6636    1.0000 </r>
       <r>  -24.6571    1.0000 </r>
       <r>  -24.6566    1.0000 </r>
       <r>   -3.2860    1.0000 </r>
       <r>    0.9664    1.0000 </r>
       <r>    2.3710    1.0000 </r>
       <r>    2.5378    1.0000 </r>
       <r>    3.1495    1.0000 </r>
       <r>    3.4116    1.0000 </r>
       <r>    3.7082    1.0000 </r>
       <r>    4.9321    1.0000 </r>
       <r>    5.1999    1.0000 </r>
       <r>    7.5698    1.0000 </r>
       <r>    8.3657    0.0000 </r>
       <r>    8.5681    0.0000 </r>
       <r>    9.4628    0.0000 </r>
      </set>
      <set comment="kpoint 33">
       <r>  -24.6646    1.0000 </r>
       <r>  -24.6578    1.0000 </r>
       <r>  -24.6564    1.0000 </r>
       <r>   -3.0820    1.0000 </r>
       <r>    0.9428    1.0000 </r>
       <r>    2.2240    1.0000 </r>
       <r>    2.4828    1.0000 </r>
       <r>    3.1560    1.0000 </r>
       <r>    3.4190    1.0000 </r>
       <r>    3.4271    1.0000 </r>
       <r>    4.7324    1.0000 </r>
       <r>    5.1947    1.0000 </r>
       <r>    7.6227    1.0000 </r>
       <r>    8.5462    0.0000 </r>
       <r>    8.9937    0.0000 </r>
       <r>    9.1519    0.0000 </r>
      </set>
      <set comment="kpoint 34">
       <r>  -24.6649    1.0000 </r>
       <r>  -24.6586    1.0000 </r>
       <r>  -24.6562    1.0000 </r>
       <r>   -2.9571    1.0000 </r>
       <r>    0.9619    1.0000 </r>
       <r>    2.1123    1.0000 </r>
       <r>    2.3827    1.0000 </r>
       <r>    3.0086    1.0000 </r>
       <r>    3.4257    1.0000 </r>
       <r>    3.4509    1.0000 </r>
       <r>    4.5940    1.0000 </r>
       <r>    5.2260    1.0000 </r>
       <r>    7.7326    1.0000 </r>
       <r>    8.6278    0.0000 </r>
       <r>    8.7999    0.0000 </r>
       <r>    9.4847    0.0000 </r>
      </set>
      <set comment="kpoint 35">
       <r>  -24.6645    1.0000 </r>
       <r>  -24.6591    1.0000 </r>
       <r>  -24.6559    1.0000 </r>
       <r>   -2.9525    1.0000 </r>
       <r>    0.9802    1.0000 </r>
       <r>    2.1076    1.0000 </r>
       <r>    2.2620    1.0000 </r>
       <r>    2.9820    1.0000 </r>
       <r>    3.4337    1.0000 </r>
       <r>    3.5313    1.0000 </r>
       <r>    4.5015    1.0000 </r>
       <r>    5.2976    1.0000 </r>
       <r>    7.9101    0.0000 </r>
       <r>    8.4732    0.0000 </r>
       <r>    8.8921    0.0000 </r>
       <r>    9.4768    0.0000 </r>
      </set>
      <set comment="kpoint 36">
       <r>  -24.6637    1.0000 </r>
       <r>  -24.6591    1.0000 </r>
       <r>  -24.6556    1.0000 </r>
       <r>   -3.0706    1.0000 </r>
       <r>    1.0007    1.0000 </r>
       <r>    2.1525    1.0000 </r>
       <r>    2.2161    1.0000 </r>
       <r>    3.0775    1.0000 </r>
       <r>    3.4260    1.0000 </r>
       <r>    3.6386    1.0000 </r>
       <r>    4.4535    1.0000 </r>
       <r>    5.4247    1.0000 </r>
       <r>    8.0149    0.0000 </r>
       <r>    8.7108    0.0000 </r>
       <r>    8.7755    0.0000 </r>
       <r>    9.3902    0.0000 </r>
      </set>
      <set comment="kpoint 37">
       <r>  -24.6629    1.0000 </r>
       <r>  -24.6584    1.0000 </r>
       <r>  -24.6554    1.0000 </r>
       <r>   -3.2725    1.0000 </r>
       <r>    1.0744    1.0000 </r>
       <r>    2.0799    1.0000 </r>
       <r>    2.3426    1.0000 </r>
       <r>    3.1830    1.0000 </r>
       <r>    3.3933    1.0000 </r>
       <r>    3.7874    1.0000 </r>
       <r>    4.5394    1.0000 </r>
       <r>    5.6027    1.0000 </r>
       <r>    8.0608    0.0000 </r>
       <r>    8.5921    0.0000 </r>
       <r>    9.0534    0.0000 </r>
       <r>    9.3155    0.0000 </r>
      </set>
      <set comment="kpoint 38">
       <r>  -24.6632    1.0000 </r>
       <r>  -24.6568    1.0000 </r>
       <r>  -24.6568    1.0000 </r>
       <r>   -3.3721    1.0000 </r>
       <r>    0.9506    1.0000 </r>
       <r>    2.6349    1.0000 </r>
       <r>    2.6349    1.0000 </r>
       <r>    2.9479    1.0000 </r>
       <r>    3.4591    1.0000 </r>
       <r>    3.9568    1.0000 </r>
       <r>    5.1034    1.0000 </r>
       <r>    5.1034    1.0000 </r>
       <r>    7.2603    1.0000 </r>
       <r>    8.1806    0.0000 </r>
       <r>    8.1932    0.0000 </r>
       <r>    9.7138    0.0000 </r>
      </set>
      <set comment="kpoint 39">
       <r>  -24.6644    1.0000 </r>
       <r>  -24.6572    1.0000 </r>
       <r>  -24.6569    1.0000 </r>
       <r>   -3.2037    1.0000 </r>
       <r>    0.9233    1.0000 </r>
       <r>    2.5730    1.0000 </r>
       <r>    2.6709    1.0000 </r>
       <r>    2.9966    1.0000 </r>
       <r>    3.5098    1.0000 </r>
       <r>    3.6280    1.0000 </r>
       <r>    4.8926    1.0000 </r>
       <r>    5.0210    1.0000 </r>
       <r>    7.3382    1.0000 </r>
       <r>    8.1494    0.0000 </r>
       <r>    8.3786    0.0000 </r>
       <r>    9.4899    0.0000 </r>
      </set>
      <set comment="kpoint 40">
       <r>  -24.6651    1.0000 </r>
       <r>  -24.6579    1.0000 </r>
       <r>  -24.6569    1.0000 </r>
       <r>   -3.0454    1.0000 </r>
       <r>    0.9853    1.0000 </r>
       <r>    2.3965    1.0000 </r>
       <r>    2.6397    1.0000 </r>
       <r>    3.0790    1.0000 </r>
       <r>    3.3532    1.0000 </r>
       <r>    3.5204    1.0000 </r>
       <r>    4.6000    1.0000 </r>
       <r>    5.0105    1.0000 </r>
       <r>    7.4260    1.0000 </r>
       <r>    8.2831    0.0000 </r>
       <r>    8.8748    0.0000 </r>
       <r>    9.1596    0.0000 </r>
      </set>
      <set comment="kpoint 41">
       <r>  -24.6650    1.0000 </r>
       <r>  -24.6590    1.0000 </r>
       <r>  -24.6566    1.0000 </r>
       <r>   -2.9351    1.0000 </r>
       <r>    1.1043    1.0000 </r>
       <r>    2.2016    1.0000 </r>
       <r>    2.5417    1.0000 </r>
       <r>    2.9053    1.0000 </r>
       <r>    3.4468    1.0000 </r>
       <r>    3.5155    1.0000 </r>
       <r>    4.3473    1.0000 </r>
       <r>    5.0444    1.0000 </r>
       <r>    7.5209    1.0000 </r>
       <r>    8.6071    0.0000 </r>
       <r>    8.7584    0.0000 </r>
       <r>    9.3583    0.0000 </r>
      </set>
      <set comment="kpoint 42">
       <r>  -24.6642    1.0000 </r>
       <r>  -24.6601    1.0000 </r>
       <r>  -24.6563    1.0000 </r>
       <r>   -2.8997    1.0000 </r>
       <r>    1.1731    1.0000 </r>
       <r>    2.0566    1.0000 </r>
       <r>    2.4030    1.0000 </r>
       <r>    2.8414    1.0000 </r>
       <r>    3.5040    1.0000 </r>
       <r>    3.6170    1.0000 </r>
       <r>    4.1827    1.0000 </r>
       <r>    5.1198    1.0000 </r>
       <r>    7.6944    1.0000 </r>
       <r>    8.5240    0.0000 </r>
       <r>    8.9545    0.0000 </r>
       <r>    9.3277    0.0000 </r>
      </set>
      <set comment="kpoint 43">
       <r>  -24.6635    1.0000 </r>
       <r>  -24.6604    1.0000 </r>
       <r>  -24.6559    1.0000 </r>
       <r>   -2.9485    1.0000 </r>
       <r>    1.0978    1.0000 </r>
       <r>    2.0905    1.0000 </r>
       <r>    2.2624    1.0000 </r>
       <r>    2.9324    1.0000 </r>
       <r>    3.4751    1.0000 </r>
       <r>    3.7016    1.0000 </r>
       <r>    4.1884    1.0000 </r>
       <r>    5.2491    1.0000 </r>
       <r>    7.9162    0.0000 </r>
       <r>    8.4756    0.0000 </r>
       <r>    8.9207    0.0000 </r>
       <r>    9.2815    0.0000 </r>
      </set>
      <set comment="kpoint 44">
       <r>  -24.6655    1.0000 </r>
       <r>  -24.6572    1.0000 </r>
       <r>  -24.6572    1.0000 </r>
       <r>   -3.0990    1.0000 </r>
       <r>    0.9401    1.0000 </r>
       <r>    2.7537    1.0000 </r>
       <r>    2.7537    1.0000 </r>
       <r>    2.8216    1.0000 </r>
       <r>    3.3758    1.0000 </r>
       <r>    3.5891    1.0000 </r>
       <r>    4.9073    1.0000 </r>
       <r>    4.9073    1.0000 </r>
       <r>    7.2218    1.0000 </r>
       <r>    7.9962    0.0000 </r>
       <r>    8.2630    0.0000 </r>
       <r>    9.4415    0.0000 </r>
      </set>
      <set comment="kpoint 45">
       <r>  -24.6661    1.0000 </r>
       <r>  -24.6576    1.0000 </r>
       <r>  -24.6572    1.0000 </r>
       <r>   -2.9982    1.0000 </r>
       <r>    1.0320    1.0000 </r>
       <r>    2.5930    1.0000 </r>
       <r>    2.7645    1.0000 </r>
       <r>    2.9432    1.0000 </r>
       <r>    3.1282    1.0000 </r>
       <r>    3.6159    1.0000 </r>
       <r>    4.7237    1.0000 </r>
       <r>    4.8747    1.0000 </r>
       <r>    7.2610    1.0000 </r>
       <r>    8.0135    0.0000 </r>
       <r>    8.4549    0.0000 </r>
       <r>    9.2380    0.0000 </r>
      </set>
      <set comment="kpoint 46">
       <r>  -24.6659    1.0000 </r>
       <r>  -24.6585    1.0000 </r>
       <r>  -24.6571    1.0000 </r>
       <r>   -2.9240    1.0000 </r>
       <r>    1.1669    1.0000 </r>
       <r>    2.3950    1.0000 </r>
       <r>    2.6940    1.0000 </r>
       <r>    2.7871    1.0000 </r>
       <r>    3.2710    1.0000 </r>
       <r>    3.6004    1.0000 </r>
       <r>    4.4254    1.0000 </r>
       <r>    4.9041    1.0000 </r>
       <r>    7.3444    1.0000 </r>
       <r>    8.2522    0.0000 </r>
       <r>    8.8128    0.0000 </r>
       <r>    9.1615    0.0000 </r>
      </set>
      <set comment="kpoint 47">
       <r>  -24.6651    1.0000 </r>
       <r>  -24.6596    1.0000 </r>
       <r>  -24.6567    1.0000 </r>
       <r>   -2.8897    1.0000 </r>
       <r>    1.2539    1.0000 </r>
       <r>    2.1653    1.0000 </r>
       <r>    2.5602    1.0000 </r>
       <r>    2.7399    1.0000 </r>
       <r>    3.5019    1.0000 </r>
       <r>    3.5619    1.0000 </r>
       <r>    4.1841    1.0000 </r>
       <r>    4.9845    1.0000 </r>
       <r>    7.4831    1.0000 </r>
       <r>    8.6765    0.0000 </r>
       <r>    8.6783    0.0000 </r>
       <r>    9.1539    0.0000 </r>
      </set>
      <set comment="kpoint 48">
       <r>  -24.6668    1.0000 </r>
       <r>  -24.6574    1.0000 </r>
       <r>  -24.6574    1.0000 </r>
       <r>   -2.9557    1.0000 </r>
       <r>    1.0995    1.0000 </r>
       <r>    2.7478    1.0000 </r>
       <r>    2.8238    1.0000 </r>
       <r>    2.8238    1.0000 </r>
       <r>    2.8986    1.0000 </r>
       <r>    3.6677    1.0000 </r>
       <r>    4.8130    1.0000 </r>
       <r>    4.8130    1.0000 </r>
       <r>    7.1928    1.0000 </r>
       <r>    7.8797    0.0000 </r>
       <r>    8.2370    0.0000 </r>
       <r>    9.2389    0.0000 </r>
      </set>
      <set comment="kpoint 49">
       <r>  -24.6667    1.0000 </r>
       <r>  -24.6577    1.0000 </r>
       <r>  -24.6573    1.0000 </r>
       <r>   -2.9297    1.0000 </r>
       <r>    1.1580    1.0000 </r>
       <r>    2.6189    1.0000 </r>
       <r>    2.7325    1.0000 </r>
       <r>    2.7985    1.0000 </r>
       <r>    3.0384    1.0000 </r>
       <r>    3.6584    1.0000 </r>
       <r>    4.6692    1.0000 </r>
       <r>    4.8252    1.0000 </r>
       <r>    7.2324    1.0000 </r>
       <r>    7.9644    0.0000 </r>
       <r>    8.4359    0.0000 </r>
       <r>    9.1539    0.0000 </r>
      </set>
      <set comment="kpoint 50">
       <r>  -24.6588    1.0000 </r>
       <r>  -24.6562    1.0000 </r>
       <r>  -24.6556    1.0000 </r>
       <r>   -3.9520    1.0000 </r>
       <r>    1.6342    1.0000 </r>
       <r>    2.2339    1.0000 </r>
       <r>    2.3913    1.0000 </r>
       <r>    3.1728    1.0000 </r>
       <r>    3.2204    1.0000 </r>
       <r>    4.7613    1.0000 </r>
       <r>    5.5188    1.0000 </r>
       <r>    5.9777    1.0000 </r>
       <r>    7.4216    1.0000 </r>
       <r>    8.0511    0.0000 </r>
       <r>    8.5318    0.0000 </r>
       <r>    9.3057    0.0000 </r>
      </set>
      <set comment="kpoint 51">
       <r>  -24.6608    1.0000 </r>
       <r>  -24.6565    1.0000 </r>
       <r>  -24.6555    1.0000 </r>
       <r>   -3.7181    1.0000 </r>
       <r>    1.3850    1.0000 </r>
       <r>    2.1701    1.0000 </r>
       <r>    2.4022    1.0000 </r>
       <r>    3.2125    1.0000 </r>
       <r>    3.2842    1.0000 </r>
       <r>    4.2436    1.0000 </r>
       <r>    5.2412    1.0000 </r>
       <r>    5.8295    1.0000 </r>
       <r>    7.7577    0.9782 </r>
       <r>    8.1286    0.0000 </r>
       <r>    8.4910    0.0000 </r>
       <r>    9.5494    0.0000 </r>
      </set>
      <set comment="kpoint 52">
       <r>  -24.6629    1.0000 </r>
       <r>  -24.6567    1.0000 </r>
       <r>  -24.6555    1.0000 </r>
       <r>   -3.4411    1.0000 </r>
       <r>    1.1352    1.0000 </r>
       <r>    2.1289    1.0000 </r>
       <r>    2.3583    1.0000 </r>
       <r>    3.2427    1.0000 </r>
       <r>    3.3229    1.0000 </r>
       <r>    3.7463    1.0000 </r>
       <r>    5.1399    1.0000 </r>
       <r>    5.6568    1.0000 </r>
       <r>    7.8049    0.0000 </r>
       <r>    8.4356    0.0000 </r>
       <r>    8.6372    0.0000 </r>
       <r>    9.5711    0.0000 </r>
      </set>
      <set comment="kpoint 53">
       <r>  -24.6647    1.0000 </r>
       <r>  -24.6568    1.0000 </r>
       <r>  -24.6556    1.0000 </r>
       <r>   -3.1808    1.0000 </r>
       <r>    0.9118    1.0000 </r>
       <r>    2.1176    1.0000 </r>
       <r>    2.2932    1.0000 </r>
       <r>    3.2113    1.0000 </r>
       <r>    3.3301    1.0000 </r>
       <r>    3.4390    1.0000 </r>
       <r>    5.1174    1.0000 </r>
       <r>    5.5280    1.0000 </r>
       <r>    7.8274    0.0000 </r>
       <r>    8.6281    0.0000 </r>
       <r>    8.8912    0.0000 </r>
       <r>    9.1343    0.0000 </r>
      </set>
      <set comment="kpoint 54">
       <r>  -24.6657    1.0000 </r>
       <r>  -24.6568    1.0000 </r>
       <r>  -24.6557    1.0000 </r>
       <r>   -3.0169    1.0000 </r>
       <r>    0.7703    1.0000 </r>
       <r>    2.1265    1.0000 </r>
       <r>    2.2400    1.0000 </r>
       <r>    3.1153    1.0000 </r>
       <r>    3.3170    1.0000 </r>
       <r>    3.3700    1.0000 </r>
       <r>    5.1176    1.0000 </r>
       <r>    5.4652    1.0000 </r>
       <r>    7.9100    0.0000 </r>
       <r>    8.5376    0.0000 </r>
       <r>    8.8305    0.0000 </r>
       <r>    9.2509    0.0000 </r>
      </set>
      <set comment="kpoint 55">
       <r>  -24.6610    1.0000 </r>
       <r>  -24.6566    1.0000 </r>
       <r>  -24.6560    1.0000 </r>
       <r>   -3.6511    1.0000 </r>
       <r>    1.2155    1.0000 </r>
       <r>    2.3532    1.0000 </r>
       <r>    2.4854    1.0000 </r>
       <r>    3.1465    1.0000 </r>
       <r>    3.3146    1.0000 </r>
       <r>    4.3077    1.0000 </r>
       <r>    5.1609    1.0000 </r>
       <r>    5.5624    1.0000 </r>
       <r>    7.6245    1.0000 </r>
       <r>    8.0494    0.0000 </r>
       <r>    8.4433    0.0000 </r>
       <r>    9.6724    0.0000 </r>
      </set>
      <set comment="kpoint 56">
       <r>  -24.6627    1.0000 </r>
       <r>  -24.6571    1.0000 </r>
       <r>  -24.6560    1.0000 </r>
       <r>   -3.4135    1.0000 </r>
       <r>    1.0598    1.0000 </r>
       <r>    2.2801    1.0000 </r>
       <r>    2.4839    1.0000 </r>
       <r>    3.1922    1.0000 </r>
       <r>    3.3520    1.0000 </r>
       <r>    3.8930    1.0000 </r>
       <r>    4.9103    1.0000 </r>
       <r>    5.4479    1.0000 </r>
       <r>    7.7733    0.4248 </r>
       <r>    8.2726    0.0000 </r>
       <r>    8.5740    0.0000 </r>
       <r>    9.6143    0.0000 </r>
      </set>
      <set comment="kpoint 57">
       <r>  -24.6641    1.0000 </r>
       <r>  -24.6576    1.0000 </r>
       <r>  -24.6561    1.0000 </r>
       <r>   -3.1774    1.0000 </r>
       <r>    0.9590    1.0000 </r>
       <r>    2.1879    1.0000 </r>
       <r>    2.4367    1.0000 </r>
       <r>    3.2136    1.0000 </r>
       <r>    3.3444    1.0000 </r>
       <r>    3.5503    1.0000 </r>
       <r>    4.7929    1.0000 </r>
       <r>    5.3503    1.0000 </r>
       <r>    7.7776    0.2117 </r>
       <r>    8.4703    0.0000 </r>
       <r>    9.0216    0.0000 </r>
       <r>    9.1595    0.0000 </r>
      </set>
      <set comment="kpoint 58">
       <r>  -24.6649    1.0000 </r>
       <r>  -24.6580    1.0000 </r>
       <r>  -24.6561    1.0000 </r>
       <r>   -3.0057    1.0000 </r>
       <r>    0.9107    1.0000 </r>
       <r>    2.1062    1.0000 </r>
       <r>    2.3747    1.0000 </r>
       <r>    3.0898    1.0000 </r>
       <r>    3.3452    1.0000 </r>
       <r>    3.4628    1.0000 </r>
       <r>    4.7239    1.0000 </r>
       <r>    5.3124    1.0000 </r>
       <r>    7.8350    0.0000 </r>
       <r>    8.5740    0.0000 </r>
       <r>    8.7973    0.0000 </r>
       <r>    9.4109    0.0000 </r>
      </set>
      <set comment="kpoint 59">
       <r>  -24.6650    1.0000 </r>
       <r>  -24.6583    1.0000 </r>
       <r>  -24.6560    1.0000 </r>
       <r>   -2.9562    1.0000 </r>
       <r>    0.9054    1.0000 </r>
       <r>    2.0822    1.0000 </r>
       <r>    2.3164    1.0000 </r>
       <r>    3.0251    1.0000 </r>
       <r>    3.3635    1.0000 </r>
       <r>    3.4738    1.0000 </r>
       <r>    4.6759    1.0000 </r>
       <r>    5.3284    1.0000 </r>
       <r>    7.9527    0.0000 </r>
       <r>    8.4102    0.0000 </r>
       <r>    8.8532    0.0000 </r>
       <r>    9.5308    0.0000 </r>
      </set>
      <set comment="kpoint 60">
       <r>  -24.6644    1.0000 </r>
       <r>  -24.6584    1.0000 </r>
       <r>  -24.6558    1.0000 </r>
       <r>   -3.0480    1.0000 </r>
       <r>    0.9415    1.0000 </r>
       <r>    2.1129    1.0000 </r>
       <r>    2.3011    1.0000 </r>
       <r>    3.0960    1.0000 </r>
       <r>    3.3782    1.0000 </r>
       <r>    3.5259    1.0000 </r>
       <r>    4.6412    1.0000 </r>
       <r>    5.3989    1.0000 </r>
       <r>    7.9767    0.0000 </r>
       <r>    8.5540    0.0000 </r>
       <r>    8.8095    0.0000 </r>
       <r>    9.4785    0.0000 </r>
      </set>
      <set comment="kpoint 61">
       <r>  -24.6633    1.0000 </r>
       <r>  -24.6581    1.0000 </r>
       <r>  -24.6556    1.0000 </r>
       <r>   -3.2470    1.0000 </r>
       <r>    1.0313    1.0000 </r>
       <r>    2.1205    1.0000 </r>
       <r>    2.3712    1.0000 </r>
       <r>    3.1980    1.0000 </r>
       <r>    3.3690    1.0000 </r>
       <r>    3.7020    1.0000 </r>
       <r>    4.6428    1.0000 </r>
       <r>    5.5305    1.0000 </r>
       <r>    8.0027    0.0000 </r>
       <r>    8.4699    0.0000 </r>
       <r>    9.0140    0.0000 </r>
       <r>    9.3342    0.0000 </r>
      </set>
      <set comment="kpoint 62">
       <r>  -24.6620    1.0000 </r>
       <r>  -24.6574    1.0000 </r>
       <r>  -24.6555    1.0000 </r>
       <r>   -3.4905    1.0000 </r>
       <r>    1.1822    1.0000 </r>
       <r>    2.1294    1.0000 </r>
       <r>    2.4339    1.0000 </r>
       <r>    3.2206    1.0000 </r>
       <r>    3.3365    1.0000 </r>
       <r>    4.0014    1.0000 </r>
       <r>    4.7972    1.0000 </r>
       <r>    5.6995    1.0000 </r>
       <r>    8.0536    0.0000 </r>
       <r>    8.2458    0.0000 </r>
       <r>    8.6456    0.0000 </r>
       <r>    9.4887    0.0000 </r>
      </set>
      <set comment="kpoint 63">
       <r>  -24.6633    1.0000 </r>
       <r>  -24.6572    1.0000 </r>
       <r>  -24.6566    1.0000 </r>
       <r>   -3.3277    1.0000 </r>
       <r>    0.9645    1.0000 </r>
       <r>    2.4587    1.0000 </r>
       <r>    2.6012    1.0000 </r>
       <r>    3.0829    1.0000 </r>
       <r>    3.4275    1.0000 </r>
       <r>    3.8554    1.0000 </r>
       <r>    4.8785    1.0000 </r>
       <r>    5.2104    1.0000 </r>
       <r>    7.5019    1.0000 </r>
       <r>    8.1982    0.0000 </r>
       <r>    8.4417    0.0000 </r>
       <r>    9.6145    0.0000 </r>
      </set>
      <set comment="kpoint 64">
       <r>  -24.6643    1.0000 </r>
       <r>  -24.6578    1.0000 </r>
       <r>  -24.6566    1.0000 </r>
       <r>   -3.1367    1.0000 </r>
       <r>    0.9576    1.0000 </r>
       <r>    2.3312    1.0000 </r>
       <r>    2.6014    1.0000 </r>
       <r>    3.1613    1.0000 </r>
       <r>    3.3856    1.0000 </r>
       <r>    3.5790    1.0000 </r>
       <r>    4.6074    1.0000 </r>
       <r>    5.1583    1.0000 </r>
       <r>    7.5916    1.0000 </r>
       <r>    8.2542    0.0000 </r>
       <r>    8.9099    0.0000 </r>
       <r>    9.2155    0.0000 </r>
      </set>
      <set comment="kpoint 65">
       <r>  -24.6647    1.0000 </r>
       <r>  -24.6587    1.0000 </r>
       <r>  -24.6566    1.0000 </r>
       <r>   -2.9854    1.0000 </r>
       <r>    1.0256    1.0000 </r>
       <r>    2.1730    1.0000 </r>
       <r>    2.5499    1.0000 </r>
       <r>    3.0507    1.0000 </r>
       <r>    3.3610    1.0000 </r>
       <r>    3.5229    1.0000 </r>
       <r>    4.4036    1.0000 </r>
       <r>    5.1486    1.0000 </r>
       <r>    7.6560    1.0000 </r>
       <r>    8.4842    0.0000 </r>
       <r>    8.7803    0.0000 </r>
       <r>    9.3524    0.0000 </r>
      </set>
      <set comment="kpoint 66">
       <r>  -24.6645    1.0000 </r>
       <r>  -24.6596    1.0000 </r>
       <r>  -24.6564    1.0000 </r>
       <r>   -2.9142    1.0000 </r>
       <r>    1.0994    1.0000 </r>
       <r>    2.0458    1.0000 </r>
       <r>    2.4599    1.0000 </r>
       <r>    2.9118    1.0000 </r>
       <r>    3.4292    1.0000 </r>
       <r>    3.5620    1.0000 </r>
       <r>    4.2706    1.0000 </r>
       <r>    5.1778    1.0000 </r>
       <r>    7.7892    0.0074 </r>
       <r>    8.4852    0.0000 </r>
       <r>    8.7748    0.0000 </r>
       <r>    9.3563    0.0000 </r>
      </set>
      <set comment="kpoint 67">
       <r>  -24.6639    1.0000 </r>
       <r>  -24.6600    1.0000 </r>
       <r>  -24.6561    1.0000 </r>
       <r>   -2.9433    1.0000 </r>
       <r>    1.0828    1.0000 </r>
       <r>    2.0473    1.0000 </r>
       <r>    2.3637    1.0000 </r>
       <r>    2.9468    1.0000 </r>
       <r>    3.4409    1.0000 </r>
       <r>    3.6412    1.0000 </r>
       <r>    4.2254    1.0000 </r>
       <r>    5.2485    1.0000 </r>
       <r>    7.9730    0.0000 </r>
       <r>    8.4094    0.0000 </r>
       <r>    8.7810    0.0000 </r>
       <r>    9.3916    0.0000 </r>
      </set>
      <set comment="kpoint 68">
       <r>  -24.6635    1.0000 </r>
       <r>  -24.6594    1.0000 </r>
       <r>  -24.6558    1.0000 </r>
       <r>   -3.0655    1.0000 </r>
       <r>    1.0239    1.0000 </r>
       <r>    2.1140    1.0000 </r>
       <r>    2.3273    1.0000 </r>
       <r>    3.0835    1.0000 </r>
       <r>    3.4133    1.0000 </r>
       <r>    3.6928    1.0000 </r>
       <r>    4.3239    1.0000 </r>
       <r>    5.3719    1.0000 </r>
       <r>    8.0405    0.0000 </r>
       <r>    8.5570    0.0000 </r>
       <r>    8.7747    0.0000 </r>
       <r>    9.3936    0.0000 </r>
      </set>
      <set comment="kpoint 69">
       <r>  -24.6653    1.0000 </r>
       <r>  -24.6576    1.0000 </r>
       <r>  -24.6570    1.0000 </r>
       <r>   -3.0707    1.0000 </r>
       <r>    0.9687    1.0000 </r>
       <r>    2.4904    1.0000 </r>
       <r>    2.7264    1.0000 </r>
       <r>    3.0448    1.0000 </r>
       <r>    3.3268    1.0000 </r>
       <r>    3.5606    1.0000 </r>
       <r>    4.6578    1.0000 </r>
       <r>    4.9947    1.0000 </r>
       <r>    7.3713    1.0000 </r>
       <r>    8.0788    0.0000 </r>
       <r>    8.6496    0.0000 </r>
       <r>    9.2590    0.0000 </r>
      </set>
      <set comment="kpoint 70">
       <r>  -24.6654    1.0000 </r>
       <r>  -24.6584    1.0000 </r>
       <r>  -24.6570    1.0000 </r>
       <r>   -2.9599    1.0000 </r>
       <r>    1.0941    1.0000 </r>
       <r>    2.3210    1.0000 </r>
       <r>    2.7096    1.0000 </r>
       <r>    2.9835    1.0000 </r>
       <r>    3.2498    1.0000 </r>
       <r>    3.5626    1.0000 </r>
       <r>    4.3547    1.0000 </r>
       <r>    5.0132    1.0000 </r>
       <r>    7.4575    1.0000 </r>
       <r>    8.1820    0.0000 </r>
       <r>    8.8879    0.0000 </r>
       <r>    9.2370    0.0000 </r>
      </set>
      <set comment="kpoint 71">
       <r>  -24.6649    1.0000 </r>
       <r>  -24.6595    1.0000 </r>
       <r>  -24.6568    1.0000 </r>
       <r>   -2.8953    1.0000 </r>
       <r>    1.2343    1.0000 </r>
       <r>    2.1237    1.0000 </r>
       <r>    2.6255    1.0000 </r>
       <r>    2.7953    1.0000 </r>
       <r>    3.4539    1.0000 </r>
       <r>    3.5521    1.0000 </r>
       <r>    4.1024    1.0000 </r>
       <r>    5.0565    1.0000 </r>
       <r>    7.5754    1.0000 </r>
       <r>    8.4704    0.0000 </r>
       <r>    8.7006    0.0000 </r>
       <r>    9.1167    0.0000 </r>
      </set>
      <set comment="kpoint 72">
       <r>  -24.6640    1.0000 </r>
       <r>  -24.6605    1.0000 </r>
       <r>  -24.6565    1.0000 </r>
       <r>   -2.8893    1.0000 </r>
       <r>    1.2422    1.0000 </r>
       <r>    2.0008    1.0000 </r>
       <r>    2.4916    1.0000 </r>
       <r>    2.8098    1.0000 </r>
       <r>    3.4962    1.0000 </r>
       <r>    3.6716    1.0000 </r>
       <r>    3.9940    1.0000 </r>
       <r>    5.1303    1.0000 </r>
       <r>    7.7686    0.6815 </r>
       <r>    8.4484    0.0000 </r>
       <r>    8.8222    0.0000 </r>
       <r>    9.1669    0.0000 </r>
      </set>
      <set comment="kpoint 73">
       <r>  -24.6664    1.0000 </r>
       <r>  -24.6578    1.0000 </r>
       <r>  -24.6573    1.0000 </r>
       <r>   -2.9382    1.0000 </r>
       <r>    1.1388    1.0000 </r>
       <r>    2.4971    1.0000 </r>
       <r>    2.7565    1.0000 </r>
       <r>    2.9021    1.0000 </r>
       <r>    3.0695    1.0000 </r>
       <r>    3.6290    1.0000 </r>
       <r>    4.5238    1.0000 </r>
       <r>    4.9075    1.0000 </r>
       <r>    7.2983    1.0000 </r>
       <r>    7.9851    0.0000 </r>
       <r>    8.6916    0.0000 </r>
       <r>    9.1394    0.0000 </r>
      </set>
      <set comment="kpoint 74">
       <r>  -24.6658    1.0000 </r>
       <r>  -24.6586    1.0000 </r>
       <r>  -24.6572    1.0000 </r>
       <r>   -2.9028    1.0000 </r>
       <r>    1.2323    1.0000 </r>
       <r>    2.3159    1.0000 </r>
       <r>    2.6887    1.0000 </r>
       <r>    2.8219    1.0000 </r>
       <r>    3.2496    1.0000 </r>
       <r>    3.5963    1.0000 </r>
       <r>    4.2506    1.0000 </r>
       <r>    4.9731    1.0000 </r>
       <r>    7.4103    1.0000 </r>
       <r>    8.1435    0.0000 </r>
       <r>    8.8888    0.0000 </r>
       <r>    9.0715    0.0000 </r>
      </set>
      <set comment="kpoint 75">
       <r>  -24.6635    1.0000 </r>
       <r>  -24.6581    1.0000 </r>
       <r>  -24.6561    1.0000 </r>
       <r>   -3.2106    1.0000 </r>
       <r>    0.9937    1.0000 </r>
       <r>    2.2191    1.0000 </r>
       <r>    2.4954    1.0000 </r>
       <r>    3.2130    1.0000 </r>
       <r>    3.3450    1.0000 </r>
       <r>    3.7236    1.0000 </r>
       <r>    4.5391    1.0000 </r>
       <r>    5.3572    1.0000 </r>
       <r>    7.8916    0.0000 </r>
       <r>    8.2617    0.0000 </r>
       <r>    8.9985    0.0000 </r>
       <r>    9.2842    0.0000 </r>
      </set>
      <set comment="kpoint 76">
       <r>  -24.6641    1.0000 </r>
       <r>  -24.6590    1.0000 </r>
       <r>  -24.6562    1.0000 </r>
       <r>   -3.0337    1.0000 </r>
       <r>    1.0121    1.0000 </r>
       <r>    2.1231    1.0000 </r>
       <r>    2.4813    1.0000 </r>
       <r>    3.1116    1.0000 </r>
       <r>    3.3486    1.0000 </r>
       <r>    3.6066    1.0000 </r>
       <r>    4.3510    1.0000 </r>
       <r>    5.2707    1.0000 </r>
       <r>    7.9261    0.0000 </r>
       <r>    8.3942    0.0000 </r>
       <r>    8.7579    0.0000 </r>
       <r>    9.4188    0.0000 </r>
      </set>
      <set comment="kpoint 77">
       <r>  -24.6643    1.0000 </r>
       <r>  -24.6594    1.0000 </r>
       <r>  -24.6564    1.0000 </r>
       <r>   -2.9302    1.0000 </r>
       <r>    1.0688    1.0000 </r>
       <r>    2.0256    1.0000 </r>
       <r>    2.4778    1.0000 </r>
       <r>    2.9670    1.0000 </r>
       <r>    3.3708    1.0000 </r>
       <r>    3.5737    1.0000 </r>
       <r>    4.2727    1.0000 </r>
       <r>    5.2317    1.0000 </r>
[...]
       <r>    8.2102    0.0000 </r>
       <r>    8.8074    0.0000 </r>
       <r>    9.2996    0.0000 </r>
      </set>
      <set comment="kpoint 79">
       <r>  -24.6644    1.0000 </r>
       <r>  -24.6597    1.0000 </r>
       <r>  -24.6569    1.0000 </r>
       <r>   -2.9100    1.0000 </r>
       <r>    1.1974    1.0000 </r>
       <r>    2.0552    1.0000 </r>
       <r>    2.6576    1.0000 </r>
       <r>    2.9353    1.0000 </r>
       <r>    3.3500    1.0000 </r>
       <r>    3.5777    1.0000 </r>
       <r>    4.0002    1.0000 </r>
       <r>    5.1532    1.0000 </r>
       <r>    7.8279    0.0000 </r>
       <r>    8.3585    0.0000 </r>
       <r>    8.5070    0.0000 </r>
       <r>    9.1606    0.0000 </r>
      </set>
      <set comment="kpoint 80">
       <r>  -24.6639    1.0000 </r>
       <r>  -24.6604    1.0000 </r>
       <r>  -24.6568    1.0000 </r>
       <r>   -2.8839    1.0000 </r>
       <r>    1.2699    1.0000 </r>
       <r>    1.9591    1.0000 </r>
       <r>    2.6222    1.0000 </r>
       <r>    2.8476    1.0000 </r>
       <r>    3.4215    1.0000 </r>
       <r>    3.6414    1.0000 </r>
       <r>    3.8660    1.0000 </r>
       <r>    5.1730    1.0000 </r>
       <r>    7.9807    0.0000 </r>
       <r>    8.2920    0.0000 </r>
       <r>    8.5479    0.0000 </r>
       <r>    9.0501    0.0000 </r>
      </set>
      <set comment="kpoint 81">
       <r>  -24.6638    1.0000 </r>
       <r>  -24.6601    1.0000 </r>
       <r>  -24.6565    1.0000 </r>
       <r>   -2.9281    1.0000 </r>
       <r>    1.1560    1.0000 </r>
       <r>    2.0167    1.0000 </r>
       <r>    2.5508    1.0000 </r>
       <r>    2.9426    1.0000 </r>
       <r>    3.3977    1.0000 </r>
       <r>    3.6620    1.0000 </r>
       <r>    4.0022    1.0000 </r>
       <r>    5.2059    1.0000 </r>
       <r>    8.0543    0.0000 </r>
       <r>    8.3291    0.0000 </r>
       <r>    8.4880    0.0000 </r>
       <r>    9.3084    0.0000 </r>
      </set>
      <set comment="kpoint 82">
       <r>  -24.6652    1.0000 </r>
       <r>  -24.6591    1.0000 </r>
       <r>  -24.6572    1.0000 </r>
       <r>   -2.8991    1.0000 </r>
       <r>    1.2481    1.0000 </r>
       <r>    2.1750    1.0000 </r>
       <r>    2.6981    1.0000 </r>
       <r>    2.9637    1.0000 </r>
       <r>    3.2363    1.0000 </r>
       <r>    3.5555    1.0000 </r>
       <r>    4.0382    1.0000 </r>
       <r>    5.0793    1.0000 </r>
       <r>    7.6076    1.0000 </r>
       <r>    8.1271    0.0000 </r>
       <r>    8.7545    0.0000 </r>
       <r>    9.0478    0.0000 </r>
      </set>
      <set comment="kpoint 83">
       <r>  -24.6644    1.0000 </r>
       <r>  -24.6600    1.0000 </r>
       <r>  -24.6571    1.0000 </r>
       <r>   -2.8730    1.0000 </r>
       <r>    1.3492    1.0000 </r>
       <r>    2.0191    1.0000 </r>
       <r>    2.6636    1.0000 </r>
       <r>    2.8873    1.0000 </r>
       <r>    3.4132    1.0000 </r>
       <r>    3.5166    1.0000 </r>
       <r>    3.8275    1.0000 </r>
       <r>    5.1320    1.0000 </r>
       <r>    7.7850    0.0321 </r>
       <r>    8.2704    0.0000 </r>
       <r>    8.5867    0.0000 </r>
       <r>    8.8968    0.0000 </r>
      </set>
      <set comment="kpoint 84">
       <r>  -24.6639    1.0000 </r>
       <r>  -24.6604    1.0000 </r>
       <r>  -24.6571    1.0000 </r>
       <r>   -2.8696    1.0000 </r>
       <r>    1.3724    1.0000 </r>
       <r>    1.9504    1.0000 </r>
       <r>    2.6659    1.0000 </r>
       <r>    2.9580    1.0000 </r>
       <r>    3.3705    1.0000 </r>
       <r>    3.5391    1.0000 </r>
       <r>    3.7210    1.0000 </r>
       <r>    5.1731    1.0000 </r>
       <r>    8.0583    0.0000 </r>
       <r>    8.2456    0.0000 </r>
       <r>    8.3401    0.0000 </r>
       <r>    8.8870    0.0000 </r>
      </set>
     </set>
    </set>
   </array>
  </eigenvalues>
  <separator name="orbital magnetization" >
   <v name="MAGDIPOLOUT">      0.00000000      0.00000000      0.00000000</v>
  </separator>
  <dos>
   <i name="efermi">      7.77193987 </i>
   <total>
    <array>
     <dimension dim="1">gridpoints</dimension>
     <dimension dim="2">spin</dimension>
     <field>energy</field>
     <field>total</field>
     <field>integrated</field>
     <set>
      <set comment="spin 1">
       <r>   -26.4083     0.0000     0.0000 </r>
       <r>   -26.2806     0.0000     0.0000 </r>
       <r>   -26.1529     0.0000     0.0000 </r>
       <r>   -26.0252     0.0000     0.0000 </r>
       <r>   -25.8975     0.0000     0.0000 </r>
       <r>   -25.7698     0.0000     0.0000 </r>
       <r>   -25.6421     0.0000     0.0000 </r>
       <r>   -25.5144     0.0000     0.0000 </r>
       <r>   -25.3866     0.0000     0.0000 </r>
       <r>   -25.2589     0.0000     0.0000 </r>
       <r>   -25.1312     0.0000     0.0000 </r>
       <r>   -25.0035     0.0000     0.0000 </r>
       <r>   -24.8758     0.0000     0.0000 </r>
       <r>   -24.7481     0.0000     0.0000 </r>
       <r>   -24.6204    46.9812     6.0000 </r>
       <r>   -24.4927     0.0000     6.0000 </r>
       <r>   -24.3650     0.0000     6.0000 </r>
       <r>   -24.2372     0.0000     6.0000 </r>
       <r>   -24.1095     0.0000     6.0000 </r>
       <r>   -23.9818     0.0000     6.0000 </r>
       <r>   -23.8541     0.0000     6.0000 </r>
       <r>   -23.7264     0.0000     6.0000 </r>
       <r>   -23.5987     0.0000     6.0000 </r>
       <r>   -23.4710     0.0000     6.0000 </r>
       <r>   -23.3433     0.0000     6.0000 </r>
       <r>   -23.2156     0.0000     6.0000 </r>
       <r>   -23.0879     0.0000     6.0000 </r>
       <r>   -22.9601     0.0000     6.0000 </r>
       <r>   -22.8324     0.0000     6.0000 </r>
       <r>   -22.7047     0.0000     6.0000 </r>
       <r>   -22.5770     0.0000     6.0000 </r>
       <r>   -22.4493     0.0000     6.0000 </r>
       <r>   -22.3216     0.0000     6.0000 </r>
       <r>   -22.1939     0.0000     6.0000 </r>
       <r>   -22.0662     0.0000     6.0000 </r>
       <r>   -21.9385     0.0000     6.0000 </r>
       <r>   -21.8107     0.0000     6.0000 </r>
       <r>   -21.6830     0.0000     6.0000 </r>
       <r>   -21.5553     0.0000     6.0000 </r>
       <r>   -21.4276     0.0000     6.0000 </r>
       <r>   -21.2999     0.0000     6.0000 </r>
       <r>   -21.1722     0.0000     6.0000 </r>
       <r>   -21.0445     0.0000     6.0000 </r>
       <r>   -20.9168     0.0000     6.0000 </r>
       <r>   -20.7891     0.0000     6.0000 </r>
       <r>   -20.6614     0.0000     6.0000 </r>
       <r>   -20.5336     0.0000     6.0000 </r>
       <r>   -20.4059     0.0000     6.0000 </r>
       <r>   -20.2782     0.0000     6.0000 </r>
       <r>   -20.1505     0.0000     6.0000 </r>
       <r>   -20.0228     0.0000     6.0000 </r>
       <r>   -19.8951     0.0000     6.0000 </r>
       <r>   -19.7674     0.0000     6.0000 </r>
       <r>   -19.6397     0.0000     6.0000 </r>
       <r>   -19.5120     0.0000     6.0000 </r>
       <r>   -19.3842     0.0000     6.0000 </r>
       <r>   -19.2565     0.0000     6.0000 </r>
       <r>   -19.1288     0.0000     6.0000 </r>
       <r>   -19.0011     0.0000     6.0000 </r>
       <r>   -18.8734     0.0000     6.0000 </r>
       <r>   -18.7457     0.0000     6.0000 </r>
       <r>   -18.6180     0.0000     6.0000 </r>
       <r>   -18.4903     0.0000     6.0000 </r>
       <r>   -18.3626     0.0000     6.0000 </r>
       <r>   -18.2349     0.0000     6.0000 </r>
       <r>   -18.1071     0.0000     6.0000 </r>
       <r>   -17.9794     0.0000     6.0000 </r>
       <r>   -17.8517     0.0000     6.0000 </r>
       <r>   -17.7240     0.0000     6.0000 </r>
       <r>   -17.5963     0.0000     6.0000 </r>
       <r>   -17.4686     0.0000     6.0000 </r>
       <r>   -17.3409     0.0000     6.0000 </r>
       <r>   -17.2132     0.0000     6.0000 </r>
       <r>   -17.0855     0.0000     6.0000 </r>
       <r>   -16.9577     0.0000     6.0000 </r>
       <r>   -16.8300     0.0000     6.0000 </r>
       <r>   -16.7023     0.0000     6.0000 </r>
       <r>   -16.5746     0.0000     6.0000 </r>
       <r>   -16.4469     0.0000     6.0000 </r>
       <r>   -16.3192     0.0000     6.0000 </r>
       <r>   -16.1915     0.0000     6.0000 </r>
       <r>   -16.0638     0.0000     6.0000 </r>
       <r>   -15.9361     0.0000     6.0000 </r>
       <r>   -15.8084     0.0000     6.0000 </r>
       <r>   -15.6806     0.0000     6.0000 </r>
       <r>   -15.5529     0.0000     6.0000 </r>
       <r>   -15.4252     0.0000     6.0000 </r>
       <r>   -15.2975     0.0000     6.0000 </r>
       <r>   -15.1698     0.0000     6.0000 </r>
       <r>   -15.0421     0.0000     6.0000 </r>
       <r>   -14.9144     0.0000     6.0000 </r>
       <r>   -14.7867     0.0000     6.0000 </r>
       <r>   -14.6590     0.0000     6.0000 </r>
       <r>   -14.5312     0.0000     6.0000 </r>
       <r>   -14.4035     0.0000     6.0000 </r>
       <r>   -14.2758     0.0000     6.0000 </r>
       <r>   -14.1481     0.0000     6.0000 </r>
       <r>   -14.0204     0.0000     6.0000 </r>
       <r>   -13.8927     0.0000     6.0000 </r>
       <r>   -13.7650     0.0000     6.0000 </r>
       <r>   -13.6373     0.0000     6.0000 </r>
       <r>   -13.5096     0.0000     6.0000 </r>
       <r>   -13.3819     0.0000     6.0000 </r>
       <r>   -13.2541     0.0000     6.0000 </r>
       <r>   -13.1264     0.0000     6.0000 </r>
       <r>   -12.9987     0.0000     6.0000 </r>
       <r>   -12.8710     0.0000     6.0000 </r>
       <r>   -12.7433     0.0000     6.0000 </r>
       <r>   -12.6156     0.0000     6.0000 </r>
       <r>   -12.4879     0.0000     6.0000 </r>
       <r>   -12.3602     0.0000     6.0000 </r>
       <r>   -12.2325     0.0000     6.0000 </r>
       <r>   -12.1047     0.0000     6.0000 </r>
       <r>   -11.9770     0.0000     6.0000 </r>
       <r>   -11.8493     0.0000     6.0000 </r>
       <r>   -11.7216     0.0000     6.0000 </r>
       <r>   -11.5939     0.0000     6.0000 </r>
       <r>   -11.4662     0.0000     6.0000 </r>
       <r>   -11.3385     0.0000     6.0000 </r>
       <r>   -11.2108     0.0000     6.0000 </r>
       <r>   -11.0831     0.0000     6.0000 </r>
       <r>   -10.9553     0.0000     6.0000 </r>
       <r>   -10.8276     0.0000     6.0000 </r>
       <r>   -10.6999     0.0000     6.0000 </r>
       <r>   -10.5722     0.0000     6.0000 </r>
       <r>   -10.4445     0.0000     6.0000 </r>
       <r>   -10.3168     0.0000     6.0000 </r>
       <r>   -10.1891     0.0000     6.0000 </r>
       <r>   -10.0614     0.0000     6.0000 </r>
       <r>    -9.9337     0.0000     6.0000 </r>
       <r>    -9.8060     0.0000     6.0000 </r>
       <r>    -9.6782     0.0000     6.0000 </r>
       <r>    -9.5505     0.0000     6.0000 </r>
       <r>    -9.4228     0.0000     6.0000 </r>
       <r>    -9.2951     0.0000     6.0000 </r>
       <r>    -9.1674     0.0000     6.0000 </r>
       <r>    -9.0397     0.0000     6.0000 </r>
       <r>    -8.9120     0.0000     6.0000 </r>
       <r>    -8.7843     0.0000     6.0000 </r>
       <r>    -8.6566     0.0000     6.0000 </r>
       <r>    -8.5288     0.0000     6.0000 </r>
       <r>    -8.4011     0.0000     6.0000 </r>
       <r>    -8.2734     0.0000     6.0000 </r>
       <r>    -8.1457     0.0000     6.0000 </r>
       <r>    -8.0180     0.0000     6.0000 </r>
       <r>    -7.8903     0.0000     6.0000 </r>
       <r>    -7.7626     0.0000     6.0000 </r>
       <r>    -7.6349     0.0000     6.0000 </r>
       <r>    -7.5072     0.0000     6.0000 </r>
       <r>    -7.3795     0.0000     6.0000 </r>
       <r>    -7.2517     0.0000     6.0000 </r>
       <r>    -7.1240     0.0000     6.0000 </r>
       <r>    -6.9963     0.0000     6.0000 </r>
       <r>    -6.8686     0.0000     6.0000 </r>
       <r>    -6.7409     0.0000     6.0000 </r>
       <r>    -6.6132     0.0000     6.0000 </r>
       <r>    -6.4855     0.0000     6.0000 </r>
       <r>    -6.3578     0.0000     6.0000 </r>
       <r>    -6.2301     0.0000     6.0000 </r>
       <r>    -6.1023     0.0000     6.0000 </r>
       <r>    -5.9746     0.0000     6.0000 </r>
       <r>    -5.8469     0.0000     6.0000 </r>
       <r>    -5.7192     0.0000     6.0000 </r>
       <r>    -5.5915     0.0000     6.0000 </r>
       <r>    -5.4638     0.0000     6.0000 </r>
       <r>    -5.3361     0.0000     6.0000 </r>
       <r>    -5.2084     0.0000     6.0000 </r>
       <r>    -5.0807     0.0000     6.0000 </r>
       <r>    -4.9530     0.0000     6.0000 </r>
       <r>    -4.8252     0.0000     6.0000 </r>
       <r>    -4.6975     0.0000     6.0000 </r>
       <r>    -4.5698     0.0000     6.0000 </r>
       <r>    -4.4421     0.0000     6.0000 </r>
       <r>    -4.3144     0.0010     6.0001 </r>
       <r>    -4.1867     0.0998     6.0137 </r>
       <r>    -4.0590     0.2281     6.0537 </r>
       <r>    -3.9313     0.3419     6.1028 </r>
       <r>    -3.8036     0.2281     6.1538 </r>
       <r>    -3.6758     0.5560     6.2358 </r>
       <r>    -3.5481     0.3442     6.3016 </r>
       <r>    -3.4204     0.5702     6.4251 </r>
       <r>    -3.2927     0.5841     6.5580 </r>
       <r>    -3.1650     1.2371     6.7889 </r>
       <r>    -3.0373     1.8182     7.0888 </r>
       <r>    -2.9096     3.6124     7.7458 </r>
       <r>    -2.7819     0.0000     8.0000 </r>
       <r>    -2.6542     0.0000     8.0000 </r>
       <r>    -2.5265     0.0000     8.0000 </r>
       <r>    -2.3987     0.0000     8.0000 </r>
       <r>    -2.2710     0.0000     8.0000 </r>
       <r>    -2.1433     0.0000     8.0000 </r>
       <r>    -2.0156     0.0000     8.0000 </r>
       <r>    -1.8879     0.0000     8.0000 </r>
       <r>    -1.7602     0.0000     8.0000 </r>
       <r>    -1.6325     0.0000     8.0000 </r>
       <r>    -1.5048     0.0000     8.0000 </r>
       <r>    -1.3771     0.0000     8.0000 </r>
       <r>    -1.2493     0.0000     8.0000 </r>
       <r>    -1.1216     0.0000     8.0000 </r>
       <r>    -0.9939     0.0000     8.0000 </r>
       <r>    -0.8662     0.0000     8.0000 </r>
       <r>    -0.7385     0.0000     8.0000 </r>
       <r>    -0.6108     0.0000     8.0000 </r>
       <r>    -0.4831     0.0000     8.0000 </r>
       <r>    -0.3554     0.0000     8.0000 </r>
       <r>    -0.2277     0.0000     8.0000 </r>
       <r>    -0.1000     0.0000     8.0000 </r>
       <r>     0.0278     0.0000     8.0000 </r>
       <r>     0.1555     0.0000     8.0000 </r>
       <r>     0.2832     0.0000     8.0000 </r>
       <r>     0.4109     0.0000     8.0000 </r>
       <r>     0.5386     0.0000     8.0000 </r>
       <r>     0.6663     0.0589     8.0075 </r>
       <r>     0.7940     0.6350     8.1102 </r>
       <r>     0.9217     1.2756     8.3231 </r>
       <r>     1.0494     2.7110     8.9398 </r>
       <r>     1.1772     1.9040     9.3938 </r>
       <r>     1.3049     1.6065     9.7163 </r>
       <r>     1.4326     0.7264     9.8406 </r>
       <r>     1.5603     0.0855     9.8680 </r>
       <r>     1.6880     0.4419     9.9244 </r>
       <r>     1.8157     0.1711     9.9463 </r>
       <r>     1.9434     0.2037     9.9723 </r>
       <r>     2.0711     2.3843    10.3455 </r>
       <r>     2.1988     5.9812    11.4439 </r>
       <r>     2.3265     4.2134    12.2377 </r>
       <r>     2.4543     3.1952    12.9333 </r>
       <r>     2.5820     1.2773    13.4421 </r>
       <r>     2.7097     1.9598    13.8789 </r>
       <r>     2.8374     1.3095    14.1508 </r>
       <r>     2.9651     2.4307    14.5180 </r>
       <r>     3.0928     2.4980    14.9854 </r>
       <r>     3.2205     5.2932    15.9049 </r>
       <r>     3.3482     6.1979    17.0783 </r>
       <r>     3.4759     4.7362    18.2862 </r>
       <r>     3.6037     4.5559    19.0771 </r>
       <r>     3.7314     1.6098    19.5256 </r>
       <r>     3.8591     0.4720    19.6333 </r>
       <r>     3.9868     0.2557    19.7696 </r>
       <r>     4.1145     0.8403    19.9808 </r>
       <r>     4.2422     0.9029    20.1199 </r>
       <r>     4.3699     1.2763    20.4370 </r>
       <r>     4.4976     0.5696    20.5543 </r>
       <r>     4.6253     0.8490    20.7375 </r>
       <r>     4.7530     1.0471    21.0140 </r>
       <r>     4.8808     0.4269    21.1533 </r>
       <r>     5.0085     0.9977    21.4629 </r>
       <r>     5.1362     2.2783    21.8613 </r>
       <r>     5.2639     2.2968    22.4972 </r>
       <r>     5.3916     1.8742    22.8147 </r>
       <r>     5.5193     1.5376    23.1759 </r>
       <r>     5.6470     1.2548    23.5330 </r>
       <r>     5.7747     0.4908    23.6849 </r>
       <r>     5.9024     0.5182    23.8013 </r>
       <r>     6.0302     0.5984    23.9244 </r>
       <r>     6.1579     0.3228    23.9657 </r>
       <r>     6.2856     0.1813    23.9949 </r>
       <r>     6.4133     0.0214    24.0009 </r>
       <r>     6.5410     0.0000    24.0009 </r>
       <r>     6.6687     0.0000    24.0009 </r>
       <r>     6.7964     0.0570    24.0082 </r>
       <r>     6.9241     0.0428    24.0137 </r>
       <r>     7.0518     0.1426    24.0319 </r>
       <r>     7.1795     0.2152    24.0593 </r>
       <r>     7.3073     0.4959    24.1407 </r>
       <r>     7.4350     1.1881    24.3602 </r>
       <r>     7.5627     0.8080    24.5156 </r>
       <r>     7.6904     1.2360    24.8069 </r>
       <r>     7.8181     2.7537    25.2411 </r>
       <r>     7.9458     1.7498    25.5899 </r>
       <r>     8.0735     2.1274    26.1461 </r>
       <r>     8.2012     2.1915    26.4437 </r>
       <r>     8.3289     2.1473    26.8150 </r>
       <r>     8.4567     2.8101    27.3876 </r>
       <r>     8.5844     4.1017    28.3409 </r>
       <r>     8.7121     2.8269    28.8854 </r>
       <r>     8.8398     3.8507    29.5459 </r>
       <r>     8.9675     2.0427    29.9541 </r>
       <r>     9.0952     1.2835    30.2285 </r>
       <r>     9.2229     1.9074    30.6032 </r>
       <r>     9.3506     2.2095    31.0478 </r>
       <r>     9.4783     1.3874    31.5054 </r>
       <r>     9.6060     1.1454    31.7639 </r>
       <r>     9.7338     0.3234    31.8847 </r>
       <r>     9.8615     0.1711    31.9854 </r>
       <r>     9.9892     0.0000    31.9927 </r>
       <r>    10.1169     0.0000    31.9927 </r>
       <r>    10.2446     0.0000    32.0000 </r>
       <r>    10.3723     0.0000    32.0000 </r>
       <r>    10.5000     0.0000    32.0000 </r>
       <r>    10.6277     0.0000    32.0000 </r>
       <r>    10.7554     0.0000    32.0000 </r>
       <r>    10.8832     0.0000    32.0000 </r>
       <r>    11.0109     0.0000    32.0000 </r>
       <r>    11.1386     0.0000    32.0000 </r>
       <r>    11.2663     0.0000    32.0000 </r>
       <r>    11.3940     0.0000    32.0000 </r>
       <r>    11.5217     0.0000    32.0000 </r>
       <r>    11.6494     0.0000    32.0000 </r>
       <r>    11.7771     0.0000    32.0000 </r>
       <r>    11.9048     0.0000    32.0000 </r>
      </set>
     </set>
    </array>
   </total>
  </dos>
 </calculation>
 <structure name="finalpos" >
  <crystal>
   <varray name="basis" >
    <v>       0.00000000       3.28087937       3.28087937 </v>
    <v>       3.28087937       0.00000000       3.28087937 </v>
    <v>       3.28087937       3.28087937       0.00000000 </v>
   </varray>
   <i name="volume">     70.63188319 </i>
   <varray name="rec_basis" >
    <v>      -0.15239817       0.15239817       0.15239817 </v>
    <v>       0.15239817      -0.15239817       0.15239817 </v>
    <v>       0.15239817       0.15239817      -0.15239817 </v>
   </varray>
  </crystal>
  <varray name="positions" >
   <v>       0.75000000       0.75000000       0.75000000 </v>
   <v>       0.25000000       0.25000000       0.25000000 </v>
   <v>       0.00000000       0.00000000       0.00000000 </v>
  </varray>
 </structure>
</modeling>
