   2   2   0   0
  0.1285092E+02  0.3312529E-09  0.3312529E-09  0.3312529E-09  0.0000000E+00
  1.000000000000000E-004
  CAR 
 unknown system                          
     20.16937212    -10.48881822  301      6.89054343      1.00000000
    -10.489  0.0000E+00  0.0000E+00
    -10.387  0.0000E+00  0.0000E+00
    -10.284  0.0000E+00  0.0000E+00
    -10.182  0.0000E+00  0.0000E+00
    -10.080  0.0000E+00  0.0000E+00
     -9.978  0.0000E+00  0.0000E+00
     -9.876  0.0000E+00  0.0000E+00
     -9.773  0.0000E+00  0.0000E+00
     -9.671  0.0000E+00  0.0000E+00
     -9.569  0.0000E+00  0.0000E+00
     -9.467  0.0000E+00  0.0000E+00
     -9.365  0.0000E+00  0.0000E+00
     -9.262  0.0000E+00  0.0000E+00
     -9.160  0.0000E+00  0.0000E+00
     -9.058  0.3666E-01  0.7071E-03
     -8.956  0.8001E-01  0.6995E-02
     -8.854  0.1085E+00  0.1684E-01
     -8.752  0.1331E+00  0.2921E-01
     -8.649  0.1509E+00  0.4366E-01
     -8.547  0.1693E+00  0.6011E-01
     -8.445  0.1851E+00  0.7818E-01
     -8.343  0.2011E+00  0.9796E-01
     -8.241  0.2148E+00  0.1192E+00
     -8.138  0.2300E+00  0.1419E+00
     -8.036  0.2428E+00  0.1661E+00
     -7.934  0.2561E+00  0.1916E+00
     -7.832  0.2703E+00  0.2185E+00
     -7.730  0.2824E+00  0.2467E+00
     -7.627  0.2953E+00  0.2762E+00
     -7.525  0.3091E+00  0.3071E+00
     -7.423  0.3217E+00  0.3394E+00
     -7.321  0.3350E+00  0.3729E+00
     -7.219  0.3490E+00  0.4079E+00
     -7.116  0.3632E+00  0.4442E+00
     -7.014  0.3777E+00  0.4821E+00
     -6.912  0.3932E+00  0.5215E+00
     -6.810  0.4097E+00  0.5625E+00
     -6.708  0.4273E+00  0.6052E+00
     -6.605  0.4467E+00  0.6499E+00
     -6.503  0.4682E+00  0.6966E+00
     -6.401  0.4924E+00  0.7457E+00
     -6.299  0.5223E+00  0.7975E+00
     -6.197  0.5596E+00  0.8527E+00
     -6.094  0.6134E+00  0.9124E+00
     -5.992  0.7669E+00  0.9807E+00
     -5.890  0.7419E+00  0.1055E+01
     -5.788  0.7097E+00  0.1129E+01
     -5.686  0.6880E+00  0.1200E+01
     -5.584  0.6831E+00  0.1271E+01
     -5.481  0.6674E+00  0.1339E+01
     -5.379  0.6490E+00  0.1407E+01
     -5.277  0.6432E+00  0.1473E+01
     -5.175  0.6313E+00  0.1538E+01
     -5.073  0.6231E+00  0.1602E+01
     -4.970  0.6214E+00  0.1666E+01
     -4.868  0.6234E+00  0.1729E+01
     -4.766  0.6380E+00  0.1793E+01
     -4.664  0.6889E+00  0.1861E+01
     -4.562  0.8860E+00  0.1940E+01
     -4.459  0.2728E+00  0.1991E+01
     -4.357  0.0000E+00  0.2000E+01
     -4.255  0.0000E+00  0.2000E+01
     -4.153  0.0000E+00  0.2000E+01
     -4.051  0.0000E+00  0.2000E+01
     -3.948  0.0000E+00  0.2000E+01
     -3.846  0.0000E+00  0.2000E+01
     -3.744  0.0000E+00  0.2000E+01
     -3.642  0.0000E+00  0.2000E+01
     -3.540  0.0000E+00  0.2000E+01
     -3.437  0.0000E+00  0.2000E+01
     -3.335  0.0000E+00  0.2000E+01
     -3.233  0.0000E+00  0.2000E+01
     -3.131  0.0000E+00  0.2000E+01
     -3.029  0.0000E+00  0.2000E+01
     -2.926  0.0000E+00  0.2000E+01
     -2.824  0.0000E+00  0.2000E+01
     -2.722  0.0000E+00  0.2000E+01
     -2.620  0.0000E+00  0.2000E+01
     -2.518  0.0000E+00  0.2000E+01
     -2.415  0.0000E+00  0.2000E+01
     -2.313  0.1078E+00  0.2003E+01
     -2.211  0.1863E+00  0.2017E+01
     -2.109  0.2246E+00  0.2038E+01
     -2.007  0.3007E+00  0.2065E+01
     -1.905  0.4681E+00  0.2104E+01
     -1.802  0.6098E+00  0.2159E+01
     -1.700  0.7807E+00  0.2230E+01
     -1.598  0.1093E+01  0.2325E+01
     -1.496  0.1817E+01  0.2476E+01
     -1.394  0.1270E+01  0.2646E+01
     -1.291  0.8880E+00  0.2754E+01
     -1.189  0.7571E+00  0.2838E+01
     -1.087  0.6374E+00  0.2909E+01
     -0.985  0.5825E+00  0.2971E+01
     -0.883  0.5305E+00  0.3028E+01
     -0.780  0.4767E+00  0.3079E+01
     -0.678  0.4495E+00  0.3126E+01
     -0.576  0.4197E+00  0.3171E+01
     -0.474  0.3844E+00  0.3212E+01
     -0.372  0.3660E+00  0.3250E+01
     -0.269  0.3489E+00  0.3286E+01
     -0.167  0.3303E+00  0.3321E+01
     -0.065  0.3063E+00  0.3354E+01
      0.037  0.2932E+00  0.3384E+01
      0.139  0.2822E+00  0.3414E+01
      0.242  0.2702E+00  0.3442E+01
      0.344  0.2556E+00  0.3469E+01
      0.446  0.3999E+00  0.3501E+01
      0.548  0.4984E+00  0.3548E+01
      0.650  0.6069E+00  0.3605E+01
      0.753  0.7605E+00  0.3674E+01
      0.855  0.8402E+00  0.3760E+01
      0.957  0.7988E+00  0.3844E+01
      1.059  0.7620E+00  0.3925E+01
      1.161  0.7372E+00  0.4001E+01
      1.263  0.7255E+00  0.4076E+01
      1.366  0.7247E+00  0.4150E+01
      1.468  0.7285E+00  0.4224E+01
      1.570  0.7392E+00  0.4299E+01
      1.672  0.7717E+00  0.4376E+01
      1.774  0.7828E+00  0.4455E+01
      1.877  0.7940E+00  0.4535E+01
      1.979  0.8073E+00  0.4618E+01
      2.081  0.8440E+00  0.4701E+01
      2.183  0.8810E+00  0.4789E+01
      2.285  0.8967E+00  0.4880E+01
      2.388  0.9438E+00  0.4975E+01
      2.490  0.1078E+01  0.5079E+01
      2.592  0.1122E+01  0.5194E+01
      2.694  0.1099E+01  0.5308E+01
      2.796  0.1086E+01  0.5420E+01
      2.899  0.1073E+01  0.5530E+01
      3.001  0.1061E+01  0.5639E+01
      3.103  0.1050E+01  0.5747E+01
      3.205  0.1033E+01  0.5853E+01
      3.307  0.1019E+01  0.5958E+01
      3.410  0.9971E+00  0.6061E+01
      3.512  0.9880E+00  0.6163E+01
      3.614  0.9797E+00  0.6263E+01
      3.716  0.9629E+00  0.6363E+01
      3.818  0.9483E+00  0.6460E+01
      3.921  0.9379E+00  0.6557E+01
      4.023  0.9302E+00  0.6652E+01
      4.125  0.9130E+00  0.6746E+01
      4.227  0.8999E+00  0.6839E+01
      4.329  0.8891E+00  0.6930E+01
      4.432  0.8772E+00  0.7020E+01
      4.534  0.8698E+00  0.7110E+01
      4.636  0.8552E+00  0.7198E+01
      4.738  0.8453E+00  0.7285E+01
      4.840  0.8340E+00  0.7371E+01
      4.942  0.6962E+00  0.7451E+01
      5.045  0.6062E+00  0.7517E+01
      5.147  0.5373E+00  0.7575E+01
      5.249  0.4860E+00  0.7628E+01
      5.351  0.4419E+00  0.7675E+01
      5.453  0.3985E+00  0.7718E+01
      5.556  0.3615E+00  0.7757E+01
      5.658  0.3317E+00  0.7792E+01
      5.760  0.2993E+00  0.7824E+01
      5.862  0.2716E+00  0.7853E+01
      5.964  0.2458E+00  0.7880E+01
      6.067  0.2200E+00  0.7904E+01
      6.169  0.1974E+00  0.7925E+01
      6.271  0.1718E+00  0.7944E+01
      6.373  0.1449E+00  0.7960E+01
      6.475  0.1281E+00  0.7974E+01
      6.578  0.9776E-01  0.7985E+01
      6.680  0.7261E-01  0.7994E+01
      6.782  0.3139E-01  0.8000E+01
      6.884  0.0000E+00  0.8000E+01
      6.986  0.0000E+00  0.8000E+01
      7.089  0.0000E+00  0.8000E+01
      7.191  0.0000E+00  0.8000E+01
      7.293  0.0000E+00  0.8000E+01
      7.395  0.0000E+00  0.8000E+01
      7.497  0.0000E+00  0.8000E+01
      7.600  0.0000E+00  0.8000E+01
      7.702  0.0000E+00  0.8000E+01
      7.804  0.0000E+00  0.8000E+01
      7.906  0.0000E+00  0.8000E+01
      8.008  0.2426E-01  0.8000E+01
      8.110  0.9888E-01  0.8007E+01
      8.213  0.1535E+00  0.8020E+01
      8.315  0.2028E+00  0.8038E+01
      8.417  0.2610E+00  0.8062E+01
      8.519  0.2958E+00  0.8090E+01
      8.621  0.3297E+00  0.8122E+01
      8.724  0.3643E+00  0.8158E+01
      8.826  0.4015E+00  0.8197E+01
      8.928  0.4402E+00  0.8240E+01
      9.030  0.4717E+00  0.8287E+01
      9.132  0.4995E+00  0.8336E+01
      9.235  0.5314E+00  0.8389E+01
      9.337  0.5631E+00  0.8445E+01
      9.439  0.5963E+00  0.8504E+01
      9.541  0.6316E+00  0.8567E+01
      9.643  0.6717E+00  0.8633E+01
      9.746  0.7137E+00  0.8704E+01
      9.848  0.7575E+00  0.8779E+01
      9.950  0.8278E+00  0.8859E+01
     10.052  0.9783E+00  0.8952E+01
     10.154  0.1122E+01  0.9058E+01
     10.257  0.1355E+01  0.9184E+01
     10.359  0.1752E+01  0.9344E+01
     10.461  0.1470E+01  0.9513E+01
     10.563  0.1334E+01  0.9653E+01
     10.665  0.1345E+01  0.9790E+01
     10.768  0.1164E+01  0.9914E+01
     10.870  0.1173E+01  0.1004E+02
     10.972  0.9655E+00  0.1014E+02
     11.074  0.6616E+00  0.1023E+02
     11.176  0.5609E+00  0.1029E+02
     11.278  0.5922E+00  0.1035E+02
     11.381  0.5984E+00  0.1041E+02
     11.483  0.6747E+00  0.1047E+02
     11.585  0.1887E+01  0.1058E+02
     11.687  0.1361E+01  0.1074E+02
     11.789  0.1320E+01  0.1087E+02
     11.892  0.1228E+01  0.1100E+02
     11.994  0.1318E+01  0.1113E+02
     12.096  0.1290E+01  0.1126E+02
     12.198  0.1411E+01  0.1140E+02
     12.300  0.1584E+01  0.1156E+02
     12.403  0.1229E+01  0.1171E+02
     12.505  0.1013E+01  0.1182E+02
     12.607  0.9386E+00  0.1192E+02
     12.709  0.9064E+00  0.1201E+02
     12.811  0.9286E+00  0.1210E+02
     12.914  0.8746E+00  0.1220E+02
     13.016  0.9675E+00  0.1229E+02
     13.118  0.1059E+01  0.1239E+02
     13.220  0.1053E+01  0.1250E+02
     13.322  0.1006E+01  0.1261E+02
     13.425  0.1097E+01  0.1271E+02
     13.527  0.1031E+01  0.1282E+02
     13.629  0.1016E+01  0.1293E+02
     13.731  0.9993E+00  0.1303E+02
     13.833  0.1017E+01  0.1313E+02
     13.936  0.1009E+01  0.1324E+02
     14.038  0.1075E+01  0.1334E+02
     14.140  0.1056E+01  0.1345E+02
     14.242  0.9866E+00  0.1356E+02
     14.344  0.9648E+00  0.1366E+02
     14.447  0.9324E+00  0.1375E+02
     14.549  0.9467E+00  0.1385E+02
     14.651  0.9535E+00  0.1395E+02
     14.753  0.7962E+00  0.1404E+02
     14.855  0.6761E+00  0.1411E+02
     14.957  0.6652E+00  0.1418E+02
     15.060  0.6603E+00  0.1425E+02
     15.162  0.6644E+00  0.1432E+02
     15.264  0.6808E+00  0.1439E+02
     15.366  0.6974E+00  0.1446E+02
     15.468  0.7111E+00  0.1453E+02
     15.571  0.7406E+00  0.1460E+02
     15.673  0.7652E+00  0.1468E+02
     15.775  0.8817E+00  0.1476E+02
     15.877  0.1025E+01  0.1486E+02
     15.979  0.1038E+01  0.1496E+02
     16.082  0.1125E+01  0.1507E+02
     16.184  0.1206E+01  0.1519E+02
     16.286  0.1107E+01  0.1531E+02
     16.388  0.6377E+00  0.1540E+02
     16.490  0.5598E+00  0.1546E+02
     16.593  0.5028E+00  0.1551E+02
     16.695  0.4230E+00  0.1556E+02
     16.797  0.3980E+00  0.1560E+02
     16.899  0.3812E+00  0.1564E+02
     17.001  0.3495E+00  0.1568E+02
     17.104  0.3229E+00  0.1571E+02
     17.206  0.2979E+00  0.1575E+02
     17.308  0.2851E+00  0.1578E+02
     17.410  0.2654E+00  0.1580E+02
     17.512  0.2495E+00  0.1583E+02
     17.615  0.2351E+00  0.1585E+02
     17.717  0.2091E+00  0.1588E+02
     17.819  0.1873E+00  0.1590E+02
     17.921  0.1697E+00  0.1592E+02
     18.023  0.1538E+00  0.1593E+02
     18.125  0.1425E+00  0.1595E+02
     18.228  0.1318E+00  0.1596E+02
     18.330  0.1074E+00  0.1597E+02
     18.432  0.8367E-01  0.1598E+02
     18.534  0.6689E-01  0.1599E+02
     18.636  0.5721E-01  0.1600E+02
     18.739  0.4473E-02  0.1600E+02
     18.841  0.0000E+00  0.1600E+02
     18.943  0.0000E+00  0.1600E+02
     19.045  0.0000E+00  0.1600E+02
     19.147  0.0000E+00  0.1600E+02
     19.250  0.0000E+00  0.1600E+02
     19.352  0.0000E+00  0.1600E+02
     19.454  0.0000E+00  0.1600E+02
     19.556  0.0000E+00  0.1600E+02
     19.658  0.0000E+00  0.1600E+02
     19.761  0.0000E+00  0.1600E+02
     19.863  0.0000E+00  0.1600E+02
     19.965  0.0000E+00  0.1600E+02
     20.067  0.0000E+00  0.1600E+02
     20.169  0.0000E+00  0.1600E+02
