    2    2    1    1
  0.1285092E+02  0.3312529E-09  0.3312529E-09  0.3312529E-09  0.0000000E+00
  1.000000000000000E-004
  CAR 
 unknown system                          
      8    413      8
 
  0.0000000E+00  0.0000000E+00  0.0000000E+00  0.7233796E-04
    1       -9.095264   1.000000
    2        6.844511   1.000000
    3        6.844511   1.000000
    4        6.844511   1.000000
    5       10.189633   0.000000
    6       10.189633   0.000000
    7       10.189633   0.000000
    8       12.312973   0.000000
 
  0.4166667E-01  0.0000000E+00  0.0000000E+00  0.5787037E-03
    1       -9.065108   1.000000
    2        6.534553   1.000000
    3        6.780581   1.000000
    4        6.780581   1.000000
    5       10.272894   0.000000
    6       10.272894   0.000000
    7       10.288856   0.000000
    8       12.447670   0.000000
 
  0.8333333E-01  0.0000000E+00  0.0000000E+00  0.5787037E-03
    1       -8.974780   1.000000
    2        5.779240   1.000000
    3        6.609811   1.000000
    4        6.609811   1.000000
    5       10.427611   0.000000
    6       10.496847   0.000000
    7       10.496847   0.000000
    8       12.841342   0.000000
 
  0.1250000E+00  0.0000000E+00  0.0000000E+00  0.5787037E-03
    1       -8.824966   1.000000
    2        4.820290   1.000000
    3        6.375818   1.000000
    4        6.375818   1.000000
    5       10.464399   0.000000
    6       10.802882   0.000000
    7       10.802882   0.000000
    8       13.410254   0.000000
 
  0.1666667E+00  0.0000000E+00  0.0000000E+00  0.5787037E-03
    1       -8.616814   1.000000
    2        3.786511   1.000000
    3        6.117782   1.000000
    4        6.117782   1.000000
    5       10.416865   0.000000
    6       11.127166   0.000000
    7       11.127166   0.000000
    8       14.034239   0.000000
 
  0.2083333E+00  0.0000000E+00  0.0000000E+00  0.5787037E-03
    1       -8.352371   1.000000
    2        2.739655   1.000000
    3        5.862047   1.000000
    4        5.862047   1.000000
    5       10.329366   0.000000
    6       11.413226   0.000000
    7       11.413226   0.000000
    8       14.632873   0.000000
 
  0.2500000E+00  0.0000000E+00  0.0000000E+00  0.5787037E-03
    1       -8.034926   1.000000
    2        1.713725   1.000000
    3        5.624733   1.000000
    4        5.624733   1.000000
    5       10.230439   0.000000
    6       11.620496   0.000000
    7       11.620496   0.000000
    8       15.152647   0.000000
 
  0.2916667E+00  0.0000000E+00  0.0000000E+00  0.5787037E-03
    1       -7.670086   1.000000
    2        0.731837   1.000000
    3        5.415343   1.000000
    4        5.415343   1.000000
    5       10.135620   0.000000
    6       11.734658   0.000000
    7       11.734658   0.000000
    8       15.540538   0.000000
 
  0.3333333E+00  0.0000000E+00  0.0000000E+00  0.5787037E-03
    1       -7.267734   1.000000
    2       -0.185519   1.000000
    3        5.239499   1.000000
    4        5.239499   1.000000
    5       10.052984   0.000000
    6       11.769551   0.000000
    7       11.769551   0.000000
    8       15.760872   0.000000
 
  0.3750000E+00  0.0000000E+00  0.0000000E+00  0.5787037E-03
    1       -6.846280   1.000000
    2       -1.013066   1.000000
    3        5.100489   1.000000
    4        5.100489   1.000000
    5        9.986715   0.000000
    6       11.754964   0.000000
    7       11.754964   0.000000
    8       15.837702   0.000000
 
  0.4166667E+00  0.0000000E+00  0.0000000E+00  0.5787037E-03
    1       -6.441894   1.000000
    2       -1.710277   1.000000
    3        5.000207   1.000000
    4        5.000207   1.000000
    5        9.938697   0.000000
    6       11.721565   0.000000
    7       11.721565   0.000000
    8       15.837216   0.000000
 
  0.4583333E+00  0.0000000E+00  0.0000000E+00  0.5787037E-03
    1       -6.124149   1.000000
    2       -2.204701   1.000000
    3        4.939658   1.000000
    4        4.939658   1.000000
    5        9.909720   0.000000
    6       11.692448   0.000000
    7       11.692448   0.000000
    8       15.816435   0.000000
 
  0.5000000E+00  0.0000000E+00  0.0000000E+00  0.2893519E-03
    1       -5.997652   1.000000
    2       -2.390286   1.000000
    3        4.919439   1.000000
    4        4.919439   1.000000
    5        9.900052   0.000000
    6       11.681279   0.000000
    7       11.681280   0.000000
    8       15.806404   0.000000
 
  0.4166667E-01  0.4166667E-01  0.0000000E+00  0.4340278E-03
    1       -9.055046   1.000000
    2        6.645641   1.000000
    3        6.645641   1.000000
    4        6.659404   1.000000
    5       10.073679   0.000000
    6       10.432087   0.000000
    7       10.432087   0.000000
    8       12.476572   0.000000
 
  0.8333333E-01  0.4166667E-01  0.0000000E+00  0.1736111E-02
    1       -8.984746   1.000000
    2        6.029069   1.000000
    3        6.425203   1.000000
    4        6.627883   1.000000
    5       10.064044   0.000000
    6       10.662685   0.000000
    7       10.712622   0.000000
    8       12.751168   0.000000
 
  0.1250000E+00  0.4166667E-01  0.0000000E+00  0.1736111E-02
    1       -8.854737   1.000000
    2        5.135967   1.000000
    3        6.163121   1.000000
    4        6.483543   1.000000
    5       10.200817   0.000000
    6       10.810752   0.000000
    7       11.057057   0.000000
    8       13.233239   0.000000
 
  0.1666667E+00  0.4166667E-01  0.0000000E+00  0.1736111E-02
    1       -8.665950   1.000000
    2        4.130309   1.000000
    3        5.893010   1.000000
    4        6.264436   1.000000
    5       10.357899   0.000000
    6       10.920437   0.000000
    7       11.408423   0.000000
    8       13.798501   0.000000
 
  0.2083333E+00  0.4166667E-01  0.0000000E+00  0.1736111E-02
    1       -8.420137   1.000000
    2        3.091350   1.000000
    3        5.636439   1.000000
    4        6.012416   1.000000
    5       10.407759   0.000000
    6       11.097675   0.000000
    7       11.714614   0.000000
    8       14.342461   0.000000
 
  0.2500000E+00  0.4166667E-01  0.0000000E+00  0.1736111E-02
    1       -8.120065   1.000000
    2        2.061249   1.000000
    3        5.406564   1.000000
    4        5.755939   1.000000
    5       10.364251   0.000000
    6       11.304037   0.000000
    7       11.934638   0.000000
    8       14.820740   0.000000
 
  0.2916667E+00  0.4166667E-01  0.0000000E+00  0.1736111E-02
    1       -7.770458   1.000000
    2        1.066471   1.000000
    3        5.211228   1.000000
    4        5.512339   1.000000
    5       10.289069   0.000000
    6       11.460976   0.000000
    7       12.050141   0.000000
    8       15.226165   0.000000
 
  0.3333333E+00  0.4166667E-01  0.0000000E+00  0.1736111E-02
    1       -7.379429   1.000000
    2        0.128215   1.000000
    3        5.054963   1.000000
    4        5.292005   1.000000
    5       10.211703   0.000000
    6       11.546556   0.000000
    7       12.071208   0.000000
    8       15.548175   0.000000
 
  0.3750000E+00  0.4166667E-01  0.0000000E+00  0.1736111E-02
    1       -6.961875   1.000000
    2       -0.730421   1.000000
    3        4.940306   1.000000
    4        5.101387   1.000000
    5       10.144477   0.000000
    6       11.578180   0.000000
    7       12.027385   0.000000
    8       15.760227   0.000000
 
  0.4166667E+00  0.4166667E-01  0.0000000E+00  0.1736111E-02
    1       -6.546567   1.000000
    2       -1.475376   1.000000
    3        4.868367   1.000000
    4        4.944600   1.000000
    5       10.092778   0.000000
    6       11.585540   0.000000
    7       11.951858   0.000000
    8       15.863324   0.000000
 
  0.4583333E+00  0.4166667E-01  0.0000000E+00  0.1736111E-02
    1       -6.190030   1.000000
    2       -2.046715   1.000000
    3        4.824587   1.000000
    4        4.839357   1.000000
    5       10.059005   0.000000
    6       11.594384   0.000000
    7       11.871428   0.000000
    8       15.898548   0.000000
 
  0.5000000E+00  0.4166667E-01  0.0000000E+00  0.1736111E-02
    1       -5.988454   1.000000
    2       -2.346288   1.000000
    3        4.743434   1.000000
    4        4.852861   1.000000
    5       10.044119   0.000000
    6       11.621192   0.000000
    7       11.803353   0.000000
    8       15.908100   0.000000
 
 -0.4583333E+00  0.4166667E-01  0.0000000E+00  0.1736111E-02
    1       -6.031549   1.000000
    2       -2.283494   1.000000
    3        4.702805   1.000000
    4        4.907938   1.000000
    5       10.048406   0.000000
    6       11.673033   0.000000
    7       11.755584   0.000000
    8       15.912959   0.000000
 
 -0.4166667E+00  0.4166667E-01  0.0000000E+00  0.1736111E-02
    1       -6.297313   1.000000
    2       -1.880558   1.000000
    3        4.703937   1.000000
    4        5.003242   1.000000
    5       10.071775   0.000000
    6       11.727231   0.000000
    7       11.748159   0.000000
    8       15.910373   0.000000
 
 -0.3750000E+00  0.4166667E-01  0.0000000E+00  0.1736111E-02
    1       -6.682182   1.000000
    2       -1.242197   1.000000
    3        4.747650   1.000000
    4        5.136910   1.000000
    5       10.113857   0.000000
    6       11.708320   0.000000
    7       11.835761   0.000000
    8       15.874005   0.000000
 
 -0.3333333E+00  0.4166667E-01  0.0000000E+00  0.1736111E-02
    1       -7.102792   1.000000
    2       -0.454284   1.000000
    3        4.834316   1.000000
    4        5.306503   1.000000
    5       10.173786   0.000000
    6       11.679534   0.000000
    7       11.914927   0.000000
    8       15.757724   0.000000
 
 -0.2916667E+00  0.4166667E-01  0.0000000E+00  0.1736111E-02
    1       -7.513772   1.000000
    2        0.433928   1.000000
    3        4.963570   1.000000
    4        5.508658   1.000000
    5       10.249602   0.000000
    6       11.613613   0.000000
    7       11.954220   0.000000
    8       15.520688   0.000000
 
 -0.2500000E+00  0.4166667E-01  0.0000000E+00  0.1736111E-02
    1       -7.892213   1.000000
    2        1.393211   1.000000
    3        5.134077   1.000000
    4        5.738346   1.000000
    5       10.337155   0.000000
    6       11.482454   0.000000
    7       11.916265   0.000000
    8       15.163276   0.000000
 
 -0.2083333E+00  0.4166667E-01  0.0000000E+00  0.1736111E-02
    1       -8.225968   1.000000
    2        2.401845   1.000000
    3        5.343168   1.000000
    4        5.987760   1.000000
    5       10.428252   0.000000
    6       11.271773   0.000000
    7       11.772893   0.000000
    8       14.715484   0.000000
 
 -0.1666667E+00  0.4166667E-01  0.0000000E+00  0.1736111E-02
    1       -8.508348   1.000000
    2        3.437158   1.000000
    3        5.586019   1.000000
    4        6.244306   1.000000
    5       10.506692   0.000000
    6       10.995055   0.000000
    7       11.525812   0.000000
    8       14.200055   0.000000
 
 -0.1250000E+00  0.4166667E-01  0.0000000E+00  0.1736111E-02
    1       -8.735374   1.000000
    2        4.467570   1.000000
    3        5.854852   1.000000
    4        6.487343   1.000000
    5       10.541381   0.000000
    6       10.694671   0.000000
    7       11.214108   0.000000
    8       13.638676   0.000000
 
 -0.8333333E-01  0.4166667E-01  0.0000000E+00  0.1736111E-02
    1       -8.904703   1.000000
    2        5.435904   1.000000
    3        6.139273   1.000000
    4        6.684607   1.000000
    5       10.432100   0.000000
    6       10.484778   0.000000
    7       10.896843   0.000000
    8       13.087773   0.000000
 
 -0.4166667E-01  0.4166667E-01  0.0000000E+00  0.8680556E-03
    1       -9.014871   1.000000
    2        6.200888   1.000000
    3        6.451444   1.000000
    4        6.793878   1.000000
    5       10.274697   0.000000
    6       10.345386   0.000000
    7       10.589763   0.000000
    8       12.657661   0.000000
 
  0.8333333E-01  0.8333333E-01  0.0000000E+00  0.4340278E-03
    1       -8.934540   1.000000
    2        6.156831   1.000000
    3        6.172110   1.000000
    4        6.172110   1.000000
    5        9.795457   0.000000
    6       11.035614   0.000000
    7       11.035614   0.000000
    8       12.828982   0.000000
 
  0.1250000E+00  0.8333333E-01  0.0000000E+00  0.1736111E-02
    1       -8.824486   1.000000
    2        5.383220   1.000000
    3        5.890999   1.000000
    4        6.159777   1.000000
    5        9.743242   0.000000
    6       11.309816   0.000000
    7       11.413492   0.000000
    8       13.110105   0.000000
 
  0.1666667E+00  0.8333333E-01  0.0000000E+00  0.1736111E-02
    1       -8.655382   1.000000
    2        4.442278   1.000000
    3        5.611178   1.000000
    4        6.026408   1.000000
    5        9.867288   0.000000
    6       11.411237   0.000000
    7       11.795223   0.000000
    8       13.515546   0.000000
 
  0.2083333E+00  0.8333333E-01  0.0000000E+00  0.1736111E-02
    1       -8.428711   1.000000
    2        3.436536   1.000000
    3        5.351464   1.000000
    4        5.809563   1.000000
    5       10.068757   0.000000
    6       11.434421   0.000000
    7       12.131756   0.000000
    8       13.893758   0.000000
 
  0.2500000E+00  0.8333333E-01  0.0000000E+00  0.1736111E-02
    1       -8.146823   1.000000
    2        2.419943   1.000000
    3        5.123598   1.000000
    4        5.553441   1.000000
    5       10.244621   0.000000
    6       11.461235   0.000000
    7       12.380422   0.000000
    8       14.202357   0.000000
 
  0.2916667E+00  0.8333333E-01  0.0000000E+00  0.1736111E-02
    1       -7.813734   1.000000
    2        1.425354   1.000000
    3        4.934753   1.000000
    4        5.288357   1.000000
    5       10.336597   0.000000
    6       11.510608   0.000000
    7       12.516700   0.000000
    8       14.507429   0.000000
 
  0.3333333E+00  0.8333333E-01  0.0000000E+00  0.1736111E-02
    1       -7.436168   1.000000
    2        0.476714   1.000000
    3        4.789190   1.000000
    4        5.032910   1.000000
    5       10.354551   0.000000
    6       11.553442   0.000000
    7       12.544086   0.000000
    8       14.871613   0.000000
 
  0.3750000E+00  0.8333333E-01  0.0000000E+00  0.1736111E-02
    1       -7.026293   1.000000
    2       -0.403252   1.000000
    3        4.689258   1.000000
    4        4.798493   1.000000
    5       10.336700   0.000000
    6       11.569867   0.000000
    7       12.489481   0.000000
    8       15.281262   0.000000
 
  0.4166667E+00  0.8333333E-01  0.0000000E+00  0.1736111E-02
    1       -6.607091   1.000000
    2       -1.184672   1.000000
    3        4.592545   1.000000
    4        4.635947   1.000000
    5       10.312182   0.000000
    6       11.569884   0.000000
    7       12.387646   0.000000
    8       15.660920   0.000000
 
  0.4583333E+00  0.8333333E-01  0.0000000E+00  0.1736111E-02
    1       -6.223877   1.000000
    2       -1.817903   1.000000
    3        4.420337   1.000000
    4        4.629279   1.000000
    5       10.296705   0.000000
    6       11.573852   0.000000
    7       12.268719   0.000000
    8       15.936586   0.000000
 
  0.5000000E+00  0.8333333E-01  0.0000000E+00  0.1736111E-02
    1       -5.959727   1.000000
    2       -2.217171   1.000000
    3        4.285750   1.000000
    4        4.668362   1.000000
    5       10.297206   0.000000
    6       11.598372   0.000000
    7       12.153432   0.000000
    8       16.091767   0.000000
 
 -0.4583333E+00  0.8333333E-01  0.0000000E+00  0.1736111E-02
    1       -5.917348   1.000000
    2       -2.278494   1.000000
    3        4.191890   1.000000
    4        4.751694   1.000000
    5       10.315755   0.000000
    6       11.653162   0.000000
    7       12.052983   0.000000
    8       16.150765   0.000000
 
 -0.4166667E+00  0.8333333E-01  0.0000000E+00  0.1736111E-02
    1       -6.118266   1.000000
    2       -1.980136   1.000000
    3        4.141218   1.000000
    4        4.877055   1.000000
    5       10.351805   0.000000
    6       11.740711   0.000000
    7       11.969473   0.000000
    8       16.126896   0.000000
 
 -0.3750000E+00  0.8333333E-01  0.0000000E+00  0.1736111E-02
    1       -6.473408   1.000000
    2       -1.412185   1.000000
    3        4.135708   1.000000
    4        5.041447   1.000000
    5       10.403674   0.000000
    6       11.855380   0.000000
    7       11.896157   0.000000
    8       16.004606   0.000000
 
 -0.3333333E+00  0.8333333E-01  0.0000000E+00  0.1736111E-02
    1       -6.887225   1.000000
    2       -0.672439   1.000000
    3        4.176801   1.000000
    4        5.241004   1.000000
    5       10.469263   0.000000
    6       11.817063   0.000000
    7       11.981072   0.000000
    8       15.760538   0.000000
 
 -0.2916667E+00  0.8333333E-01  0.0000000E+00  0.1736111E-02
    1       -7.303452   1.000000
    2        0.178814   1.000000
    3        4.265463   1.000000
    4        5.470456   1.000000
    5       10.545674   0.000000
    6       11.708325   0.000000
    7       12.087397   0.000000
    8       15.406810   0.000000
 
 -0.2500000E+00  0.8333333E-01  0.0000000E+00  0.1736111E-02
    1       -7.693359   1.000000
    2        1.106374   1.000000
    3        4.402176   1.000000
    4        5.722453   1.000000
    5       10.627959   0.000000
    6       11.544960   0.000000
    7       12.127743   0.000000
    8       15.003681   0.000000
 
 -0.2083333E+00  0.8333333E-01  0.0000000E+00  0.1736111E-02
    1       -8.042061   1.000000
    2        2.084698   1.000000
    3        4.587308   1.000000
    4        5.986087   1.000000
    5       10.706480   0.000000
    6       11.315234   0.000000
    7       12.050703   0.000000
    8       14.615104   0.000000
 
 -0.1666667E+00  0.8333333E-01  0.0000000E+00  0.1736111E-02
    1       -8.341395   1.000000
    2        3.086444   1.000000
    3        4.822603   1.000000
    4        6.244573   1.000000
    5       10.761930   0.000000
    6       11.035355   0.000000
    7       11.838620   0.000000
    8       14.253110   0.000000
 
 -0.1250000E+00  0.8333333E-01  0.0000000E+00  0.1736111E-02
    1       -8.586646   1.000000
    2        4.066257   1.000000
    3        5.118822   1.000000
    4        6.472089   1.000000
    5       10.751608   0.000000
    6       10.757731   0.000000
    7       11.539448   0.000000
    8       13.875197   0.000000
 
 -0.8333333E-01  0.8333333E-01  0.0000000E+00  0.8680556E-03
    1       -8.774988   1.000000
    2        4.907058   1.000000
    3        5.535689   1.000000
    4        6.632029   1.000000
    5       10.529052   0.000000
    6       10.650624   0.000000
    7       11.228259   0.000000
    8       13.463905   0.000000
 
  0.1250000E+00  0.1250000E+00  0.0000000E+00  0.4340278E-03
    1       -8.734407   1.000000
    2        5.440976   1.000000
    3        5.597245   1.000000
    4        5.597245   1.000000
    5        9.451064   0.000000
    6       11.823825   0.000000
    7       11.823825   0.000000
    8       13.074715   0.000000
 
  0.1666667E+00  0.1250000E+00  0.0000000E+00  0.1736111E-02
    1       -8.585173   1.000000
    2        4.667142   1.000000
    3        5.308945   1.000000
    4        5.526800   1.000000
    5        9.388864   0.000000
    6       12.092443   0.000000
    7       12.240955   0.000000
    8       13.198983   0.000000
 
  0.2083333E+00  0.1250000E+00  0.0000000E+00  0.1736111E-02
    1       -8.377989   1.000000
    2        3.733628   1.000000
    3        5.043917   1.000000
    4        5.380364   1.000000
    5        9.516501   0.000000
    6       12.126273   0.000000
    7       12.617970   0.000000
    8       13.390163   0.000000
 
  0.2500000E+00  0.1250000E+00  0.0000000E+00  0.1736111E-02
    1       -8.114907   1.000000
    2        2.758546   1.000000
    3        4.813415   1.000000
    4        5.148817   1.000000
    5        9.734576   0.000000
    6       12.098957   0.000000
    7       12.910299   0.000000
    8       13.528978   0.000000
 
  0.2916667E+00  0.1250000E+00  0.0000000E+00  0.1736111E-02
    1       -7.799343   1.000000
    2        1.784663   1.000000
    3        4.624578   1.000000
    4        4.876664   1.000000
    5        9.941277   0.000000
    6       12.087915   0.000000
    7       13.086378   0.000000
    8       13.679067   0.000000
 
  0.3333333E+00  0.1250000E+00  0.0000000E+00  0.1736111E-02
    1       -7.436960   1.000000
    2        0.841323   1.000000
    3        4.481767   1.000000
    4        4.595248   1.000000
    5       10.078067   0.000000
    6       12.087289   0.000000
    7       13.140767   0.000000
    8       13.951889   0.000000
 
  0.3750000E+00  0.1250000E+00  0.0000000E+00  0.1736111E-02
    1       -7.037798   1.000000
    2       -0.046734   1.000000
    3        4.324024   1.000000
    4        4.387462   1.000000
    5       10.146724   0.000000
    6       12.069507   0.000000
    7       13.095191   0.000000
    8       14.390247   0.000000
 
  0.4166667E+00  0.1250000E+00  0.0000000E+00  0.1736111E-02
    1       -6.620388   1.000000
    2       -0.851519   1.000000
    3        4.075304   1.000000
    4        4.342834   1.000000
    5       10.180737   0.000000
    6       12.033983   0.000000
    7       12.984644   0.000000
    8       14.946666   0.000000
 
  0.4583333E+00  0.1250000E+00  0.0000000E+00  0.1736111E-02
    1       -6.220956   1.000000
    2       -1.530834   1.000000
    3        3.857289   1.000000
    4        4.347962   1.000000
    5       10.211335   0.000000
    6       11.997636   0.000000
    7       12.842345   0.000000
    8       15.525008   0.000000
 
  0.5000000E+00  0.1250000E+00  0.0000000E+00  0.1736111E-02
    1       -5.908520   1.000000
    2       -2.011826   1.000000
    3        3.675978   1.000000
    4        4.402001   1.000000
    5       10.257261   0.000000
    6       11.976259   0.000000
    7       12.692691   0.000000
    8       16.010696   0.000000
 
 -0.4583333E+00  0.1250000E+00  0.0000000E+00  0.1736111E-02
    1       -5.785556   1.000000
    2       -2.190055   1.000000
    3        3.535886   1.000000
    4        4.503231   1.000000
    5       10.326276   0.000000
    6       11.980639   0.000000
    7       12.549822   0.000000
    8       16.302139   0.000000
 
 -0.4166667E+00  0.1250000E+00  0.0000000E+00  0.1736111E-02
    1       -5.911372   1.000000
    2       -2.005544   1.000000
    3        3.440718   1.000000
    4        4.649096   1.000000
    5       10.418463   0.000000
    6       12.017593   0.000000
    7       12.418527   0.000000
    8       16.353691   0.000000
 
 -0.3750000E+00  0.1250000E+00  0.0000000E+00  0.1736111E-02
    1       -6.225250   1.000000
    2       -1.519893   1.000000
    3        3.393461   1.000000
    4        4.835953   1.000000
    5       10.528687   0.000000
    6       12.089632   0.000000
    7       12.294282   0.000000
    8       16.169456   0.000000
 
 -0.3333333E+00  0.1250000E+00  0.0000000E+00  0.1736111E-02
    1       -6.624957   1.000000
    2       -0.837735   1.000000
    3        3.396703   1.000000
    4        5.058783   1.000000
    5       10.648699   0.000000
    6       12.163405   0.000000
    7       12.191902   0.000000
    8       15.791020   0.000000
 
 -0.2916667E+00  0.1250000E+00  0.0000000E+00  0.1736111E-02
    1       -7.042067   1.000000
    2       -0.032309   1.000000
    3        3.453095   1.000000
    4        5.310817   1.000000
    5       10.769061   0.000000
    6       12.004621   0.000000
    7       12.304841   0.000000
    8       15.301852   0.000000
 
 -0.2500000E+00  0.1250000E+00  0.0000000E+00  0.1736111E-02
    1       -7.440710   1.000000
    2        0.851940   1.000000
    3        3.566243   1.000000
    4        5.582438   1.000000
    5       10.879333   0.000000
    6       11.796283   0.000000
    7       12.382072   0.000000
    8       14.808635   0.000000
 
 -0.2083333E+00  0.1250000E+00  0.0000000E+00  0.1736111E-02
    1       -7.802503   1.000000
    2        1.779896   1.000000
    3        3.743819   1.000000
    4        5.859708   1.000000
    5       10.965282   0.000000
    6       11.531422   0.000000
    7       12.345219   0.000000
    8       14.421302   0.000000
 
 -0.1666667E+00  0.1250000E+00  0.0000000E+00  0.1736111E-02
    1       -8.117481   1.000000
    2        2.702652   1.000000
    3        4.009152   1.000000
    4        6.121790   1.000000
    5       11.001188   0.000000
    6       11.232155   0.000000
    7       12.141234   0.000000
    8       14.195671   0.000000
 
 -0.1250000E+00  0.1250000E+00  0.0000000E+00  0.8680556E-03
    1       -8.379997   1.000000
    2        3.509680   1.000000
    3        4.440085   1.000000
    4        6.338707   1.000000
    5       10.941797   0.000000
    6       10.950125   0.000000
    7       11.838441   0.000000
    8       14.053791   0.000000
 
  0.1666667E+00  0.1666667E+00  0.0000000E+00  0.4340278E-03
    1       -8.455806   1.000000
    2        4.597950   1.000000
    3        5.012976   1.000000
    4        5.012976   1.000000
    5        9.095782   0.000000
    6       12.700655   0.000000
    7       12.700655   0.000000
    8       12.891817   0.000000
 
  0.2083333E+00  0.1666667E+00  0.0000000E+00  0.1736111E-02
    1       -8.268311   1.000000
    2        3.891340   1.000000
    3        4.741004   1.000000
    4        4.858706   1.000000
    5        9.041089   0.000000
    6       12.577537   0.000000
    7       13.128798   0.000000
    8       13.158184   0.000000
 
  0.2500000E+00  0.1666667E+00  0.0000000E+00  0.1736111E-02
    1       -8.024486   1.000000
    2        3.012701   1.000000
    3        4.504510   1.000000
    4        4.668122   1.000000
    5        9.180449   0.000000
    6       12.380373   0.000000
    7       13.363617   0.000000
    8       13.479344   0.000000
 
  0.2916667E+00  0.1666667E+00  0.0000000E+00  0.1736111E-02
    1       -7.727242   1.000000
    2        2.096615   1.000000
    3        4.310925   1.000000
    4        4.401872   1.000000
    5        9.406538   0.000000
    6       12.321942   0.000000
    7       13.425792   0.000000
    8       13.713854   0.000000
 
  0.3333333E+00  0.1666667E+00  0.0000000E+00  0.1736111E-02
    1       -7.381441   1.000000
    2        1.185940   1.000000
    3        4.100381   1.000000
    4        4.164904   1.000000
    5        9.611820   0.000000
    6       12.428174   0.000000
    7       13.458576   0.000000
    8       13.816235   0.000000
 
  0.3750000E+00  0.1666667E+00  0.0000000E+00  0.1736111E-02
    1       -6.995470   1.000000
    2        0.311102   1.000000
    3        3.794727   1.000000
    4        4.069257   1.000000
    5        9.744962   0.000000
    6       12.614780   0.000000
    7       13.611709   0.000000
    8       13.800093   0.000000
 
  0.4166667E+00  0.1666667E+00  0.0000000E+00  0.1736111E-02
    1       -6.584492   1.000000
    2       -0.498684   1.000000
    3        3.504513   1.000000
    4        4.025356   1.000000
    5        9.821498   0.000000
    6       12.712341   0.000000
    7       13.698718   0.000000
    8       14.034909   0.000000
 
  0.4583333E+00  0.1666667E+00  0.0000000E+00  0.1736111E-02
    1       -6.177608   1.000000
    2       -1.205249   1.000000
    3        3.242235   1.000000
    4        4.033533   1.000000
    5        9.880645   0.000000
    6       12.712337   0.000000
    7       13.548180   0.000000
    8       14.676566   0.000000
 
  0.5000000E+00  0.1666667E+00  0.0000000E+00  0.1736111E-02
    1       -5.831060   1.000000
    2       -1.746613   1.000000
    3        3.016358   1.000000
    4        4.093093   1.000000
    5        9.952191   0.000000
    6       12.682817   0.000000
    7       13.376644   0.000000
    8       15.392683   0.000000
 
 -0.4583333E+00  0.1666667E+00  0.0000000E+00  0.1736111E-02
    1       -5.638451   1.000000
    2       -2.025871   1.000000
    3        2.833094   1.000000
    4        4.202450   1.000000
    5       10.051669   0.000000
    6       12.658041   0.000000
    7       13.201622   0.000000
    8       16.034262   0.000000
 
 -0.4166667E+00  0.1666667E+00  0.0000000E+00  0.1736111E-02
    1       -5.684146   1.000000
    2       -1.957430   1.000000
    3        2.697271   1.000000
    4        4.358912   1.000000
    5       10.184006   0.000000
    6       12.652714   0.000000
    7       13.029986   0.000000
    8       16.386712   0.000000
 
 -0.3750000E+00  0.1666667E+00  0.0000000E+00  0.1736111E-02
    1       -5.945019   1.000000
    2       -1.565145   1.000000
    3        2.613132   1.000000
    4        4.558627   1.000000
    5       10.346772   0.000000
    6       12.673990   0.000000
    7       12.858668   0.000000
    8       16.276073   0.000000
 
 -0.3333333E+00  0.1666667E+00  0.0000000E+00  0.1736111E-02
    1       -6.321826   1.000000
    2       -0.951560   1.000000
    3        2.585042   1.000000
    4        4.796053   1.000000
    5       10.531353   0.000000
    6       12.674815   0.000000
    7       12.723513   0.000000
    8       15.818899   0.000000
 
 -0.2916667E+00  0.1666667E+00  0.0000000E+00  0.1736111E-02
    1       -6.734203   1.000000
    2       -0.204367   1.000000
    3        2.619021   1.000000
    4        5.063480   1.000000
    5       10.723339   0.000000
    6       12.458342   0.000000
    7       12.792726   0.000000
    8       15.223150   0.000000
 
 -0.2500000E+00  0.1666667E+00  0.0000000E+00  0.1736111E-02
    1       -7.137968   1.000000
    2        0.616164   1.000000
    3        2.726785   1.000000
    4        5.349728   1.000000
    5       10.901982   0.000000
    6       12.190779   0.000000
    7       12.844310   0.000000
    8       14.641478   0.000000
 