 running on   48 total cores
 distrk:  each k-point on   12 cores,    4 groups
 distr:  one band on   12 cores,    1 groups
 using from now: INCAR     
 vasp.5.4.4.18Apr17-6-g9f103f2a35 (build Nov 04 2020 14:40:39) complex          
  
 POSCAR found type information on POSCAR  B  As
 POSCAR found :  2 types and       2 ions
 scaLAPACK will be used

 ----------------------------------------------------------------------------- 
|                                                                             |
|           W    W    AA    RRRRR   N    N  II  N    N   GGGG   !!!           |
|           W    W   A  A   R    R  NN   N  II  NN   N  G    G  !!!           |
|           W    W  A    A  R    R  N N  N  II  N N  N  G       !!!           |
|           W WW W  AAAAAA  RRRRR   N  N N  II  N  N N  G  GGG   !            |
|           WW  WW  A    A  R   R   N   NN  II  N   NN  G    G                |
|           W    W  A    A  R    R  N    N  II  N    N   GGGG   !!!           |
|                                                                             |
|      You have enabled k-point parallelism (KPAR>1).                         |
|      This developmental code was originally  written by Paul Kent at ORNL,  |
|      and carefully double checked in Vienna.                                |
|      GW as well as linear response parallelism added by Martijn Marsman     |
|      and Georg Kresse.                                                      |
|      Carefully verify results versus KPAR=1.                                |
|      Report problems to Paul Kent and Vienna.                               |
|                                                                             |
 ----------------------------------------------------------------------------- 

 LDA part: xc-table for Pade appr. of Perdew
 POSCAR found type information on POSCAR  B  As
 POSCAR found :  2 types and       2 ions
 generate k-points for:   24   24   24
 POSCAR, INCAR and KPOINTS ok, starting setup
 FFT: planning ...
 WAVECAR not read
 entering main loop
       N       E                     dE             d eps       ncg     rms          rms(c)
DAV:   1     0.106096884745E+02    0.10610E+02   -0.40316E+03  6632   0.879E+02
DAV:   2    -0.118206738338E+02   -0.22430E+02   -0.21802E+02 10008   0.108E+02
DAV:   3    -0.120826734911E+02   -0.26200E+00   -0.26200E+00  7632   0.140E+01
DAV:   4    -0.120829970645E+02   -0.32357E-03   -0.32357E-03 10200   0.478E-01
DAV:   5    -0.120829973742E+02   -0.30971E-06   -0.30971E-06  7528   0.537E-03    0.432E+00
RMM:   6    -0.113714561189E+02    0.71154E+00   -0.77819E-01  6692   0.605E+00    0.178E+00
RMM:   7    -0.112947090459E+02    0.76747E-01   -0.14179E-01  7052   0.256E+00    0.744E-01
RMM:   8    -0.112870684063E+02    0.76406E-02   -0.22730E-02  7270   0.114E+00    0.839E-02
RMM:   9    -0.112873321833E+02   -0.26378E-03   -0.39834E-04  7792   0.164E-01    0.366E-02
RMM:  10    -0.112874073612E+02   -0.75178E-04   -0.12294E-04  7393   0.940E-02    0.102E-02
RMM:  11    -0.112874097796E+02   -0.24184E-05   -0.33805E-05  7328   0.376E-02    0.106E-02
RMM:  12    -0.112874039570E+02    0.58226E-05   -0.86135E-06  7456   0.196E-02    0.294E-04
RMM:  13    -0.112874039762E+02   -0.19270E-07   -0.10583E-07  4912   0.257E-03
   1 F= -.11287404E+02 E0= -.11287404E+02  d E =0.000000E+00
