 running  128 mpi-ranks, with    1 threads/rank, on    1 nodes
 distrk:  each k-point on   32 cores,    4 groups
 distr:  one band on   16 cores,    2 groups
 vasp.6.4.3 19Mar24 (build Jun  3 2025 16:21:13) complex                         
 POSCAR found type information on POSCAR Ti
 POSCAR found :  1 types and       1 ions
 Reading from existing POTCAR
 scaLAPACK will be used
 Reading from existing POTCAR
 LDA part: xc-table for (Slater+PW92), standard interpolation
 -----------------------------------------------------------------------------
|                                                                             |
|           W    W    AA    RRRRR   N    N  II  N    N   GGGG   !!!           |
|           W    W   A  A   R    R  NN   N  II  NN   N  G    G  !!!           |
|           W    W  A    A  R    R  N N  N  II  N N  N  G       !!!           |
|           W WW W  AAAAAA  RRRRR   N  N N  II  N  N N  G  GGG   !            |
|           WW  WW  A    A  R   R   N   NN  II  N   NN  G    G                |
|           W    W  A    A  R    R  N    N  II  N    N   GGGG   !!!           |
|                                                                             |
|     The requested file  could not be found or opened for reading            |
|     k-point information. Automatic k-point generation is used as a          |
|     fallback, which may lead to unwanted results.                           |
|                                                                             |
 -----------------------------------------------------------------------------

 INCAR ok, starting setup
 POSCAR ok, starting setup
 FFT: planning ... GRIDC
 FFT: planning ... GRID_SOFT
 FFT: planning ... GRID
 WAVECAR not read
 entering main loop
       N       E                     dE             d eps       ncg     rms          rms(c)
DAV:   1     0.113630747833E+03    0.11363E+03   -0.43044E+03 12952   0.446E+02
DAV:   2    -0.201298473391E+01   -0.11564E+03   -0.10716E+03 13280   0.160E+02
DAV:   3    -0.877124018487E+01   -0.67583E+01   -0.66615E+01 15296   0.381E+01
DAV:   4    -0.882174281115E+01   -0.50503E-01   -0.50491E-01 13880   0.340E+00
DAV:   5    -0.882186558116E+01   -0.12277E-03   -0.12277E-03 14928   0.164E-01    0.806E+00
DAV:   6    -0.770716979154E+01    0.11147E+01   -0.10242E+00 16136   0.867E+00    0.195E+00
DAV:   7    -0.770677168341E+01    0.39811E-03   -0.33587E-02 13688   0.790E-01    0.128E+00
DAV:   8    -0.771492652533E+01   -0.81548E-02   -0.38953E-02 12832   0.970E-01    0.147E-01
DAV:   9    -0.771445308500E+01    0.47344E-03   -0.64155E-04 14584   0.158E-01    0.509E-02
DAV:  10    -0.771450810204E+01   -0.55017E-04   -0.19412E-04 13608   0.609E-02    0.534E-03
DAV:  11    -0.771451014678E+01   -0.20447E-05   -0.68526E-06 14960   0.111E-02    0.612E-03
DAV:  12    -0.771451048638E+01   -0.33959E-06   -0.10854E-06 14856   0.442E-03    0.143E-03
DAV:  13    -0.771451063142E+01   -0.14504E-06   -0.89824E-08 13912   0.103E-03    0.288E-04
DAV:  14    -0.771451071747E+01   -0.86048E-07   -0.22041E-09  8080   0.147E-04
   1 F= -.77145107E+01 E0= -.77145107E+01  d E =0.000000E+00
 -----------------------------------------------------------------------------
|                                                                             |
|           W    W    AA    RRRRR   N    N  II  N    N   GGGG   !!!           |
|           W    W   A  A   R    R  NN   N  II  NN   N  G    G  !!!           |
|           W    W  A    A  R    R  N N  N  II  N N  N  G       !!!           |
|           W WW W  AAAAAA  RRRRR   N  N N  II  N  N N  G  GGG   !            |
|           WW  WW  A    A  R   R   N   NN  II  N   NN  G    G                |
|           W    W  A    A  R    R  N    N  II  N    N   GGGG   !!!           |
|                                                                             |
|     Tetrahedron method does not include variations of the Fermi             |
|     occupations, so forces and stress will be inaccurate. We suggest        |
|     using a different smearing scheme ISMEAR = 1 or 2 for metals in         |
|     relaxations.                                                            |
|                                                                             |
 -----------------------------------------------------------------------------

 PROFILE, used timers:     421
