unknown system                          
            1
    -1.650069    1.650069    1.650069
     1.650069   -1.650069    1.650069
     1.650069    1.650069   -1.650069
   Ti
     1
Direct configuration=     1
   0.00000000  0.00000000  0.00000000
