   3   3   0   0
  0.1969131E+02  0.4371565E-09  0.4371565E-09  0.4371565E-09  0.5000000E-15
  1.000000000000000E-004
  CAR
 unknown system
     14.81209569    -23.78478690  301     10.14930509      1.00000000
    -23.785  0.0000E+00  0.0000E+00
    -23.656  0.0000E+00  0.0000E+00
    -23.527  0.0000E+00  0.0000E+00
    -23.399  0.0000E+00  0.0000E+00
    -23.270  0.0000E+00  0.0000E+00
    -23.142  0.0000E+00  0.0000E+00
    -23.013  0.0000E+00  0.0000E+00
    -22.884  0.0000E+00  0.0000E+00
    -22.756  0.0000E+00  0.0000E+00
    -22.627  0.0000E+00  0.0000E+00
    -22.498  0.0000E+00  0.0000E+00
    -22.370  0.0000E+00  0.0000E+00
    -22.241  0.0000E+00  0.0000E+00
    -22.112  0.0000E+00  0.0000E+00
    -21.984  0.4650E+02  0.5982E+01
    -21.855  0.0000E+00  0.6000E+01
    -21.726  0.0000E+00  0.6000E+01
    -21.598  0.0000E+00  0.6000E+01
    -21.469  0.0000E+00  0.6000E+01
    -21.340  0.0000E+00  0.6000E+01
    -21.212  0.0000E+00  0.6000E+01
    -21.083  0.0000E+00  0.6000E+01
    -20.954  0.0000E+00  0.6000E+01
    -20.826  0.0000E+00  0.6000E+01
    -20.697  0.0000E+00  0.6000E+01
    -20.568  0.0000E+00  0.6000E+01
    -20.440  0.0000E+00  0.6000E+01
    -20.311  0.0000E+00  0.6000E+01
    -20.182  0.0000E+00  0.6000E+01
    -20.054  0.0000E+00  0.6000E+01
    -19.925  0.0000E+00  0.6000E+01
    -19.796  0.0000E+00  0.6000E+01
    -19.668  0.0000E+00  0.6000E+01
    -19.539  0.0000E+00  0.6000E+01
    -19.410  0.0000E+00  0.6000E+01
    -19.282  0.0000E+00  0.6000E+01
    -19.153  0.0000E+00  0.6000E+01
    -19.025  0.0000E+00  0.6000E+01
    -18.896  0.0000E+00  0.6000E+01
    -18.767  0.0000E+00  0.6000E+01
    -18.639  0.0000E+00  0.6000E+01
    -18.510  0.0000E+00  0.6000E+01
    -18.381  0.0000E+00  0.6000E+01
    -18.253  0.0000E+00  0.6000E+01
    -18.124  0.0000E+00  0.6000E+01
    -17.995  0.0000E+00  0.6000E+01
    -17.867  0.0000E+00  0.6000E+01
    -17.738  0.0000E+00  0.6000E+01
    -17.609  0.0000E+00  0.6000E+01
    -17.481  0.0000E+00  0.6000E+01
    -17.352  0.0000E+00  0.6000E+01
    -17.223  0.0000E+00  0.6000E+01
    -17.095  0.0000E+00  0.6000E+01
    -16.966  0.0000E+00  0.6000E+01
    -16.837  0.0000E+00  0.6000E+01
    -16.709  0.0000E+00  0.6000E+01
    -16.580  0.0000E+00  0.6000E+01
    -16.451  0.0000E+00  0.6000E+01
    -16.323  0.0000E+00  0.6000E+01
    -16.194  0.0000E+00  0.6000E+01
    -16.065  0.0000E+00  0.6000E+01
    -15.937  0.0000E+00  0.6000E+01
    -15.808  0.0000E+00  0.6000E+01
    -15.679  0.0000E+00  0.6000E+01
    -15.551  0.0000E+00  0.6000E+01
    -15.422  0.0000E+00  0.6000E+01
    -15.293  0.0000E+00  0.6000E+01
    -15.165  0.0000E+00  0.6000E+01
    -15.036  0.0000E+00  0.6000E+01
    -14.908  0.0000E+00  0.6000E+01
    -14.779  0.0000E+00  0.6000E+01
    -14.650  0.0000E+00  0.6000E+01
    -14.522  0.0000E+00  0.6000E+01
    -14.393  0.0000E+00  0.6000E+01
    -14.264  0.0000E+00  0.6000E+01
    -14.136  0.0000E+00  0.6000E+01
    -14.007  0.0000E+00  0.6000E+01
    -13.878  0.0000E+00  0.6000E+01
    -13.750  0.0000E+00  0.6000E+01
    -13.621  0.0000E+00  0.6000E+01
    -13.492  0.0000E+00  0.6000E+01
    -13.364  0.0000E+00  0.6000E+01
    -13.235  0.0000E+00  0.6000E+01
    -13.106  0.0000E+00  0.6000E+01
    -12.978  0.0000E+00  0.6000E+01
    -12.849  0.0000E+00  0.6000E+01
    -12.720  0.0000E+00  0.6000E+01
    -12.592  0.0000E+00  0.6000E+01
    -12.463  0.0000E+00  0.6000E+01
    -12.334  0.0000E+00  0.6000E+01
    -12.206  0.0000E+00  0.6000E+01
    -12.077  0.0000E+00  0.6000E+01
    -11.948  0.0000E+00  0.6000E+01
    -11.820  0.0000E+00  0.6000E+01
    -11.691  0.0000E+00  0.6000E+01
    -11.562  0.0000E+00  0.6000E+01
    -11.434  0.0000E+00  0.6000E+01
    -11.305  0.0000E+00  0.6000E+01
    -11.176  0.0000E+00  0.6000E+01
    -11.048  0.0000E+00  0.6000E+01
    -10.919  0.0000E+00  0.6000E+01
    -10.791  0.0000E+00  0.6000E+01
    -10.662  0.0000E+00  0.6000E+01
    -10.533  0.0000E+00  0.6000E+01
    -10.405  0.0000E+00  0.6000E+01
    -10.276  0.0000E+00  0.6000E+01
    -10.147  0.0000E+00  0.6000E+01
    -10.019  0.0000E+00  0.6000E+01
     -9.890  0.0000E+00  0.6000E+01
     -9.761  0.0000E+00  0.6000E+01
     -9.633  0.0000E+00  0.6000E+01
     -9.504  0.0000E+00  0.6000E+01
     -9.375  0.0000E+00  0.6000E+01
     -9.247  0.0000E+00  0.6000E+01
     -9.118  0.0000E+00  0.6000E+01
     -8.989  0.0000E+00  0.6000E+01
     -8.861  0.0000E+00  0.6000E+01
     -8.732  0.0000E+00  0.6000E+01
     -8.603  0.0000E+00  0.6000E+01
     -8.475  0.0000E+00  0.6000E+01
     -8.346  0.0000E+00  0.6000E+01
     -8.217  0.0000E+00  0.6000E+01
     -8.089  0.0000E+00  0.6000E+01
     -7.960  0.0000E+00  0.6000E+01
     -7.831  0.0000E+00  0.6000E+01
     -7.703  0.0000E+00  0.6000E+01
     -7.574  0.0000E+00  0.6000E+01
     -7.445  0.0000E+00  0.6000E+01
     -7.317  0.0000E+00  0.6000E+01
     -7.188  0.0000E+00  0.6000E+01
     -7.059  0.0000E+00  0.6000E+01
     -6.931  0.0000E+00  0.6000E+01
     -6.802  0.0000E+00  0.6000E+01
     -6.674  0.0000E+00  0.6000E+01
     -6.545  0.0000E+00  0.6000E+01
     -6.416  0.0000E+00  0.6000E+01
     -6.288  0.0000E+00  0.6000E+01
     -6.159  0.0000E+00  0.6000E+01
     -6.030  0.0000E+00  0.6000E+01
     -5.902  0.0000E+00  0.6000E+01
     -5.773  0.0000E+00  0.6000E+01
     -5.644  0.0000E+00  0.6000E+01
     -5.516  0.0000E+00  0.6000E+01
     -5.387  0.0000E+00  0.6000E+01
     -5.258  0.0000E+00  0.6000E+01
     -5.130  0.0000E+00  0.6000E+01
     -5.001  0.0000E+00  0.6000E+01
     -4.872  0.0000E+00  0.6000E+01
     -4.744  0.0000E+00  0.6000E+01
     -4.615  0.0000E+00  0.6000E+01
     -4.486  0.0000E+00  0.6000E+01
     -4.358  0.0000E+00  0.6000E+01
     -4.229  0.0000E+00  0.6000E+01
     -4.100  0.0000E+00  0.6000E+01
     -3.972  0.0000E+00  0.6000E+01
     -3.843  0.0000E+00  0.6000E+01
     -3.714  0.0000E+00  0.6000E+01
     -3.586  0.0000E+00  0.6000E+01
     -3.457  0.1687E-07  0.6000E+01
     -3.328  0.7550E-01  0.6011E+01
     -3.200  0.8491E-01  0.6025E+01
     -3.071  0.5671E-01  0.6054E+01
     -2.942  0.3393E+00  0.6103E+01
     -2.814  0.3173E+00  0.6144E+01
     -2.685  0.8492E-01  0.6165E+01
     -2.557  0.3365E+00  0.6257E+01
     -2.428  0.3416E+00  0.6302E+01
     -2.299  0.4268E+00  0.6385E+01
     -2.171  0.2191E+00  0.6490E+01
     -2.042  0.6615E+00  0.6618E+01
     -1.913  0.9495E+00  0.6826E+01
     -1.785  0.1614E+01  0.7070E+01
     -1.656  0.3728E+01  0.7699E+01
     -1.527  0.0000E+00  0.8000E+01
     -1.399  0.0000E+00  0.8000E+01
     -1.270  0.0000E+00  0.8000E+01
     -1.141  0.0000E+00  0.8000E+01
     -1.013  0.0000E+00  0.8000E+01
     -0.884  0.0000E+00  0.8000E+01
     -0.755  0.0000E+00  0.8000E+01
     -0.627  0.0000E+00  0.8000E+01
     -0.498  0.0000E+00  0.8000E+01
     -0.369  0.0000E+00  0.8000E+01
     -0.241  0.0000E+00  0.8000E+01
     -0.112  0.0000E+00  0.8000E+01
      0.017  0.0000E+00  0.8000E+01
      0.145  0.0000E+00  0.8000E+01
      0.274  0.0000E+00  0.8000E+01
      0.403  0.0000E+00  0.8000E+01
      0.531  0.0000E+00  0.8000E+01
      0.660  0.0000E+00  0.8000E+01
      0.789  0.0000E+00  0.8000E+01
      0.917  0.0000E+00  0.8000E+01
      1.046  0.0000E+00  0.8000E+01
      1.175  0.0000E+00  0.8000E+01
      1.303  0.0000E+00  0.8000E+01
      1.432  0.0000E+00  0.8000E+01
      1.560  0.0000E+00  0.8000E+01
      1.689  0.0000E+00  0.8000E+01
      1.818  0.9342E-08  0.8000E+01
      1.946  0.1260E+00  0.8045E+01
      2.075  0.1250E+01  0.8277E+01
      2.204  0.2333E+01  0.8828E+01
      2.332  0.1882E+01  0.9251E+01
      2.461  0.9181E+00  0.9509E+01
      2.590  0.7012E+00  0.9762E+01
      2.718  0.5696E+00  0.9865E+01
      2.847  0.3396E+00  0.9917E+01
      2.976  0.2628E+00  0.9958E+01
      3.104  0.1201E+01  0.1019E+02
      3.233  0.5026E+01  0.1105E+02
      3.362  0.3428E+01  0.1169E+02
      3.490  0.3821E+01  0.1228E+02
      3.619  0.2990E+01  0.1283E+02
      3.748  0.1850E+01  0.1337E+02
      3.876  0.1893E+01  0.1371E+02
      4.005  0.1381E+01  0.1395E+02
      4.134  0.8491E-01  0.1401E+02
      4.262  0.1135E+01  0.1417E+02
      4.391  0.2491E+01  0.1454E+02
      4.520  0.5582E+01  0.1547E+02
      4.648  0.4218E+01  0.1654E+02
      4.777  0.5212E+01  0.1759E+02
      4.906  0.2493E+01  0.1817E+02
      5.034  0.3442E+01  0.1869E+02
      5.163  0.1816E+01  0.1907E+02
      5.292  0.2019E+01  0.1933E+02
      5.420  0.1561E+01  0.1957E+02
      5.549  0.7642E+00  0.1967E+02
      5.678  0.1020E+01  0.1980E+02
      5.806  0.7222E+00  0.1994E+02
      5.935  0.6023E+00  0.2007E+02
      6.063  0.1528E+01  0.2030E+02
      6.192  0.9245E+00  0.2048E+02
      6.321  0.4151E+00  0.2060E+02
      6.449  0.1032E+01  0.2076E+02
      6.578  0.1078E+01  0.2101E+02
      6.707  0.9127E+00  0.2115E+02
      6.835  0.6614E+00  0.2139E+02
      6.964  0.1155E+01  0.2167E+02
      7.093  0.3648E+01  0.2238E+02
      7.221  0.1122E+01  0.2269E+02
      7.350  0.2135E+01  0.2306E+02
      7.479  0.1666E+01  0.2339E+02
      7.607  0.1153E+01  0.2364E+02
      7.736  0.6788E+00  0.2377E+02
      7.865  0.5195E+00  0.2388E+02
      7.993  0.6304E-01  0.2393E+02
      8.122  0.1522E-06  0.2397E+02
      8.251  0.2123E-01  0.2400E+02
      8.379  0.0000E+00  0.2400E+02
      8.508  0.0000E+00  0.2400E+02
      8.637  0.0000E+00  0.2400E+02
      8.765  0.0000E+00  0.2400E+02
      8.894  0.0000E+00  0.2400E+02
      9.023  0.0000E+00  0.2400E+02
      9.151  0.0000E+00  0.2400E+02
      9.280  0.0000E+00  0.2400E+02
      9.409  0.7449E-01  0.2401E+02
      9.537  0.2457E+00  0.2408E+02
      9.666  0.4792E+00  0.2420E+02
      9.795  0.6845E+00  0.2433E+02
      9.923  0.1233E+01  0.2455E+02
     10.052  0.7833E+00  0.2473E+02
     10.180  0.1775E+01  0.2506E+02
     10.309  0.2206E+01  0.2550E+02
     10.438  0.2801E+01  0.2605E+02
     10.566  0.9544E+00  0.2626E+02
     10.695  0.2687E+01  0.2667E+02
     10.824  0.2067E+01  0.2708E+02
     10.952  0.4350E+01  0.2795E+02
     11.081  0.1451E+01  0.2830E+02
     11.210  0.1386E+01  0.2865E+02
     11.338  0.3880E+01  0.2932E+02
     11.467  0.1721E+01  0.2965E+02
     11.596  0.8198E+00  0.2987E+02
     11.724  0.2043E+01  0.3015E+02
     11.853  0.8053E+00  0.3042E+02
     11.982  0.1854E+01  0.3065E+02
     12.110  0.1907E+01  0.3110E+02
     12.239  0.1491E+01  0.3144E+02
     12.368  0.1647E+01  0.3176E+02
     12.496  0.3396E+00  0.3187E+02
     12.625  0.7783E+00  0.3197E+02
     12.754  0.0000E+00  0.3199E+02
     12.882  0.0000E+00  0.3199E+02
     13.011  0.1043E-11  0.3199E+02
     13.140  0.0000E+00  0.3200E+02
     13.268  0.0000E+00  0.3200E+02
     13.397  0.0000E+00  0.3200E+02
     13.526  0.0000E+00  0.3200E+02
     13.654  0.0000E+00  0.3200E+02
     13.783  0.0000E+00  0.3200E+02
     13.912  0.0000E+00  0.3200E+02
     14.040  0.0000E+00  0.3200E+02
     14.169  0.0000E+00  0.3200E+02
     14.297  0.0000E+00  0.3200E+02
     14.426  0.0000E+00  0.3200E+02
     14.555  0.0000E+00  0.3200E+02
     14.683  0.0000E+00  0.3200E+02
     14.812  0.0000E+00  0.3200E+02
