    3    3    1    1
  0.1969131E+02  0.4371565E-09  0.4371565E-09  0.4371565E-09  0.5000000E-15
  1.000000000000000E-004
  CAR
 unknown system
     25     84     16

  0.0000000E+00  0.0000000E+00  0.0000000E+00  0.4551661E-03
    1      -22.001596   1.000000
    2      -22.001596   1.000000
    3      -22.001596   1.000000
    4       -3.424747   1.000000
    5        3.486681   1.000000
    6        3.486681   1.000000
    7        3.486681   1.000000
    8        4.296306   1.000000
    9        4.296306   1.000000
   10        8.220582   1.000000
   11        8.220582   1.000000
   12        8.220582   1.000000
   13        9.652345   1.000000
   14       11.080564   0.000000
   15       11.080564   0.000000
   16       11.080564   0.000000

  0.7692308E-01  0.2460829E-17 -0.3732321E-17  0.3641329E-02
    1      -22.003238   1.000000
    2      -22.001475   1.000000
    3      -22.001475   1.000000
    4       -3.351485   1.000000
    5        3.410954   1.000000
    6        3.446813   1.000000
    7        3.446813   1.000000
    8        4.349853   1.000000
    9        4.349853   1.000000
   10        7.712955   1.000000
   11        8.155167   1.000000
   12        8.155167   1.000000
   13        9.758116   1.000000
   14       10.905379   0.000000
   15       10.905379   0.000000
   16       11.551409   0.000000

  0.1538462E+00 -0.2941092E-17  0.3981084E-18  0.3641329E-02
    1      -22.007746   1.000000
    2      -22.001125   1.000000
    3      -22.001125   1.000000
    4       -3.139216   1.000000
    5        3.198904   1.000000
    6        3.365133   1.000000
    7        3.365133   1.000000
    8        4.463705   1.000000
    9        4.463705   1.000000
   10        6.800660   1.000000
   11        7.992310   1.000000
   12        7.992310   1.000000
   13        9.888813   1.000000
   14       10.788731   0.000000
   15       10.788731   0.000000
   16       12.351311   0.000000

  0.2307692E+00  0.5826057E-17 -0.9640533E-17  0.3641329E-02
    1      -22.014025   1.000000
    2      -22.000628   1.000000
    3      -22.000628   1.000000
    4       -2.811904   1.000000
    5        2.882546   1.000000
    6        3.293847   1.000000
    7        3.293847   1.000000
    8        4.563489   1.000000
    9        4.563489   1.000000
   10        5.941127   1.000000
   11        7.806331   1.000000
   12        7.806331   1.000000
   13       10.005914   1.000000
   14       10.808935   0.000000
   15       10.808935   0.000000
   16       13.057692   0.000000

  0.3076923E+00 -0.5882184E-17  0.7962167E-18  0.3641329E-02
    1      -22.020581   1.000000
    2      -22.000103   1.000000
    3      -22.000103   1.000000
    4       -2.415032   1.000000
    5        2.498745   1.000000
    6        3.255132   1.000000
    7        3.255132   1.000000
    8        4.606764   1.000000
    9        4.606764   1.000000
   10        5.276207   1.000000
   11        7.661838   1.000000
   12        7.661838   1.000000
   13       10.117191   0.999997
   14       10.935685   0.000000
   15       10.935685   0.000000
   16       12.573730   0.000000

  0.3846154E+00  0.2884965E-17 -0.9242425E-17  0.3641329E-02
    1      -22.025933   1.000000
    2      -21.999672   1.000000
    3      -21.999672   1.000000
    4       -2.026832   1.000000
    5        2.113794   1.000000
    6        3.246692   1.000000
    7        3.246692   1.000000
    8        4.596428   1.000000
    9        4.596428   1.000000
   10        4.849502   1.000000
   11        7.581375   1.000000
   12        7.581375   1.000000
   13       10.230439   0.000000
   14       11.117925   0.000000
   15       11.117925   0.000000
   16       11.766834   0.000000

  0.4615385E+00 -0.8823276E-17  0.1194325E-17  0.3641329E-02
    1      -22.028936   1.000000
    2      -21.999439   1.000000
    3      -21.999439   1.000000
    4       -1.769962   1.000000
    5        1.853913   1.000000
    6        3.251263   1.000000
    7        3.251263   1.000000
    8        4.571889   1.000000
    9        4.571889   1.000000
   10        4.648550   1.000000
   11        7.550856   1.000000
   12        7.550856   1.000000
   13       10.335852   0.000000
   14       11.264090   0.000000
   15       11.264090   0.000000
   16       11.273873   0.000000

  0.7692308E-01  0.7692308E-01 -0.2599266E-17  0.2730997E-02
    1      -22.003198   1.000000
    2      -22.001730   1.000000
    3      -22.001730   1.000000
    4       -3.327474   1.000000
    5        3.240812   1.000000
    6        3.520186   1.000000
    7        3.520186   1.000000
    8        4.333063   1.000000
    9        4.378006   1.000000
   10        7.781580   1.000000
   11        8.016490   1.000000
   12        8.016490   1.000000
   13        9.770957   1.000000
   14       10.825275   0.000000
   15       11.385805   0.000000
   16       11.386062   0.000000

  0.1538462E+00  0.7692308E-01 -0.5351448E-17  0.1092399E-01
    1      -22.006532   1.000000
    2      -22.001713   1.000000
    3      -22.001425   1.000000
    4       -3.162849   1.000000
    5        3.017316   1.000000
    6        3.491184   1.000000
    7        3.515180   1.000000
    8        4.411777   1.000000
    9        4.454759   1.000000
   10        7.078739   1.000000
   11        7.820225   1.000000
   12        7.912922   1.000000
   13        9.924705   1.000000
   14       10.663780   0.000000
   15       11.070840   0.000000
   16       11.944491   0.000000

  0.2307692E+00  0.7692308E-01 -0.8451195E-17  0.1092399E-01
    1      -22.012107   1.000000
    2      -22.001440   1.000000
    3      -22.000947   1.000000
    4       -2.876200   1.000000
    5        2.776883   1.000000
    6        3.378412   1.000000
    7        3.468223   1.000000
    8        4.518094   1.000000
    9        4.548168   1.000000
   10        6.229359   1.000000
   11        7.640689   1.000000
   12        7.747891   1.000000
   13       10.155530   0.189354
   14       10.628711   0.000000
   15       10.930394   0.000000
   16       12.572589   0.000000

  0.3076923E+00  0.7692308E-01 -0.1189223E-16  0.1092399E-01
    1      -22.018427   1.000000
    2      -22.000975   1.000000
    3      -22.000586   1.000000
    4       -2.505715   1.000000
    5        2.503006   1.000000
    6        3.263754   1.000000
    7        3.418612   1.000000
    8        4.582137   1.000000
    9        4.611981   1.000000
   10        5.505830   1.000000
   11        7.524714   1.000000
   12        7.577506   1.000000
   13       10.201190   0.000000
   14       10.899116   0.000000
   15       10.927525   0.000000
   16       12.667537   0.000000

  0.3846154E+00  0.7692308E-01 -0.8053087E-17  0.1092399E-01
    1      -22.024010   1.000000
    2      -22.000406   1.000000
    3      -22.000401   1.000000
    4       -2.117304   1.000000
    5        2.198351   1.000000
    6        3.203775   1.000000
    7        3.374487   1.000000
    8        4.592041   1.000000
    9        4.621919   1.000000
   10        4.999306   1.000000
   11        7.455951   1.000000
   12        7.477297   1.000000
   13       10.220448   0.000000
   14       11.045960   0.000000
   15       11.204585   0.000000
   16       11.962515   0.000000

  0.4615385E+00  0.7692308E-01  0.2383663E-17  0.1092399E-01
    1      -22.027656   1.000000
    2      -22.000463   1.000000
    3      -21.999874   1.000000
    4       -1.815536   1.000000
    5        1.941906   1.000000
    6        3.206569   1.000000
    7        3.324689   1.000000
    8        4.586239   1.000000
    9        4.586320   1.000000
   10        4.731006   1.000000
   11        7.389375   1.000000
   12        7.472742   1.000000
   13       10.306193   0.000000
   14       11.118437   0.000000
   15       11.215942   0.000000
   16       11.683644   0.000000

 -0.4615385E+00  0.7692308E-01  0.3405691E-16  0.1092399E-01
    1      -22.028604   1.000000
    2      -22.000727   1.000000
    3      -21.999512   1.000000
    4       -1.726217   1.000000
    5        1.864518   1.000000
    6        3.253480   1.000000
    7        3.261222   1.000000
    8        4.549771   1.000000
    9        4.603755   1.000000
   10        4.672865   1.000000
   11        7.353186   1.000000
   12        7.491750   1.000000
   13       10.393302   0.000000
   14       10.917793   0.000000
   15       11.297504   0.000000
   16       11.728641   0.000000

 -0.3846154E+00  0.7692308E-01  0.1673808E-16  0.1092399E-01
    1      -22.026643   1.000000
    2      -22.001124   1.000000
    3      -21.999376   1.000000
    4       -1.897707   1.000000
    5        2.021183   1.000000
    6        3.196500   1.000000
    7        3.323589   1.000000
    8        4.550535   1.000000
    9        4.642604   1.000000
   10        4.800826   1.000000
   11        7.324463   1.000000
   12        7.542648   1.000000
   13       10.322592   0.000000
   14       11.137107   0.000000
   15       11.199403   0.000000
   16       11.722196   0.000000

 -0.3076923E+00  0.7692308E-01  0.6699441E-17  0.1092399E-01
    1      -22.022211   1.000000
    2      -22.001567   1.000000
    3      -21.999524   1.000000
    4       -2.242295   1.000000
    5        2.324992   1.000000
    6        3.156278   1.000000
    7        3.404322   1.000000
    8        4.557975   1.000000
    9        4.666285   1.000000
   10        5.148403   1.000000
   11        7.310072   1.000000
   12        7.650166   1.000000
   13       10.283283   0.000000
   14       10.988938   0.000000
   15       11.116207   0.000000
   16       12.204508   0.000000

 -0.2307692E+00  0.7692308E-01  0.4523550E-17  0.1092399E-01
    1      -22.016264   1.000000
    2      -22.001923   1.000000
    3      -21.999904   1.000000
    4       -2.634419   1.000000
    5        2.660284   1.000000
    6        3.162152   1.000000
    7        3.487100   1.000000
    8        4.532975   1.000000
    9        4.639898   1.000000
   10        5.728076   1.000000
   11        7.349344   1.000000
   12        7.823503   1.000000
   13       10.294952   0.000000
   14       10.771116   0.000000
   15       10.936913   0.000000
   16       12.558194   0.000000

 -0.1538462E+00  0.7692308E-01  0.7912291E-18  0.1092399E-01
    1      -22.010171   1.000000
    2      -22.002096   1.000000
    3      -22.000438   1.000000
    4       -2.982926   1.000000
    5        2.967265   1.000000
    6        3.222418   1.000000
    7        3.551331   1.000000
    8        4.459526   1.000000
    9        4.557596   1.000000
   10        6.494502   1.000000
   11        7.487784   1.000000
   12        8.023926   1.000000
   13       10.195803   0.000000
   14       10.630251   0.000000
   15       10.925700   0.000000
   16       12.017294   0.000000

 -0.7692308E-01  0.7692308E-01  0.4921659E-17  0.5461994E-02
    1      -22.005451   1.000000
    2      -22.001925   1.000000
    3      -22.001004   1.000000
    4       -3.232305   1.000000
    5        3.226495   1.000000
    6        3.328174   1.000000
    7        3.548534   1.000000
    8        4.379572   1.000000
    9        4.444877   1.000000
   10        7.268543   1.000000
   11        7.779267   1.000000
   12        8.161313   1.000000
   13        9.935453   1.000000
   14       10.653458   0.000000
   15       11.091832   0.000000
   16       11.529860   0.000000

  0.1538462E+00  0.1538462E+00 -0.5198533E-17  0.2730997E-02
    1      -22.007665   1.000000
    2      -22.002094   1.000000
    3      -22.002094   1.000000
    4       -3.051167   1.000000
    5        2.746457   1.000000
    6        3.614134   1.000000
    7        3.614134   1.000000
    8        4.438608   1.000000
    9        4.440101   1.000000
   10        7.051246   1.000000
   11        7.597723   1.000000
   12        7.597723   1.000000
   13        9.770193   1.000000
   14       10.804982   0.000000
   15       11.120898   0.000000
   16       12.050406   0.000000

  0.2307692E+00  0.1538462E+00 -0.6609135E-17  0.1092399E-01
    1      -22.011762   1.000000
    2      -22.002168   1.000000
    3      -22.002049   1.000000
    4       -2.818308   1.000000
    5        2.506244   1.000000
    6        3.601001   1.000000
    7        3.637447   1.000000
    8        4.468375   1.000000
    9        4.527622   1.000000
   10        6.473454   1.000000
   11        7.407221   1.000000
   12        7.429382   1.000000
   13        9.906454   1.000000
   14       10.813330   0.000000
   15       10.952664   0.000000
   16       12.442431   0.000000

  0.3076923E+00  0.1538462E+00 -0.1534699E-17  0.1092399E-01
    1      -22.017071   1.000000
    2      -22.002058   1.000000
    3      -22.001904   1.000000
    4       -2.497160   1.000000
    5        2.310716   1.000000
    6        3.478440   1.000000
    7        3.612029   1.000000
    8        4.536954   1.000000
    9        4.605612   1.000000
   10        5.784777   1.000000
   11        7.251540   1.000000
   12        7.298427   1.000000
   13       10.095931   1.000000
   14       10.858844   0.000000
   15       11.022341   0.000000
   16       12.571364   0.000000

  0.3846154E+00  0.1538462E+00 -0.1472650E-16  0.1092399E-01
    1      -22.022043   1.000000
    2      -22.002433   1.000000
    3      -22.001388   1.000000
    4       -2.144180   1.000000
    5        2.157512   1.000000
    6        3.327070   1.000000
    7        3.556875   1.000000
    8        4.593182   1.000000
    9        4.635883   1.000000
   10        5.215181   1.000000
   11        7.094252   1.000000
   12        7.271589   1.000000
   13       10.114798   0.999999
   14       10.917888   0.000000
   15       11.479697   0.000000
   16       12.036685   0.000000

  0.4615385E+00  0.1538462E+00  0.2016569E-17  0.1092399E-01
    1      -22.025534   1.000000
    2      -22.003120   1.000000
    3      -22.000729   1.000000
    4       -1.843832   1.000000
    5        2.043945   1.000000
    6        3.219664   1.000000
    7        3.469448   1.000000
    8        4.584381   1.000000
    9        4.647405   1.000000
   10        4.876643   1.000000
   11        6.984835   1.000000
   12        7.287581   1.000000
   13       10.149866   0.468404
   14       11.113200   0.000000
   15       11.291670   0.000000
   16       12.014898   0.000000

 -0.4615385E+00  0.1538462E+00 -0.6678401E-17  0.1092399E-01
    1      -22.026844   1.000000
    2      -22.003930   1.000000
    3      -22.000079   1.000000
    4       -1.697260   1.000000
    5        1.993709   1.000000
    6        3.206998   1.000000
    7        3.352590   1.000000
    8        4.511107   1.000000
    9        4.677038   1.000000
   10        4.801294   1.000000
   11        6.909433   1.000000
   12        7.319596   1.000000
   13       10.296037   0.000000
   14       10.860296   0.000000
   15       11.308015   0.000000
   16       12.283466   0.000000

 -0.3846154E+00  0.1538462E+00  0.3151392E-16  0.1092399E-01
    1      -22.025758   1.000000
    2      -22.004602   1.000000
    3      -21.999569   1.000000
    4       -1.768440   1.000000
    5        2.046020   1.000000
    6        3.230973   1.000000
    7        3.297676   1.000000
    8        4.497993   1.000000
    9        4.720922   1.000000
   10        4.881036   1.000000
   11        6.834260   1.000000
   12        7.380369   1.000000
   13       10.396865   0.000000
   14       10.902313   0.000000
   15       11.309390   0.000000
   16       12.243740   0.000000

 -0.3076923E+00  0.1538462E+00 -0.6280293E-17  0.1092399E-01
    1      -22.022630   1.000000
    2      -22.004894   1.000000
    3      -21.999335   1.000000
    4       -2.025905   1.000000
    5        2.199910   1.000000
    6        3.137971   1.000000
    7        3.451722   1.000000
    8        4.517328   1.000000
    9        4.745795   1.000000
   10        5.140932   1.000000
   11        6.752638   1.000000
   12        7.500175   1.000000
   13       10.418221   0.000000
   14       11.126166   0.000000
   15       11.360369   0.000000
   16       12.059352   0.000000

 -0.2307692E+00  0.1538462E+00  0.1046278E-16  0.1092399E-01
    1      -22.018264   1.000000
    2      -22.004572   1.000000
    3      -21.999432   1.000000
    4       -2.372662   1.000000
    5        2.422733   1.000000
    6        3.099329   1.000000
    7        3.594824   1.000000
    8        4.510295   1.000000
    9        4.724222   1.000000
   10        5.599697   1.000000
   11        6.728379   1.000000
   12        7.686612   1.000000
   13       10.566882   0.000000
   14       10.883516   0.000000
   15       11.307574   0.000000
   16       12.158839   0.000000

 -0.1538462E+00  0.1538462E+00 -0.5882184E-17  0.5461994E-02
    1      -22.013778   1.000000
    2      -22.003544   1.000000
    3      -21.999824   1.000000
    4       -2.713912   1.000000
    5        2.686981   1.000000
    6        3.127864   1.000000
    7        3.646808   1.000000
    8        4.476935   1.000000
    9        4.654731   1.000000
   10        6.124090   1.000000
   11        6.926421   1.000000
   12        7.893944   1.000000
   13       10.684199   0.000000
   14       10.705048   0.000000
   15       10.893939   0.000000
   16       11.958808   0.000000

  0.2307692E+00  0.2307692E+00 -0.7797799E-17  0.2730997E-02
    1      -22.014090   1.000000
    2      -22.002607   1.000000
    3      -22.002607   1.000000
    4       -2.647725   1.000000
    5        2.271333   1.000000
    6        3.748331   1.000000
    7        3.748331   1.000000
    8        4.372462   1.000000
    9        4.597854   1.000000
   10        6.381028   1.000000
   11        7.194407   1.000000
   12        7.194407   1.000000
   13        9.654256   1.000000
   14       10.816961   0.000000
   15       10.983072   0.000000
   16       12.582072   0.000000

  0.3076923E+00  0.2307692E+00 -0.1201400E-16  0.1092399E-01
    1      -22.018067   1.000000
    2      -22.002969   1.000000
    3      -22.002698   1.000000
    4       -2.392961   1.000000
    5        2.115747   1.000000
    6        3.718914   1.000000
    7        3.783860   1.000000
    8        4.379360   1.000000
    9        4.682280   1.000000
   10        5.932659   1.000000
   11        6.999940   1.000000
   12        7.066280   1.000000
   13        9.735240   1.000000
   14       10.680707   0.000000
   15       11.152610   0.000000
   16       12.583980   0.000000

  0.3846154E+00  0.2307692E+00 -0.1038400E-16  0.1092399E-01
    1      -22.021876   1.000000
    2      -22.003907   1.000000
    3      -22.002400   1.000000
    4       -2.102615   1.000000
    5        2.057895   1.000000
    6        3.548548   1.000000
    7        3.753238   1.000000
    8        4.484249   1.000000
    9        4.729065   1.000000
   10        5.404471   1.000000
   11        6.770952   1.000000
   12        7.035961   1.000000
   13        9.853844   1.000000
   14       10.686264   0.000000
   15       11.577883   0.000000
   16       12.138294   0.000000

  0.4615385E+00  0.2307692E+00 -0.1697820E-16  0.1092399E-01
    1      -22.024343   1.000000
    2      -22.005507   1.000000
    3      -22.001783   1.000000
    4       -1.842739   1.000000
    5        2.095580   1.000000
    6        3.352215   1.000000
    7        3.658254   1.000000
    8        4.547479   1.000000
    9        4.750716   1.000000
   10        5.014426   1.000000
   11        6.566045   1.000000
   12        7.059134   1.000000
   13        9.906979   1.000000
   14       10.893963   0.000000
   15       11.516803   0.000000
   16       12.127788   0.000000

 -0.4615385E+00  0.2307692E+00  0.1596019E-16  0.1092399E-01
    1      -22.024957   1.000000
    2      -22.007431   1.000000
    3      -22.001003   1.000000
    4       -1.683419   1.000000
    5        2.182372   1.000000
    6        3.202419   1.000000
    7        3.509949   1.000000
    8        4.447719   1.000000
    9        4.781132   1.000000
   10        4.958892   1.000000
   11        6.410627   1.000000
   12        7.096665   1.000000
   13       10.019405   1.000000
   14       11.034818   0.000000
   15       11.236013   0.000000
   16       12.331576   0.000000

 -0.3846154E+00  0.2307692E+00  0.1125401E-16  0.1092399E-01
    1      -22.023863   1.000000
    2      -22.008963   1.000000
    3      -22.000221   1.000000
    4       -1.674122   1.000000
    5        2.222863   1.000000
    6        3.193558   1.000000
    7        3.343827   1.000000
    8        4.400922   1.000000
    9        4.816084   1.000000
   10        5.068840   1.000000
   11        6.294139   1.000000
   12        7.160824   1.000000
   13       10.233711   0.000000
   14       10.826525   0.000000
   15       11.423302   0.000000
   16       12.230886   0.000000

 -0.3076923E+00  0.2307692E+00  0.2897094E-16  0.1092399E-01
    1      -22.021877   1.000000
    2      -22.009181   1.000000
    3      -21.999616   1.000000
    4       -1.820347   1.000000
    5        2.214955   1.000000
    6        3.201473   1.000000
    7        3.341017   1.000000
    8        4.455510   1.000000
    9        4.826200   1.000000
   10        5.255466   1.000000
   11        6.217568   1.000000
   12        7.285661   1.000000
   13       10.382893   0.000000
   14       11.115694   0.000000
   15       11.313164   0.000000
   16       12.125771   0.000000

 -0.2307692E+00  0.2307692E+00  0.1165211E-16  0.5461994E-02
    1      -22.019982   1.000000
    2      -22.007493   1.000000
    3      -21.999331   1.000000
    4       -2.077673   1.000000
    5        2.266404   1.000000
    6        3.114071   1.000000
    7        3.519229   1.000000
    8        4.502474   1.000000
    9        4.793327   1.000000
   10        5.472396   1.000000
   11        6.302443   1.000000
   12        7.476840   1.000000
   13       10.494913   0.000000
   14       11.093241   0.000000
   15       11.713881   0.000000
   16       12.033726   0.000000

  0.3076923E+00  0.3076923E+00 -0.1039707E-16  0.2730997E-02
    1      -22.021072   1.000000
    2      -22.003166   1.000000
    3      -22.003166   1.000000
    4       -2.216299   1.000000
    5        2.003334   1.000000
    6        3.890246   1.000000
    7        3.890246   1.000000
    8        4.210533   1.000000
    9        4.783163   1.000000
   10        5.741214   1.000000
   11        6.902119   1.000000
   12        6.902119   1.000000
   13        9.530021   1.000000
   14       10.479660   0.000000
   15       11.239780   0.000000
   16       12.520440   0.000000

  0.3846154E+00  0.3076923E+00 -0.1169510E-16  0.1092399E-01
    1      -22.024137   1.000000
    2      -22.003868   1.000000
    3      -22.003212   1.000000
    4       -2.007162   1.000000
    5        2.007719   1.000000
    6        3.783105   1.000000
    7        3.914560   1.000000
    8        4.286308   1.000000
    9        4.852005   1.000000
   10        5.350625   1.000000
   11        6.709056   1.000000
   12        6.842168   1.000000
   13        9.568052   1.000000
   14       10.397629   0.000000
   15       11.485755   0.000000
   16       12.204985   0.000000

  0.4615385E+00  0.3076923E+00 -0.6620667E-17  0.1092399E-01
    1      -22.025756   1.000000
    2      -22.005689   1.000000
    3      -22.002823   1.000000
    4       -1.813974   1.000000
    5        2.132129   1.000000
    6        3.557849   1.000000
    7        3.849867   1.000000
    8        4.440793   1.000000
    9        4.879324   1.000000
   10        4.980722   1.000000
   11        6.409239   1.000000
   12        6.854754   1.000000
   13        9.650577   1.000000
   14       10.547429   0.000000
   15       11.654722   0.000000
   16       12.100877   0.000000

 -0.4615385E+00  0.3076923E+00  0.4501630E-18  0.1092399E-01
    1      -22.025316   1.000000
    2      -22.008489   1.000000
    3      -22.002083   1.000000
    4       -1.679369   1.000000
    5        2.330601   1.000000
    6        3.329393   1.000000
    7        3.704001   1.000000
    8        4.353149   1.000000
    9        4.896821   1.000000
   10        4.978835   1.000000
   11        6.112239   1.000000
   12        6.890907   1.000000
   13        9.751609   1.000000
   14       10.958553   0.000000
   15       11.227039   0.000000
   16       12.016707   0.000000

 -0.3846154E+00  0.3076923E+00  0.1341721E-16  0.1092399E-01
    1      -22.023175   1.000000
    2      -22.011408   1.000000
    3      -22.001160   1.000000
    4       -1.630170   1.000000
    5        2.465588   1.000000
    6        3.139457   1.000000
    7        3.516025   1.000000
    8        4.267519   1.000000
    9        4.906103   1.000000
   10        5.216417   1.000000
   11        5.878229   1.000000
   12        6.957348   1.000000
   13        9.943113   1.000000
   14       10.925093   0.000000
   15       11.473465   0.000000
   16       11.974925   0.000000

 -0.3076923E+00  0.3076923E+00 -0.1176437E-16  0.5461994E-02
    1      -22.021334   1.000000
    2      -22.012256   1.000000
    3      -22.000268   1.000000
    4       -1.678481   1.000000
    5        2.363030   1.000000
    6        3.176912   1.000000
    7        3.335571   1.000000
    8        4.343806   1.000000
    9        4.884857   1.000000
   10        5.370606   1.000000
   11        5.850764   1.000000
   12        7.088401   1.000000
   13       10.206324   0.000000
   14       10.866165   0.000000
   15       11.493431   0.000000
   16       11.962221   0.000000

  0.3846154E+00  0.3846154E+00 -0.1299633E-16  0.2730997E-02
    1      -22.026991   1.000000
    2      -22.003643   1.000000
    3      -22.003643   1.000000
    4       -1.886047   1.000000
    5        2.057941   1.000000
    6        4.003578   1.000000
    7        4.003578   1.000000
    8        4.052817   1.000000
    9        4.952870   1.000000
   10        5.049974   1.000000
   11        6.740656   1.000000
   12        6.740656   1.000000
   13        9.428215   1.000000
   14       10.185295   0.000000
   15       11.394378   0.000000
   16       12.125200   0.000000

  0.4615385E+00  0.3846154E+00 -0.1173765E-16  0.1092399E-01
    1      -22.028540   1.000000
    2      -22.004516   1.000000
    3      -22.003593   1.000000
    4       -1.770556   1.000000
    5        2.207880   1.000000
    6        3.787931   1.000000
    7        3.998101   1.000000
    8        4.257784   1.000000
    9        4.707547   1.000000
   10        4.995355   1.000000
   11        6.566838   1.000000
   12        6.725536   1.000000
   13        9.451751   1.000000
   14       10.193160   0.000000
   15       11.527929   0.000000
   16       11.910439   0.000000

 -0.4615385E+00  0.3846154E+00 -0.1980976E-16  0.1092399E-01
    1      -22.027950   1.000000
    2      -22.006762   1.000000
    3      -22.003064   1.000000
    4       -1.683366   1.000000
    5        2.401048   1.000000
    6        3.568802   1.000000
    7        3.892326   1.000000
    8        4.242510   1.000000
    9        4.710728   1.000000
   10        4.996220   1.000000
   11        6.235280   1.000000
   12        6.752093   1.000000
   13        9.542279   1.000000
   14       10.496034   0.000000
   15       11.403367   0.000000
   16       11.830643   0.000000

 -0.3846154E+00  0.3846154E+00  0.5769930E-17  0.5461994E-02
    1      -22.025494   1.000000
    2      -22.009754   1.000000
    3      -22.002179   1.000000
    4       -1.635024   1.000000
    5        2.534198   1.000000
    6        3.306641   1.000000
    7        3.714567   1.000000
    8        4.169219   1.000000
    9        4.968586   1.000000
   10        5.025169   1.000000
   11        5.919346   1.000000
   12        6.819527   1.000000
   13        9.699239   1.000000
   14       11.046694   0.000000
   15       11.125019   0.000000
   16       11.748876   0.000000

  0.4615385E+00  0.4615385E+00 -0.1559560E-16  0.2730997E-02
    1      -22.030383   1.000000
    2      -22.003917   1.000000
    3      -22.003917   1.000000
    4       -1.728516   1.000000
    5        2.318125   1.000000
    6        4.017229   1.000000
    7        4.063901   1.000000
    8        4.063901   1.000000
    9        4.408853   1.000000
   10        5.056741   1.000000
   11        6.680872   1.000000
   12        6.680872   1.000000
   13        9.369720   1.000000
   14       10.011573   1.000000
   15       11.328520   0.000000
   16       11.837436   0.000000

 -0.4615385E+00  0.4615385E+00 -0.1764655E-16  0.5461994E-02
    1      -22.030146   1.000000
    2      -22.004743   1.000000
    3      -22.003724   1.000000
    4       -1.698652   1.000000
    5        2.398886   1.000000
    6        3.824158   1.000000
    7        4.025535   1.000000
    8        4.197630   1.000000
    9        4.380036   1.000000
   10        5.053804   1.000000
   11        6.529214   1.000000
   12        6.690384   1.000000
   13        9.410768   1.000000
   14       10.120226   0.999980
   15       11.436844   0.000000
   16       11.792918   0.000000

  0.2307692E+00  0.1538462E+00  0.7692308E-01  0.1092399E-01
    1      -22.009815   1.000000
    2      -22.002478   1.000000
    3      -22.000947   1.000000
    4       -2.962611   1.000000
    5        2.767816   1.000000
    6        3.400014   1.000000
    7        3.625371   1.000000
    8        4.449718   1.000000
    9        4.533991   1.000000
   10        6.643314   1.000000
   11        7.346210   1.000000
   12        7.866581   1.000000
   13       10.133333   0.988051
   14       10.649135   0.000000
   15       11.015108   0.000000
   16       11.978108   0.000000

  0.3076923E+00  0.1538462E+00  0.7692308E-01  0.2184797E-01
    1      -22.014794   1.000000
    2      -22.002990   1.000000
    3      -22.000404   1.000000
    4       -2.657289   1.000000
    5        2.531139   1.000000
    6        3.293377   1.000000
    7        3.623645   1.000000
    8        4.505154   1.000000