 vasp.6.0.8 29Jun18 (build Jun 13 2019 12:54:44) complex

 executed on      IFC18_CrayMPICH date 2021.12.05  14:21:51
 running   64 mpi-ranks, with    1 threads/rank
 distrk:  each k-point on   16 cores,    4 groups
 distr:  one band on NCORES_PER_BAND=   4 cores,    4 groups


--------------------------------------------------------------------------------------------------------


 INCAR:
 POTCAR:    PAW_PBE Hf_pv 06Sep2000
 POTCAR:    PAW_PBE Sb 06Sep2000
 POTCAR:    PAW_PBE Pt 04Feb2005
 POTCAR:    PAW_PBE Hf_pv 06Sep2000
   VRHFIN =Hf: 5p6s5d
   LEXCH  = PE
   EATOM  =   860.9206 eV,   63.2759 Ry

   TITEL  = PAW_PBE Hf_pv 06Sep2000
   LULTRA =        F    use ultrasoft PP ?
   IUNSCR =        1    unscreen: 0-lin 1-nonlin 2-no
   RPACOR =    2.500    partial core radius
   POMASS =  178.490; ZVAL   =   10.000    mass and valenz
   RCORE  =    2.600    outmost cutoff radius
   RWIGS  =    3.050; RWIGS  =    1.614    wigner-seitz radius (au A)
   ENMAX  =  220.334; ENMIN  =  165.250 eV
   RCLOC  =    2.212    cutoff for local pot
   LCOR   =        T    correct aug charges
   LPAW   =        T    paw PP
   EAUG   =  380.878
   DEXC   =    0.000
   RMAX   =    2.665    core radius for proj-oper
   RAUG   =    1.300    factor for augmentation sphere
   RDEP   =    2.681    radius for radial grids
   RDEPT  =    2.139    core radius for aug-charge

   Atomic configuration
   15 entries
     n  l   j            E        occ.
     1  0  0.50    -65259.4397   2.0000
     2  0  0.50    -11157.9884   2.0000
     2  1  1.50     -9795.2114   6.0000
     3  0  0.50     -2541.4060   2.0000
     3  1  1.50     -2134.4772   6.0000
     3  2  2.50     -1653.5420  10.0000
     4  0  0.50      -510.9577   2.0000
     4  1  1.50      -377.5024   6.0000
     4  2  2.50      -205.2086  10.0000
     4  3  3.50       -15.4906  14.0000
     5  0  0.50       -65.6020   2.0000
     5  1  1.50       -34.2798   6.0000
     5  2  2.50        -1.9877   3.0000
     6  0  0.50        -4.7357   1.0000
     5  3  2.50        -1.3606   0.0000
   Description
     l       E           TYP  RCUT    TYP  RCUT
     1    -34.2797769     23  2.500
     1    -35.6403595     23  2.500
     2     -1.9876655     23  2.500
     2      0.0744675     23  2.500
     0     -4.7356889     23  2.600
     0      3.2364748     23  2.600
  local pseudopotential read in
  partial core-charges read in
  partial kinetic energy density read in
  atomic valenz-charges read in
  non local Contribution for L=           1  read in
    real space projection operators read in
  non local Contribution for L=           1  read in
    real space projection operators read in
  non local Contribution for L=           2  read in
    real space projection operators read in
  non local Contribution for L=           2  read in
    real space projection operators read in
  non local Contribution for L=           0  read in
    real space projection operators read in
  non local Contribution for L=           0  read in
    real space projection operators read in
    PAW grid and wavefunctions read in

   number of l-projection  operators is LMAX  =           6
   number of lm-projection operators is LMMAX =          18

 POTCAR:    PAW_PBE Sb 06Sep2000
   VRHFIN =Sb: s2p3
   LEXCH  = PE
   EATOM  =   149.9515 eV,   11.0211 Ry

   TITEL  = PAW_PBE Sb 06Sep2000
   LULTRA =        F    use ultrasoft PP ?
   IUNSCR =        1    unscreen: 0-lin 1-nonlin 2-no
   RPACOR =    2.200    partial core radius
   POMASS =  121.750; ZVAL   =    5.000    mass and valenz
   RCORE  =    2.300    outmost cutoff radius
   RWIGS  =    2.980; RWIGS  =    1.577    wigner-seitz radius (au A)
   ENMAX  =  172.069; ENMIN  =  129.052 eV
   ICORE  =        3    local potential
   LCOR   =        T    correct aug charges
   LPAW   =        T    paw PP
   EAUG   =  380.513
   DEXC   =    0.000
   RMAX   =    2.346    core radius for proj-oper
   RAUG   =    1.300    factor for augmentation sphere
   RDEP   =    2.360    radius for radial grids
   RDEPT  =    2.192    core radius for aug-charge

   Atomic configuration
   13 entries
     n  l   j            E        occ.
     1  0  0.50    -30298.2797   2.0000
     2  0  0.50     -4610.2252   2.0000
     2  1  1.50     -4138.3407   6.0000
     3  0  0.50      -903.8815   2.0000
     3  1  1.50      -750.1337   6.0000
     3  2  2.50      -515.7092  10.0000
     4  0  0.50      -148.8034   2.0000
     4  1  1.50      -101.7581   6.0000
     4  2  2.50       -33.5048  10.0000
     5  0  0.50       -12.8298   2.0000
     5  1  0.50        -4.8276   3.0000
     5  2  1.50        -4.0817   0.0000
     4  3  2.50        -4.0817   0.0000
   Description
     l       E           TYP  RCUT    TYP  RCUT
     0    -12.8297861     23  2.300
     0     13.6058260     23  2.300
     1     -4.8275512     23  2.300
     1     -0.7245443     23  2.300
     2     -4.0817478     23  2.300
     3     -1.3605826     23  2.300
  local pseudopotential read in
  partial core-charges read in
  partial kinetic energy density read in
  atomic valenz-charges read in
  non local Contribution for L=           0  read in
    real space projection operators read in
  non local Contribution for L=           0  read in
    real space projection operators read in
  non local Contribution for L=           1  read in
    real space projection operators read in
  non local Contribution for L=           1  read in
    real space projection operators read in
  non local Contribution for L=           2  read in
    real space projection operators read in
    PAW grid and wavefunctions read in

   number of l-projection  operators is LMAX  =           5
   number of lm-projection operators is LMMAX =          13

 POTCAR:    PAW_PBE Pt 04Feb2005
   VRHFIN =Pt: s1d9
   LEXCH  = PE
   EATOM  =   729.1176 eV,   53.5886 Ry

   TITEL  = PAW_PBE Pt 04Feb2005
   LULTRA =        F    use ultrasoft PP ?
   IUNSCR =        1    unscreen: 0-lin 1-nonlin 2-no
   RPACOR =    2.330    partial core radius
   POMASS =  195.080; ZVAL   =   10.000    mass and valenz
   RCORE  =    2.600    outmost cutoff radius
   RWIGS  =    2.750; RWIGS  =    1.455    wigner-seitz radius (au A)
   ENMAX  =  230.283; ENMIN  =  172.712 eV
   ICORE  =        3    local potential
   LCOR   =        T    correct aug charges
   LPAW   =        T    paw PP
   EAUG   =  358.966
   DEXC   =    0.000
   RMAX   =    2.658    core radius for proj-oper
   RAUG   =    1.300    factor for augmentation sphere
   RDEP   =    2.761    radius for radial grids
   RDEPT  =    2.203    core radius for aug-charge

   Atomic configuration
   16 entries
     n  l   j            E        occ.
     1  0  0.50    -78401.1885   2.0000
     2  0  0.50    -13770.7750   2.0000
     2  1  1.50    -11931.0468   6.0000
     3  0  0.50     -3234.7234   2.0000
     3  1  1.50     -2699.2216   6.0000
     3  2  2.50     -2119.5714  10.0000
     4  0  0.50      -695.1528   2.0000
     4  1  1.50      -519.6034   6.0000
     4  2  2.50      -306.6786  10.0000
     4  3  3.50       -70.1041  14.0000
     5  0  0.50      -101.7747   2.0000
     5  1  1.50       -55.9873   6.0000
     5  2  2.50        -6.1423   9.0000
     6  0  0.50        -5.6573   1.0000
     6  1  1.50        -6.8029   0.0000
     5  3  2.50        -1.3606   0.0000
   Description
     l       E           TYP  RCUT    TYP  RCUT
     2     -6.1423404     23  2.500
     2     -7.5029230     23  2.500
     0     -5.6573207     23  2.500
     0      0.7416693     23  2.500
     1     -2.7211652     23  2.600
     1     20.4087390     23  2.600
     3     -1.3605826     23  2.500
  local pseudopotential read in
  partial core-charges read in
  partial kinetic energy density read in
  atomic valenz-charges read in
  non local Contribution for L=           2  read in
    real space projection operators read in
  non local Contribution for L=           2  read in
    real space projection operators read in
  non local Contribution for L=           0  read in
    real space projection operators read in
  non local Contribution for L=           0  read in
    real space projection operators read in
  non local Contribution for L=           1  read in
    real space projection operators read in
  non local Contribution for L=           1  read in
    real space projection operators read in
    PAW grid and wavefunctions read in

   number of l-projection  operators is LMAX  =           6
   number of lm-projection operators is LMMAX =          18


 -----------------------------------------------------------------------------
|                                                                             |
|  ADVICE TO THIS USER RUNNING 'VASP/VAMP'   (HEAR YOUR MASTER'S VOICE ...):  |
|                                                                             |
|      You enforced a specific xc-type in the INCAR file,                     |
|      a different type was found on the POTCAR file                          |
|          I HOPE YOU KNOW, WHAT YOU ARE  DOING                               |
|                                                                             |
 -----------------------------------------------------------------------------

  PAW_PBE Hf_pv 06Sep2000               :
 energy of atom  1       EATOM= -860.9206
 kinetic energy error for atom=    0.0004 (will be added to EATOM!!)
  PAW_PBE Sb 06Sep2000                  :
 energy of atom  2       EATOM= -149.9515
 kinetic energy error for atom=    0.0002 (will be added to EATOM!!)
  PAW_PBE Pt 04Feb2005                  :
 energy of atom  3       EATOM= -729.1176
 kinetic energy error for atom=    0.0010 (will be added to EATOM!!)


 POSCAR: Hf1 Sb1 Pt1
  positions in direct lattice
  No initial velocities read in
 exchange correlation table for  LEXCH =       14
   RHO(1)=    0.500       N(1)  =     2000
   RHO(2)=  100.500       N(2)  =     4000



--------------------------------------------------------------------------------------------------------


 ion  position               nearest neighbor table
   1  0.750  0.750  0.750-   3 2.68   3 2.68   3 2.68   3 2.68   2 3.09   2 3.09   2 3.09   2 3.09
                             2 3.09   2 3.09
   2  0.250  0.250  0.250-   3 2.68   3 2.68   3 2.68   3 2.68   1 3.09   1 3.09   1 3.09   1 3.09
                             1 3.09   1 3.09
   3  0.000  0.000  0.000-   1 2.68   1 2.68   1 2.68   1 2.68   2 2.68   2 2.68   2 2.68   2 2.68


  LATTYP: Found a face centered cubic cell.
 ALAT       =     6.1823270099

  Lattice vectors:

 A1 = (   0.0000000000,   3.0911635050,   3.0911635050)
 A2 = (   3.0911635050,   0.0000000000,   3.0911635050)
 A3 = (   3.0911635050,   3.0911635050,   0.0000000000)


Analysis of symmetry for initial positions (statically):
=====================================================================
 Subroutine PRICEL returns:
 Original cell was already a primitive cell.


 Routine SETGRP: Setting up the symmetry group for a
 face centered cubic supercell.


 Subroutine GETGRP returns: Found 24 space group operations
 (whereof 24 operations were pure point group operations)
 out of a pool of 48 trial point group operations.


The static configuration has the point symmetry T_d .


Analysis of symmetry for dynamics (positions and initial velocities):
=====================================================================
 Subroutine PRICEL returns:
 Original cell was already a primitive cell.


 Routine SETGRP: Setting up the symmetry group for a
 face centered cubic supercell.


 Subroutine GETGRP returns: Found 24 space group operations
 (whereof 24 operations were pure point group operations)
 out of a pool of 48 trial point group operations.


The dynamic configuration has the point symmetry T_d .


 Subroutine INISYM returns: Found 24 space group operations
 (whereof 24 operations are pure point group operations),
 and found     1 'primitive' translations


----------------------------------------------------------------------------------------

                                     Primitive cell

  volume of cell :      59.0739

  direct lattice vectors                    reciprocal lattice vectors
     0.000000000  3.091163505  3.091163505    -0.161751392  0.161751392  0.161751392
     3.091163505  0.000000000  3.091163505     0.161751392 -0.161751392  0.161751392
     3.091163505  3.091163505  0.000000000     0.161751392  0.161751392 -0.161751392

  length of vectors
     4.371565352  4.371565352  4.371565352     0.280161629  0.280161629  0.280161629

  position of ions in fractional coordinates (direct lattice)
     0.750000000  0.750000000  0.750000000
     0.250000000  0.250000000  0.250000000
     0.000000000  0.000000000  0.000000000

  ion indices of the primitive-cell ions
   primitive index   ion index
                 1           1
                 2           2
                 3           3

----------------------------------------------------------------------------------------



 KPOINTS: KPOINTS

Automatic generation of k-mesh.
Space group operators:
 irot       det(A)        alpha          n_x          n_y          n_z        tau_x        tau_y        tau_z
    1     1.000000     0.000000     1.000000     0.000000     0.000000     0.000000     0.000000     0.000000
    2     1.000000   120.000000    -0.577350    -0.577350    -0.577350     0.000000     0.000000     0.000000
    3     1.000000   120.000000     0.577350     0.577350     0.577350     0.000000     0.000000     0.000000
    4    -1.000000    90.000000    -0.000000    -0.000000    -1.000000     0.000000     0.000000     0.000000
    5    -1.000000   180.000000    -0.000000     0.707107     0.707107     0.000000     0.000000     0.000000
    6    -1.000000    90.000000    -0.000000     1.000000    -0.000000     0.000000     0.000000     0.000000
    7     1.000000   180.000000     0.000000     0.000000     1.000000     0.000000     0.000000     0.000000
    8     1.000000   120.000000    -0.577350     0.577350     0.577350     0.000000     0.000000     0.000000
    9     1.000000   120.000000    -0.577350     0.577350    -0.577350     0.000000     0.000000     0.000000
   10    -1.000000    90.000000     0.000000     0.000000     1.000000     0.000000     0.000000     0.000000
   11    -1.000000    90.000000    -1.000000     0.000000     0.000000     0.000000     0.000000     0.000000
   12    -1.000000   180.000000     0.707107     0.000000     0.707107     0.000000     0.000000     0.000000
   13     1.000000   120.000000     0.577350    -0.577350     0.577350     0.000000     0.000000     0.000000
   14     1.000000   120.000000    -0.577350    -0.577350     0.577350     0.000000     0.000000     0.000000
   15     1.000000   180.000000     1.000000     0.000000     0.000000     0.000000     0.000000     0.000000
   16    -1.000000    90.000000     0.000000    -1.000000     0.000000     0.000000     0.000000     0.000000
   17    -1.000000   180.000000     0.707107     0.707107    -0.000000     0.000000     0.000000     0.000000
   18    -1.000000    90.000000     1.000000     0.000000     0.000000     0.000000     0.000000     0.000000
   19     1.000000   120.000000     0.577350    -0.577350    -0.577350     0.000000     0.000000     0.000000
   20     1.000000   180.000000    -0.000000    -1.000000     0.000000     0.000000     0.000000     0.000000
   21     1.000000   120.000000     0.577350     0.577350    -0.577350     0.000000     0.000000     0.000000
   22    -1.000000   180.000000    -0.000000    -0.707107     0.707107     0.000000     0.000000     0.000000
   23    -1.000000   180.000000     0.707107    -0.707107     0.000000     0.000000     0.000000     0.000000
   24    -1.000000   180.000000     0.707107     0.000000    -0.707107     0.000000     0.000000     0.000000

 Subroutine IBZKPT returns following result:
 ===========================================

 Found     84 irreducible k-points:

 Following reciprocal coordinates:
            Coordinates               Weight
  0.000000  0.000000  0.000000      1.000000
  0.076923  0.000000 -0.000000      8.000000
  0.153846 -0.000000  0.000000      8.000000
  0.230769  0.000000 -0.000000      8.000000
  0.307692 -0.000000  0.000000      8.000000
  0.384615  0.000000 -0.000000      8.000000
  0.461538 -0.000000  0.000000      8.000000
  0.076923  0.076923 -0.000000      6.000000
  0.153846  0.076923 -0.000000     24.000000
  0.230769  0.076923 -0.000000     24.000000
  0.307692  0.076923 -0.000000     24.000000
  0.384615  0.076923 -0.000000     24.000000
  0.461538  0.076923  0.000000     24.000000
 -0.461538  0.076923  0.000000     24.000000
 -0.384615  0.076923  0.000000     24.000000
 -0.307692  0.076923  0.000000     24.000000
 -0.230769  0.076923  0.000000     24.000000
 -0.153846  0.076923  0.000000     24.000000
 -0.076923  0.076923  0.000000     12.000000
  0.153846  0.153846 -0.000000      6.000000
  0.230769  0.153846 -0.000000     24.000000
  0.307692  0.153846 -0.000000     24.000000
  0.384615  0.153846 -0.000000     24.000000
  0.461538  0.153846  0.000000     24.000000
 -0.461538  0.153846 -0.000000     24.000000
 -0.384615  0.153846  0.000000     24.000000
 -0.307692  0.153846 -0.000000     24.000000
 -0.230769  0.153846  0.000000     24.000000
 -0.153846  0.153846 -0.000000     12.000000
  0.230769  0.230769 -0.000000      6.000000
  0.307692  0.230769 -0.000000     24.000000
  0.384615  0.230769 -0.000000     24.000000
  0.461538  0.230769 -0.000000     24.000000
 -0.461538  0.230769  0.000000     24.000000
 -0.384615  0.230769  0.000000     24.000000
 -0.307692  0.230769  0.000000     24.000000
 -0.230769  0.230769  0.000000     12.000000
  0.307692  0.307692 -0.000000      6.000000
  0.384615  0.307692 -0.000000     24.000000
  0.461538  0.307692 -0.000000     24.000000
 -0.461538  0.307692  0.000000     24.000000
 -0.384615  0.307692  0.000000     24.000000
 -0.307692  0.307692 -0.000000     12.000000
  0.384615  0.384615 -0.000000      6.000000
  0.461538  0.384615 -0.000000     24.000000
 -0.461538  0.384615 -0.000000     24.000000
 -0.384615  0.384615  0.000000     12.000000
  0.461538  0.461538 -0.000000      6.000000
 -0.461538  0.461538 -0.000000     12.000000
  0.230769  0.153846  0.076923     24.000000
  0.307692  0.153846  0.076923     48.000000
  0.384615  0.153846  0.076923     48.000000
  0.461538  0.153846  0.076923     48.000000
 -0.461538  0.153846  0.076923     48.000000
  0.307692  0.230769  0.076923     24.000000
  0.384615  0.230769  0.076923     48.000000
  0.461538  0.230769  0.076923     48.000000
 -0.461538  0.230769  0.076923     48.000000
 -0.384615  0.230769  0.076923     48.000000
 -0.307692  0.230769  0.076923     48.000000
 -0.230769  0.230769  0.076923     48.000000
 -0.153846  0.230769  0.076923     24.000000
  0.384615  0.307692  0.076923     24.000000
  0.461538  0.307692  0.076923     48.000000
 -0.461538  0.307692  0.076923     48.000000
 -0.384615  0.307692  0.076923     48.000000
 -0.307692  0.307692  0.076923     48.000000
 -0.230769  0.307692  0.076923     24.000000
  0.461538  0.384615  0.076923     24.000000
 -0.461538  0.384615  0.076923     48.000000
 -0.384615  0.384615  0.076923     48.000000
 -0.307692  0.384615  0.076923     24.000000
 -0.461538  0.461538  0.076923     24.000000
 -0.384615  0.461538  0.076923     24.000000
  0.461538  0.307692  0.153846     24.000000
 -0.461538  0.307692  0.153846     48.000000
 -0.384615  0.307692  0.153846     48.000000
 -0.461538  0.384615  0.153846     24.000000
 -0.384615  0.384615  0.153846     48.000000
 -0.307692  0.384615  0.153846     48.000000
 -0.230769  0.384615  0.153846     24.000000
 -0.384615  0.461538  0.153846     24.000000
 -0.307692  0.461538  0.153846     24.000000
 -0.307692  0.461538  0.230769     24.000000

 Following cartesian coordinates:
            Coordinates               Weight
  0.000000  0.000000  0.000000      1.000000
 -0.012101  0.012101  0.012101      8.000000
 -0.024203  0.024203  0.024203      8.000000
 -0.036304  0.036304  0.036304      8.000000
 -0.048405  0.048405  0.048405      8.000000
 -0.060507  0.060507  0.060507      8.000000
 -0.072608  0.072608  0.072608      8.000000
  0.000000 -0.000000  0.024203      6.000000
 -0.012101  0.012101  0.036304     24.000000
 -0.024203  0.024203  0.048405     24.000000
 -0.036304  0.036304  0.060507     24.000000
 -0.048405  0.048405  0.072608     24.000000
 -0.060507  0.060507  0.084709     24.000000
  0.084709 -0.084709 -0.060507     24.000000
  0.072608 -0.072608 -0.048405     24.000000
  0.060507 -0.060507 -0.036304     24.000000
  0.048405 -0.048405 -0.024203     24.000000
  0.036304 -0.036304 -0.012101     24.000000
  0.024203 -0.024203 -0.000000     12.000000
 -0.000000 -0.000000  0.048405      6.000000
 -0.012101  0.012101  0.060507     24.000000
 -0.024203  0.024203  0.072608     24.000000
 -0.036304  0.036304  0.084709     24.000000
 -0.048405  0.048405  0.096811     24.000000
  0.096811 -0.096811 -0.048405     24.000000
  0.084709 -0.084709 -0.036304     24.000000
  0.072608 -0.072608 -0.024203     24.000000
  0.060507 -0.060507 -0.012101     24.000000
  0.048405 -0.048405 -0.000000     12.000000
  0.000000 -0.000000  0.072608      6.000000
 -0.012101  0.012101  0.084709     24.000000
 -0.024203  0.024203  0.096811     24.000000
 -0.036304  0.036304  0.108912     24.000000
  0.108912 -0.108912 -0.036304     24.000000
  0.096811 -0.096811 -0.024203     24.000000
  0.084709 -0.084709 -0.012101     24.000000
  0.072608 -0.072608 -0.000000     12.000000
 -0.000000 -0.000000  0.096811      6.000000
 -0.012101  0.012101  0.108912     24.000000
 -0.024203  0.024203  0.121014     24.000000
  0.121014 -0.121014 -0.024203     24.000000
  0.108912 -0.108912 -0.012101     24.000000
  0.096811 -0.096811 -0.000000     12.000000
 -0.000000 -0.000000  0.121014      6.000000
 -0.012101  0.012101  0.133115     24.000000
  0.133115 -0.133115 -0.012101     24.000000
  0.121014 -0.121014 -0.000000     12.000000
 -0.000000  0.000000  0.145216      6.000000
  0.145216 -0.145216 -0.000000     12.000000
 -0.000000  0.024203  0.048405     24.000000
 -0.012101  0.036304  0.060507     48.000000
 -0.024203  0.048405  0.072608     48.000000
 -0.036304  0.060507  0.084709     48.000000
  0.108912 -0.084709 -0.060507     48.000000
  0.000000  0.024203  0.072608     24.000000
 -0.012101  0.036304  0.084709     48.000000
 -0.024203  0.048405  0.096811     48.000000
  0.121014 -0.096811 -0.048405     48.000000
  0.108912 -0.084709 -0.036304     48.000000
  0.096811 -0.072608 -0.024203     48.000000
  0.084709 -0.060507 -0.012101     48.000000
  0.072608 -0.048405 -0.000000     24.000000
  0.000000  0.024203  0.096811     24.000000
 -0.012101  0.036304  0.108912     48.000000
  0.133115 -0.108912 -0.036304     48.000000
  0.121014 -0.096811 -0.024203     48.000000
  0.108912 -0.084709 -0.012101     48.000000
  0.096811 -0.072608 -0.000000     24.000000
  0.000000  0.024203  0.121014     24.000000
  0.145216 -0.121014 -0.024203     48.000000
  0.133115 -0.108912 -0.012101     48.000000
  0.121014 -0.096811  0.000000     24.000000
  0.157318 -0.133115 -0.012101     24.000000
  0.145216 -0.121014 -0.000000     24.000000
  0.000000  0.048405  0.096811     24.000000
  0.145216 -0.096811 -0.048405     48.000000
  0.133115 -0.084709 -0.036304     48.000000
  0.157318 -0.108912 -0.036304     24.000000
  0.145216 -0.096811 -0.024203     48.000000
  0.133115 -0.084709 -0.012101     48.000000
  0.121014 -0.072608 -0.000000     24.000000
  0.157318 -0.108912 -0.012101     24.000000
  0.145216 -0.096811 -0.000000     24.000000
  0.157318 -0.084709 -0.012101     24.000000



--------------------------------------------------------------------------------------------------------




 Dimension of arrays:
   k-points           NKPTS =     84   k-points in BZ     NKDIM =     84   number of bands    NBANDS=     16
   number of dos      NEDOS =    301   number of ions     NIONS =      3
   non local maximal  LDIM  =      6   non local SUM 2l+1 LMDIM =     18
   total plane-waves  NPLWV =  64000
   max r-space proj   IRMAX =      1   max aug-charges    IRDMAX= 525082
   dimension x,y,z NGX =    40 NGY =   40 NGZ =   40
   dimension x,y,z NGXF=    80 NGYF=   80 NGZF=   80
   support grid    NGXF=   160 NGYF=  160 NGZF=  160
   ions per type =               1   1   1
   NGX,Y,Z   is equivalent  to a cutoff of  15.21, 15.21, 15.21 a.u.
   NGXF,Y,Z  is equivalent  to a cutoff of  30.42, 30.42, 30.42 a.u.

 SYSTEM =  unknown system
 POSCAR =  Hf1 Sb1 Pt1

 Startparameter for this run:
   NWRITE =      2    write-flag & timer
   PREC   = acc       normal or accurate (medium, high low for compatibility)
   ISTART =      0    job   : 0-new  1-cont  2-samecut
   ICHARG =      2    charge: 1-file 2-atom 10-const
   ISPIN  =      1    spin polarized calculation?
   LNONCOLLINEAR =      F non collinear calculations
   LSORBIT =      F    spin-orbit coupling
   INIWAV =      1    electr: 0-lowe 1-rand  2-diag
   LASPH  =      F    aspherical Exc in radial PAW
   METAGGA=      F    non-selfconsistent MetaGGA calc.

 Electronic Relaxation 1
   ENCUT  =  700.0 eV  51.45 Ry    7.17 a.u.   9.43  9.43  9.43*2*pi/ulx,y,z
   ENINI  =  700.0     initial cutoff
   ENAUG  =  380.9 eV  augmentation charge cutoff
   NELM   =     60;   NELMIN=  5; NELMDL= -5     # of ELM steps
   EDIFF  = 0.1E-06   stopping-criterion for ELM
   LREAL  =      F    real-space projection
   NLSPLINE    = F    spline interpolate recip. space projectors
   LCOMPAT=      F    compatible to vasp.4.4
   GGA_COMPAT  = T    GGA compatible to vasp.4.4-vasp.4.6
   LMAXPAW     = -100 max onsite density
   LMAXMIX     =    2 max onsite mixed and CHGCAR
   VOSKOWN=      0    Vosko Wilk Nusair interpolation
   ROPT   =    0.00000   0.00000   0.00000
 Ionic relaxation
   EDIFFG = 0.1E-05   stopping-criterion for IOM
   NSW    =      0    number of steps for IOM
   NBLOCK =      1;   KBLOCK =      1    inner block; outer block
   IBRION =     -1    ionic relax: 0-MD 1-quasi-New 2-CG
   NFREE  =      0    steps in history (QN), initial steepest desc. (CG)
   ISIF   =      3    stress and relaxation
   IWAVPR =     10    prediction:  0-non 1-charg 2-wave 3-comb
   ISYM   =      2    0-nonsym 1-usesym 2-fastsym
   LCORR  =      T    Harris-Foulkes like correction to forces

   POTIM  = 0.5000    time-step for ionic-motion
   TEIN   =    0.0    initial temperature
   TEBEG  =    0.0;   TEEND  =   0.0 temperature during run
   SMASS  =  -3.00    Nose mass-parameter (am)
   estimated Nose-frequenzy (Omega)   =  0.10E-29 period in steps = 0.13E+47 mass=  -0.437E-27a.u.
   SCALEE = 1.0000    scale energy and forces
   NPACO  =    256;   APACO  = 16.0  distance and # of slots for P.C.
   PSTRESS=    0.0 pullay stress

  Mass of Ions in am
   POMASS = 178.49121.75195.08
  Ionic Valenz
   ZVAL   =  10.00  5.00 10.00
  Atomic Wigner-Seitz radii
   RWIGS  =  -1.00 -1.00 -1.00
  virtual crystal weights
   VCA    =   1.00  1.00  1.00
   NELECT =      25.0000    total number of electrons
   NUPDOWN=      -1.0000    fix difference up-down

 DOS related values:
   EMIN   =  10.00;   EMAX   =-10.00  energy-range for DOS
   EFERMI =   0.00
   ISMEAR =     0;   SIGMA  =   0.01  broadening in eV -4-tet -1-fermi 0-gaus

 Electronic relaxation 2 (details)
   IALGO  =     38    algorithm
   LDIAG  =      T    sub-space diagonalisation (order eigenvalues)
   LSUBROT=      F    optimize rotation matrix (better conditioning)
   TURBO    =      0    0=normal 1=particle mesh
   IRESTART =      0    0=no restart 2=restart with 2 vectors
   NREBOOT  =      0    no. of reboots
   NMIN     =      0    reboot dimension
   EREF     =   0.00    reference energy to select bands
   IMIX   =      4    mixing-type and parameters
     AMIX     =   0.40;   BMIX     =  1.00
     AMIX_MAG =   1.60;   BMIX_MAG =  1.00
     AMIN     =   0.10
     WC   =   100.;   INIMIX=   1;  MIXPRE=   1;  MAXMIX= -45

 Intra band minimization:
   WEIMIN = 0.0000     energy-eigenvalue tresh-hold
   EBREAK =  0.16E-08  absolut break condition
   DEPER  =   0.30     relativ break condition

   TIME   =   0.40     timestep for ELM

  volume/ion in A,a.u.               =      19.69       132.88
  Fermi-wavevector in a.u.,A,eV,Ry     =   1.229107  2.322675 20.554360  1.510703
  Thomas-Fermi vector in A             =   2.364006

 Write flags
   LWAVE        =      F    write WAVECAR
   LDOWNSAMPLE  =      F    k-point downsampling of WAVECAR
   LCHARG       =      F    write CHGCAR
   LVTOT        =      F    write LOCPOT, total local potential
   LVHAR        =      F    write LOCPOT, Hartree potential only
   LELF         =      F    write electronic localiz. function (ELF)
   LORBIT       =      0    0 simple, 1 ext, 2 COOP (PROOUT), +10 PAW based schemes


 Dipole corrections
   LMONO  =      F    monopole corrections only (constant potential shift)
   LDIPOL =      F    correct potential (dipole corrections)
   IDIPOL =      0    1-x, 2-y, 3-z, 4-all directions
   EPSILON=  1.0000000 bulk dielectric constant

 Exchange correlation treatment:
   GGA     =    PS    GGA type
   LEXCH   =    14    internal setting for exchange type
   VOSKOWN=      0    Vosko Wilk Nusair interpolation
   LHFCALC =     F    Hartree Fock is set to
   LHFONE  =     F    Hartree Fock one center treatment
   AEXX    =    0.0000 exact exchange contribution

 Linear response parameters
   LEPSILON=     F    determine dielectric tensor
   LRPA    =     F    only Hartree local field effects (RPA)
   LNABLA  =     F    use nabla operator in PAW spheres
   LVEL    =     F    velocity operator in full k-point grid
   LINTERFAST=   F  fast interpolation
   KINTER  =     0    interpolate to denser k-point grid
   CSHIFT  =0.1000    complex shift for real part using Kramers Kronig
   OMEGAMAX=  -1.0    maximum frequency
   DEG_THRESHOLD= 0.2000000E-02 threshold for treating states as degnerate
   RTIME   =   -0.100 relaxation time in fs
  (WPLASMAI=    0.000 imaginary part of plasma frequency in eV, 0.658/RTIME)
   DFIELD  = 0.0000000 0.0000000 0.0000000 field for delta impulse in time

 Orbital magnetization related:
   ORBITALMAG=     F  switch on orbital magnetization
   LCHIMAG   =     F  perturbation theory with respect to B field
   DQ        =  0.001000  dq finite difference perturbation B field
   LLRAUG    =     F  two centre corrections for induced B field



--------------------------------------------------------------------------------------------------------


 Static calculation
 charge density and potential will be updated during run
 non-spin polarized calculation
 Variant of blocked Davidson
 Davidson routine will perform the subspace rotation
 perform sub-space diagonalisation
    after iterative eigenvector-optimisation
 modified Broyden-mixing scheme, WC =      100.0
 initial mixing is a Kerker type mixing with AMIX =  0.4000 and BMIX =      1.0000
 Hartree-type preconditioning will be used
 using additional bands            3
 reciprocal scheme for non local part
 use partial core corrections
 calculate Harris-corrections to forces
   (improved forces if not selfconsistent)
 use gradient corrections
 use of overlap-Matrix (Vanderbilt PP)
 Gauss-broadening in eV      SIGMA  =   0.01


--------------------------------------------------------------------------------------------------------


  energy-cutoff  :      700.00
  volume of cell :       59.07
      direct lattice vectors                 reciprocal lattice vectors
     0.000000000  3.091163505  3.091163505    -0.161751392  0.161751392  0.161751392
     3.091163505  0.000000000  3.091163505     0.161751392 -0.161751392  0.161751392
     3.091163505  3.091163505  0.000000000     0.161751392  0.161751392 -0.161751392

  length of vectors
     4.371565352  4.371565352  4.371565352     0.280161629  0.280161629  0.280161629



 k-points in units of 2pi/SCALE and weight: KPOINTS
   0.00000000  0.00000000  0.00000000       0.000
  -0.01210135  0.01210135  0.01210135       0.004
  -0.02420271  0.02420271  0.02420271       0.004
  -0.03630406  0.03630406  0.03630406       0.004
  -0.04840541  0.04840541  0.04840541       0.004
  -0.06050677  0.06050677  0.06050677       0.004
  -0.07260812  0.07260812  0.07260812       0.004
   0.00000000 -0.00000000  0.02420271       0.003
  -0.01210135  0.01210135  0.03630406       0.011
  -0.02420271  0.02420271  0.04840541       0.011
  -0.03630406  0.03630406  0.06050677       0.011
  -0.04840541  0.04840541  0.07260812       0.011
  -0.06050677  0.06050677  0.08470948       0.011
   0.08470948 -0.08470948 -0.06050677       0.011
   0.07260812 -0.07260812 -0.04840541       0.011
   0.06050677 -0.06050677 -0.03630406       0.011
   0.04840541 -0.04840541 -0.02420271       0.011
   0.03630406 -0.03630406 -0.01210135       0.011
   0.02420271 -0.02420271 -0.00000000       0.005
  -0.00000000 -0.00000000  0.04840541       0.003
  -0.01210135  0.01210135  0.06050677       0.011
  -0.02420271  0.02420271  0.07260812       0.011
  -0.03630406  0.03630406  0.08470948       0.011
  -0.04840541  0.04840541  0.09681083       0.011
   0.09681083 -0.09681083 -0.04840541       0.011
   0.08470948 -0.08470948 -0.03630406       0.011
   0.07260812 -0.07260812 -0.02420271       0.011
   0.06050677 -0.06050677 -0.01210135       0.011
   0.04840541 -0.04840541 -0.00000000       0.005
   0.00000000 -0.00000000  0.07260812       0.003
  -0.01210135  0.01210135  0.08470948       0.011
  -0.02420271  0.02420271  0.09681083       0.011
  -0.03630406  0.03630406  0.10891218       0.011
   0.10891218 -0.10891218 -0.03630406       0.011
   0.09681083 -0.09681083 -0.02420271       0.011
   0.08470948 -0.08470948 -0.01210135       0.011
   0.07260812 -0.07260812 -0.00000000       0.005
  -0.00000000 -0.00000000  0.09681083       0.003
  -0.01210135  0.01210135  0.10891218       0.011
  -0.02420271  0.02420271  0.12101354       0.011
   0.12101354 -0.12101354 -0.02420271       0.011
   0.10891218 -0.10891218 -0.01210135       0.011
   0.09681083 -0.09681083 -0.00000000       0.005
  -0.00000000 -0.00000000  0.12101354       0.003
  -0.01210135  0.01210135  0.13311489       0.011
   0.13311489 -0.13311489 -0.01210135       0.011
   0.12101354 -0.12101354 -0.00000000       0.005
  -0.00000000  0.00000000  0.14521624       0.003
   0.14521624 -0.14521624 -0.00000000       0.005
  -0.00000000  0.02420271  0.04840541       0.011
  -0.01210135  0.03630406  0.06050677       0.022
  -0.02420271  0.04840541  0.07260812       0.022
  -0.03630406  0.06050677  0.08470948       0.022
   0.10891218 -0.08470948 -0.06050677       0.022
   0.00000000  0.02420271  0.07260812       0.011
  -0.01210135  0.03630406  0.08470948       0.022
  -0.02420271  0.04840541  0.09681083       0.022
   0.12101354 -0.09681083 -0.04840541       0.022
   0.10891218 -0.08470948 -0.03630406       0.022
   0.09681083 -0.07260812 -0.02420271       0.022
   0.08470948 -0.06050677 -0.01210135       0.022
   0.07260812 -0.04840541 -0.00000000       0.011
   0.00000000  0.02420271  0.09681083       0.011
  -0.01210135  0.03630406  0.10891218       0.022
   0.13311489 -0.10891218 -0.03630406       0.022
   0.12101354 -0.09681083 -0.02420271       0.022
   0.10891218 -0.08470948 -0.01210135       0.022
   0.09681083 -0.07260812 -0.00000000       0.011
   0.00000000  0.02420271  0.12101354       0.011
   0.14521624 -0.12101354 -0.02420271       0.022
   0.13311489 -0.10891218 -0.01210135       0.022
   0.12101354 -0.09681083  0.00000000       0.011
   0.15731760 -0.13311489 -0.01210135       0.011
   0.14521624 -0.12101354 -0.00000000       0.011
   0.00000000  0.04840541  0.09681083       0.011
   0.14521624 -0.09681083 -0.04840541       0.022
   0.13311489 -0.08470948 -0.03630406       0.022
   0.15731760 -0.10891218 -0.03630406       0.011
   0.14521624 -0.09681083 -0.02420271       0.022
   0.13311489 -0.08470948 -0.01210135       0.022
   0.12101354 -0.07260812 -0.00000000       0.011
   0.15731760 -0.10891218 -0.01210135       0.011
   0.14521624 -0.09681083 -0.00000000       0.011
   0.15731760 -0.08470948 -0.01210135       0.011

 k-points in reciprocal lattice and weights: KPOINTS
   0.00000000  0.00000000  0.00000000       0.000
   0.07692308  0.00000000 -0.00000000       0.004
   0.15384615 -0.00000000  0.00000000       0.004
   0.23076923  0.00000000 -0.00000000       0.004
   0.30769231 -0.00000000  0.00000000       0.004
   0.38461538  0.00000000 -0.00000000       0.004
   0.46153846 -0.00000000  0.00000000       0.004
   0.07692308  0.07692308 -0.00000000       0.003
   0.15384615  0.07692308 -0.00000000       0.011
   0.23076923  0.07692308 -0.00000000       0.011
   0.30769231  0.07692308 -0.00000000       0.011
   0.38461538  0.07692308 -0.00000000       0.011
   0.46153846  0.07692308  0.00000000       0.011
  -0.46153846  0.07692308  0.00000000       0.011
  -0.38461538  0.07692308  0.00000000       0.011
  -0.30769231  0.07692308  0.00000000       0.011
  -0.23076923  0.07692308  0.00000000       0.011
  -0.15384615  0.07692308  0.00000000       0.011
  -0.07692308  0.07692308  0.00000000       0.005
   0.15384615  0.15384615 -0.00000000       0.003
   0.23076923  0.15384615 -0.00000000       0.011
   0.30769231  0.15384615 -0.00000000       0.011
   0.38461538  0.15384615 -0.00000000       0.011
   0.46153846  0.15384615  0.00000000       0.011
  -0.46153846  0.15384615 -0.00000000       0.011
  -0.38461538  0.15384615  0.00000000       0.011
  -0.30769231  0.15384615 -0.00000000       0.011
  -0.23076923  0.15384615  0.00000000       0.011
  -0.15384615  0.15384615 -0.00000000       0.005
   0.23076923  0.23076923 -0.00000000       0.003
   0.30769231  0.23076923 -0.00000000       0.011
   0.38461538  0.23076923 -0.00000000       0.011
   0.46153846  0.23076923 -0.00000000       0.011
  -0.46153846  0.23076923  0.00000000       0.011
  -0.38461538  0.23076923  0.00000000       0.011
  -0.30769231  0.23076923  0.00000000       0.011
  -0.23076923  0.23076923  0.00000000       0.005
   0.30769231  0.30769231 -0.00000000       0.003
   0.38461538  0.30769231 -0.00000000       0.011
   0.46153846  0.30769231 -0.00000000       0.011
  -0.46153846  0.30769231  0.00000000       0.011
  -0.38461538  0.30769231  0.00000000       0.011
  -0.30769231  0.30769231 -0.00000000       0.005
   0.38461538  0.38461538 -0.00000000       0.003
   0.46153846  0.38461538 -0.00000000       0.011
  -0.46153846  0.38461538 -0.00000000       0.011
  -0.38461538  0.38461538  0.00000000       0.005
   0.46153846  0.46153846 -0.00000000       0.003
  -0.46153846  0.46153846 -0.00000000       0.005
   0.23076923  0.15384615  0.07692308       0.011
   0.30769231  0.15384615  0.07692308       0.022
   0.38461538  0.15384615  0.07692308       0.022
   0.46153846  0.15384615  0.07692308       0.022
  -0.46153846  0.15384615  0.07692308       0.022
   0.30769231  0.23076923  0.07692308       0.011
   0.38461538  0.23076923  0.07692308       0.022
   0.46153846  0.23076923  0.07692308       0.022
  -0.46153846  0.23076923  0.07692308       0.022
  -0.38461538  0.23076923  0.07692308       0.022
  -0.30769231  0.23076923  0.07692308       0.022
  -0.23076923  0.23076923  0.07692308       0.022
  -0.15384615  0.23076923  0.07692308       0.011
   0.38461538  0.30769231  0.07692308       0.011
   0.46153846  0.30769231  0.07692308       0.022
  -0.46153846  0.30769231  0.07692308       0.022
  -0.38461538  0.30769231  0.07692308       0.022
  -0.30769231  0.30769231  0.07692308       0.022
  -0.23076923  0.30769231  0.07692308       0.011
   0.46153846  0.38461538  0.07692308       0.011
  -0.46153846  0.38461538  0.07692308       0.022
  -0.38461538  0.38461538  0.07692308       0.022
  -0.30769231  0.38461538  0.07692308       0.011
  -0.46153846  0.46153846  0.07692308       0.011
  -0.38461538  0.46153846  0.07692308       0.011
   0.46153846  0.30769231  0.15384615       0.011
  -0.46153846  0.30769231  0.15384615       0.022
  -0.38461538  0.30769231  0.15384615       0.022
  -0.46153846  0.38461538  0.15384615       0.011
  -0.38461538  0.38461538  0.15384615       0.022
  -0.30769231  0.38461538  0.15384615       0.022
  -0.23076923  0.38461538  0.15384615       0.011
  -0.38461538  0.46153846  0.15384615       0.011
  -0.30769231  0.46153846  0.15384615       0.011
  -0.30769231  0.46153846  0.23076923       0.011

 position of ions in fractional coordinates (direct lattice)
   0.75000000  0.75000000  0.75000000
   0.25000000  0.25000000  0.25000000
   0.00000000  0.00000000  0.00000000

 position of ions in cartesian coordinates  (Angst):
   4.63674526  4.63674526  4.63674526
   1.54558175  1.54558175  1.54558175
   0.00000000  0.00000000  0.00000000



--------------------------------------------------------------------------------------------------------


 k-point  1 :   0.0000 0.0000 0.0000  plane waves:    2445
 k-point  2 :   0.0769 0.0000-0.0000  plane waves:    2505
 k-point  3 :   0.1538-0.0000 0.0000  plane waves:    2505
 k-point  4 :   0.2308 0.0000-0.0000  plane waves:    2505
 k-point  5 :   0.3077-0.0000 0.0000  plane waves:    2476
 k-point  6 :   0.3846 0.0000-0.0000  plane waves:    2473
 k-point  7 :   0.4615-0.0000 0.0000  plane waves:    2482
 k-point  8 :   0.0769 0.0769-0.0000  plane waves:    2497
 k-point  9 :   0.1538 0.0769-0.0000  plane waves:    2510
 k-point 10 :   0.2308 0.0769-0.0000  plane waves:    2502
 k-point 11 :   0.3077 0.0769-0.0000  plane waves:    2495
 k-point 12 :   0.3846 0.0769-0.0000  plane waves:    2486
 k-point 13 :   0.4615 0.0769 0.0000  plane waves:    2479
 k-point 14 :  -0.4615 0.0769 0.0000  plane waves:    2488
 k-point 15 :  -0.3846 0.0769 0.0000  plane waves:    2478
 k-point 16 :  -0.3077 0.0769 0.0000  plane waves:    2490
 k-point 17 :  -0.2308 0.0769 0.0000  plane waves:    2496
 k-point 18 :  -0.1538 0.0769 0.0000  plane waves:    2502
 k-point 19 :  -0.0769 0.0769 0.0000  plane waves:    2503
 k-point 20 :   0.1538 0.1538-0.0000  plane waves:    2517
 k-point 21 :   0.2308 0.1538-0.0000  plane waves:    2502
 k-point 22 :   0.3077 0.1538-0.0000  plane waves:    2506
 k-point 23 :   0.3846 0.1538-0.0000  plane waves:    2482
 k-point 24 :   0.4615 0.1538 0.0000  plane waves:    2483
 k-point 25 :  -0.4615 0.1538-0.0000  plane waves:    2480
 k-point 26 :  -0.3846 0.1538 0.0000  plane waves:    2485
 k-point 27 :  -0.3077 0.1538-0.0000  plane waves:    2478
 k-point 28 :  -0.2308 0.1538 0.0000  plane waves:    2488
 k-point 29 :  -0.1538 0.1538-0.0000  plane waves:    2495
 k-point 30 :   0.2308 0.2308-0.0000  plane waves:    2501
 k-point 31 :   0.3077 0.2308-0.0000  plane waves:    2483
 k-point 32 :   0.3846 0.2308-0.0000  plane waves:    2486
 k-point 33 :   0.4615 0.2308-0.0000  plane waves:    2480
 k-point 34 :  -0.4615 0.2308 0.0000  plane waves:    2485
 k-point 35 :  -0.3846 0.2308 0.0000  plane waves:    2482
 k-point 36 :  -0.3077 0.2308 0.0000  plane waves:    2491
 k-point 37 :  -0.2308 0.2308 0.0000  plane waves:    2493
 k-point 38 :   0.3077 0.3077-0.0000  plane waves:    2477
 k-point 39 :   0.3846 0.3077-0.0000  plane waves:    2480
 k-point 40 :   0.4615 0.3077-0.0000  plane waves:    2476
 k-point 41 :  -0.4615 0.3077 0.0000  plane waves:    2474
 k-point 42 :  -0.3846 0.3077 0.0000  plane waves:    2493
 k-point 43 :  -0.3077 0.3077-0.0000  plane waves:    2492
 k-point 44 :   0.3846 0.3846-0.0000  plane waves:    2470
 k-point 45 :   0.4615 0.3846-0.0000  plane waves:    2481
 k-point 46 :  -0.4615 0.3846-0.0000  plane waves:    2473
 k-point 47 :  -0.3846 0.3846 0.0000  plane waves:    2490
 k-point 48 :   0.4615 0.4615-0.0000  plane waves:    2470
 k-point 49 :  -0.4615 0.4615-0.0000  plane waves:    2478
 k-point 50 :   0.2308 0.1538 0.0769  plane waves:    2508
 k-point 51 :   0.3077 0.1538 0.0769  plane waves:    2493
 k-point 52 :   0.3846 0.1538 0.0769  plane waves:    2488
 k-point 53 :   0.4615 0.1538 0.0769  plane waves:    2488
 k-point 54 :  -0.4615 0.1538 0.0769  plane waves:    2475
 k-point 55 :   0.3077 0.2308 0.0769  plane waves:    2492
 k-point 56 :   0.3846 0.2308 0.0769  plane waves:    2494
 k-point 57 :   0.4615 0.2308 0.0769  plane waves:    2481
 k-point 58 :  -0.4615 0.2308 0.0769  plane waves:    2477
 k-point 59 :  -0.3846 0.2308 0.0769  plane waves:    2475
 k-point 60 :  -0.3077 0.2308 0.0769  plane waves:    2486
 k-point 61 :  -0.2308 0.2308 0.0769  plane waves:    2481
 k-point 62 :  -0.1538 0.2308 0.0769  plane waves:    2499
 k-point 63 :   0.3846 0.3077 0.0769  plane waves:    2480
 k-point 64 :   0.4615 0.3077 0.0769  plane waves:    2488
 k-point 65 :  -0.4615 0.3077 0.0769  plane waves:    2477
 k-point 66 :  -0.3846 0.3077 0.0769  plane waves:    2477
 k-point 67 :  -0.3077 0.3077 0.0769  plane waves:    2482
 k-point 68 :  -0.2308 0.3077 0.0769  plane waves:    2480
 k-point 69 :   0.4615 0.3846 0.0769  plane waves:    2485
 k-point 70 :  -0.4615 0.3846 0.0769  plane waves:    2478
 k-point 71 :  -0.3846 0.3846 0.0769  plane waves:    2485
 k-point 72 :  -0.3077 0.3846 0.0769  plane waves:    2490
 k-point 73 :  -0.4615 0.4615 0.0769  plane waves:    2487
 k-point 74 :  -0.3846 0.4615 0.0769  plane waves:    2478
 k-point 75 :   0.4615 0.3077 0.1538  plane waves:    2480
 k-point 76 :  -0.4615 0.3077 0.1538  plane waves:    2482
 k-point 77 :  -0.3846 0.3077 0.1538  plane waves:    2476
 k-point 78 :  -0.4615 0.3846 0.1538  plane waves:    2472
 k-point 79 :  -0.3846 0.3846 0.1538  plane waves:    2479
 k-point 80 :  -0.3077 0.3846 0.1538  plane waves:    2487
 k-point 81 :  -0.2308 0.3846 0.1538  plane waves:    2479
 k-point 82 :  -0.3846 0.4615 0.1538  plane waves:    2478
 k-point 83 :  -0.3077 0.4615 0.1538  plane waves:    2491
 k-point 84 :  -0.3077 0.4615 0.2308  plane waves:    2489

 maximum and minimum number of plane-waves per node :       635      605

 maximum number of plane-waves:      2517
 maximum index in each direction:
   IXMAX=    9   IYMAX=    9   IZMAX=    9
   IXMIN=   -9   IYMIN=   -9   IZMIN=   -9


 parallel 3D FFT for wavefunctions:
    minimum data exchange during FFTs selected (reduces bandwidth)
 parallel 3D FFT for charge:
    minimum data exchange during FFTs selected (reduces bandwidth)


 total amount of memory used by VASP MPI-rank0    64585. kBytes
=======================================================================

   base      :      30000. kBytes
   nonl-proj :      23109. kBytes
   fftplans  :       5203. kBytes
   grid      :       2732. kBytes
   one-center:         15. kBytes
   wavefun   :       3526. kBytes

     INWAV:  cpu time    0.0003: real time    0.0004
 Broyden mixing: mesh for mixing (old mesh)
   NGX = 19   NGY = 19   NGZ = 19
  (NGX  = 80   NGY  = 80   NGZ  = 80)
  gives a total of   6859 points

 initial charge density was supplied:
 charge density of overlapping atoms calculated
 number of electron      25.0000000 magnetization
 keeping initial charge density in first step


--------------------------------------------------------------------------------------------------------


 Maximum index for augmentation-charges        32109 (set IRDMAX)


--------------------------------------------------------------------------------------------------------


 First call to EWALD:  gamma=   0.455
 Maximum number of real-space cells 3x 3x 3
 Maximum number of reciprocal cells 3x 3x 3

    FEWALD:  cpu time    0.0054: real time    0.0080


--------------------------------------- Iteration      1(   1)  ---------------------------------------


    POTLOK:  cpu time    0.0473: real time    0.1374
    SETDIJ:  cpu time    0.0829: real time    0.0832
     EDDAV:  cpu time    0.9158: real time    0.9311
       DOS:  cpu time    0.0036: real time    0.0046
    --------------------------------------------
      LOOP:  cpu time    1.0501: real time    1.1587

 eigenvalue-minimisations  :  2696
 total energy-change (2. order) : 0.1447622E+03  (-0.1440578E+04)
 number of electron      25.0000000 magnetization
 augmentation part       25.0000000 magnetization

 Free energy of the ion-electron system (eV)
  ---------------------------------------------------
  alpha Z        PSCENC =       115.32587260
  Ewald energy   TEWEN  =     -1608.47511190
  -Hartree energ DENC   =      -308.62301753
  -exchange      EXHF   =         0.00000000
  -V(xc)+E(xc)   XCENC  =       -18.25300440
  PAW double counting   =      1514.36848356    -1421.27055995
  entropy T*S    EENTRO =        -0.00030428
  eigenvalues    EBANDS =       130.58530155
  atomic energy  EATOM  =      1741.10451121
  Solvation  Ediel_sol  =         0.00000000
  ---------------------------------------------------
  free energy    TOTEN  =       144.76217085 eV

  energy without entropy =      144.76247513  energy(sigma->0) =      144.76232299


--------------------------------------------------------------------------------------------------------




--------------------------------------- Iteration      1(   2)  ---------------------------------------


     EDDAV:  cpu time    1.0820: real time    1.1908
       DOS:  cpu time    0.0025: real time    0.0028
    --------------------------------------------
      LOOP:  cpu time    1.0845: real time    1.1938

 eigenvalue-minimisations  :  3408
 total energy-change (2. order) :-0.1648211E+03  (-0.1634210E+03)
 number of electron      25.0000000 magnetization
 augmentation part       25.0000000 magnetization

 Free energy of the ion-electron system (eV)
  ---------------------------------------------------
  alpha Z        PSCENC =       115.32587260
  Ewald energy   TEWEN  =     -1608.47511190
  -Hartree energ DENC   =      -308.62301753
  -exchange      EXHF   =         0.00000000
  -V(xc)+E(xc)   XCENC  =       -18.25300440
  PAW double counting   =      1514.36848356    -1421.27055995
  entropy T*S    EENTRO =        -0.00029185
  eigenvalues    EBANDS =       -34.23581681
  atomic energy  EATOM  =      1741.10451121
  Solvation  Ediel_sol  =         0.00000000
  ---------------------------------------------------
  free energy    TOTEN  =       -20.05893508 eV

  energy without entropy =      -20.05864323  energy(sigma->0) =      -20.05878916


--------------------------------------------------------------------------------------------------------




--------------------------------------- Iteration      1(   3)  ---------------------------------------


     EDDAV:  cpu time    1.1300: real time    1.2415
       DOS:  cpu time    0.0027: real time    0.0041
    --------------------------------------------
      LOOP:  cpu time    1.1327: real time    1.2460

 eigenvalue-minimisations  :  3608
 total energy-change (2. order) :-0.4540770E+01  (-0.4496444E+01)
 number of electron      25.0000000 magnetization
 augmentation part       25.0000000 magnetization

 Free energy of the ion-electron system (eV)
  ---------------------------------------------------
  alpha Z        PSCENC =       115.32587260
  Ewald energy   TEWEN  =     -1608.47511190
  -Hartree energ DENC   =      -308.62301753
  -exchange      EXHF   =         0.00000000
  -V(xc)+E(xc)   XCENC  =       -18.25300440
  PAW double counting   =      1514.36848356    -1421.27055995
  entropy T*S    EENTRO =        -0.00030904
  eigenvalues    EBANDS =       -38.77656924
  atomic energy  EATOM  =      1741.10451121
  Solvation  Ediel_sol  =         0.00000000
  ---------------------------------------------------
  free energy    TOTEN  =       -24.59970470 eV

  energy without entropy =      -24.59939566  energy(sigma->0) =      -24.59955018


--------------------------------------------------------------------------------------------------------




--------------------------------------- Iteration      1(   4)  ---------------------------------------


     EDDAV:  cpu time    1.0564: real time    1.0826
       DOS:  cpu time    0.0025: real time    0.0028
    --------------------------------------------
      LOOP:  cpu time    1.0590: real time    1.0851

 eigenvalue-minimisations  :  3264
 total energy-change (2. order) :-0.5989900E-01  (-0.5982857E-01)
 number of electron      25.0000000 magnetization
 augmentation part       25.0000000 magnetization

 Free energy of the ion-electron system (eV)
  ---------------------------------------------------
  alpha Z        PSCENC =       115.32587260
  Ewald energy   TEWEN  =     -1608.47511190
  -Hartree energ DENC   =      -308.62301753
  -exchange      EXHF   =         0.00000000
  -V(xc)+E(xc)   XCENC  =       -18.25300440
  PAW double counting   =      1514.36848356    -1421.27055995
  entropy T*S    EENTRO =        -0.00028377
  eigenvalues    EBANDS =       -38.83649351
  atomic energy  EATOM  =      1741.10451121
  Solvation  Ediel_sol  =         0.00000000
  ---------------------------------------------------
  free energy    TOTEN  =       -24.65960370 eV

  energy without entropy =      -24.65931993  energy(sigma->0) =      -24.65946182


--------------------------------------------------------------------------------------------------------




--------------------------------------- Iteration      1(   5)  ---------------------------------------


     EDDAV:  cpu time    1.1746: real time    1.2009
       DOS:  cpu time    0.0025: real time    0.0029
    CHARGE:  cpu time    0.2611: real time    0.2619
    MIXING:  cpu time    0.0084: real time    0.0087
    --------------------------------------------
      LOOP:  cpu time    1.4465: real time    1.4725

 eigenvalue-minimisations  :  3696
 total energy-change (2. order) :-0.1352025E-02  (-0.1351800E-02)
 number of electron      25.0000000 magnetization
 augmentation part        4.7899896 magnetization

 Broyden mixing:
  rms(total) = 0.48893E+01    rms(broyden)= 0.48893E+01
  rms(prec ) = 0.50542E+01
  weight for this iteration     100.00

 Free energy of the ion-electron system (eV)
  ---------------------------------------------------
  alpha Z        PSCENC =       115.32587260
  Ewald energy   TEWEN  =     -1608.47511190
  -Hartree energ DENC   =      -308.62301753
  -exchange      EXHF   =         0.00000000
  -V(xc)+E(xc)   XCENC  =       -18.25300440
  PAW double counting   =      1514.36848356    -1421.27055995
  entropy T*S    EENTRO =        -0.00028299
  eigenvalues    EBANDS =       -38.83784632
  atomic energy  EATOM  =      1741.10451121
  Solvation  Ediel_sol  =         0.00000000
  ---------------------------------------------------
  free energy    TOTEN  =       -24.66095573 eV

  energy without entropy =      -24.66067274  energy(sigma->0) =      -24.66081423


--------------------------------------------------------------------------------------------------------




--------------------------------------- Iteration      1(   6)  ---------------------------------------


    POTLOK:  cpu time    0.0502: real time    0.0706
    SETDIJ:  cpu time    0.0907: real time    0.0913
     EDDAV:  cpu time    1.0613: real time    1.0615
       DOS:  cpu time    0.0024: real time    0.0030
    CHARGE:  cpu time    0.2150: real time    0.2153
    MIXING:  cpu time    0.0050: real time    0.0053
    --------------------------------------------
      LOOP:  cpu time    1.4247: real time    1.4467

 eigenvalue-minimisations  :  3464
 total energy-change (2. order) : 0.6381842E+00  (-0.1366403E+00)
 number of electron      25.0000000 magnetization
 augmentation part        4.9693352 magnetization

 Broyden mixing:
  rms(total) = 0.29094E+01    rms(broyden)= 0.29094E+01
  rms(prec ) = 0.29579E+01
  weight for this iteration     100.00

 eigenvalues of (default mixing * dielectric matrix)
  average eigenvalue GAMMA=   2.4294
  2.4294

 Free energy of the ion-electron system (eV)
  ---------------------------------------------------
  alpha Z        PSCENC =       115.32587260
  Ewald energy   TEWEN  =     -1608.47511190
  -Hartree energ DENC   =      -295.13963596
  -exchange      EXHF   =         0.00000000
  -V(xc)+E(xc)   XCENC  =       -18.69367871
  PAW double counting   =      2063.82876916    -1973.44910957
  entropy T*S    EENTRO =        -0.00008969
  eigenvalues    EBANDS =       -48.52429863
  atomic energy  EATOM  =      1741.10451121
  Solvation  Ediel_sol  =         0.00000000
  ---------------------------------------------------
  free energy    TOTEN  =       -24.02277149 eV

  energy without entropy =      -24.02268181  energy(sigma->0) =      -24.02272665


--------------------------------------------------------------------------------------------------------




--------------------------------------- Iteration      1(   7)  ---------------------------------------


    POTLOK:  cpu time    0.0585: real time    0.0880
    SETDIJ:  cpu time    0.0732: real time    0.0734
     EDDAV:  cpu time    1.1458: real time    1.1470
       DOS:  cpu time    0.0026: real time    0.0032
    CHARGE:  cpu time    0.1721: real time    0.1723
    MIXING:  cpu time    0.0045: real time    0.0047
    --------------------------------------------
      LOOP:  cpu time    1.4567: real time    1.4905

 eigenvalue-minimisations  :  3696
 total energy-change (2. order) : 0.1316140E+00  (-0.8626483E-01)
 number of electron      25.0000000 magnetization
 augmentation part        4.9877712 magnetization

 Broyden mixing:
  rms(total) = 0.42086E+00    rms(broyden)= 0.42086E+00
  rms(prec ) = 0.54774E+00
  weight for this iteration     100.00

 eigenvalues of (default mixing * dielectric matrix)
  average eigenvalue GAMMA=   1.8561
  1.0907  2.6215

 Free energy of the ion-electron system (eV)
  ---------------------------------------------------
  alpha Z        PSCENC =       115.32587260
  Ewald energy   TEWEN  =     -1608.47511190
  -Hartree energ DENC   =      -287.92340656
  -exchange      EXHF   =         0.00000000
  -V(xc)+E(xc)   XCENC  =       -18.84969813
  PAW double counting   =      2929.84583965    -2842.69943932
  entropy T*S    EENTRO =        -0.00028634
  eigenvalues    EBANDS =       -52.21943872
  atomic energy  EATOM  =      1741.10451121
  Solvation  Ediel_sol  =         0.00000000
  ---------------------------------------------------
  free energy    TOTEN  =       -23.89115751 eV

  energy without entropy =      -23.89087117  energy(sigma->0) =      -23.89101434


--------------------------------------------------------------------------------------------------------




--------------------------------------- Iteration      1(   8)  ---------------------------------------


    POTLOK:  cpu time    0.0547: real time    0.0824
    SETDIJ:  cpu time    0.0770: real time    0.0778
     EDDAV:  cpu time    1.1032: real time    1.1036
       DOS:  cpu time    0.0026: real time    0.0030
    CHARGE:  cpu time    0.1898: real time    0.1905
    MIXING:  cpu time    0.0041: real time    0.0043
    --------------------------------------------
      LOOP:  cpu time    1.4313: real time    1.4621

 eigenvalue-minimisations  :  3552
 total energy-change (2. order) : 0.3277861E-01  (-0.3396330E-01)
 number of electron      25.0000000 magnetization
 augmentation part        5.0346329 magnetization

 Broyden mixing:
  rms(total) = 0.96569E-01    rms(broyden)= 0.96569E-01
  rms(prec ) = 0.17010E+00
  weight for this iteration     100.00

 eigenvalues of (default mixing * dielectric matrix)
  average eigenvalue GAMMA=   1.5490
  2.5529  1.4511  0.6429

 Free energy of the ion-electron system (eV)
  ---------------------------------------------------
  alpha Z        PSCENC =       115.32587260
  Ewald energy   TEWEN  =     -1608.47511190
  -Hartree energ DENC   =      -287.62669059
  -exchange      EXHF   =         0.00000000
  -V(xc)+E(xc)   XCENC  =       -18.82723876
  PAW double counting   =      3015.03366270    -2928.06619360
  entropy T*S    EENTRO =        -0.00013198
  eigenvalues    EBANDS =       -52.32705857
  atomic energy  EATOM  =      1741.10451121
  Solvation  Ediel_sol  =         0.00000000
  ---------------------------------------------------
  free energy    TOTEN  =       -23.85837890 eV

  energy without entropy =      -23.85824692  energy(sigma->0) =      -23.85831291


--------------------------------------------------------------------------------------------------------




--------------------------------------- Iteration      1(   9)  ---------------------------------------


    POTLOK:  cpu time    0.0475: real time    0.0731
    SETDIJ:  cpu time    0.0791: real time    0.0793
     EDDAV:  cpu time    0.9706: real time    0.9708
       DOS:  cpu time    0.0026: real time    0.0031
    CHARGE:  cpu time    0.1710: real time    0.1712
    MIXING:  cpu time    0.0056: real time    0.0057
    --------------------------------------------
      LOOP:  cpu time    1.2765: real time    1.3032

 eigenvalue-minimisations  :  2976
 total energy-change (2. order) : 0.5344439E-02  (-0.3758065E-02)
 number of electron      25.0000000 magnetization
 augmentation part        5.0101562 magnetization

 Broyden mixing:
  rms(total) = 0.47085E-01    rms(broyden)= 0.47085E-01
  rms(prec ) = 0.57505E-01
  weight for this iteration     100.00

 eigenvalues of (default mixing * dielectric matrix)
  average eigenvalue GAMMA=   1.4284
  2.3888  1.3360  1.3360  0.6527

 Free energy of the ion-electron system (eV)
  ---------------------------------------------------
  alpha Z        PSCENC =       115.32587260
  Ewald energy   TEWEN  =     -1608.47511190
  -Hartree energ DENC   =      -289.00363297
  -exchange      EXHF   =         0.00000000
  -V(xc)+E(xc)   XCENC  =       -18.77570709
  PAW double counting   =      3002.16640705    -2915.11408330
  entropy T*S    EENTRO =        -0.00011349
  eigenvalues    EBANDS =       -51.08117657
  atomic energy  EATOM  =      1741.10451121
  Solvation  Ediel_sol  =         0.00000000
  ---------------------------------------------------
  free energy    TOTEN  =       -23.85303446 eV

  energy without entropy =      -23.85292097  energy(sigma->0) =      -23.85297771


--------------------------------------------------------------------------------------------------------




--------------------------------------- Iteration      1(  10)  ---------------------------------------


    POTLOK:  cpu time    0.0600: real time    0.0969
    SETDIJ:  cpu time    0.0779: real time    0.0782
     EDDAV:  cpu time    1.1152: real time    1.1155
       DOS:  cpu time    0.0035: real time    0.0047
    CHARGE:  cpu time    0.1730: real time    0.1731
    MIXING:  cpu time    0.0045: real time    0.0046
    --------------------------------------------
      LOOP:  cpu time    1.4341: real time    1.4719

 eigenvalue-minimisations  :  3672
 total energy-change (2. order) : 0.2136161E-03  (-0.3423154E-03)
 number of electron      25.0000000 magnetization
 augmentation part        5.0057613 magnetization

 Broyden mixing:
  rms(total) = 0.25567E-01    rms(broyden)= 0.25567E-01
  rms(prec ) = 0.27435E-01
  weight for this iteration     100.00

 eigenvalues of (default mixing * dielectric matrix)
  average eigenvalue GAMMA=   1.3979
  2.4343  1.8485  1.2251  0.6799  0.8016

 Free energy of the ion-electron system (eV)
  ---------------------------------------------------
  alpha Z        PSCENC =       115.32587260
  Ewald energy   TEWEN  =     -1608.47511190
  -Hartree energ DENC   =      -289.05385112
  -exchange      EXHF   =         0.00000000
  -V(xc)+E(xc)   XCENC  =       -18.77548435
  PAW double counting   =      2994.57848241    -2907.43264329
  entropy T*S    EENTRO =        -0.00010837
  eigenvalues    EBANDS =       -51.12448801
  atomic energy  EATOM  =      1741.10451121
  Solvation  Ediel_sol  =         0.00000000
  ---------------------------------------------------
  free energy    TOTEN  =       -23.85282084 eV

  energy without entropy =      -23.85271247  energy(sigma->0) =      -23.85276666


--------------------------------------------------------------------------------------------------------




--------------------------------------- Iteration      1(  11)  ---------------------------------------


    POTLOK:  cpu time    0.0620: real time    0.1098
    SETDIJ:  cpu time    0.0775: real time    0.0776
     EDDAV:  cpu time    0.9715: real time    0.9720
       DOS:  cpu time    0.0027: real time    0.0031
    CHARGE:  cpu time    0.1720: real time    0.1721
    MIXING:  cpu time    0.0051: real time    0.0052
    --------------------------------------------
      LOOP:  cpu time    1.2908: real time    1.3404

 eigenvalue-minimisations  :  2968
 total energy-change (2. order) : 0.1183191E-04  (-0.1253245E-04)
 number of electron      25.0000000 magnetization
 augmentation part        5.0071581 magnetization

 Broyden mixing:
  rms(total) = 0.10346E-01    rms(broyden)= 0.10346E-01
  rms(prec ) = 0.11228E-01
  weight for this iteration     100.00

 eigenvalues of (default mixing * dielectric matrix)
  average eigenvalue GAMMA=   1.4696
  2.5563  2.2958  0.6725  1.1617  1.1617  0.9694

 Free energy of the ion-electron system (eV)
  ---------------------------------------------------
  alpha Z        PSCENC =       115.32587260
  Ewald energy   TEWEN  =     -1608.47511190
  -Hartree energ DENC   =      -289.04045054
  -exchange      EXHF   =         0.00000000
  -V(xc)+E(xc)   XCENC  =       -18.77391238
  PAW double counting   =      3000.11637567    -2912.95973616
  entropy T*S    EENTRO =        -0.00010752
  eigenvalues    EBANDS =       -51.15024999
  atomic energy  EATOM  =      1741.10451121
  Solvation  Ediel_sol  =         0.00000000
  ---------------------------------------------------
  free energy    TOTEN  =       -23.85280901 eV

  energy without entropy =      -23.85270149  energy(sigma->0) =      -23.85275525


--------------------------------------------------------------------------------------------------------




--------------------------------------- Iteration      1(  12)  ---------------------------------------


    POTLOK:  cpu time    0.0558: real time    0.2167
    SETDIJ:  cpu time    0.0751: real time    0.0770
     EDDAV:  cpu time    1.1273: real time    1.1275
       DOS:  cpu time    0.0026: real time    0.0030
    CHARGE:  cpu time    0.1715: real time    0.1716
    MIXING:  cpu time    0.0050: real time    0.0051
    --------------------------------------------
      LOOP:  cpu time    1.4373: real time    1.6004

 eigenvalue-minimisations  :  3688
 total energy-change (2. order) : 0.2162618E-05  (-0.5635942E-05)
 number of electron      25.0000000 magnetization
 augmentation part        5.0072761 magnetization

 Broyden mixing:
  rms(total) = 0.22415E-02    rms(broyden)= 0.22415E-02
  rms(prec ) = 0.23702E-02
  weight for this iteration     100.00

 eigenvalues of (default mixing * dielectric matrix)
  average eigenvalue GAMMA=   1.5110
  2.4444  2.4444  1.9359  0.6734  1.0704  1.0704  0.9382

 Free energy of the ion-electron system (eV)
  ---------------------------------------------------
  alpha Z        PSCENC =       115.32587260
  Ewald energy   TEWEN  =     -1608.47511190
  -Hartree energ DENC   =      -289.08190801
  -exchange      EXHF   =         0.00000000
  -V(xc)+E(xc)   XCENC  =       -18.77131715
  PAW double counting   =      3001.39232010    -2914.22681584
  entropy T*S    EENTRO =        -0.00010848
  eigenvalues    EBANDS =       -51.12024937
  atomic energy  EATOM  =      1741.10451121
  Solvation  Ediel_sol  =         0.00000000
  ---------------------------------------------------
  free energy    TOTEN  =       -23.85280685 eV

  energy without entropy =      -23.85269837  energy(sigma->0) =      -23.85275261


--------------------------------------------------------------------------------------------------------




--------------------------------------- Iteration      1(  13)  ---------------------------------------


    POTLOK:  cpu time    0.0602: real time    0.0832
    SETDIJ:  cpu time    0.0780: real time    0.0781
     EDDAV:  cpu time    0.9376: real time    0.9378
       DOS:  cpu time    0.0026: real time    0.0032
    CHARGE:  cpu time    0.1712: real time    0.1713
    MIXING:  cpu time    0.0044: real time    0.0065
    --------------------------------------------
      LOOP:  cpu time    1.2540: real time    1.2852

 eigenvalue-minimisations  :  2856
 total energy-change (2. order) : 0.1175764E-05  (-0.2296471E-06)
 number of electron      25.0000000 magnetization
 augmentation part        5.0074208 magnetization

 Broyden mixing:
  rms(total) = 0.32110E-03    rms(broyden)= 0.32108E-03
  rms(prec ) = 0.53805E-03
  weight for this iteration     100.00

 eigenvalues of (default mixing * dielectric matrix)
  average eigenvalue GAMMA=   1.5355
  2.5760  2.5760  2.1388  0.6742  1.2498  0.9180  1.0756  1.0756

 Free energy of the ion-electron system (eV)
  ---------------------------------------------------
  alpha Z        PSCENC =       115.32587260
  Ewald energy   TEWEN  =     -1608.47511190
  -Hartree energ DENC   =      -289.07069440
  -exchange      EXHF   =         0.00000000
  -V(xc)+E(xc)   XCENC  =       -18.77182655
  PAW double counting   =      3000.83769024    -2913.66988388
  entropy T*S    EENTRO =        -0.00010836
  eigenvalues    EBANDS =       -51.13325463
  atomic energy  EATOM  =      1741.10451121
  Solvation  Ediel_sol  =         0.00000000
  ---------------------------------------------------
  free energy    TOTEN  =       -23.85280567 eV

  energy without entropy =      -23.85269732  energy(sigma->0) =      -23.85275150


--------------------------------------------------------------------------------------------------------




--------------------------------------- Iteration      1(  14)  ---------------------------------------


    POTLOK:  cpu time    0.0534: real time    0.1567
    SETDIJ:  cpu time    0.0778: real time    0.0783
     EDDAV:  cpu time    1.0146: real time    1.0207
       DOS:  cpu time    0.0025: real time    0.0078
    --------------------------------------------
      LOOP:  cpu time    1.1484: real time    1.2580

 eigenvalue-minimisations  :  3216
 total energy-change (2. order) : 0.5680431E-07  (-0.4585797E-07)
 number of electron      25.0000000 magnetization
 augmentation part        5.0074208 magnetization

 Free energy of the ion-electron system (eV)
  ---------------------------------------------------
  alpha Z        PSCENC =       115.32587260
  Ewald energy   TEWEN  =     -1608.47511190
  -Hartree energ DENC   =      -289.07122946
  -exchange      EXHF   =         0.00000000
  -V(xc)+E(xc)   XCENC  =       -18.77174729
  PAW double counting   =      3001.03182855    -2913.86322111
  entropy T*S    EENTRO =        -0.00010831
  eigenvalues    EBANDS =       -51.13359990
  atomic energy  EATOM  =      1741.10451121
  Solvation  Ediel_sol  =         0.00000000
  ---------------------------------------------------
  free energy    TOTEN  =       -23.85280562 eV

  energy without entropy =      -23.85269731  energy(sigma->0) =      -23.85275146


--------------------------------------------------------------------------------------------------------




 average (electrostatic) potential at core
  the test charge radii are     1.1707  1.1712  1.2059
  (the norm of the test charge is              1.0000)
       1 -33.3768       2 -83.6717       3 -65.5735



 E-fermi :  10.1493     XC(G=0): -11.7585     alpha+bet :-14.8185


 k-point     1 :       0.0000    0.0000    0.0000
  band No.  band energies     occupation
      1     -22.0016      2.00000
      2     -22.0016      2.00000
      3     -22.0016      2.00000
      4      -3.4247      2.00000
      5       3.4867      2.00000
      6       3.4867      2.00000
      7       3.4867      2.00000
      8       4.2963      2.00000
      9       4.2963      2.00000
     10       8.2206      2.00000
     11       8.2206      2.00000
     12       8.2206      2.00000
     13       9.6523      2.00000
     14      11.0806      0.00000
     15      11.0806      0.00000
     16      11.0806      0.00000

 k-point     2 :       0.0769    0.0000   -0.0000
  band No.  band energies     occupation
      1     -22.0032      2.00000
      2     -22.0015      2.00000
      3     -22.0015      2.00000
      4      -3.3515      2.00000
      5       3.4110      2.00000
      6       3.4468      2.00000
      7       3.4468      2.00000
      8       4.3499      2.00000
      9       4.3499      2.00000
     10       7.7130      2.00000
     11       8.1552      2.00000
     12       8.1552      2.00000
     13       9.7581      2.00000
     14      10.9054      0.00000
     15      10.9054      0.00000
     16      11.5514      0.00000

 k-point     3 :       0.1538   -0.0000    0.0000
  band No.  band energies     occupation
      1     -22.0077      2.00000
      2     -22.0011      2.00000
      3     -22.0011      2.00000
      4      -3.1392      2.00000
      5       3.1989      2.00000
      6       3.3651      2.00000
      7       3.3651      2.00000
      8       4.4637      2.00000
      9       4.4637      2.00000
     10       6.8007      2.00000
     11       7.9923      2.00000
     12       7.9923      2.00000
     13       9.8888      2.00000
     14      10.7887      0.00000
     15      10.7887      0.00000
     16      12.3513      0.00000

 k-point     4 :       0.2308    0.0000   -0.0000
  band No.  band energies     occupation
      1     -22.0140      2.00000
      2     -22.0006      2.00000
      3     -22.0006      2.00000
      4      -2.8119      2.00000
      5       2.8825      2.00000
      6       3.2938      2.00000
      7       3.2938      2.00000
      8       4.5635      2.00000
      9       4.5635      2.00000
     10       5.9411      2.00000
     11       7.8063      2.00000
     12       7.8063      2.00000
     13      10.0059      2.00000
     14      10.8089      0.00000
     15      10.8089      0.00000
     16      13.0577      0.00000

 k-point     5 :       0.3077   -0.0000    0.0000
  band No.  band energies     occupation
      1     -22.0206      2.00000
      2     -22.0001      2.00000
      3     -22.0001      2.00000
      4      -2.4150      2.00000
      5       2.4987      2.00000
      6       3.2551      2.00000
      7       3.2551      2.00000
      8       4.6068      2.00000
      9       4.6068      2.00000
     10       5.2762      2.00000
     11       7.6618      2.00000
     12       7.6618      2.00000
     13      10.1172      1.99999
     14      10.9357      0.00000
     15      10.9357      0.00000
     16      12.5737      0.00000

 k-point     6 :       0.3846    0.0000   -0.0000
  band No.  band energies     occupation
      1     -22.0259      2.00000
      2     -21.9997      2.00000
      3     -21.9997      2.00000
      4      -2.0268      2.00000
      5       2.1138      2.00000
      6       3.2467      2.00000
      7       3.2467      2.00000
      8       4.5964      2.00000
      9       4.5964      2.00000
     10       4.8495      2.00000
     11       7.5814      2.00000
     12       7.5814      2.00000
     13      10.2304      0.00000
     14      11.1179      0.00000
     15      11.1179      0.00000
     16      11.7668      0.00000

 k-point     7 :       0.4615   -0.0000    0.0000
  band No.  band energies     occupation
      1     -22.0289      2.00000
      2     -21.9994      2.00000
      3     -21.9994      2.00000
      4      -1.7700      2.00000
      5       1.8539      2.00000
      6       3.2513      2.00000
      7       3.2513      2.00000
      8       4.5719      2.00000
      9       4.5719      2.00000
     10       4.6485      2.00000
     11       7.5509      2.00000
     12       7.5509      2.00000
     13      10.3359      0.00000
     14      11.2641      0.00000
     15      11.2641      0.00000
     16      11.2739      0.00000

 k-point     8 :       0.0769    0.0769   -0.0000
  band No.  band energies     occupation
      1     -22.0032      2.00000
      2     -22.0017      2.00000
      3     -22.0017      2.00000
      4      -3.3275      2.00000
      5       3.2408      2.00000
      6       3.5202      2.00000
      7       3.5202      2.00000
      8       4.3331      2.00000
      9       4.3780      2.00000
     10       7.7816      2.00000
     11       8.0165      2.00000
     12       8.0165      2.00000
     13       9.7710      2.00000
     14      10.8253      0.00000
     15      11.3858      0.00000
     16      11.3861      0.00000

 k-point     9 :       0.1538    0.0769   -0.0000
  band No.  band energies     occupation
      1     -22.0065      2.00000
      2     -22.0017      2.00000
      3     -22.0014      2.00000
      4      -3.1628      2.00000
      5       3.0173      2.00000
      6       3.4912      2.00000
      7       3.5152      2.00000
      8       4.4118      2.00000
      9       4.4548      2.00000
     10       7.0787      2.00000
     11       7.8202      2.00000
     12       7.9129      2.00000
     13       9.9247      2.00000
     14      10.6638      0.00000
     15      11.0708      0.00000
     16      11.9445      0.00000

 k-point    10 :       0.2308    0.0769   -0.0000
  band No.  band energies     occupation
      1     -22.0121      2.00000
      2     -22.0014      2.00000
      3     -22.0009      2.00000
      4      -2.8762      2.00000
      5       2.7769      2.00000
      6       3.3784      2.00000
      7       3.4682      2.00000
      8       4.5181      2.00000
      9       4.5482      2.00000
     10       6.2294      2.00000
     11       7.6407      2.00000
     12       7.7479      2.00000
     13      10.1555      0.37871
     14      10.6287      0.00000
     15      10.9304      0.00000
     16      12.5726      0.00000

 k-point    11 :       0.3077    0.0769   -0.0000
  band No.  band energies     occupation
      1     -22.0184      2.00000
      2     -22.0010      2.00000
      3     -22.0006      2.00000
      4      -2.5057      2.00000
      5       2.5030      2.00000
      6       3.2638      2.00000
      7       3.4186      2.00000
      8       4.5821      2.00000
      9       4.6120      2.00000
     10       5.5058      2.00000
     11       7.5247      2.00000
     12       7.5775      2.00000
     13      10.2012      0.00000
     14      10.8991      0.00000
     15      10.9275      0.00000
     16      12.6675      0.00000

 k-point    12 :       0.3846    0.0769   -0.0000
  band No.  band energies     occupation
      1     -22.0240      2.00000
      2     -22.0004      2.00000
      3     -22.0004      2.00000
      4      -2.1173      2.00000
      5       2.1984      2.00000
      6       3.2038      2.00000
      7       3.3745      2.00000
      8       4.5920      2.00000
      9       4.6219      2.00000
     10       4.9993      2.00000
     11       7.4560      2.00000
     12       7.4773      2.00000
     13      10.2204      0.00000
     14      11.0460      0.00000
     15      11.2046      0.00000
     16      11.9625      0.00000

 k-point    13 :       0.4615    0.0769    0.0000
  band No.  band energies     occupation
      1     -22.0277      2.00000
      2     -22.0005      2.00000
      3     -21.9999      2.00000
      4      -1.8155      2.00000
      5       1.9419      2.00000
      6       3.2066      2.00000
      7       3.3247      2.00000
      8       4.5862      2.00000
      9       4.5863      2.00000
     10       4.7310      2.00000
     11       7.3894      2.00000
     12       7.4727      2.00000
     13      10.3062      0.00000
     14      11.1184      0.00000
     15      11.2159      0.00000
     16      11.6836      0.00000

 k-point    14 :      -0.4615    0.0769    0.0000
  band No.  band energies     occupation
      1     -22.0286      2.00000
      2     -22.0007      2.00000
      3     -21.9995      2.00000
      4      -1.7262      2.00000
      5       1.8645      2.00000
      6       3.2535      2.00000
      7       3.2612      2.00000
      8       4.5498      2.00000
[...]
  212              fftbas_plan_mpi                       0.062181                     12   6
  213                dfftw_execute                         0.026139                   36   7
  214                map_backward                          0.004866                   12   7
  215                  map_gather                            0.001091                  6   8
  216                  m_alltoallv_z                         0.002305                  6   8
  217                  map_scatter                           0.001198                  6   8
  218                map_forward                           0.028254                   12   7
  219                  map_gather                            0.016251                  6   8
  220                  m_alltoallv_z                         0.005348                  6   8
  221                  map_scatter                           0.006343                  6   8
  222            M_sumb_d                              0.006923                        6   5
  223          M_sumb_d                              0.000030                          1   4
  224        setdij_                               1.344146                           20   3
  225          fft3d_mpi                             0.214011                         40   4
  226            fftbas_plan_mpi                       0.196870                       40   5
  227              dfftw_execute                         0.085911                    120   6
  228              map_backward                          0.012454                     40   6
  229                map_gather                            0.002752                   20   7
  230                m_alltoallv_z                         0.004962                   20   7
  231                map_scatter                           0.003795                   20   7
  232              map_forward                           0.088597                     40   6
  233                map_gather                            0.049905                   20   7
  234                m_alltoallv_z                         0.017000                   20   7
  235                map_scatter                           0.020685                   20   7
  236          M_sumb_d                              0.013500                         20   4
  237        set_dd_magatom                        0.000004                            1   3
  238        set_dd_paw                            0.007592                            1   3
  239          set_rsgf_all                          0.000004                          1   4
  240          M_sumb_d                              0.007419                          8   4
  241        strkin                                0.001063                            1   3
  242          M_sumb_d                              0.000699                          1   4
  243        strelo                                0.002874                            1   3
  244          M_sumb_d                              0.000728                          2   4
  245        strenl                                0.634655                            1   3
  246          spher                                 0.508258                         19   4
  247          phase                                 0.010492                        189   4
  248          proj1                                 0.102338                        756   4
  249            crexp_mul_wave                        0.016474                     2268   5
  250            M_sumb_d                              0.025188                      756   5
  251          M_sumb_d                              0.001811                          1   4
  252        M_sumb_d                              0.000210                            6   3
  253        fft3d_mpi                             0.015376                           11   3
  254          fftbas_plan_mpi                       0.014369                         11   4
  255            dfftw_execute                         0.004983                       33   5
  256            map_forward                           0.002876                       10   5
  257              map_gather                            0.000667                      5   6
  258              m_alltoallv_z                         0.001274                      5   6
  259              map_scatter                           0.000700                      5   6
  260            map_backward                          0.003701                       12   5
  261              map_gather                            0.000759                      6   6
  262              m_alltoallv_z                         0.001507                      6   6
  263              map_scatter                           0.001135                      6   6
  264        ggaall_grid                           0.001488                            1   3
  265        forhar                                0.006175                            2   3
  266          M_sumb_d                              0.000263                          2   4
  267        strehar                               0.002451                            1   3
  268          M_sumb_d                              0.000055                          1   4
  269        chggra                                0.005705                            1   3
  270          fft3d_mpi                             0.004036                          3   4
  271            fftbas_plan_mpi                       0.003692                        3   5
  272              dfftw_execute                         0.001319                      9   6
  273              map_backward                          0.000623                      2   6
  274                map_gather                            0.000120                    1   7
  275                m_alltoallv_z                         0.000278                    1   7
  276                map_scatter                           0.000177                    1   7
  277              map_forward                           0.001034                      4   6
  278                map_gather                            0.000209                    2   7
  279                m_alltoallv_z                         0.000487                    2   7
  280                map_scatter                           0.000245                    2   7
  281          M_sumb_d                              0.000132                          3   4
  282        brmix                                 0.011957                            1   3
  283          M_sumb_d                              0.000234                          6   4
  284          brpre                                 0.000044                          1   4
  285          setg0                                 0.001395                          1   4
  286          broyd                                 0.001806                          1   4
  287            M_sumb_d                              0.000488                       16   5
  288            brget                                 0.000246                       54   5
  289            brsav                                 0.000100                       14   5
  290          M_bcast_z                             0.007536                          1   4
  291          M_bcast_d                             0.000062                          1   4
  292        M_bcast_d                             0.000329                            2   3
  293      potlok                                0.027758                              1   2
  294        fft3d_mpi                             0.018745                           13   3
  295          fftbas_plan_mpi                       0.017503                         13   4
  296            dfftw_execute                         0.005827                       39   5
  297            map_forward                           0.004625                       14   5
  298              map_gather                            0.000841                      8   6
  299              m_alltoallv_z                         0.002229                      8   6
  300              map_scatter                           0.001181                      8   6
  301            map_backward                          0.003829                       12   5
  302              map_gather                            0.000790                      6   6
  303              m_alltoallv_z                         0.001604                      6   6
  304              map_scatter                           0.001146                      6   6
  305        ggaall_grid                           0.001609                            1   3
  306        M_sumb_d                              0.000450                            6   3
  307        M_bcast_d                             0.000116                            1   3
  308      potlok_metagga                        0.000004                              1   2
  309      set_dd_magatom                        0.000003                              1   2
  310      set_dd_paw                            0.000373                              1   2
  311        set_rsgf_all                          0.000004                            1   3
  312        M_sumb_d                              0.000236                            8   3
  313      densta                                0.002000                              1   2
  314        M_sumb_d                              0.000849                           39   3
  315      lprj_proall                           0.000008                              1   2

 Flat profile
 ============

             routine name                   CPU           calls
 ---------------------------------------------------------------
 total_time                             15.527517           1
 eddav                                   2.828111          14
 dfftw_execute                           2.822560       27582
 setdij_                                 2.233122          38
 elmin                                   2.224327           1
 fftbas_plan_mpi                         1.923702        9196
 M_sumb_d                                1.386667       26159
 m_alltoallv_z                           1.067381        9215
 set_charge                              1.052314          10
 M_alltoall_d                            0.608248       30254
 pdssyex_zheevx                          0.602446         294
 spher                                   0.577608          20
 orth1                                   0.433441        6162
 vhamil                                  0.412411        4094
 map_gather                              0.378665        9215
 proj1                                   0.366443        3758
 map_forward                             0.346802        9938
 fftwav_mpi                              0.346667        4846
 map_scatter                             0.327991        9215
 gemm                                    0.308834       12282
 M_bcast_z                               0.307311        3754
 crpa_reader                             0.272386           1
 vnlac0                                  0.268641        4094
 redis_pw                                0.249517       11736
 redis_proj                              0.223262       14675
 hamiltmu                                0.221062        2047
 fft3d_mpi                               0.168680        9194
 w1_copy                                 0.158421       12282
 map_backward                            0.147063        8450
 work_mul_crexp                          0.125684       12282
 fftext_mpi                              0.123954        4094
 eccp                                    0.102875        1176
 crexp_mul_wave                          0.092843       11274
 kinhamil                                0.078668        4094
 overl                                   0.077285        7033
 potlok                                  0.073679          11
 force_and_stress                        0.072493           1
 M_bcast_d                               0.066612        2075
 overl1                                  0.050372        4094
 pw_charge                               0.045199         752
 lincom                                  0.043684         315
 setup_precond                           0.038453        1176
 apply_precond                           0.038131        2918
 w1_projall                              0.031430        1459
 phase                                   0.029135         526
 soft_charge                             0.019855          10
 ggaall_grid                             0.018736          12
 fornl                                   0.018569           1
 truncate_high_frequency_w1              0.018239        5270
 densta                                  0.017524          15
 brmix                                   0.012939          10
 setg0                                   0.011845          11
 strenl                                  0.011755           1
 broyd                                   0.005925          10
 forhar                                  0.005912           2
 brgrid                                  0.003051           1
 forloc                                  0.002906           1
 set_dd_paw                              0.002695          12
 strehar                                 0.002396           1
 depsum                                  0.002264          10
 strelo                                  0.002146           1
 orthch                                  0.001984           1
 chggra                                  0.001537           1
 brget                                   0.001364         309
 proj                                    0.000952          21
 choleski                                0.000932          21
 brsav                                   0.000720          96
 brpre                                   0.000634          10
 strkin                                  0.000364           1
 fordep                                  0.000119           1
 vectorpot                               0.000056          11
 set_rsgf_all                            0.000055          12
 potlok_metagga                          0.000048          11
 set_dd_magatom                          0.000045          12
 set_kineden                             0.000038           9
 rotate_active_occupied_orbital          0.000015           1
 lprj_proall                             0.000008           1
 redis_pw_over_bands                     0.000003           1
 ---------------------------------------------------------------
  summed up times    39.0477299690247

 Accumulative profile
 ====================

             routine name                   CPU           calls
 ---------------------------------------------------------------
 total_time                             39.047730           1
 elmin                                  19.776952           1
 eddav                                  14.732675          14
 fft3d_mpi                               7.075809        9194
 fftbas_plan_mpi                         7.014164        9196
 hamiltmu                                4.585851        2047
 fftwav_mpi                              3.802325        4846
 kinhamil                                2.948228        4094
 fftext_mpi                              2.869560        4094
 dfftw_execute                           2.822560       27582
 force_and_stress                        2.724272           1
 setdij_                                 2.704337          38
 set_charge                              1.863087          10
 M_sumb_d                                1.386667       26159
 map_forward                             1.342627        9938
 m_alltoallv_z                           1.067381        9215
 vnlac0                                  0.953779        4094
 map_backward                            0.925275        8450
 soft_charge                             0.665031          10
 proj1                                   0.637050        3758
 strenl                                  0.634655           1
 M_alltoall_d                            0.608248       30254
 pdssyex_zheevx                          0.602446         294
 redis_pw                                0.590353       11736
 spher                                   0.577608          20
 w1_projall                              0.554821        1459
 redis_proj                              0.490674       14675
 orth1                                   0.433441        6162
 fordep                                  0.418825           1
 vhamil                                  0.412411        4094
 map_gather                              0.378665        9215
 map_scatter                             0.327991        9215
 gemm                                    0.308834       12282
 M_bcast_z                               0.307311        3754
 potlok                                  0.290407          11
 crpa_reader                             0.272386           1
 eccp                                    0.171972        1176
 w1_copy                                 0.158421       12282
 work_mul_crexp                          0.125684       12282
 crexp_mul_wave                          0.092843       11274
 overl                                   0.077285        7033
 set_dd_paw                              0.068052          12
 M_bcast_d                               0.066612        2075
 setup_precond                           0.065779        1176
 brmix                                   0.056642          10
 overl1                                  0.050372        4094
 pw_charge                               0.045199         752
 lincom                                  0.043684         315
 apply_precond                           0.038131        2918
 densta                                  0.029331          15
 phase                                   0.029135         526
 fornl                                   0.026294           1
 orthch                                  0.019843           1
 ggaall_grid                             0.018736          12
 truncate_high_frequency_w1              0.018239        5270
 proj                                    0.012273          21
 setg0                                   0.011845          11
 broyd                                   0.011430          10
 forhar                                  0.006175           2
 chggra                                  0.005705           1
 depsum                                  0.005223          10
 brgrid                                  0.003051           1
 forloc                                  0.002966           1
 strelo                                  0.002874           1
 strehar                                 0.002451           1
 brget                                   0.001364         309
 strkin                                  0.001063           1
 choleski                                0.000932          21
 brsav                                   0.000720          96
 brpre                                   0.000634          10
 vectorpot                               0.000056          11
 set_rsgf_all                            0.000055          12
 potlok_metagga                          0.000048          11
 set_dd_magatom                          0.000045          12
 set_kineden                             0.000038           9
 rotate_active_occupied_orbital          0.000015           1
 lprj_proall                             0.000008           1
 redis_pw_over_bands                     0.000003           1
 ---------------------------------------------------------------

Profiling took   0.719584  0.880064  0.006617  0.005139 seconds
Profiling took   0.695766 seconds
