 ----------------------------------------------------
    OOO  PPPP  EEEEE N   N M   M PPPP
   O   O P   P E     NN  N MM MM P   P
   O   O PPPP  EEEEE N N N M M M PPPP   -- VERSION
   O   O P     E     N  NN M   M P
    OOO  P     EEEEE N   N M   M P
 ----------------------------------------------------
 running   64 mpi-ranks, with    1 threads/rank
 distrk:  each k-point on   16 cores,    4 groups
 distr:  one band on    4 cores,    4 groups
 using from now: INCAR
 vasp.6.0.8 29Jun18 (build Jun 13 2019 12:54:44) complex

 POSCAR found type information on POSCAR  Hf Sb Pt
 POSCAR found :  3 types and       3 ions
 scaLAPACK will be used

 -----------------------------------------------------------------------------
|                                                                             |
|  ADVICE TO THIS USER RUNNING 'VASP/VAMP'   (HEAR YOUR MASTER'S VOICE ...):  |
|                                                                             |
|      You enforced a specific xc-type in the INCAR file,                     |
|      a different type was found on the POTCAR file                          |
|          I HOPE YOU KNOW, WHAT YOU ARE  DOING                               |
|                                                                             |
 -----------------------------------------------------------------------------

 LDA part: xc-table for Pade appr. of Perdew
 POSCAR, INCAR and KPOINTS ok, starting setup
 FFT: planning ...
 WAVECAR not read
 entering main loop
       N       E                     dE             d eps       ncg     rms          rms(c)
 ELPA: falling back to scaLAPACK
 ELPA: falling back to scaLAPACK
 ELPA: falling back to scaLAPACK
 ELPA: falling back to scaLAPACK
DAV:   1     0.144762170845E+03    0.14476E+03   -0.14406E+04  2696   0.176E+03
DAV:   2    -0.200589350820E+02   -0.16482E+03   -0.16342E+03  3408   0.347E+02
DAV:   3    -0.245997047028E+02   -0.45408E+01   -0.44964E+01  3608   0.521E+01
DAV:   4    -0.246596037014E+02   -0.59899E-01   -0.59829E-01  3264   0.632E+00
DAV:   5    -0.246609557269E+02   -0.13520E-02   -0.13518E-02  3696   0.867E-01    0.489E+01
DAV:   6    -0.240227714914E+02    0.63818E+00   -0.13664E+00  3464   0.909E+00    0.291E+01
DAV:   7    -0.238911575103E+02    0.13161E+00   -0.86265E-01  3696   0.526E+00    0.421E+00
DAV:   8    -0.238583788985E+02    0.32779E-01   -0.33963E-01  3552   0.365E+00    0.966E-01
DAV:   9    -0.238530344597E+02    0.53444E-02   -0.37581E-02  2976   0.158E+00    0.471E-01
DAV:  10    -0.238528208435E+02    0.21362E-03   -0.34232E-03  3672   0.350E-01    0.256E-01
DAV:  11    -0.238528090116E+02    0.11832E-04   -0.12532E-04  2968   0.872E-02    0.103E-01
DAV:  12    -0.238528068490E+02    0.21626E-05   -0.56359E-05  3688   0.429E-02    0.224E-02
DAV:  13    -0.238528056732E+02    0.11758E-05   -0.22965E-06  2856   0.126E-02    0.321E-03
DAV:  14    -0.238528056164E+02    0.56804E-07   -0.45858E-07  3216   0.480E-03
   1 F= -.23852806E+02 E0= -.23852751E+02  d E =-.108307E-03
