<?xml version="1.0" encoding="ISO-8859-1"?>
<modeling>
 <generator>
  <i name="program" type="string">vasp </i>
  <i name="version" type="string">6.0.8  </i>
  <i name="subversion" type="string">29Jun18 (build Jun 13 2019 12:54:44) complex                          parallel </i>
  <i name="platform" type="string">IFC18_CrayMPICH </i>
  <i name="date" type="string">2021 12 05 </i>
  <i name="time" type="string">14:21:51 </i>
 </generator>
 <incar>
  <i type="int" name="KPAR">     4</i>
  <i type="int" name="NPAR">     4</i>
  <i type="int" name="ISTART">     0</i>
  <i type="string" name="PREC"> ACC</i>
  <i type="string" name="ALGO"> Normal</i>
  <i type="logical" name="ADDGRID"> T  </i>
  <i type="int" name="ISPIN">     1</i>
  <i type="int" name="NELMIN">     5</i>
  <i type="int" name="IBRION">    -1</i>
  <i name="EDIFF">      0.00000010</i>
  <i type="int" name="NSW">     0</i>
  <i type="int" name="ISIF">     3</i>
  <i name="ENCUT">    700.00000000</i>
  <i type="logical" name="LREAL"> F  </i>
  <i type="int" name="ISMEAR">     0</i>
  <i name="SIGMA">      0.01000000</i>
  <i type="logical" name="LWAVE"> F  </i>
  <i type="logical" name="LCHARG"> F  </i>
  <i type="logical" name="LVTOT"> F  </i>
  <i type="string" name="ALGO"> Normal</i>
  <i type="string" name="GGA"> PS</i>
  <i name="EDIFF">      0.00000010</i>
  <i type="int" name="ISPIN">     1</i>
 </incar>
 <structure name="primitive_cell" >
  <crystal>
   <varray name="basis" >
    <v>       0.00000000       3.09116350       3.09116350 </v>
    <v>       3.09116350       0.00000000       3.09116350 </v>
    <v>       3.09116350       3.09116350       0.00000000 </v>
   </varray>
   <i name="volume">     59.07393867 </i>
   <varray name="rec_basis" >
    <v>      -0.16175139       0.16175139       0.16175139 </v>
    <v>       0.16175139      -0.16175139       0.16175139 </v>
    <v>       0.16175139       0.16175139      -0.16175139 </v>
   </varray>
  </crystal>
  <varray name="positions" >
   <v>       0.75000000       0.75000000       0.75000000 </v>
   <v>       0.25000000       0.25000000       0.25000000 </v>
   <v>       0.00000000       0.00000000       0.00000000 </v>
  </varray>
 </structure>
 <varray name="primitive_index" >
  <v type="int" >        1 </v>
  <v type="int" >        2 </v>
  <v type="int" >        3 </v>
 </varray>
 <kpoints>
  <generation param="Gamma">
   <v type="int" name="divisions">      13       13       13 </v>
   <v name="usershift">      0.00000000       0.00000000       0.00000000 </v>
   <v name="genvec1">      0.07692308      -0.00000000       0.00000000 </v>
   <v name="genvec2">     -0.00000000       0.07692308      -0.00000000 </v>
   <v name="genvec3">      0.00000000       0.00000000       0.07692308 </v>
   <v name="shift">      0.00000000       0.00000000       0.00000000 </v>
  </generation>
  <varray name="kpointlist" >
   <v>       0.00000000       0.00000000       0.00000000 </v>
   <v>       0.07692308       0.00000000      -0.00000000 </v>
   <v>       0.15384615      -0.00000000       0.00000000 </v>
   <v>       0.23076923       0.00000000      -0.00000000 </v>
   <v>       0.30769231      -0.00000000       0.00000000 </v>
   <v>       0.38461538       0.00000000      -0.00000000 </v>
   <v>       0.46153846      -0.00000000       0.00000000 </v>
   <v>       0.07692308       0.07692308      -0.00000000 </v>
   <v>       0.15384615       0.07692308      -0.00000000 </v>
   <v>       0.23076923       0.07692308      -0.00000000 </v>
   <v>       0.30769231       0.07692308      -0.00000000 </v>
   <v>       0.38461538       0.07692308      -0.00000000 </v>
   <v>       0.46153846       0.07692308       0.00000000 </v>
   <v>      -0.46153846       0.07692308       0.00000000 </v>
   <v>      -0.38461538       0.07692308       0.00000000 </v>
   <v>      -0.30769231       0.07692308       0.00000000 </v>
   <v>      -0.23076923       0.07692308       0.00000000 </v>
   <v>      -0.15384615       0.07692308       0.00000000 </v>
   <v>      -0.07692308       0.07692308       0.00000000 </v>
   <v>       0.15384615       0.15384615      -0.00000000 </v>
   <v>       0.23076923       0.15384615      -0.00000000 </v>
   <v>       0.30769231       0.15384615      -0.00000000 </v>
   <v>       0.38461538       0.15384615      -0.00000000 </v>
   <v>       0.46153846       0.15384615       0.00000000 </v>
   <v>      -0.46153846       0.15384615      -0.00000000 </v>
   <v>      -0.38461538       0.15384615       0.00000000 </v>
   <v>      -0.30769231       0.15384615      -0.00000000 </v>
   <v>      -0.23076923       0.15384615       0.00000000 </v>
   <v>      -0.15384615       0.15384615      -0.00000000 </v>
   <v>       0.23076923       0.23076923      -0.00000000 </v>
   <v>       0.30769231       0.23076923      -0.00000000 </v>
   <v>       0.38461538       0.23076923      -0.00000000 </v>
   <v>       0.46153846       0.23076923      -0.00000000 </v>
   <v>      -0.46153846       0.23076923       0.00000000 </v>
   <v>      -0.38461538       0.23076923       0.00000000 </v>
   <v>      -0.30769231       0.23076923       0.00000000 </v>
   <v>      -0.23076923       0.23076923       0.00000000 </v>
   <v>       0.30769231       0.30769231      -0.00000000 </v>
   <v>       0.38461538       0.30769231      -0.00000000 </v>
   <v>       0.46153846       0.30769231      -0.00000000 </v>
   <v>      -0.46153846       0.30769231       0.00000000 </v>
   <v>      -0.38461538       0.30769231       0.00000000 </v>
   <v>      -0.30769231       0.30769231      -0.00000000 </v>
   <v>       0.38461538       0.38461538      -0.00000000 </v>
   <v>       0.46153846       0.38461538      -0.00000000 </v>
   <v>      -0.46153846       0.38461538      -0.00000000 </v>
   <v>      -0.38461538       0.38461538       0.00000000 </v>
   <v>       0.46153846       0.46153846      -0.00000000 </v>
   <v>      -0.46153846       0.46153846      -0.00000000 </v>
   <v>       0.23076923       0.15384615       0.07692308 </v>
   <v>       0.30769231       0.15384615       0.07692308 </v>
   <v>       0.38461538       0.15384615       0.07692308 </v>
   <v>       0.46153846       0.15384615       0.07692308 </v>
   <v>      -0.46153846       0.15384615       0.07692308 </v>
   <v>       0.30769231       0.23076923       0.07692308 </v>
   <v>       0.38461538       0.23076923       0.07692308 </v>
   <v>       0.46153846       0.23076923       0.07692308 </v>
   <v>      -0.46153846       0.23076923       0.07692308 </v>
   <v>      -0.38461538       0.23076923       0.07692308 </v>
   <v>      -0.30769231       0.23076923       0.07692308 </v>
   <v>      -0.23076923       0.23076923       0.07692308 </v>
   <v>      -0.15384615       0.23076923       0.07692308 </v>
   <v>       0.38461538       0.30769231       0.07692308 </v>
   <v>       0.46153846       0.30769231       0.07692308 </v>
   <v>      -0.46153846       0.30769231       0.07692308 </v>
   <v>      -0.38461538       0.30769231       0.07692308 </v>
   <v>      -0.30769231       0.30769231       0.07692308 </v>
   <v>      -0.23076923       0.30769231       0.07692308 </v>
   <v>       0.46153846       0.38461538       0.07692308 </v>
   <v>      -0.46153846       0.38461538       0.07692308 </v>
   <v>      -0.38461538       0.38461538       0.07692308 </v>
   <v>      -0.30769231       0.38461538       0.07692308 </v>
   <v>      -0.46153846       0.46153846       0.07692308 </v>
   <v>      -0.38461538       0.46153846       0.07692308 </v>
   <v>       0.46153846       0.30769231       0.15384615 </v>
   <v>      -0.46153846       0.30769231       0.15384615 </v>
   <v>      -0.38461538       0.30769231       0.15384615 </v>
   <v>      -0.46153846       0.38461538       0.15384615 </v>
   <v>      -0.38461538       0.38461538       0.15384615 </v>
   <v>      -0.30769231       0.38461538       0.15384615 </v>
   <v>      -0.23076923       0.38461538       0.15384615 </v>
   <v>      -0.38461538       0.46153846       0.15384615 </v>
   <v>      -0.30769231       0.46153846       0.15384615 </v>
   <v>      -0.30769231       0.46153846       0.23076923 </v>
  </varray>
  <varray name="weights" >
   <v>       0.00045517 </v>
   <v>       0.00364133 </v>
   <v>       0.00364133 </v>
   <v>       0.00364133 </v>
   <v>       0.00364133 </v>
   <v>       0.00364133 </v>
   <v>       0.00364133 </v>
   <v>       0.00273100 </v>
   <v>       0.01092399 </v>
   <v>       0.01092399 </v>
   <v>       0.01092399 </v>
   <v>       0.01092399 </v>
   <v>       0.01092399 </v>
   <v>       0.01092399 </v>
   <v>       0.01092399 </v>
   <v>       0.01092399 </v>
   <v>       0.01092399 </v>
   <v>       0.01092399 </v>
   <v>       0.00546199 </v>
   <v>       0.00273100 </v>
   <v>       0.01092399 </v>
   <v>       0.01092399 </v>
   <v>       0.01092399 </v>
   <v>       0.01092399 </v>
   <v>       0.01092399 </v>
   <v>       0.01092399 </v>
   <v>       0.01092399 </v>
   <v>       0.01092399 </v>
   <v>       0.00546199 </v>
   <v>       0.00273100 </v>
   <v>       0.01092399 </v>
   <v>       0.01092399 </v>
   <v>       0.01092399 </v>
   <v>       0.01092399 </v>
   <v>       0.01092399 </v>
   <v>       0.01092399 </v>
   <v>       0.00546199 </v>
   <v>       0.00273100 </v>
   <v>       0.01092399 </v>
   <v>       0.01092399 </v>
   <v>       0.01092399 </v>
   <v>       0.01092399 </v>
   <v>       0.00546199 </v>
   <v>       0.00273100 </v>
   <v>       0.01092399 </v>
   <v>       0.01092399 </v>
   <v>       0.00546199 </v>
   <v>       0.00273100 </v>
   <v>       0.00546199 </v>
   <v>       0.01092399 </v>
   <v>       0.02184797 </v>
   <v>       0.02184797 </v>
   <v>       0.02184797 </v>
   <v>       0.02184797 </v>
   <v>       0.01092399 </v>
   <v>       0.02184797 </v>
   <v>       0.02184797 </v>
   <v>       0.02184797 </v>
   <v>       0.02184797 </v>
   <v>       0.02184797 </v>
   <v>       0.02184797 </v>
   <v>       0.01092399 </v>
   <v>       0.01092399 </v>
   <v>       0.02184797 </v>
   <v>       0.02184797 </v>
   <v>       0.02184797 </v>
   <v>       0.02184797 </v>
   <v>       0.01092399 </v>
   <v>       0.01092399 </v>
   <v>       0.02184797 </v>
   <v>       0.02184797 </v>
   <v>       0.01092399 </v>
   <v>       0.01092399 </v>
   <v>       0.01092399 </v>
   <v>       0.01092399 </v>
   <v>       0.02184797 </v>
   <v>       0.02184797 </v>
   <v>       0.01092399 </v>
   <v>       0.02184797 </v>
   <v>       0.02184797 </v>
   <v>       0.01092399 </v>
   <v>       0.01092399 </v>
   <v>       0.01092399 </v>
   <v>       0.01092399 </v>
  </varray>
 </kpoints>
 <parameters>
  <separator name="general" >
   <i type="string" name="SYSTEM">unknown system</i>
   <i type="logical" name="LCOMPAT"> F  </i>
  </separator>
  <separator name="electronic" >
   <i type="string" name="PREC">acc</i>
   <i name="ENMAX">    700.00000000</i>
   <i name="ENAUG">    380.87800000</i>
   <i name="EDIFF">      0.00000010</i>
   <i type="int" name="IALGO">    38</i>
   <i type="int" name="IWAVPR">    10</i>
   <i type="int" name="NBANDS">    16</i>
   <i type="int" name="NBANDSLOW">    -1</i>
   <i type="int" name="NBANDSHIGH">    -1</i>
   <i name="NELECT">     25.00000000</i>
   <i type="int" name="TURBO">     0</i>
   <i type="int" name="IRESTART">     0</i>
   <i type="int" name="NREBOOT">     0</i>
   <i type="int" name="NMIN">     0</i>
   <i name="EREF">      0.00000000</i>
   <separator name="electronic smearing" >
    <i type="int" name="ISMEAR">     0</i>
    <i name="SIGMA">      0.01000000</i>
    <i name="KSPACING">      0.50000000</i>
    <i type="logical" name="KGAMMA"> T  </i>
    <i type="logical" name="KBLOWUP"> T  </i>
   </separator>
   <separator name="electronic projectors" >
    <i type="logical" name="LREAL"> F  </i>
    <v name="ROPT">      0.00000000      0.00000000      0.00000000</v>
    <i type="int" name="LMAXPAW">  -100</i>
    <i type="int" name="LMAXMIX">     2</i>
    <i type="logical" name="NLSPLINE"> F  </i>
   </separator>
   <separator name="electronic startup" >
    <i type="int" name="ISTART">     0</i>
    <i type="int" name="ICHARG">     2</i>
    <i type="int" name="INIWAV">     1</i>
   </separator>
   <separator name="electronic spin" >
    <i type="int" name="ISPIN">     1</i>
    <i type="logical" name="LNONCOLLINEAR"> F  </i>
    <v name="MAGMOM">      1.00000000      1.00000000      1.00000000</v>
    <i name="NUPDOWN">     -1.00000000</i>
    <i type="logical" name="LSORBIT"> F  </i>
    <v name="SAXIS">      0.00000000      0.00000000      1.00000000</v>
    <i type="logical" name="LSPIRAL"> F  </i>
    <v name="QSPIRAL">      0.00000000      0.00000000      0.00000000</v>
    <i type="logical" name="LZEROZ"> F  </i>
   </separator>
   <separator name="electronic exchange-correlation" >
    <i type="logical" name="LASPH"> F  </i>
    <i type="logical" name="LMETAGGA"> F  </i>
   </separator>
   <separator name="electronic convergence" >
    <i type="int" name="NELM">    60</i>
    <i type="int" name="NELMDL">    -5</i>
    <i type="int" name="NELMIN">     5</i>
    <i name="ENINI">    700.00000000</i>
    <separator name="electronic convergence detail" >
     <i type="logical" name="LDIAG"> T  </i>
     <i type="logical" name="LSUBROT"> F  </i>
     <i name="WEIMIN">      0.00000000</i>
     <i name="EBREAK">      0.00000000</i>
     <i name="DEPER">      0.30000000</i>
     <i type="int" name="NRMM">     4</i>
     <i name="TIME">      0.40000000</i>
    </separator>
   </separator>
   <separator name="electronic mixer" >
    <i name="AMIX">      0.40000000</i>
    <i name="BMIX">      1.00000000</i>
    <i name="AMIN">      0.10000000</i>
    <i name="AMIX_MAG">      1.60000000</i>
    <i name="BMIX_MAG">      1.00000000</i>
    <separator name="electronic mixer details" >
     <i type="int" name="IMIX">     4</i>
     <i type="logical" name="MIXFIRST"> F  </i>
     <i type="int" name="MAXMIX">   -45</i>
     <i name="WC">    100.00000000</i>
     <i type="int" name="INIMIX">     1</i>
     <i type="int" name="MIXPRE">     1</i>
     <i type="int" name="MREMOVE">     5</i>
    </separator>
   </separator>
   <separator name="electronic dipolcorrection" >
    <i type="logical" name="LDIPOL"> F  </i>
    <i type="logical" name="LMONO"> F  </i>
    <i type="int" name="IDIPOL">     0</i>
    <i name="EPSILON">      1.00000000</i>
    <v name="DIPOL">   -100.00000000   -100.00000000   -100.00000000</v>
    <i name="EFIELD">      0.00000000</i>
   </separator>
  </separator>
  <separator name="grids" >
   <i type="int" name="NGX">    40</i>
   <i type="int" name="NGY">    40</i>
   <i type="int" name="NGZ">    40</i>
   <i type="int" name="NGXF">    80</i>
   <i type="int" name="NGYF">    80</i>
   <i type="int" name="NGZF">    80</i>
   <i type="logical" name="ADDGRID"> T  </i>
  </separator>
  <separator name="ionic" >
   <i type="int" name="NSW">     0</i>
   <i type="int" name="IBRION">    -1</i>
   <i type="int" name="MDALGO">     0</i>
   <i type="int" name="ISIF">     3</i>
   <i name="PSTRESS">      0.00000000</i>
   <i name="EDIFFG">      0.00000100</i>
   <i type="int" name="NFREE">     0</i>
   <i name="POTIM">      0.50000000</i>
   <i name="SMASS">     -3.00000000</i>
   <i name="SCALEE">      1.00000000</i>
  </separator>
  <separator name="ionic md" >
   <i name="TEBEG">      0.00010000</i>
   <i name="TEEND">      0.00010000</i>
   <i type="int" name="NBLOCK">     1</i>
   <i type="int" name="KBLOCK">     1</i>
   <i type="int" name="NPACO">   256</i>
   <i name="APACO">     16.00000000</i>
  </separator>
  <separator name="symmetry" >
   <i type="int" name="ISYM">     2</i>
   <i name="SYMPREC">      0.00001000</i>
  </separator>
  <separator name="dos" >
   <i type="int" name="LORBIT">     0</i>
   <v name="RWIGS">     -1.00000000     -1.00000000     -1.00000000</v>
   <i type="int" name="NEDOS">   301</i>
   <i name="EMIN">     10.00000000</i>
   <i name="EMAX">    -10.00000000</i>
   <i name="EFERMI">      0.00000000</i>
  </separator>
  <separator name="writing" >
   <i type="int" name="NWRITE">     2</i>
   <i type="logical" name="LWAVE"> F  </i>
   <i type="logical" name="LDOWNSAMPLE"> F  </i>
   <i type="logical" name="LCHARG"> F  </i>
   <i type="logical" name="LPARD"> F  </i>
   <i type="logical" name="LVTOT"> F  </i>
   <i type="logical" name="LVHAR"> F  </i>
   <i type="logical" name="LELF"> F  </i>
   <i type="logical" name="LOPTICS"> F  </i>
   <v name="STM">      0.00000000      0.00000000      0.00000000      0.00000000      0.00000000      0.00000000      0.00000000</v>
  </separator>
  <separator name="performance" >
   <i type="int" name="NPAR">     4</i>
   <i type="int" name="NSIM">     4</i>
   <i type="int" name="NBLK">    -1</i>
   <i type="logical" name="LPLANE"> T  </i>
   <i type="logical" name="LSCALAPACK"> T  </i>
   <i type="logical" name="LSCAAWARE"> F  </i>
   <i type="logical" name="LSCALU"> F  </i>
   <i type="logical" name="LASYNC"> F  </i>
   <i type="logical" name="LORBITALREAL"> F  </i>
  </separator>
  <separator name="miscellaneous" >
   <i type="int" name="IDIOT">     3</i>
   <i type="int" name="PHON_NSTRUCT">    -1</i>
   <i type="logical" name="LMUSIC"> F  </i>
   <v name="POMASS">    178.49000000    121.75000000    195.08000000</v>
   <v name="DARWINR">      0.00000000      0.00000000      0.00000000</v>
   <v name="DARWINV">      1.00000000      1.00000000      1.00000000</v>
   <i type="logical" name="LCORR"> T  </i>
  </separator>
  <i type="logical" name="GGA_COMPAT"> T  </i>
  <i type="logical" name="LBERRY"> F  </i>
  <i type="int" name="ICORELEVEL">     0</i>
  <i type="logical" name="LDAU"> F  </i>
  <i type="int" name="I_CONSTRAINED_M">     0</i>
  <separator name="electronic exchange-correlation" >
   <i type="string" name="GGA">PS</i>
   <i type="int" name="VOSKOWN">     0</i>
   <i type="logical" name="LHFCALC"> F  </i>
   <i type="string" name="PRECFOCK"></i>
   <i type="logical" name="LSYMGRAD"> F  </i>
   <i type="logical" name="LHFONE"> F  </i>
   <i type="logical" name="LRHFCALC"> F  </i>
   <i type="logical" name="LTHOMAS"> F  </i>
   <i type="logical" name="LMODELHF"> F  </i>
   <i type="logical" name="LFOCKACE"> F  </i>
   <i name="ENCUT4O">     -1.00000000</i>
   <i type="int" name="EXXOEP">     0</i>
   <i type="int" name="FOURORBIT">     0</i>
   <i name="AEXX">      0.00000000</i>
   <i name="HFALPHA">      0.00000000</i>
   <i name="MCALPHA">      0.00000000</i>
   <i name="ALDAX">      1.00000000</i>
   <i name="AGGAX">      1.00000000</i>
   <i name="ALDAC">      1.00000000</i>
   <i name="AGGAC">      1.00000000</i>
   <i type="int" name="NKREDX">     1</i>
   <i type="int" name="NKREDY">     1</i>
   <i type="int" name="NKREDZ">     1</i>
   <i type="logical" name="SHIFTRED"> F  </i>
   <i type="logical" name="ODDONLY"> F  </i>
   <i type="logical" name="EVENONLY"> F  </i>
   <i type="int" name="LMAXFOCK">     0</i>
   <i type="int" name="NMAXFOCKAE">     0</i>
   <i type="logical" name="LFOCKAEDFT"> F  </i>
   <i name="HFSCREEN">      0.00000000</i>
   <i name="HFSCREENC">      0.00000000</i>
   <i type="int" name="NBANDSGWLOW">     0</i>
  </separator>
  <separator name="vdW DFT" >
   <i type="logical" name="LUSE_VDW"> F  </i>
   <i name="Zab_VDW">     -0.84910000</i>
   <i name="PARAM1">      0.12340000</i>
   <i name="PARAM2">      1.00000000</i>
   <i name="PARAM3">      0.00000000</i>
  </separator>
  <separator name="model GW" >
   <i type="int" name="MODEL_GW">     0</i>
   <i name="MODEL_EPS0">     11.81478773</i>
   <i name="MODEL_ALPHA">      1.00000000</i>
  </separator>
  <separator name="linear response parameters" >
   <i type="logical" name="LEPSILON"> F  </i>
   <i type="logical" name="LRPA"> F  </i>
   <i type="logical" name="LNABLA"> F  </i>
   <i type="logical" name="LVEL"> F  </i>
   <i type="int" name="KINTER">     0</i>
   <i name="CSHIFT">      0.10000000</i>
   <i name="OMEGAMAX">     -1.00000000</i>
   <i name="DEG_THRESHOLD">      0.00200000</i>
   <i name="RTIME">     -0.10000000</i>
   <i name="WPLASMAI">      0.00000000</i>
   <v name="DFIELD">      0.00000000      0.00000000      0.00000000</v>
   <v name="WPLASMA">      0.00000000      0.00000000      0.00000000      0.00000000      0.00000000      0.00000000      0.00000000      0.00000000      0.00000000</v>
  </separator>
  <separator name="orbital magnetization" >
   <i type="logical" name="NUCIND"> F  </i>
   <v name="MAGPOS">      0.00000000      0.00000000      0.00000000</v>
   <i type="logical" name="LNICSALL"> T  </i>
   <i type="logical" name="ORBITALMAG"> F  </i>
   <i type="logical" name="LMAGBLOCH"> F  </i>
   <i type="logical" name="LCHIMAG"> F  </i>
   <i type="logical" name="LGAUGE"> T  </i>
   <i type="int" name="MAGATOM">     0</i>
   <v name="MAGDIPOL">      0.00000000      0.00000000      0.00000000</v>
   <v name="AVECCONST">      0.00000000      0.00000000      0.00000000</v>
  </separator>
  <separator name="response functions" >
   <i type="logical" name="LFINITE_TEMPERATURE"> F  </i>
   <i type="logical" name="LADDER"> F  </i>
   <i type="logical" name="LRPAFORCE"> F  </i>
   <i type="logical" name="LFXC"> F  </i>
   <i type="logical" name="LHARTREE"> T  </i>
   <i type="int" name="IBSE">     0</i>
   <v type="int" name="KPOINT">    -1     0     0     0</v>
   <i type="logical" name="LTCTC"> F  </i>
   <i type="logical" name="LTCTE"> F  </i>
   <i type="logical" name="LTETE"> F  </i>
   <i type="logical" name="LTRIPLET"> F  </i>
   <i type="logical" name="LFXCEPS"> F  </i>
   <i type="logical" name="LFXHEG"> F  </i>
   <i type="int" name="NATURALO">     2</i>
   <i type="logical" name="L2ORDER"> F  </i>
   <i type="logical" name="LDMP1"> F  </i>
   <i type="logical" name="LMP2LT"> F  </i>
   <i type="logical" name="LSMP2LT"> F  </i>
   <i type="logical" name="LUSEW"> F  </i>
   <i name="ENCUTGW">     -2.00000000</i>
   <i name="ENCUTGWSOFT">     -2.00000000</i>
   <i name="ENCUTLF">     -1.00000000</i>
   <i type="int" name="LMAXMP2">    -1</i>
   <i name="SCISSOR">      0.00000000</i>
   <i type="int" name="NOMEGA">     0</i>
   <i type="int" name="NOMEGAR">     0</i>
   <i type="int" name="NBANDSGW">    -1</i>
   <i type="int" name="NBANDSO">    -1</i>
   <i type="int" name="NBANDSV">    -1</i>
   <i type="int" name="NELM">     1</i>
   <i type="int" name="NELMHF">     1</i>
   <i type="int" name="DIM">     3</i>
   <i type="int" name="IESPILON">     4</i>
   <i type="int" name="ANTIRES">     0</i>
   <i name="OMEGAMAX">    -30.00000000</i>
   <i name="OMEGAMIN">    -30.00000000</i>
   <i name="OMEGATL">   -200.00000000</i>
   <i type="int" name="OMEGAGRID">   145</i>
   <i name="CSHIFT">     -0.10000000</i>
   <i type="logical" name="LSELFENERGY"> F  </i>
   <i type="logical" name="LSPECTRAL"> F  </i>
   <i type="logical" name="LSPECTRALGW"> F  </i>
   <i type="logical" name="LSINGLES"> F  </i>
   <i type="logical" name="LFERMIGW"> F  </i>
   <i type="logical" name="ODDONLYGW"> F  </i>
   <i type="logical" name="EVENONLYGW"> F  </i>
   <i type="int" name="NKREDLFX">     1</i>
   <i type="int" name="NKREDLFY">     1</i>
   <i type="int" name="NKREDLFZ">     1</i>
   <i type="int" name="MAXMEM">  2800</i>
   <i type="int" name="TELESCOPE">     0</i>
   <i type="int" name="NTAUPAR">     1</i>
   <i type="int" name="NOMEGAPAR">    -1</i>
   <i name="LAMBDA">      1.00000000</i>
  </separator>
  <separator name="External order field" >
   <i name="OFIELD_KAPPA">      0.00000000</i>
   <v name="OFIELD_K">      0.00000000      0.00000000      0.00000000</v>
   <i name="OFIELD_Q6_NEAR">      0.00000000</i>
   <i name="OFIELD_Q6_FAR">      0.00000000</i>
   <i name="OFIELD_A">      0.00000000</i>
  </separator>
 </parameters>
 <atominfo>
  <atoms>       3 </atoms>
  <types>       3 </types>
  <array name="atoms" >
   <dimension dim="1">ion</dimension>
   <field type="string">element</field>
   <field type="int">atomtype</field>
   <set>
    <rc><c>Hf</c><c>   1</c></rc>
    <rc><c>Sb</c><c>   2</c></rc>
    <rc><c>Pt</c><c>   3</c></rc>
   </set>
  </array>
  <array name="atomtypes" >
   <dimension dim="1">type</dimension>
   <field type="int">atomspertype</field>
   <field type="string">element</field>
   <field>mass</field>
   <field>valence</field>
   <field type="string">pseudopotential</field>
   <set>
    <rc><c>   1</c><c>Hf</c><c>    178.49000000</c><c>     10.00000000</c><c>  PAW_PBE Hf_pv 06Sep2000               </c></rc>
    <rc><c>   1</c><c>Sb</c><c>    121.75000000</c><c>      5.00000000</c><c>  PAW_PBE Sb 06Sep2000                  </c></rc>
    <rc><c>   1</c><c>Pt</c><c>    195.08000000</c><c>     10.00000000</c><c>  PAW_PBE Pt 04Feb2005                  </c></rc>
   </set>
  </array>
 </atominfo>
 <structure name="initialpos" >
  <crystal>
   <varray name="basis" >
    <v>       0.00000000       3.09116350       3.09116350 </v>
    <v>       3.09116350       0.00000000       3.09116350 </v>
    <v>       3.09116350       3.09116350       0.00000000 </v>
   </varray>
   <i name="volume">     59.07393867 </i>
   <varray name="rec_basis" >
    <v>      -0.16175139       0.16175139       0.16175139 </v>
    <v>       0.16175139      -0.16175139       0.16175139 </v>
    <v>       0.16175139       0.16175139      -0.16175139 </v>
   </varray>
  </crystal>
  <varray name="positions" >
   <v>       0.75000000       0.75000000       0.75000000 </v>
   <v>       0.25000000       0.25000000       0.25000000 </v>
   <v>       0.00000000       0.00000000       0.00000000 </v>
  </varray>
 </structure>
 <calculation>
  <scstep>
   <time name="dav">    0.92    0.93</time>
   <time name="total">    1.05    1.16</time>
   <energy>
    <i name="alphaZ">    115.32587260 </i>
    <i name="ewald">  -1608.47511190 </i>
    <i name="hartreedc">   -308.62301753 </i>
    <i name="XCdc">    -18.25300440 </i>
    <i name="pawpsdc">   1514.36848356 </i>
    <i name="pawaedc">  -1421.27055995 </i>
    <i name="eentropy">     -0.00030428 </i>
    <i name="bandstr">    130.58530155 </i>
    <i name="atom">   1741.10451121 </i>
    <i name="e_fr_energy">    144.76217085 </i>
    <i name="e_wo_entrp">    144.76247513 </i>
    <i name="e_0_energy">    144.76232299 </i>
   </energy>
  </scstep>
  <scstep>
   <time name="dav">    1.08    1.19</time>
   <time name="total">    1.08    1.19</time>
   <energy>
    <i name="e_fr_energy">    -20.05893508 </i>
    <i name="e_wo_entrp">    -20.05864323 </i>
    <i name="e_0_energy">    -20.05878916 </i>
   </energy>
  </scstep>
  <scstep>
   <time name="dav">    1.13    1.24</time>
   <time name="total">    1.13    1.25</time>
   <energy>
    <i name="e_fr_energy">    -24.59970470 </i>
    <i name="e_wo_entrp">    -24.59939566 </i>
    <i name="e_0_energy">    -24.59955018 </i>
   </energy>
  </scstep>
  <scstep>
   <time name="dav">    1.06    1.08</time>
   <time name="total">    1.06    1.09</time>
   <energy>
    <i name="e_fr_energy">    -24.65960370 </i>
    <i name="e_wo_entrp">    -24.65931993 </i>
    <i name="e_0_energy">    -24.65946182 </i>
   </energy>
  </scstep>
  <scstep>
   <time name="dav">    1.17    1.20</time>
   <time name="total">    1.45    1.47</time>
   <energy>
    <i name="e_fr_energy">    -24.66095573 </i>
    <i name="e_wo_entrp">    -24.66067274 </i>
    <i name="e_0_energy">    -24.66081423 </i>
   </energy>
  </scstep>
  <scstep>
   <time name="dav">    1.06    1.06</time>
   <time name="total">    1.42    1.45</time>
   <energy>
    <i name="e_fr_energy">    -24.02277149 </i>
    <i name="e_wo_entrp">    -24.02268181 </i>
    <i name="e_0_energy">    -24.02272665 </i>
   </energy>
  </scstep>
  <scstep>
   <time name="dav">    1.15    1.15</time>
   <time name="total">    1.46    1.49</time>
   <energy>
    <i name="e_fr_energy">    -23.89115751 </i>
    <i name="e_wo_entrp">    -23.89087117 </i>
    <i name="e_0_energy">    -23.89101434 </i>
   </energy>
  </scstep>
  <scstep>
   <time name="dav">    1.10    1.10</time>
   <time name="total">    1.43    1.46</time>
   <energy>
    <i name="e_fr_energy">    -23.85837890 </i>
    <i name="e_wo_entrp">    -23.85824692 </i>
    <i name="e_0_energy">    -23.85831291 </i>
   </energy>
  </scstep>
  <scstep>
   <time name="dav">    0.97    0.97</time>
   <time name="total">    1.28    1.30</time>
   <energy>
    <i name="e_fr_energy">    -23.85303446 </i>
    <i name="e_wo_entrp">    -23.85292097 </i>
    <i name="e_0_energy">    -23.85297771 </i>
   </energy>
  </scstep>
  <scstep>
   <time name="dav">    1.12    1.12</time>
   <time name="total">    1.43    1.47</time>
   <energy>
    <i name="e_fr_energy">    -23.85282084 </i>
    <i name="e_wo_entrp">    -23.85271247 </i>
    <i name="e_0_energy">    -23.85276666 </i>
   </energy>
  </scstep>
  <scstep>
   <time name="dav">    0.97    0.97</time>
   <time name="total">    1.29    1.34</time>
   <energy>
    <i name="e_fr_energy">    -23.85280901 </i>
    <i name="e_wo_entrp">    -23.85270149 </i>
    <i name="e_0_energy">    -23.85275525 </i>
   </energy>
  </scstep>
  <scstep>
   <time name="dav">    1.13    1.13</time>
   <time name="total">    1.44    1.60</time>
   <energy>
    <i name="e_fr_energy">    -23.85280685 </i>
    <i name="e_wo_entrp">    -23.85269837 </i>
    <i name="e_0_energy">    -23.85275261 </i>
   </energy>
  </scstep>
  <scstep>
   <time name="dav">    0.94    0.94</time>
   <time name="total">    1.25    1.29</time>
   <energy>
    <i name="e_fr_energy">    -23.85280567 </i>
    <i name="e_wo_entrp">    -23.85269732 </i>
    <i name="e_0_energy">    -23.85275150 </i>
   </energy>
  </scstep>
  <scstep>
   <time name="dav">    1.01    1.02</time>
   <time name="total">    1.15    1.26</time>
   <energy>
    <i name="alphaZ">    115.32587260 </i>
    <i name="ewald">  -1608.47511190 </i>
    <i name="hartreedc">   -289.07122946 </i>
    <i name="XCdc">    -18.77174729 </i>
    <i name="pawpsdc">   3001.03182855 </i>
    <i name="pawaedc">  -2913.86322111 </i>
    <i name="eentropy">     -0.00010831 </i>
    <i name="bandstr">    -51.13359990 </i>
    <i name="atom">   1741.10451121 </i>
    <i name="e_fr_energy">    -23.85280562 </i>
    <i name="e_wo_entrp">    -23.85269731 </i>
    <i name="e_0_energy">    -23.85275146 </i>
   </energy>
  </scstep>
  <structure>
   <crystal>
    <varray name="basis" >
     <v>       0.00000000       3.09116350       3.09116350 </v>
     <v>       3.09116350       0.00000000       3.09116350 </v>
     <v>       3.09116350       3.09116350       0.00000000 </v>
    </varray>
    <i name="volume">     59.07393867 </i>
    <varray name="rec_basis" >
     <v>      -0.16175139       0.16175139       0.16175139 </v>
     <v>       0.16175139      -0.16175139       0.16175139 </v>
     <v>       0.16175139       0.16175139      -0.16175139 </v>
    </varray>
   </crystal>
   <varray name="positions" >
    <v>       0.75000000       0.75000000       0.75000000 </v>
    <v>       0.25000000       0.25000000       0.25000000 </v>
    <v>       0.00000000       0.00000000       0.00000000 </v>
   </varray>
  </structure>
  <varray name="forces" >
   <v>       0.00000000       0.00000000       0.00000000 </v>
   <v>       0.00000000       0.00000000       0.00000000 </v>
   <v>      -0.00000000      -0.00000000      -0.00000000 </v>
  </varray>
  <varray name="stress" >
   <v>     137.80177153      -0.00000000       0.00000000 </v>
   <v>      -0.00000000     137.80177153       0.00000000 </v>
   <v>       0.00000000      -0.00000000     137.80177153 </v>
  </varray>
  <energy>
   <i name="e_fr_energy">    -23.85280562 </i>
   <i name="e_wo_entrp">    -23.85275146 </i>
   <i name="e_0_energy">     -0.00010831 </i>
  </energy>
  <time name="totalsc">   20.86   22.78</time>
  <eigenvalues>
   <array>
    <dimension dim="1">band</dimension>
    <dimension dim="2">kpoint</dimension>
    <dimension dim="3">spin</dimension>
    <field>eigene</field>
    <field>occ</field>
    <set>
     <set comment="spin 1">
      <set comment="kpoint 1">
       <r>  -22.0016    1.0000 </r>
       <r>  -22.0016    1.0000 </r>
       <r>  -22.0016    1.0000 </r>
       <r>   -3.4247    1.0000 </r>
       <r>    3.4867    1.0000 </r>
       <r>    3.4867    1.0000 </r>
       <r>    3.4867    1.0000 </r>
       <r>    4.2963    1.0000 </r>
       <r>    4.2963    1.0000 </r>
       <r>    8.2206    1.0000 </r>
       <r>    8.2206    1.0000 </r>
       <r>    8.2206    1.0000 </r>
       <r>    9.6523    1.0000 </r>
       <r>   11.0806    0.0000 </r>
       <r>   11.0806    0.0000 </r>
       <r>   11.0806    0.0000 </r>
      </set>
      <set comment="kpoint 2">
       <r>  -22.0032    1.0000 </r>
       <r>  -22.0015    1.0000 </r>
       <r>  -22.0015    1.0000 </r>
       <r>   -3.3515    1.0000 </r>
       <r>    3.4110    1.0000 </r>
       <r>    3.4468    1.0000 </r>
       <r>    3.4468    1.0000 </r>
       <r>    4.3499    1.0000 </r>
       <r>    4.3499    1.0000 </r>
       <r>    7.7130    1.0000 </r>
       <r>    8.1552    1.0000 </r>
       <r>    8.1552    1.0000 </r>
       <r>    9.7581    1.0000 </r>
       <r>   10.9054    0.0000 </r>
       <r>   10.9054    0.0000 </r>
       <r>   11.5514    0.0000 </r>
      </set>
      <set comment="kpoint 3">
       <r>  -22.0077    1.0000 </r>
       <r>  -22.0011    1.0000 </r>
       <r>  -22.0011    1.0000 </r>
       <r>   -3.1392    1.0000 </r>
       <r>    3.1989    1.0000 </r>
       <r>    3.3651    1.0000 </r>
       <r>    3.3651    1.0000 </r>
       <r>    4.4637    1.0000 </r>
       <r>    4.4637    1.0000 </r>
       <r>    6.8007    1.0000 </r>
       <r>    7.9923    1.0000 </r>
       <r>    7.9923    1.0000 </r>
       <r>    9.8888    1.0000 </r>
       <r>   10.7887    0.0000 </r>
       <r>   10.7887    0.0000 </r>
       <r>   12.3513    0.0000 </r>
      </set>
      <set comment="kpoint 4">
       <r>  -22.0140    1.0000 </r>
       <r>  -22.0006    1.0000 </r>
       <r>  -22.0006    1.0000 </r>
       <r>   -2.8119    1.0000 </r>
       <r>    2.8825    1.0000 </r>
       <r>    3.2938    1.0000 </r>
       <r>    3.2938    1.0000 </r>
       <r>    4.5635    1.0000 </r>
       <r>    4.5635    1.0000 </r>
       <r>    5.9411    1.0000 </r>
       <r>    7.8063    1.0000 </r>
       <r>    7.8063    1.0000 </r>
       <r>   10.0059    1.0000 </r>
       <r>   10.8089    0.0000 </r>
       <r>   10.8089    0.0000 </r>
       <r>   13.0577    0.0000 </r>
      </set>
      <set comment="kpoint 5">
       <r>  -22.0206    1.0000 </r>
       <r>  -22.0001    1.0000 </r>
       <r>  -22.0001    1.0000 </r>
       <r>   -2.4150    1.0000 </r>
       <r>    2.4987    1.0000 </r>
       <r>    3.2551    1.0000 </r>
       <r>    3.2551    1.0000 </r>
       <r>    4.6068    1.0000 </r>
       <r>    4.6068    1.0000 </r>
       <r>    5.2762    1.0000 </r>
       <r>    7.6618    1.0000 </r>
       <r>    7.6618    1.0000 </r>
       <r>   10.1172    1.0000 </r>
       <r>   10.9357    0.0000 </r>
       <r>   10.9357    0.0000 </r>
       <r>   12.5737    0.0000 </r>
      </set>
      <set comment="kpoint 6">
       <r>  -22.0259    1.0000 </r>
       <r>  -21.9997    1.0000 </r>
       <r>  -21.9997    1.0000 </r>
       <r>   -2.0268    1.0000 </r>
       <r>    2.1138    1.0000 </r>
       <r>    3.2467    1.0000 </r>
       <r>    3.2467    1.0000 </r>
       <r>    4.5964    1.0000 </r>
       <r>    4.5964    1.0000 </r>
       <r>    4.8495    1.0000 </r>
       <r>    7.5814    1.0000 </r>
       <r>    7.5814    1.0000 </r>
       <r>   10.2304    0.0000 </r>
       <r>   11.1179    0.0000 </r>
       <r>   11.1179    0.0000 </r>
       <r>   11.7668    0.0000 </r>
      </set>
      <set comment="kpoint 7">
       <r>  -22.0289    1.0000 </r>
       <r>  -21.9994    1.0000 </r>
       <r>  -21.9994    1.0000 </r>
       <r>   -1.7700    1.0000 </r>
       <r>    1.8539    1.0000 </r>
       <r>    3.2513    1.0000 </r>
       <r>    3.2513    1.0000 </r>
       <r>    4.5719    1.0000 </r>
       <r>    4.5719    1.0000 </r>
       <r>    4.6485    1.0000 </r>
       <r>    7.5509    1.0000 </r>
       <r>    7.5509    1.0000 </r>
       <r>   10.3359    0.0000 </r>
       <r>   11.2641    0.0000 </r>
       <r>   11.2641    0.0000 </r>
       <r>   11.2739    0.0000 </r>
      </set>
      <set comment="kpoint 8">
       <r>  -22.0032    1.0000 </r>
       <r>  -22.0017    1.0000 </r>
       <r>  -22.0017    1.0000 </r>
       <r>   -3.3275    1.0000 </r>
       <r>    3.2408    1.0000 </r>
       <r>    3.5202    1.0000 </r>
       <r>    3.5202    1.0000 </r>
       <r>    4.3331    1.0000 </r>
       <r>    4.3780    1.0000 </r>
       <r>    7.7816    1.0000 </r>
       <r>    8.0165    1.0000 </r>
       <r>    8.0165    1.0000 </r>
       <r>    9.7710    1.0000 </r>
       <r>   10.8253    0.0000 </r>
       <r>   11.3858    0.0000 </r>
       <r>   11.3861    0.0000 </r>
      </set>
      <set comment="kpoint 9">
       <r>  -22.0065    1.0000 </r>
       <r>  -22.0017    1.0000 </r>
       <r>  -22.0014    1.0000 </r>
       <r>   -3.1628    1.0000 </r>
       <r>    3.0173    1.0000 </r>
       <r>    3.4912    1.0000 </r>
       <r>    3.5152    1.0000 </r>
       <r>    4.4118    1.0000 </r>
       <r>    4.4548    1.0000 </r>
       <r>    7.0787    1.0000 </r>
       <r>    7.8202    1.0000 </r>
       <r>    7.9129    1.0000 </r>
       <r>    9.9247    1.0000 </r>
       <r>   10.6638    0.0000 </r>
       <r>   11.0708    0.0000 </r>
       <r>   11.9445    0.0000 </r>
      </set>
      <set comment="kpoint 10">
       <r>  -22.0121    1.0000 </r>
       <r>  -22.0014    1.0000 </r>
       <r>  -22.0009    1.0000 </r>
       <r>   -2.8762    1.0000 </r>
       <r>    2.7769    1.0000 </r>
       <r>    3.3784    1.0000 </r>
       <r>    3.4682    1.0000 </r>
       <r>    4.5181    1.0000 </r>
       <r>    4.5482    1.0000 </r>
       <r>    6.2294    1.0000 </r>
       <r>    7.6407    1.0000 </r>
       <r>    7.7479    1.0000 </r>
       <r>   10.1555    0.1894 </r>
       <r>   10.6287    0.0000 </r>
       <r>   10.9304    0.0000 </r>
       <r>   12.5726    0.0000 </r>
      </set>
      <set comment="kpoint 11">
       <r>  -22.0184    1.0000 </r>
       <r>  -22.0010    1.0000 </r>
       <r>  -22.0006    1.0000 </r>
       <r>   -2.5057    1.0000 </r>
       <r>    2.5030    1.0000 </r>
       <r>    3.2638    1.0000 </r>
       <r>    3.4186    1.0000 </r>
       <r>    4.5821    1.0000 </r>
       <r>    4.6120    1.0000 </r>
       <r>    5.5058    1.0000 </r>
       <r>    7.5247    1.0000 </r>
       <r>    7.5775    1.0000 </r>
       <r>   10.2012    0.0000 </r>
       <r>   10.8991    0.0000 </r>
       <r>   10.9275    0.0000 </r>
       <r>   12.6675    0.0000 </r>
      </set>
      <set comment="kpoint 12">
       <r>  -22.0240    1.0000 </r>
       <r>  -22.0004    1.0000 </r>
       <r>  -22.0004    1.0000 </r>
       <r>   -2.1173    1.0000 </r>
       <r>    2.1984    1.0000 </r>
       <r>    3.2038    1.0000 </r>
       <r>    3.3745    1.0000 </r>
       <r>    4.5920    1.0000 </r>
       <r>    4.6219    1.0000 </r>
       <r>    4.9993    1.0000 </r>
       <r>    7.4560    1.0000 </r>
       <r>    7.4773    1.0000 </r>
       <r>   10.2204    0.0000 </r>
       <r>   11.0460    0.0000 </r>
       <r>   11.2046    0.0000 </r>
       <r>   11.9625    0.0000 </r>
      </set>
      <set comment="kpoint 13">
       <r>  -22.0277    1.0000 </r>
       <r>  -22.0005    1.0000 </r>
       <r>  -21.9999    1.0000 </r>
       <r>   -1.8155    1.0000 </r>
       <r>    1.9419    1.0000 </r>
       <r>    3.2066    1.0000 </r>
       <r>    3.3247    1.0000 </r>
       <r>    4.5862    1.0000 </r>
       <r>    4.5863    1.0000 </r>
       <r>    4.7310    1.0000 </r>
       <r>    7.3894    1.0000 </r>
       <r>    7.4727    1.0000 </r>
       <r>   10.3062    0.0000 </r>
       <r>   11.1184    0.0000 </r>
       <r>   11.2159    0.0000 </r>
       <r>   11.6836    0.0000 </r>
      </set>
      <set comment="kpoint 14">
       <r>  -22.0286    1.0000 </r>
       <r>  -22.0007    1.0000 </r>
       <r>  -21.9995    1.0000 </r>
       <r>   -1.7262    1.0000 </r>
       <r>    1.8645    1.0000 </r>
       <r>    3.2535    1.0000 </r>
       <r>    3.2612    1.0000 </r>
       <r>    4.5498    1.0000 </r>
       <r>    4.6038    1.0000 </r>
       <r>    4.6729    1.0000 </r>
       <r>    7.3532    1.0000 </r>
       <r>    7.4918    1.0000 </r>
       <r>   10.3933    0.0000 </r>
       <r>   10.9178    0.0000 </r>
       <r>   11.2975    0.0000 </r>
       <r>   11.7286    0.0000 </r>
      </set>
      <set comment="kpoint 15">
       <r>  -22.0266    1.0000 </r>
       <r>  -22.0011    1.0000 </r>
       <r>  -21.9994    1.0000 </r>
       <r>   -1.8977    1.0000 </r>
       <r>    2.0212    1.0000 </r>
       <r>    3.1965    1.0000 </r>
       <r>    3.3236    1.0000 </r>
       <r>    4.5505    1.0000 </r>
       <r>    4.6426    1.0000 </r>
       <r>    4.8008    1.0000 </r>
       <r>    7.3245    1.0000 </r>
       <r>    7.5426    1.0000 </r>
       <r>   10.3226    0.0000 </r>
       <r>   11.1371    0.0000 </r>
       <r>   11.1994    0.0000 </r>
       <r>   11.7222    0.0000 </r>
      </set>
      <set comment="kpoint 16">
       <r>  -22.0222    1.0000 </r>
       <r>  -22.0016    1.0000 </r>
       <r>  -21.9995    1.0000 </r>
       <r>   -2.2423    1.0000 </r>
       <r>    2.3250    1.0000 </r>
       <r>    3.1563    1.0000 </r>
       <r>    3.4043    1.0000 </r>
       <r>    4.5580    1.0000 </r>
       <r>    4.6663    1.0000 </r>
       <r>    5.1484    1.0000 </r>
       <r>    7.3101    1.0000 </r>
       <r>    7.6502    1.0000 </r>
       <r>   10.2833    0.0000 </r>
       <r>   10.9889    0.0000 </r>
       <r>   11.1162    0.0000 </r>
       <r>   12.2045    0.0000 </r>
      </set>
      <set comment="kpoint 17">
       <r>  -22.0163    1.0000 </r>
       <r>  -22.0019    1.0000 </r>
       <r>  -21.9999    1.0000 </r>
       <r>   -2.6344    1.0000 </r>
       <r>    2.6603    1.0000 </r>
       <r>    3.1622    1.0000 </r>
       <r>    3.4871    1.0000 </r>
       <r>    4.5330    1.0000 </r>
       <r>    4.6399    1.0000 </r>
       <r>    5.7281    1.0000 </r>
       <r>    7.3493    1.0000 </r>
       <r>    7.8235    1.0000 </r>
       <r>   10.2950    0.0000 </r>
       <r>   10.7711    0.0000 </r>
       <r>   10.9369    0.0000 </r>
       <r>   12.5582    0.0000 </r>
      </set>
      <set comment="kpoint 18">
       <r>  -22.0102    1.0000 </r>
       <r>  -22.0021    1.0000 </r>
       <r>  -22.0004    1.0000 </r>
       <r>   -2.9829    1.0000 </r>
       <r>    2.9673    1.0000 </r>
       <r>    3.2224    1.0000 </r>
       <r>    3.5513    1.0000 </r>
       <r>    4.4595    1.0000 </r>
       <r>    4.5576    1.0000 </r>
       <r>    6.4945    1.0000 </r>
       <r>    7.4878    1.0000 </r>
       <r>    8.0239    1.0000 </r>
       <r>   10.1958    0.0000 </r>
       <r>   10.6303    0.0000 </r>
       <r>   10.9257    0.0000 </r>
       <r>   12.0173    0.0000 </r>
      </set>
      <set comment="kpoint 19">
       <r>  -22.0055    1.0000 </r>
       <r>  -22.0019    1.0000 </r>
       <r>  -22.0010    1.0000 </r>
       <r>   -3.2323    1.0000 </r>
       <r>    3.2265    1.0000 </r>
       <r>    3.3282    1.0000 </r>
       <r>    3.5485    1.0000 </r>
       <r>    4.3796    1.0000 </r>
       <r>    4.4449    1.0000 </r>
       <r>    7.2685    1.0000 </r>
       <r>    7.7793    1.0000 </r>
       <r>    8.1613    1.0000 </r>
       <r>    9.9355    1.0000 </r>
       <r>   10.6535    0.0000 </r>
       <r>   11.0918    0.0000 </r>
       <r>   11.5299    0.0000 </r>
      </set>
      <set comment="kpoint 20">
       <r>  -22.0077    1.0000 </r>
       <r>  -22.0021    1.0000 </r>
       <r>  -22.0021    1.0000 </r>
       <r>   -3.0512    1.0000 </r>
       <r>    2.7465    1.0000 </r>
       <r>    3.6141    1.0000 </r>
       <r>    3.6141    1.0000 </r>
       <r>    4.4386    1.0000 </r>
       <r>    4.4401    1.0000 </r>
       <r>    7.0512    1.0000 </r>
       <r>    7.5977    1.0000 </r>
       <r>    7.5977    1.0000 </r>
       <r>    9.7702    1.0000 </r>
       <r>   10.8050    0.0000 </r>
       <r>   11.1209    0.0000 </r>
       <r>   12.0504    0.0000 </r>
      </set>
      <set comment="kpoint 21">
       <r>  -22.0118    1.0000 </r>
       <r>  -22.0022    1.0000 </r>
       <r>  -22.0020    1.0000 </r>
       <r>   -2.8183    1.0000 </r>
       <r>    2.5062    1.0000 </r>
       <r>    3.6010    1.0000 </r>
       <r>    3.6374    1.0000 </r>
       <r>    4.4684    1.0000 </r>
       <r>    4.5276    1.0000 </r>
       <r>    6.4735    1.0000 </r>
       <r>    7.4072    1.0000 </r>
       <r>    7.4294    1.0000 </r>
       <r>    9.9065    1.0000 </r>
       <r>   10.8133    0.0000 </r>
       <r>   10.9527    0.0000 </r>
       <r>   12.4424    0.0000 </r>
      </set>
      <set comment="kpoint 22">
       <r>  -22.0171    1.0000 </r>
       <r>  -22.0021    1.0000 </r>
       <r>  -22.0019    1.0000 </r>
       <r>   -2.4972    1.0000 </r>
       <r>    2.3107    1.0000 </r>
       <r>    3.4784    1.0000 </r>
       <r>    3.6120    1.0000 </r>
       <r>    4.5370    1.0000 </r>
       <r>    4.6056    1.0000 </r>
       <r>    5.7848    1.0000 </r>
       <r>    7.2515    1.0000 </r>
       <r>    7.2984    1.0000 </r>
       <r>   10.0959    1.0000 </r>
       <r>   10.8588    0.0000 </r>
       <r>   11.0223    0.0000 </r>
       <r>   12.5714    0.0000 </r>
      </set>
      <set comment="kpoint 23">
       <r>  -22.0220    1.0000 </r>
       <r>  -22.0024    1.0000 </r>
       <r>  -22.0014    1.0000 </r>
       <r>   -2.1442    1.0000 </r>
       <r>    2.1575    1.0000 </r>
       <r>    3.3271    1.0000 </r>
       <r>    3.5569    1.0000 </r>
       <r>    4.5932    1.0000 </r>
       <r>    4.6359    1.0000 </r>
       <r>    5.2152    1.0000 </r>
       <r>    7.0943    1.0000 </r>
       <r>    7.2716    1.0000 </r>
       <r>   10.1148    1.0000 </r>
       <r>   10.9179    0.0000 </r>
       <r>   11.4797    0.0000 </r>
       <r>   12.0367    0.0000 </r>
      </set>
      <set comment="kpoint 24">
       <r>  -22.0255    1.0000 </r>
       <r>  -22.0031    1.0000 </r>
       <r>  -22.0007    1.0000 </r>
       <r>   -1.8438    1.0000 </r>
       <r>    2.0439    1.0000 </r>
       <r>    3.2197    1.0000 </r>
       <r>    3.4694    1.0000 </r>
       <r>    4.5844    1.0000 </r>
       <r>    4.6474    1.0000 </r>
       <r>    4.8766    1.0000 </r>
       <r>    6.9848    1.0000 </r>
       <r>    7.2876    1.0000 </r>
       <r>   10.1499    0.4684 </r>
       <r>   11.1132    0.0000 </r>
       <r>   11.2917    0.0000 </r>
       <r>   12.0149    0.0000 </r>
      </set>
      <set comment="kpoint 25">
       <r>  -22.0268    1.0000 </r>
       <r>  -22.0039    1.0000 </r>
       <r>  -22.0001    1.0000 </r>
       <r>   -1.6973    1.0000 </r>
       <r>    1.9937    1.0000 </r>
       <r>    3.2070    1.0000 </r>
       <r>    3.3526    1.0000 </r>
       <r>    4.5111    1.0000 </r>
       <r>    4.6770    1.0000 </r>
       <r>    4.8013    1.0000 </r>
       <r>    6.9094    1.0000 </r>
       <r>    7.3196    1.0000 </r>
       <r>   10.2960    0.0000 </r>
       <r>   10.8603    0.0000 </r>
       <r>   11.3080    0.0000 </r>
       <r>   12.2835    0.0000 </r>
      </set>
      <set comment="kpoint 26">
       <r>  -22.0258    1.0000 </r>
       <r>  -22.0046    1.0000 </r>
       <r>  -21.9996    1.0000 </r>
       <r>   -1.7684    1.0000 </r>
       <r>    2.0460    1.0000 </r>
       <r>    3.2310    1.0000 </r>
       <r>    3.2977    1.0000 </r>
       <r>    4.4980    1.0000 </r>
       <r>    4.7209    1.0000 </r>
       <r>    4.8810    1.0000 </r>
       <r>    6.8343    1.0000 </r>
       <r>    7.3804    1.0000 </r>
       <r>   10.3969    0.0000 </r>
       <r>   10.9023    0.0000 </r>
       <r>   11.3094    0.0000 </r>
       <r>   12.2437    0.0000 </r>
      </set>
      <set comment="kpoint 27">
       <r>  -22.0226    1.0000 </r>
       <r>  -22.0049    1.0000 </r>
       <r>  -21.9993    1.0000 </r>
       <r>   -2.0259    1.0000 </r>
       <r>    2.1999    1.0000 </r>
       <r>    3.1380    1.0000 </r>
       <r>    3.4517    1.0000 </r>
       <r>    4.5173    1.0000 </r>
       <r>    4.7458    1.0000 </r>
       <r>    5.1409    1.0000 </r>
       <r>    6.7526    1.0000 </r>
       <r>    7.5002    1.0000 </r>
       <r>   10.4182    0.0000 </r>
       <r>   11.1262    0.0000 </r>
       <r>   11.3604    0.0000 </r>
       <r>   12.0594    0.0000 </r>
      </set>
      <set comment="kpoint 28">
       <r>  -22.0183    1.0000 </r>
       <r>  -22.0046    1.0000 </r>
       <r>  -21.9994    1.0000 </r>
       <r>   -2.3727    1.0000 </r>
       <r>    2.4227    1.0000 </r>
       <r>    3.0993    1.0000 </r>
       <r>    3.5948    1.0000 </r>
       <r>    4.5103    1.0000 </r>
       <r>    4.7242    1.0000 </r>
       <r>    5.5997    1.0000 </r>
       <r>    6.7284    1.0000 </r>
       <r>    7.6866    1.0000 </r>
       <r>   10.5669    0.0000 </r>
       <r>   10.8835    0.0000 </r>
       <r>   11.3076    0.0000 </r>
       <r>   12.1588    0.0000 </r>
      </set>
      <set comment="kpoint 29">
       <r>  -22.0138    1.0000 </r>
       <r>  -22.0035    1.0000 </r>
       <r>  -21.9998    1.0000 </r>
       <r>   -2.7139    1.0000 </r>
       <r>    2.6870    1.0000 </r>
       <r>    3.1279    1.0000 </r>
       <r>    3.6468    1.0000 </r>
       <r>    4.4769    1.0000 </r>
       <r>    4.6547    1.0000 </r>
       <r>    6.1241    1.0000 </r>
       <r>    6.9264    1.0000 </r>
       <r>    7.8939    1.0000 </r>
       <r>   10.6842    0.0000 </r>
       <r>   10.7050    0.0000 </r>
       <r>   10.8939    0.0000 </r>
       <r>   11.9588    0.0000 </r>
      </set>
      <set comment="kpoint 30">
       <r>  -22.0141    1.0000 </r>
       <r>  -22.0026    1.0000 </r>
       <r>  -22.0026    1.0000 </r>
       <r>   -2.6477    1.0000 </r>
       <r>    2.2713    1.0000 </r>
       <r>    3.7483    1.0000 </r>
       <r>    3.7483    1.0000 </r>
       <r>    4.3725    1.0000 </r>
       <r>    4.5979    1.0000 </r>
       <r>    6.3810    1.0000 </r>
       <r>    7.1944    1.0000 </r>
       <r>    7.1944    1.0000 </r>
       <r>    9.6543    1.0000 </r>
       <r>   10.8170    0.0000 </r>
       <r>   10.9831    0.0000 </r>
       <r>   12.5821    0.0000 </r>
      </set>
      <set comment="kpoint 31">
       <r>  -22.0181    1.0000 </r>
       <r>  -22.0030    1.0000 </r>
       <r>  -22.0027    1.0000 </r>
       <r>   -2.3930    1.0000 </r>
       <r>    2.1157    1.0000 </r>
       <r>    3.7189    1.0000 </r>
       <r>    3.7839    1.0000 </r>
       <r>    4.3794    1.0000 </r>
       <r>    4.6823    1.0000 </r>
       <r>    5.9327    1.0000 </r>
       <r>    6.9999    1.0000 </r>
       <r>    7.0663    1.0000 </r>
       <r>    9.7352    1.0000 </r>
       <r>   10.6807    0.0000 </r>
       <r>   11.1526    0.0000 </r>
       <r>   12.5840    0.0000 </r>
      </set>
      <set comment="kpoint 32">
       <r>  -22.0219    1.0000 </r>
       <r>  -22.0039    1.0000 </r>
       <r>  -22.0024    1.0000 </r>
       <r>   -2.1026    1.0000 </r>
       <r>    2.0579    1.0000 </r>
       <r>    3.5485    1.0000 </r>
       <r>    3.7532    1.0000 </r>
       <r>    4.4842    1.0000 </r>
       <r>    4.7291    1.0000 </r>
       <r>    5.4045    1.0000 </r>
       <r>    6.7710    1.0000 </r>
       <r>    7.0360    1.0000 </r>
       <r>    9.8538    1.0000 </r>
       <r>   10.6863    0.0000 </r>
       <r>   11.5779    0.0000 </r>
       <r>   12.1383    0.0000 </r>
      </set>
      <set comment="kpoint 33">
       <r>  -22.0243    1.0000 </r>
       <r>  -22.0055    1.0000 </r>
       <r>  -22.0018    1.0000 </r>
       <r>   -1.8427    1.0000 </r>
       <r>    2.0956    1.0000 </r>
       <r>    3.3522    1.0000 </r>
       <r>    3.6583    1.0000 </r>
       <r>    4.5475    1.0000 </r>
       <r>    4.7507    1.0000 </r>
       <r>    5.0144    1.0000 </r>
       <r>    6.5660    1.0000 </r>
       <r>    7.0591    1.0000 </r>
       <r>    9.9070    1.0000 </r>
       <r>   10.8940    0.0000 </r>
       <r>   11.5168    0.0000 </r>
       <r>   12.1278    0.0000 </r>
      </set>
      <set comment="kpoint 34">
       <r>  -22.0250    1.0000 </r>
       <r>  -22.0074    1.0000 </r>
       <r>  -22.0010    1.0000 </r>
       <r>   -1.6834    1.0000 </r>
       <r>    2.1824    1.0000 </r>
       <r>    3.2024    1.0000 </r>
       <r>    3.5099    1.0000 </r>
       <r>    4.4477    1.0000 </r>
       <r>    4.7811    1.0000 </r>
       <r>    4.9589    1.0000 </r>
       <r>    6.4106    1.0000 </r>
       <r>    7.0967    1.0000 </r>
       <r>   10.0194    1.0000 </r>
       <r>   11.0348    0.0000 </r>
       <r>   11.2360    0.0000 </r>
       <r>   12.3316    0.0000 </r>
      </set>
      <set comment="kpoint 35">
       <r>  -22.0239    1.0000 </r>
       <r>  -22.0090    1.0000 </r>
       <r>  -22.0002    1.0000 </r>
       <r>   -1.6741    1.0000 </r>
       <r>    2.2229    1.0000 </r>
       <r>    3.1936    1.0000 </r>
       <r>    3.3438    1.0000 </r>
       <r>    4.4009    1.0000 </r>
       <r>    4.8161    1.0000 </r>
       <r>    5.0688    1.0000 </r>
       <r>    6.2941    1.0000 </r>
       <r>    7.1608    1.0000 </r>
       <r>   10.2337    0.0000 </r>
       <r>   10.8265    0.0000 </r>
       <r>   11.4233    0.0000 </r>
       <r>   12.2309    0.0000 </r>
      </set>
      <set comment="kpoint 36">
       <r>  -22.0219    1.0000 </r>
       <r>  -22.0092    1.0000 </r>
       <r>  -21.9996    1.0000 </r>
       <r>   -1.8203    1.0000 </r>
       <r>    2.2150    1.0000 </r>
       <r>    3.2015    1.0000 </r>
       <r>    3.3410    1.0000 </r>
       <r>    4.4555    1.0000 </r>
       <r>    4.8262    1.0000 </r>
       <r>    5.2555    1.0000 </r>
       <r>    6.2176    1.0000 </r>
       <r>    7.2857    1.0000 </r>
       <r>   10.3829    0.0000 </r>
       <r>   11.1157    0.0000 </r>
       <r>   11.3132    0.0000 </r>
       <r>   12.1258    0.0000 </r>
      </set>
      <set comment="kpoint 37">
       <r>  -22.0200    1.0000 </r>
       <r>  -22.0075    1.0000 </r>
       <r>  -21.9993    1.0000 </r>
       <r>   -2.0777    1.0000 </r>
       <r>    2.2664    1.0000 </r>
       <r>    3.1141    1.0000 </r>
       <r>    3.5192    1.0000 </r>
       <r>    4.5025    1.0000 </r>
       <r>    4.7933    1.0000 </r>
       <r>    5.4724    1.0000 </r>
       <r>    6.3024    1.0000 </r>
       <r>    7.4768    1.0000 </r>
       <r>   10.4949    0.0000 </r>
       <r>   11.0932    0.0000 </r>
       <r>   11.7139    0.0000 </r>
       <r>   12.0337    0.0000 </r>
      </set>
      <set comment="kpoint 38">
       <r>  -22.0211    1.0000 </r>
       <r>  -22.0032    1.0000 </r>
       <r>  -22.0032    1.0000 </r>
       <r>   -2.2163    1.0000 </r>
       <r>    2.0033    1.0000 </r>
       <r>    3.8902    1.0000 </r>
       <r>    3.8902    1.0000 </r>
       <r>    4.2105    1.0000 </r>
       <r>    4.7832    1.0000 </r>
       <r>    5.7412    1.0000 </r>
       <r>    6.9021    1.0000 </r>
       <r>    6.9021    1.0000 </r>
       <r>    9.5300    1.0000 </r>
       <r>   10.4797    0.0000 </r>
       <r>   11.2398    0.0000 </r>
       <r>   12.5204    0.0000 </r>
      </set>
      <set comment="kpoint 39">
       <r>  -22.0241    1.0000 </r>
       <r>  -22.0039    1.0000 </r>
       <r>  -22.0032    1.0000 </r>
       <r>   -2.0072    1.0000 </r>
       <r>    2.0077    1.0000 </r>
       <r>    3.7831    1.0000 </r>
       <r>    3.9146    1.0000 </r>
       <r>    4.2863    1.0000 </r>
       <r>    4.8520    1.0000 </r>
       <r>    5.3506    1.0000 </r>
       <r>    6.7091    1.0000 </r>
       <r>    6.8422    1.0000 </r>
       <r>    9.5681    1.0000 </r>
       <r>   10.3976    0.0000 </r>
       <r>   11.4858    0.0000 </r>
       <r>   12.2050    0.0000 </r>
      </set>
      <set comment="kpoint 40">
       <r>  -22.0258    1.0000 </r>
       <r>  -22.0057    1.0000 </r>
       <r>  -22.0028    1.0000 </r>
       <r>   -1.8140    1.0000 </r>
       <r>    2.1321    1.0000 </r>
       <r>    3.5578    1.0000 </r>
       <r>    3.8499    1.0000 </r>
       <r>    4.4408    1.0000 </r>
       <r>    4.8793    1.0000 </r>
       <r>    4.9807    1.0000 </r>
       <r>    6.4092    1.0000 </r>
       <r>    6.8548    1.0000 </r>
       <r>    9.6506    1.0000 </r>
       <r>   10.5474    0.0000 </r>
       <r>   11.6547    0.0000 </r>
       <r>   12.1009    0.0000 </r>
      </set>
      <set comment="kpoint 41">
       <r>  -22.0253    1.0000 </r>
       <r>  -22.0085    1.0000 </r>
       <r>  -22.0021    1.0000 </r>
       <r>   -1.6794    1.0000 </r>
       <r>    2.3306    1.0000 </r>
       <r>    3.3294    1.0000 </r>
       <r>    3.7040    1.0000 </r>
       <r>    4.3531    1.0000 </r>
       <r>    4.8968    1.0000 </r>
       <r>    4.9788    1.0000 </r>
       <r>    6.1122    1.0000 </r>
       <r>    6.8909    1.0000 </r>
       <r>    9.7516    1.0000 </r>
       <r>   10.9586    0.0000 </r>
       <r>   11.2270    0.0000 </r>
       <r>   12.0167    0.0000 </r>
      </set>
      <set comment="kpoint 42">
       <r>  -22.0232    1.0000 </r>
       <r>  -22.0114    1.0000 </r>
       <r>  -22.0012    1.0000 </r>
       <r>   -1.6302    1.0000 </r>
       <r>    2.4656    1.0000 </r>
       <r>    3.1395    1.0000 </r>
       <r>    3.5160    1.0000 </r>
       <r>    4.2675    1.0000 </r>
       <r>    4.9061    1.0000 </r>
       <r>    5.2164    1.0000 </r>
       <r>    5.8782    1.0000 </r>
       <r>    6.9573    1.0000 </r>
       <r>    9.9431    1.0000 </r>
       <r>   10.9251    0.0000 </r>
       <r>   11.4735    0.0000 </r>
       <r>   11.9749    0.0000 </r>
      </set>
      <set comment="kpoint 43">
       <r>  -22.0213    1.0000 </r>
       <r>  -22.0123    1.0000 </r>
       <r>  -22.0003    1.0000 </r>
       <r>   -1.6785    1.0000 </r>
       <r>    2.3630    1.0000 </r>
       <r>    3.1769    1.0000 </r>
       <r>    3.3356    1.0000 </r>
       <r>    4.3438    1.0000 </r>
       <r>    4.8849    1.0000 </r>
       <r>    5.3706    1.0000 </r>
       <r>    5.8508    1.0000 </r>
       <r>    7.0884    1.0000 </r>
       <r>   10.2063    0.0000 </r>
       <r>   10.8662    0.0000 </r>
       <r>   11.4934    0.0000 </r>
       <r>   11.9622    0.0000 </r>
      </set>
      <set comment="kpoint 44">
       <r>  -22.0270    1.0000 </r>
       <r>  -22.0036    1.0000 </r>
       <r>  -22.0036    1.0000 </r>
       <r>   -1.8860    1.0000 </r>
       <r>    2.0579    1.0000 </r>
       <r>    4.0036    1.0000 </r>
       <r>    4.0036    1.0000 </r>
       <r>    4.0528    1.0000 </r>
       <r>    4.9529    1.0000 </r>
       <r>    5.0500    1.0000 </r>
       <r>    6.7407    1.0000 </r>
       <r>    6.7407    1.0000 </r>
       <r>    9.4282    1.0000 </r>
       <r>   10.1853    0.0000 </r>
       <r>   11.3944    0.0000 </r>
       <r>   12.1252    0.0000 </r>
      </set>
      <set comment="kpoint 45">
       <r>  -22.0285    1.0000 </r>
       <r>  -22.0045    1.0000 </r>
       <r>  -22.0036    1.0000 </r>
       <r>   -1.7706    1.0000 </r>
       <r>    2.2079    1.0000 </r>
       <r>    3.7879    1.0000 </r>
       <r>    3.9981    1.0000 </r>
       <r>    4.2578    1.0000 </r>
       <r>    4.7075    1.0000 </r>
       <r>    4.9954    1.0000 </r>
       <r>    6.5668    1.0000 </r>
       <r>    6.7255    1.0000 </r>
       <r>    9.4518    1.0000 </r>
       <r>   10.1932    0.0000 </r>
       <r>   11.5279    0.0000 </r>
       <r>   11.9104    0.0000 </r>
      </set>
      <set comment="kpoint 46">
       <r>  -22.0279    1.0000 </r>
       <r>  -22.0068    1.0000 </r>
       <r>  -22.0031    1.0000 </r>
       <r>   -1.6834    1.0000 </r>
       <r>    2.4010    1.0000 </r>
       <r>    3.5688    1.0000 </r>
       <r>    3.8923    1.0000 </r>
       <r>    4.2425    1.0000 </r>
       <r>    4.7107    1.0000 </r>
       <r>    4.9962    1.0000 </r>
       <r>    6.2353    1.0000 </r>
       <r>    6.7521    1.0000 </r>
       <r>    9.5423    1.0000 </r>
       <r>   10.4960    0.0000 </r>
       <r>   11.4034    0.0000 </r>
       <r>   11.8306    0.0000 </r>
      </set>
      <set comment="kpoint 47">
       <r>  -22.0255    1.0000 </r>
       <r>  -22.0098    1.0000 </r>
       <r>  -22.0022    1.0000 </r>
       <r>   -1.6350    1.0000 </r>
       <r>    2.5342    1.0000 </r>
       <r>    3.3066    1.0000 </r>
       <r>    3.7146    1.0000 </r>
       <r>    4.1692    1.0000 </r>
       <r>    4.9686    1.0000 </r>
       <r>    5.0252    1.0000 </r>
       <r>    5.9193    1.0000 </r>
       <r>    6.8195    1.0000 </r>
       <r>    9.6992    1.0000 </r>
       <r>   11.0467    0.0000 </r>
       <r>   11.1250    0.0000 </r>
       <r>   11.7489    0.0000 </r>
      </set>
      <set comment="kpoint 48">
       <r>  -22.0304    1.0000 </r>
       <r>  -22.0039    1.0000 </r>
       <r>  -22.0039    1.0000 </r>
       <r>   -1.7285    1.0000 </r>
       <r>    2.3181    1.0000 </r>
       <r>    4.0172    1.0000 </r>
       <r>    4.0639    1.0000 </r>
       <r>    4.0639    1.0000 </r>
       <r>    4.4089    1.0000 </r>
       <r>    5.0567    1.0000 </r>
       <r>    6.6809    1.0000 </r>
       <r>    6.6809    1.0000 </r>
       <r>    9.3697    1.0000 </r>
       <r>   10.0116    1.0000 </r>
       <r>   11.3285    0.0000 </r>
       <r>   11.8374    0.0000 </r>
      </set>
      <set comment="kpoint 49">
       <r>  -22.0301    1.0000 </r>
       <r>  -22.0047    1.0000 </r>
       <r>  -22.0037    1.0000 </r>
       <r>   -1.6987    1.0000 </r>
       <r>    2.3989    1.0000 </r>
       <r>    3.8242    1.0000 </r>
       <r>    4.0255    1.0000 </r>
       <r>    4.1976    1.0000 </r>
       <r>    4.3800    1.0000 </r>
       <r>    5.0538    1.0000 </r>
       <r>    6.5292    1.0000 </r>
       <r>    6.6904    1.0000 </r>
       <r>    9.4108    1.0000 </r>
       <r>   10.1202    1.0000 </r>
       <r>   11.4368    0.0000 </r>
       <r>   11.7929    0.0000 </r>
      </set>
      <set comment="kpoint 50">
       <r>  -22.0098    1.0000 </r>
       <r>  -22.0025    1.0000 </r>
       <r>  -22.0009    1.0000 </r>
       <r>   -2.9626    1.0000 </r>
       <r>    2.7678    1.0000 </r>
       <r>    3.4000    1.0000 </r>
       <r>    3.6254    1.0000 </r>
       <r>    4.4497    1.0000 </r>
       <r>    4.5340    1.0000 </r>
       <r>    6.6433    1.0000 </r>
       <r>    7.3462    1.0000 </r>
       <r>    7.8666    1.0000 </r>
       <r>   10.1333    0.9881 </r>
       <r>   10.6491    0.0000 </r>
       <r>   11.0151    0.0000 </r>
       <r>   11.9781    0.0000 </r>
      </set>
      <set comment="kpoint 51">
       <r>  -22.0148    1.0000 </r>
       <r>  -22.0030    1.0000 </r>
       <r>  -22.0004    1.0000 </r>
       <r>   -2.6573    1.0000 </r>
       <r>    2.5311    1.0000 </r>
       <r>    3.2934    1.0000 </r>
       <r>    3.6236    1.0000 </r>
       <r>    4.5052    1.0000 </r>
       <r>    4.6258    1.0000 </r>
       <r>    5.9942    1.0000 </r>
       <r>    7.0776    1.0000 </r>
       <r>    7.7221    1.0000 </r>
       <r>   10.3615    0.0000 </r>
       <r>   10.7722    0.0000 </r>
       <r>   10.9466    0.0000 </r>
       <r>   12.2990    0.0000 </r>
      </set>
      <set comment="kpoint 52">
       <r>  -22.0202    1.0000 </r>
       <r>  -22.0031    1.0000 </r>
       <r>  -22.0001    1.0000 </r>
       <r>   -2.2946    1.0000 </r>
       <r>    2.3070    1.0000 </r>
       <r>    3.2183    1.0000 </r>
       <r>    3.5419    1.0000 </r>
       <r>    4.5472    1.0000 </r>
       <r>    4.6776    1.0000 </r>
       <r>    5.3803    1.0000 </r>
       <r>    7.0067    1.0000 </r>
       <r>    7.5521    1.0000 </r>
       <r>   10.3244    0.0000 </r>
       <r>   10.8957    0.0000 </r>
       <r>   11.2802    0.0000 </r>
       <r>   12.2743    0.0000 </r>
      </set>
      <set comment="kpoint 53">
       <r>  -22.0246    1.0000 </r>
       <r>  -22.0031    1.0000 </r>
       <r>  -21.9999    1.0000 </r>
       <r>   -1.9511    1.0000 </r>
       <r>    2.1039    1.0000 </r>
       <r>    3.1906    1.0000 </r>
       <r>    3.4340    1.0000 </r>
       <r>    4.5526    1.0000 </r>
       <r>    4.6781    1.0000 </r>
       <r>    4.9622    1.0000 </r>
       <r>    7.0148    1.0000 </r>
       <r>    7.4341    1.0000 </r>
       <r>   10.2890    0.0000 </r>
       <r>   11.0478    0.0000 </r>
       <r>   11.3802    0.0000 </r>
       <r>   11.9187    0.0000 </r>
      </set>
      <set comment="kpoint 54">
       <r>  -22.0271    1.0000 </r>
       <r>  -22.0030    1.0000 </r>
       <r>  -21.9999    1.0000 </r>
       <r>   -1.7327    1.0000 </r>
       <r>    1.9692    1.0000 </r>
       <r>    3.2022    1.0000 </r>
       <r>    3.3467    1.0000 </r>
       <r>    4.5337    1.0000 </r>
       <r>    4.6445    1.0000 </r>
       <r>    4.7875    1.0000 </r>
       <r>    7.0318    1.0000 </r>
       <r>    7.3838    1.0000 </r>
       <r>   10.3668    0.0000 </r>
       <r>   10.8545    0.0000 </r>
       <r>   11.3028    0.0000 </r>
       <r>   12.1152    0.0000 </r>
      </set>
      <set comment="kpoint 55">
       <r>  -22.0154    1.0000 </r>
       <r>  -22.0033    1.0000 </r>
       <r>  -22.0016    1.0000 </r>
       <r>   -2.5713    1.0000 </r>
       <r>    2.2965    1.0000 </r>
       <r>    3.5446    1.0000 </r>
       <r>    3.7283    1.0000 </r>
       <r>    4.4642    1.0000 </r>
       <r>    4.6134    1.0000 </r>
       <r>    6.1091    1.0000 </r>
       <r>    6.9633    1.0000 </r>
       <r>    7.4139    1.0000 </r>
       <r>    9.9839    1.0000 </r>
       <r>   10.8156    0.0000 </r>
       <r>   11.0082    0.0000 </r>
       <r>   12.4720    0.0000 </r>
      </set>
      <set comment="kpoint 56">
       <r>  -22.0195    1.0000 </r>
       <r>  -22.0042    1.0000 </r>
       <r>  -22.0013    1.0000 </r>
       <r>   -2.2632    1.0000 </r>
       <r>    2.1611    1.0000 </r>
       <r>    3.4325    1.0000 </r>
       <r>    3.7042    1.0000 </r>
       <r>    4.5219    1.0000 </r>
       <r>    4.6732    1.0000 </r>
       <r>    5.6058    1.0000 </r>
       <r>    6.7281    1.0000 </r>
       <r>    7.3096    1.0000 </r>
       <r>   10.1073    1.0000 </r>
       <r>   10.7434    0.0000 </r>
       <r>   11.4180    0.0000 </r>
       <r>   12.3468    0.0000 </r>
      </set>
      <set comment="kpoint 57">
       <r>  -22.0230    1.0000 </r>
       <r>  -22.0051    1.0000 </r>
       <r>  -22.0011    1.0000 </r>
       <r>   -1.9582    1.0000 </r>
       <r>    2.1055    1.0000 </r>
       <r>    3.3007    1.0000 </r>
       <r>    3.6167    1.0000 </r>
       <r>    4.5725    1.0000 </r>
       <r>    4.6887    1.0000 </r>
       <r>    5.1553    1.0000 </r>
       <r>    6.6313    1.0000 </r>
       <r>    7.2242    1.0000 </r>
       <r>   10.1226    0.9999 </r>
       <r>   10.8526    0.0000 </r>
       <r>   11.6569    0.0000 </r>
       <r>   11.9860    0.0000 </r>
      </set>
      <set comment="kpoint 58">
       <r>  -22.0250    1.0000 </r>
       <r>  -22.0061    1.0000 </r>
       <r>  -22.0008    1.0000 </r>
       <r>   -1.7371    1.0000 </r>
       <r>    2.1117    1.0000 </r>
       <r>    3.1848    1.0000 </r>
       <r>    3.5164    1.0000 </r>
       <r>    4.5233    1.0000 </r>
       <r>    4.6897    1.0000 </r>
       <r>    4.9535    1.0000 </r>
       <r>    6.5674    1.0000 </r>
       <r>    7.1986    1.0000 </r>
       <r>   10.1757    0.0001 </r>
       <r>   10.9443    0.0000 </r>
       <r>   11.2492    0.0000 </r>
       <r>   12.3375    0.0000 </r>
      </set>
      <set comment="kpoint 59">
       <r>  -22.0252    1.0000 </r>
       <r>  -22.0069    1.0000 </r>
       <r>  -22.0004    1.0000 </r>
       <r>   -1.6724    1.0000 </r>
       <r>    2.1322    1.0000 </r>
       <r>    3.1469    1.0000 </r>
       <r>    3.4336    1.0000 </r>
       <r>    4.4590    1.0000 </r>
       <r>    4.7173    1.0000 </r>
       <r>    4.9544    1.0000 </r>
       <r>    6.5143    1.0000 </r>
       <r>    7.2147    1.0000 </r>
       <r>   10.3324    0.0000 </r>
       <r>   10.7138    0.0000 </r>
       <r>   11.3387    0.0000 </r>
       <r>   12.4143    0.0000 </r>
      </set>
      <set comment="kpoint 60">
       <r>  -22.0237    1.0000 </r>
       <r>  -22.0071    1.0000 </r>
       <r>  -22.0000    1.0000 </r>
       <r>   -1.7890    1.0000 </r>
       <r>    2.1468    1.0000 </r>
       <r>    3.1792    1.0000 </r>
       <r>    3.4298    1.0000 </r>
       <r>    4.4884    1.0000 </r>
       <r>    4.7537    1.0000 </r>
       <r>    5.0677    1.0000 </r>
       <r>    6.4641    1.0000 </r>
       <r>    7.2769    1.0000 </r>
       <r>   10.3716    0.0000 </r>
       <r>   10.8995    0.0000 </r>
       <r>   11.3146    0.0000 </r>
       <r>   12.3268    0.0000 </r>
      </set>
      <set comment="kpoint 61">
       <r>  -22.0210    1.0000 </r>
       <r>  -22.0066    1.0000 </r>
       <r>  -21.9998    1.0000 </r>
       <r>   -2.0454    1.0000 </r>
       <r>    2.2016    1.0000 </r>
       <r>    3.1878    1.0000 </r>
       <r>    3.5484    1.0000 </r>
       <r>    4.5241    1.0000 </r>
       <r>    4.7532    1.0000 </r>
       <r>    5.3535    1.0000 </r>
       <r>    6.4406    1.0000 </r>
       <r>    7.4064    1.0000 </r>
       <r>   10.4239    0.0000 </r>
       <r>   10.9016    0.0000 </r>
       <r>   11.6936    0.0000 </r>
       <r>   12.0698    0.0000 </r>
      </set>
      <set comment="kpoint 62">
       <r>  -22.0179    1.0000 </r>
       <r>  -22.0050    1.0000 </r>
       <r>  -21.9999    1.0000 </r>
       <r>   -2.3611    1.0000 </r>
       <r>    2.3310    1.0000 </r>
       <r>    3.2154    1.0000 </r>
       <r>    3.6547    1.0000 </r>
       <r>    4.5137    1.0000 </r>
       <r>    4.7065    1.0000 </r>
       <r>    5.7264    1.0000 </r>
       <r>    6.5879    1.0000 </r>
       <r>    7.5841    1.0000 </r>
       <r>   10.5020    0.0000 </r>
       <r>   10.7736    0.0000 </r>
       <r>   11.3967    0.0000 </r>
       <r>   12.1939    0.0000 </r>
      </set>
      <set comment="kpoint 63">
       <r>  -22.0213    1.0000 </r>
       <r>  -22.0041    1.0000 </r>
       <r>  -22.0025    1.0000 </r>
       <r>   -2.1582    1.0000 </r>
       <r>    2.0362    1.0000 </r>
       <r>    3.6536    1.0000 </r>
       <r>    3.8453    1.0000 </r>
       <r>    4.3942    1.0000 </r>
       <r>    4.7505    1.0000 </r>
       <r>    5.6047    1.0000 </r>
       <r>    6.6776    1.0000 </r>
       <r>    7.0412    1.0000 </r>
       <r>    9.7610    1.0000 </r>
       <r>   10.5611    0.0000 </r>
       <r>   11.4361    0.0000 </r>
       <r>   12.3699    0.0000 </r>
      </set>
      <set comment="kpoint 64">
       <r>  -22.0237    1.0000 </r>
       <r>  -22.0056    1.0000 </r>
       <r>  -22.0023    1.0000 </r>
       <r>   -1.9189    1.0000 </r>
       <r>    2.0763    1.0000 </r>
       <r>    3.4796    1.0000 </r>
       <r>    3.8219    1.0000 </r>
       <r>    4.5040    1.0000 </r>
       <r>    4.7588    1.0000 </r>
       <r>    5.2297    1.0000 </r>
       <r>    6.4039    1.0000 </r>
       <r>    7.0090    1.0000 </r>
       <r>    9.8478    1.0000 </r>
       <r>   10.5872    0.0000 </r>
       <r>   11.7674    0.0000 </r>
       <r>   11.9855    0.0000 </r>
      </set>
      <set comment="kpoint 65">
       <r>  -22.0245    1.0000 </r>
       <r>  -22.0078    1.0000 </r>
       <r>  -22.0020    1.0000 </r>
       <r>   -1.7320    1.0000 </r>
       <r>    2.2182    1.0000 </r>
       <r>    3.2798    1.0000 </r>
       <r>    3.7337    1.0000 </r>
       <r>    4.4938    1.0000 </r>
       <r>    4.7515    1.0000 </r>
       <r>    5.0433    1.0000 </r>
       <r>    6.1786    1.0000 </r>
       <r>    7.0124    1.0000 </r>
       <r>    9.9183    1.0000 </r>
       <r>   10.8435    0.0000 </r>
       <r>   11.2610    0.0000 </r>
       <r>   12.1976    0.0000 </r>
      </set>
      <set comment="kpoint 66">
       <r>  -22.0237    1.0000 </r>
       <r>  -22.0100    1.0000 </r>
       <r>  -22.0014    1.0000 </r>
       <r>   -1.6425    1.0000 </r>
       <r>    2.3646    1.0000 </r>
       <r>    3.1103    1.0000 </r>
       <r>    3.6061    1.0000 </r>
       <r>    4.3550    1.0000 </r>
       <r>    4.8110    1.0000 </r>
       <r>    5.1078    1.0000 </r>
       <r>    6.0103    1.0000 </r>
       <r>    7.0397    1.0000 </r>
       <r>   10.0656    1.0000 </r>
       <r>   10.8662    0.0000 </r>
       <r>   11.2343    0.0000 </r>
       <r>   12.0832    0.0000 </r>
      </set>
      <set comment="kpoint 67">
       <r>  -22.0222    1.0000 </r>
       <r>  -22.0112    1.0000 </r>
       <r>  -22.0007    1.0000 </r>
       <r>   -1.6727    1.0000 </r>
       <r>    2.3416    1.0000 </r>
       <r>    3.1041    1.0000 </r>
       <r>    3.4858    1.0000 </r>
       <r>    4.3682    1.0000 </r>
       <r>    4.8360    1.0000 </r>
       <r>    5.2536    1.0000 </r>
       <r>    5.9314    1.0000 </r>
       <r>    7.1028    1.0000 </r>
       <r>   10.2885    0.0000 </r>
       <r>   10.7590    0.0000 </r>
       <r>   11.3116    0.0000 </r>
       <r>   12.0959    0.0000 </r>
      </set>
      <set comment="kpoint 68">
       <r>  -22.0213    1.0000 </r>
       <r>  -22.0099    1.0000 </r>
       <r>  -22.0001    1.0000 </r>
       <r>   -1.8185    1.0000 </r>
       <r>    2.2261    1.0000 </r>
       <r>    3.1780    1.0000 </r>
       <r>    3.4653    1.0000 </r>
       <r>    4.4658    1.0000 </r>
       <r>    4.8117    1.0000 </r>
       <r>    5.3548    1.0000 </r>
       <r>    6.0432    1.0000 </r>
       <r>    7.2295    1.0000 </r>
       <r>   10.3987    0.0000 </r>
       <r>   10.9470    0.0000 </r>
       <r>   11.3167    0.0000 </r>
       <r>   12.1096    0.0000 </r>
      </set>
      <set comment="kpoint 69">
       <r>  -22.0262    1.0000 </r>
       <r>  -22.0048    1.0000 </r>
       <r>  -22.0033    1.0000 </r>
       <r>   -1.8486    1.0000 </r>
       <r>    2.1005    1.0000 </r>
       <r>    3.6653    1.0000 </r>
       <r>    3.9697    1.0000 </r>
       <r>    4.3478    1.0000 </r>
       <r>    4.8758    1.0000 </r>
       <r>    5.0405    1.0000 </r>
       <r>    6.4710    1.0000 </r>
       <r>    6.8410    1.0000 </r>
       <r>    9.5805    1.0000 </r>
       <r>   10.3335    0.0000 </r>
       <r>   11.6813    0.0000 </r>
       <r>   11.9860    0.0000 </r>
      </set>
      <set comment="kpoint 70">
       <r>  -22.0266    1.0000 </r>
       <r>  -22.0068    1.0000 </r>
       <r>  -22.0031    1.0000 </r>
       <r>   -1.7186    1.0000 </r>
       <r>    2.2931    1.0000 </r>
       <r>    3.4630    1.0000 </r>
       <r>    3.9330    1.0000 </r>
       <r>    4.4233    1.0000 </r>
       <r>    4.7285    1.0000 </r>
       <r>    4.9706    1.0000 </r>
       <r>    6.1389    1.0000 </r>
       <r>    6.8757    1.0000 </r>
       <r>    9.6700    1.0000 </r>
       <r>   10.4787    0.0000 </r>
       <r>   11.4329    0.0000 </r>
       <r>   11.9357    0.0000 </r>
      </set>
      <set comment="kpoint 71">
       <r>  -22.0250    1.0000 </r>
       <r>  -22.0097    1.0000 </r>
       <r>  -22.0024    1.0000 </r>
       <r>   -1.6397    1.0000 </r>
       <r>    2.5044    1.0000 </r>
       <r>    3.2346    1.0000 </r>
       <r>    3.8096    1.0000 </r>
       <r>    4.2467    1.0000 </r>
       <r>    4.8968    1.0000 </r>
       <r>    5.0190    1.0000 </r>
       <r>    5.8263    1.0000 </r>
       <r>    6.9148    1.0000 </r>
       <r>    9.8036    1.0000 </r>
       <r>   10.8566    0.0000 </r>
       <r>   11.1382    0.0000 </r>
       <r>   11.7273    0.0000 </r>
      </set>
      <set comment="kpoint 72">
       <r>  -22.0225    1.0000 </r>
       <r>  -22.0122    1.0000 </r>
       <r>  -22.0015    1.0000 </r>
       <r>   -1.6225    1.0000 </r>
       <r>    2.5595    1.0000 </r>
       <r>    3.0509    1.0000 </r>
       <r>    3.6375    1.0000 </r>
       <r>    4.2409    1.0000 </r>
       <r>    4.9006    1.0000 </r>
       <r>    5.3049    1.0000 </r>
       <r>    5.6282    1.0000 </r>
       <r>    6.9794    1.0000 </r>
       <r>   10.0254    1.0000 </r>
       <r>   10.8317    0.0000 </r>
       <r>   11.3355    0.0000 </r>
       <r>   11.7650    0.0000 </r>
      </set>
      <set comment="kpoint 73">
       <r>  -22.0291    1.0000 </r>
       <r>  -22.0052    1.0000 </r>
       <r>  -22.0037    1.0000 </r>
       <r>   -1.7045    1.0000 </r>
       <r>    2.3637    1.0000 </r>
       <r>    3.6770    1.0000 </r>
       <r>    4.0315    1.0000 </r>
       <r>    4.3325    1.0000 </r>
       <r>    4.4494    1.0000 </r>
       <r>    5.0216    1.0000 </r>
       <r>    6.3541    1.0000 </r>
       <r>    6.7795    1.0000 </r>
       <r>    9.4831    1.0000 </r>
       <r>   10.2020    0.0000 </r>
       <r>   11.5454    0.0000 </r>
       <r>   11.7453    0.0000 </r>
      </set>
      <set comment="kpoint 74">
       <r>  -22.0276    1.0000 </r>
       <r>  -22.0073    1.0000 </r>
       <r>  -22.0033    1.0000 </r>
       <r>   -1.6604    1.0000 </r>
       <r>    2.4855    1.0000 </r>
       <r>    3.4762    1.0000 </r>
       <r>    3.9610    1.0000 </r>
       <r>    4.2423    1.0000 </r>
       <r>    4.6506    1.0000 </r>
       <r>    4.9949    1.0000 </r>
       <r>    6.0363    1.0000 </r>
       <r>    6.8439    1.0000 </r>
       <r>    9.6091    1.0000 </r>
       <r>   10.4370    0.0000 </r>
       <r>   11.3954    0.0000 </r>
       <r>   11.6500    0.0000 </r>
      </set>
      <set comment="kpoint 75">
       <r>  -22.0215    1.0000 </r>
       <r>  -22.0066    1.0000 </r>
       <r>  -22.0010    1.0000 </r>
       <r>   -2.0050    1.0000 </r>
       <r>    2.1215    1.0000 </r>
       <r>    3.3353    1.0000 </r>
       <r>    3.6993    1.0000 </r>
       <r>    4.5557    1.0000 </r>
       <r>    4.7059    1.0000 </r>
       <r>    5.4164    1.0000 </r>
       <r>    6.3094    1.0000 </r>
       <r>    7.2190    1.0000 </r>
       <r>   10.2119    0.0000 </r>
       <r>   10.6635    0.0000 </r>
       <r>   11.8259    0.0000 </r>
       <r>   11.9988    0.0000 </r>
      </set>
      <set comment="kpoint 76">
       <r>  -22.0228    1.0000 </r>
       <r>  -22.0086    1.0000 </r>
       <r>  -22.0012    1.0000 </r>
       <r>   -1.7845    1.0000 </r>
       <r>    2.1975    1.0000 </r>
       <r>    3.2065    1.0000 </r>
       <r>    3.6573    1.0000 </r>
       <r>    4.5230    1.0000 </r>
       <r>    4.7224    1.0000 </r>
       <r>    5.2125    1.0000 </r>
       <r>    6.1018    1.0000 </r>
       <r>    7.1367    1.0000 </r>
       <r>   10.2534    0.0000 </r>
       <r>   10.7519    0.0000 </r>
       <r>   11.2630    0.0000 </r>
       <r>   12.2421    0.0000 </r>
      </set>
      <set comment="kpoint 77">
       <r>  -22.0233    1.0000 </r>
       <r>  -22.0098    1.0000 </r>
       <r>  -22.0013    1.0000 </r>
       <r>   -1.6584    1.0000 </r>
       <r>    2.3221    1.0000 </r>
       <r>    3.0747    1.0000 </r>
       <r>    3.6390    1.0000 </r>
       <r>    4.4186    1.0000 </r>
       <r>    4.7337    1.0000 </r>
       <r>    5.1214    1.0000 </r>
       <r>    6.0170    1.0000 </r>
       <r>    7.1055    1.0000 </r>
       <r>   10.3318    0.0000 </r>
       <r>   10.6472    0.0000 </r>
       <r>   11.1525    0.0000 </r>
       <r>   12.1679    0.0000 </r>
      </set>
      <set comment="kpoint 78">
       <r>  -22.0243    1.0000 </r>
       <r>  -22.0079    1.0000 </r>
       <r>  -22.0024    1.0000 </r>
[...]
       <r>   10.5585    0.0000 </r>
       <r>   11.3188    0.0000 </r>
       <r>   12.1092    0.0000 </r>
      </set>
      <set comment="kpoint 79">
       <r>  -22.0235    1.0000 </r>
       <r>  -22.0103    1.0000 </r>
       <r>  -22.0025    1.0000 </r>
       <r>   -1.6514    1.0000 </r>
       <r>    2.4546    1.0000 </r>
       <r>    3.1291    1.0000 </r>
       <r>    3.8670    1.0000 </r>
       <r>    4.4224    1.0000 </r>
       <r>    4.7268    1.0000 </r>
       <r>    5.0978    1.0000 </r>
       <r>    5.6967    1.0000 </r>
       <r>    7.0319    1.0000 </r>
       <r>   10.0978    1.0000 </r>
       <r>   10.7387    0.0000 </r>
       <r>   10.9163    0.0000 </r>
       <r>   11.8324    0.0000 </r>
      </set>
      <set comment="kpoint 80">
       <r>  -22.0223    1.0000 </r>
       <r>  -22.0121    1.0000 </r>
       <r>  -22.0022    1.0000 </r>
       <r>   -1.6189    1.0000 </r>
       <r>    2.5932    1.0000 </r>
       <r>    2.9825    1.0000 </r>
       <r>    3.8139    1.0000 </r>
       <r>    4.3128    1.0000 </r>
       <r>    4.8050    1.0000 </r>
       <r>    5.2162    1.0000 </r>
       <r>    5.5132    1.0000 </r>
       <r>    7.0506    1.0000 </r>
       <r>   10.2847    0.0000 </r>
       <r>   10.6315    0.0000 </r>
       <r>   10.9775    0.0000 </r>
       <r>   11.6896    0.0000 </r>
      </set>
      <set comment="kpoint 81">
       <r>  -22.0220    1.0000 </r>
       <r>  -22.0115    1.0000 </r>
       <r>  -22.0017    1.0000 </r>
       <r>   -1.6644    1.0000 </r>
       <r>    2.4149    1.0000 </r>
       <r>    3.0674    1.0000 </r>
       <r>    3.7284    1.0000 </r>
       <r>    4.3915    1.0000 </r>
       <r>    4.7818    1.0000 </r>
       <r>    5.2910    1.0000 </r>
       <r>    5.6505    1.0000 </r>
       <r>    7.0744    1.0000 </r>
       <r>   10.3873    0.0000 </r>
       <r>   10.6317    0.0000 </r>
       <r>   10.9688    0.0000 </r>
       <r>   12.0303    0.0000 </r>
      </set>
      <set comment="kpoint 82">
       <r>  -22.0258    1.0000 </r>
       <r>  -22.0086    1.0000 </r>
       <r>  -22.0033    1.0000 </r>
       <r>   -1.6509    1.0000 </r>
       <r>    2.5004    1.0000 </r>
       <r>    3.2966    1.0000 </r>
       <r>    3.9722    1.0000 </r>
       <r>    4.4841    1.0000 </r>
       <r>    4.5815    1.0000 </r>
       <r>    4.9602    1.0000 </r>
       <r>    5.7797    1.0000 </r>
       <r>    6.9656    1.0000 </r>
       <r>    9.8287    1.0000 </r>
       <r>   10.4669    0.0000 </r>
       <r>   11.2141    0.0000 </r>
       <r>   11.6429    0.0000 </r>
      </set>
      <set comment="kpoint 83">
       <r>  -22.0237    1.0000 </r>
       <r>  -22.0110    1.0000 </r>
       <r>  -22.0030    1.0000 </r>
       <r>   -1.6172    1.0000 </r>
       <r>    2.6529    1.0000 </r>
       <r>    3.0976    1.0000 </r>
       <r>    3.9277    1.0000 </r>
       <r>    4.3378    1.0000 </r>
       <r>    4.8833    1.0000 </r>
       <r>    4.8942    1.0000 </r>
       <r>    5.5215    1.0000 </r>
       <r>    7.0211    1.0000 </r>
       <r>   10.0377    1.0000 </r>
       <r>   10.6510    0.0000 </r>
       <r>   10.9862    0.0000 </r>
       <r>   11.4756    0.0000 </r>
      </set>
      <set comment="kpoint 84">
       <r>  -22.0224    1.0000 </r>
       <r>  -22.0121    1.0000 </r>
       <r>  -22.0030    1.0000 </r>
       <r>   -1.6108    1.0000 </r>
       <r>    2.7109    1.0000 </r>
       <r>    2.9789    1.0000 </r>
       <r>    3.9308    1.0000 </r>
       <r>    4.4526    1.0000 </r>
       <r>    4.7542    1.0000 </r>
       <r>    4.9828    1.0000 </r>
       <r>    5.3916    1.0000 </r>
       <r>    7.0696    1.0000 </r>
       <r>   10.3637    0.0000 </r>
       <r>   10.6236    0.0000 </r>
       <r>   10.6846    0.0000 </r>
       <r>   11.4785    0.0000 </r>
      </set>
     </set>
    </set>
   </array>
  </eigenvalues>
  <separator name="orbital magnetization" >
   <v name="MAGDIPOLOUT">      0.00000000      0.00000000      0.00000000</v>
  </separator>
  <dos>
   <i name="efermi">     10.14930509 </i>
   <total>
    <array>
     <dimension dim="1">gridpoints</dimension>
     <dimension dim="2">spin</dimension>
     <field>energy</field>
     <field>total</field>
     <field>integrated</field>
     <set>
      <set comment="spin 1">
       <r>   -23.7848     0.0000     0.0000 </r>
       <r>   -23.6561     0.0000     0.0000 </r>
       <r>   -23.5275     0.0000     0.0000 </r>
       <r>   -23.3988     0.0000     0.0000 </r>
       <r>   -23.2702     0.0000     0.0000 </r>
       <r>   -23.1415     0.0000     0.0000 </r>
       <r>   -23.0128     0.0000     0.0000 </r>
       <r>   -22.8842     0.0000     0.0000 </r>
       <r>   -22.7555     0.0000     0.0000 </r>
       <r>   -22.6269     0.0000     0.0000 </r>
       <r>   -22.4982     0.0000     0.0000 </r>
       <r>   -22.3696     0.0000     0.0000 </r>
       <r>   -22.2409     0.0000     0.0000 </r>
       <r>   -22.1123     0.0000     0.0000 </r>
       <r>   -21.9836    46.4977     5.9822 </r>
       <r>   -21.8549     0.0000     6.0000 </r>
       <r>   -21.7263     0.0000     6.0000 </r>
       <r>   -21.5976     0.0000     6.0000 </r>
       <r>   -21.4690     0.0000     6.0000 </r>
       <r>   -21.3403     0.0000     6.0000 </r>
       <r>   -21.2117     0.0000     6.0000 </r>
       <r>   -21.0830     0.0000     6.0000 </r>
       <r>   -20.9543     0.0000     6.0000 </r>
       <r>   -20.8257     0.0000     6.0000 </r>
       <r>   -20.6970     0.0000     6.0000 </r>
       <r>   -20.5684     0.0000     6.0000 </r>
       <r>   -20.4397     0.0000     6.0000 </r>
       <r>   -20.3111     0.0000     6.0000 </r>
       <r>   -20.1824     0.0000     6.0000 </r>
       <r>   -20.0538     0.0000     6.0000 </r>
       <r>   -19.9251     0.0000     6.0000 </r>
       <r>   -19.7964     0.0000     6.0000 </r>
       <r>   -19.6678     0.0000     6.0000 </r>
       <r>   -19.5391     0.0000     6.0000 </r>
       <r>   -19.4105     0.0000     6.0000 </r>
       <r>   -19.2818     0.0000     6.0000 </r>
       <r>   -19.1532     0.0000     6.0000 </r>
       <r>   -19.0245     0.0000     6.0000 </r>
       <r>   -18.8958     0.0000     6.0000 </r>
       <r>   -18.7672     0.0000     6.0000 </r>
       <r>   -18.6385     0.0000     6.0000 </r>
       <r>   -18.5099     0.0000     6.0000 </r>
       <r>   -18.3812     0.0000     6.0000 </r>
       <r>   -18.2526     0.0000     6.0000 </r>
       <r>   -18.1239     0.0000     6.0000 </r>
       <r>   -17.9953     0.0000     6.0000 </r>
       <r>   -17.8666     0.0000     6.0000 </r>
       <r>   -17.7379     0.0000     6.0000 </r>
       <r>   -17.6093     0.0000     6.0000 </r>
       <r>   -17.4806     0.0000     6.0000 </r>
       <r>   -17.3520     0.0000     6.0000 </r>
       <r>   -17.2233     0.0000     6.0000 </r>
       <r>   -17.0947     0.0000     6.0000 </r>
       <r>   -16.9660     0.0000     6.0000 </r>
       <r>   -16.8373     0.0000     6.0000 </r>
       <r>   -16.7087     0.0000     6.0000 </r>
       <r>   -16.5800     0.0000     6.0000 </r>
       <r>   -16.4514     0.0000     6.0000 </r>
       <r>   -16.3227     0.0000     6.0000 </r>
       <r>   -16.1941     0.0000     6.0000 </r>
       <r>   -16.0654     0.0000     6.0000 </r>
       <r>   -15.9368     0.0000     6.0000 </r>
       <r>   -15.8081     0.0000     6.0000 </r>
       <r>   -15.6794     0.0000     6.0000 </r>
       <r>   -15.5508     0.0000     6.0000 </r>
       <r>   -15.4221     0.0000     6.0000 </r>
       <r>   -15.2935     0.0000     6.0000 </r>
       <r>   -15.1648     0.0000     6.0000 </r>
       <r>   -15.0362     0.0000     6.0000 </r>
       <r>   -14.9075     0.0000     6.0000 </r>
       <r>   -14.7788     0.0000     6.0000 </r>
       <r>   -14.6502     0.0000     6.0000 </r>
       <r>   -14.5215     0.0000     6.0000 </r>
       <r>   -14.3929     0.0000     6.0000 </r>
       <r>   -14.2642     0.0000     6.0000 </r>
       <r>   -14.1356     0.0000     6.0000 </r>
       <r>   -14.0069     0.0000     6.0000 </r>
       <r>   -13.8783     0.0000     6.0000 </r>
       <r>   -13.7496     0.0000     6.0000 </r>
       <r>   -13.6209     0.0000     6.0000 </r>
       <r>   -13.4923     0.0000     6.0000 </r>
       <r>   -13.3636     0.0000     6.0000 </r>
       <r>   -13.2350     0.0000     6.0000 </r>
       <r>   -13.1063     0.0000     6.0000 </r>
       <r>   -12.9777     0.0000     6.0000 </r>
       <r>   -12.8490     0.0000     6.0000 </r>
       <r>   -12.7203     0.0000     6.0000 </r>
       <r>   -12.5917     0.0000     6.0000 </r>
       <r>   -12.4630     0.0000     6.0000 </r>
       <r>   -12.3344     0.0000     6.0000 </r>
       <r>   -12.2057     0.0000     6.0000 </r>
       <r>   -12.0771     0.0000     6.0000 </r>
       <r>   -11.9484     0.0000     6.0000 </r>
       <r>   -11.8198     0.0000     6.0000 </r>
       <r>   -11.6911     0.0000     6.0000 </r>
       <r>   -11.5624     0.0000     6.0000 </r>
       <r>   -11.4338     0.0000     6.0000 </r>
       <r>   -11.3051     0.0000     6.0000 </r>
       <r>   -11.1765     0.0000     6.0000 </r>
       <r>   -11.0478     0.0000     6.0000 </r>
       <r>   -10.9192     0.0000     6.0000 </r>
       <r>   -10.7905     0.0000     6.0000 </r>
       <r>   -10.6618     0.0000     6.0000 </r>
       <r>   -10.5332     0.0000     6.0000 </r>
       <r>   -10.4045     0.0000     6.0000 </r>
       <r>   -10.2759     0.0000     6.0000 </r>
       <r>   -10.1472     0.0000     6.0000 </r>
       <r>   -10.0186     0.0000     6.0000 </r>
       <r>    -9.8899     0.0000     6.0000 </r>
       <r>    -9.7613     0.0000     6.0000 </r>
       <r>    -9.6326     0.0000     6.0000 </r>
       <r>    -9.5039     0.0000     6.0000 </r>
       <r>    -9.3753     0.0000     6.0000 </r>
       <r>    -9.2466     0.0000     6.0000 </r>
       <r>    -9.1180     0.0000     6.0000 </r>
       <r>    -8.9893     0.0000     6.0000 </r>
       <r>    -8.8607     0.0000     6.0000 </r>
       <r>    -8.7320     0.0000     6.0000 </r>
       <r>    -8.6033     0.0000     6.0000 </r>
       <r>    -8.4747     0.0000     6.0000 </r>
       <r>    -8.3460     0.0000     6.0000 </r>
       <r>    -8.2174     0.0000     6.0000 </r>
       <r>    -8.0887     0.0000     6.0000 </r>
       <r>    -7.9601     0.0000     6.0000 </r>
       <r>    -7.8314     0.0000     6.0000 </r>
       <r>    -7.7028     0.0000     6.0000 </r>
       <r>    -7.5741     0.0000     6.0000 </r>
       <r>    -7.4454     0.0000     6.0000 </r>
       <r>    -7.3168     0.0000     6.0000 </r>
       <r>    -7.1881     0.0000     6.0000 </r>
       <r>    -7.0595     0.0000     6.0000 </r>
       <r>    -6.9308     0.0000     6.0000 </r>
       <r>    -6.8022     0.0000     6.0000 </r>
       <r>    -6.6735     0.0000     6.0000 </r>
       <r>    -6.5448     0.0000     6.0000 </r>
       <r>    -6.4162     0.0000     6.0000 </r>
       <r>    -6.2875     0.0000     6.0000 </r>
       <r>    -6.1589     0.0000     6.0000 </r>
       <r>    -6.0302     0.0000     6.0000 </r>
       <r>    -5.9016     0.0000     6.0000 </r>
       <r>    -5.7729     0.0000     6.0000 </r>
       <r>    -5.6443     0.0000     6.0000 </r>
       <r>    -5.5156     0.0000     6.0000 </r>
       <r>    -5.3869     0.0000     6.0000 </r>
       <r>    -5.2583     0.0000     6.0000 </r>
       <r>    -5.1296     0.0000     6.0000 </r>
       <r>    -5.0010     0.0000     6.0000 </r>
       <r>    -4.8723     0.0000     6.0000 </r>
       <r>    -4.7437     0.0000     6.0000 </r>
       <r>    -4.6150     0.0000     6.0000 </r>
       <r>    -4.4863     0.0000     6.0000 </r>
       <r>    -4.3577     0.0000     6.0000 </r>
       <r>    -4.2290     0.0000     6.0000 </r>
       <r>    -4.1004     0.0000     6.0000 </r>
       <r>    -3.9717     0.0000     6.0000 </r>
       <r>    -3.8431     0.0000     6.0000 </r>
       <r>    -3.7144     0.0000     6.0000 </r>
       <r>    -3.5858     0.0000     6.0000 </r>
       <r>    -3.4571     0.0000     6.0000 </r>
       <r>    -3.3284     0.0755     6.0106 </r>
       <r>    -3.1998     0.0849     6.0246 </r>
       <r>    -3.0711     0.0567     6.0537 </r>
       <r>    -2.9425     0.3393     6.1028 </r>
       <r>    -2.8138     0.3173     6.1437 </r>
       <r>    -2.6852     0.0849     6.1648 </r>
       <r>    -2.5565     0.3365     6.2572 </r>
       <r>    -2.4278     0.3416     6.3016 </r>
       <r>    -2.2992     0.4268     6.3854 </r>
       <r>    -2.1705     0.2191     6.4897 </r>
       <r>    -2.0419     0.6615     6.6177 </r>
       <r>    -1.9132     0.9495     6.8258 </r>
       <r>    -1.7846     1.6144     7.0698 </r>
       <r>    -1.6559     3.7276     7.6985 </r>
       <r>    -1.5273     0.0000     8.0000 </r>
       <r>    -1.3986     0.0000     8.0000 </r>
       <r>    -1.2699     0.0000     8.0000 </r>
       <r>    -1.1413     0.0000     8.0000 </r>
       <r>    -1.0126     0.0000     8.0000 </r>
       <r>    -0.8840     0.0000     8.0000 </r>
       <r>    -0.7553     0.0000     8.0000 </r>
       <r>    -0.6267     0.0000     8.0000 </r>
       <r>    -0.4980     0.0000     8.0000 </r>
       <r>    -0.3693     0.0000     8.0000 </r>
       <r>    -0.2407     0.0000     8.0000 </r>
       <r>    -0.1120     0.0000     8.0000 </r>
       <r>     0.0166     0.0000     8.0000 </r>
       <r>     0.1453     0.0000     8.0000 </r>
       <r>     0.2739     0.0000     8.0000 </r>
       <r>     0.4026     0.0000     8.0000 </r>
       <r>     0.5312     0.0000     8.0000 </r>
       <r>     0.6599     0.0000     8.0000 </r>
       <r>     0.7886     0.0000     8.0000 </r>
       <r>     0.9172     0.0000     8.0000 </r>
       <r>     1.0459     0.0000     8.0000 </r>
       <r>     1.1745     0.0000     8.0000 </r>
       <r>     1.3032     0.0000     8.0000 </r>
       <r>     1.4318     0.0000     8.0000 </r>
       <r>     1.5605     0.0000     8.0000 </r>
       <r>     1.6892     0.0000     8.0000 </r>
       <r>     1.8178     0.0000     8.0000 </r>
       <r>     1.9465     0.1260     8.0453 </r>
       <r>     2.0751     1.2497     8.2773 </r>
       <r>     2.2038     2.3334     8.8282 </r>
       <r>     2.3324     1.8816     9.2507 </r>
       <r>     2.4611     0.9181     9.5091 </r>
       <r>     2.5897     0.7012     9.7616 </r>
       <r>     2.7184     0.5696     9.8648 </r>
       <r>     2.8471     0.3396     9.9172 </r>
       <r>     2.9757     0.2628     9.9582 </r>
       <r>     3.1044     1.2010    10.1882 </r>
       <r>     3.2330     5.0263    11.0518 </r>
       <r>     3.3617     3.4282    11.6891 </r>
       <r>     3.4903     3.8209    12.2822 </r>
       <r>     3.6190     2.9899    12.8335 </r>
       <r>     3.7477     1.8496    13.3750 </r>
       <r>     3.8763     1.8934    13.7083 </r>
       <r>     4.0050     1.3814    13.9483 </r>
       <r>     4.1336     0.0849    14.0109 </r>
       <r>     4.2623     1.1350    14.1679 </r>
       <r>     4.3909     2.4912    14.5353 </r>
       <r>     4.5196     5.5816    15.4664 </r>
       <r>     4.6482     4.2178    16.5381 </r>
       <r>     4.7769     5.2124    17.5855 </r>
       <r>     4.9056     2.4933    18.1697 </r>
       <r>     5.0342     3.4425    18.6869 </r>
       <r>     5.1629     1.8164    19.0676 </r>
       <r>     5.2915     2.0190    19.3340 </r>
       <r>     5.4202     1.5609    19.5663 </r>
       <r>     5.5488     0.7642    19.6714 </r>
       <r>     5.6775     1.0200    19.8026 </r>
       <r>     5.8062     0.7222    19.9391 </r>
       <r>     5.9348     0.6023    20.0711 </r>
       <r>     6.0635     1.5280    20.2958 </r>
       <r>     6.1921     0.9245    20.4803 </r>
       <r>     6.3208     0.4151    20.6005 </r>
       <r>     6.4494     1.0324    20.7564 </r>
       <r>     6.5781     1.0784    21.0081 </r>
       <r>     6.7068     0.9127    21.1507 </r>
       <r>     6.8354     0.6614    21.3914 </r>
       <r>     6.9641     1.1546    21.6697 </r>
       <r>     7.0927     3.6475    22.3837 </r>
       <r>     7.2214     1.1219    22.6869 </r>
       <r>     7.3500     2.1349    23.0576 </r>
       <r>     7.4787     1.6661    23.3905 </r>
       <r>     7.6073     1.1529    23.6413 </r>
       <r>     7.7360     0.6788    23.7733 </r>
       <r>     7.8647     0.5195    23.8784 </r>
       <r>     7.9933     0.0630    23.9326 </r>
       <r>     8.1220     0.0000    23.9718 </r>
       <r>     8.2506     0.0212    24.0000 </r>
       <r>     8.3793     0.0000    24.0000 </r>
       <r>     8.5079     0.0000    24.0000 </r>
       <r>     8.6366     0.0000    24.0000 </r>
       <r>     8.7653     0.0000    24.0000 </r>
       <r>     8.8939     0.0000    24.0000 </r>
       <r>     9.0226     0.0000    24.0000 </r>
       <r>     9.1512     0.0000    24.0000 </r>
       <r>     9.2799     0.0000    24.0000 </r>
       <r>     9.4085     0.0745    24.0096 </r>
       <r>     9.5372     0.2457    24.0753 </r>
       <r>     9.6658     0.4792    24.1982 </r>
       <r>     9.7945     0.6845    24.3293 </r>
       <r>     9.9232     1.2328    24.5491 </r>
       <r>    10.0518     0.7833    24.7280 </r>
       <r>    10.1805     1.7752    25.0650 </r>
       <r>    10.3091     2.2064    25.5046 </r>
       <r>    10.4378     2.8007    26.0545 </r>
       <r>    10.5664     0.9544    26.2593 </r>
       <r>    10.6951     2.6868    26.6679 </r>
       <r>    10.8238     2.0665    27.0797 </r>
       <r>    10.9524     4.3498    27.9543 </r>
       <r>    11.0811     1.4511    28.3041 </r>
       <r>    11.2097     1.3856    28.6462 </r>
       <r>    11.3384     3.8798    29.3221 </r>
       <r>    11.4670     1.7215    29.6507 </r>
       <r>    11.5957     0.8198    29.8679 </r>
       <r>    11.7243     2.0427    30.1527 </r>
       <r>    11.8530     0.8053    30.4159 </r>
       <r>    11.9817     1.8541    30.6546 </r>
       <r>    12.1103     1.9074    31.0984 </r>
       <r>    12.2390     1.4910    31.4381 </r>
       <r>    12.3676     1.6469    31.7640 </r>
       <r>    12.4963     0.3396    31.8653 </r>
       <r>    12.6249     0.7783    31.9709 </r>
       <r>    12.7536     0.0000    31.9927 </r>
       <r>    12.8823     0.0000    31.9927 </r>
       <r>    13.0109     0.0000    31.9927 </r>
       <r>    13.1396     0.0000    32.0000 </r>
       <r>    13.2682     0.0000    32.0000 </r>
       <r>    13.3969     0.0000    32.0000 </r>
       <r>    13.5255     0.0000    32.0000 </r>
       <r>    13.6542     0.0000    32.0000 </r>
       <r>    13.7828     0.0000    32.0000 </r>
       <r>    13.9115     0.0000    32.0000 </r>
       <r>    14.0402     0.0000    32.0000 </r>
       <r>    14.1688     0.0000    32.0000 </r>
       <r>    14.2975     0.0000    32.0000 </r>
       <r>    14.4261     0.0000    32.0000 </r>
       <r>    14.5548     0.0000    32.0000 </r>
       <r>    14.6834     0.0000    32.0000 </r>
       <r>    14.8121     0.0000    32.0000 </r>
      </set>
     </set>
    </array>
   </total>
  </dos>
 </calculation>
 <structure name="finalpos" >
  <crystal>
   <varray name="basis" >
    <v>       0.00000000       3.09116350       3.09116350 </v>
    <v>       3.09116350       0.00000000       3.09116350 </v>
    <v>       3.09116350       3.09116350       0.00000000 </v>
   </varray>
   <i name="volume">     59.07393867 </i>
   <varray name="rec_basis" >
    <v>      -0.16175139       0.16175139       0.16175139 </v>
    <v>       0.16175139      -0.16175139       0.16175139 </v>
    <v>       0.16175139       0.16175139      -0.16175139 </v>
   </varray>
  </crystal>
  <varray name="positions" >
   <v>       0.75000000       0.75000000       0.75000000 </v>
   <v>       0.25000000       0.25000000       0.25000000 </v>
   <v>       0.00000000       0.00000000       0.00000000 </v>
  </varray>
 </structure>
</modeling>
