 running on   48 total cores
 distrk:  each k-point on   12 cores,    4 groups
 distr:  one band on   12 cores,    1 groups
 using from now: INCAR     
 vasp.5.4.4.18Apr17-6-g9f103f2a35 (build Nov 04 2020 14:40:39) complex          
  
 POSCAR found type information on POSCAR  Al Sb
 POSCAR found :  2 types and       2 ions
 scaLAPACK will be used

 ----------------------------------------------------------------------------- 
|                                                                             |
|           W    W    AA    RRRRR   N    N  II  N    N   GGGG   !!!           |
|           W    W   A  A   R    R  NN   N  II  NN   N  G    G  !!!           |
|           W    W  A    A  R    R  N N  N  II  N N  N  G       !!!           |
|           W WW W  AAAAAA  RRRRR   N  N N  II  N  N N  G  GGG   !            |
|           WW  WW  A    A  R   R   N   NN  II  N   NN  G    G                |
|           W    W  A    A  R    R  N    N  II  N    N   GGGG   !!!           |
|                                                                             |
|      You have enabled k-point parallelism (KPAR>1).                         |
|      This developmental code was originally  written by Paul Kent at ORNL,  |
|      and carefully double checked in Vienna.                                |
|      GW as well as linear response parallelism added by Martijn Marsman     |
|      and Georg Kresse.                                                      |
|      Carefully verify results versus KPAR=1.                                |
|      Report problems to Paul Kent and Vienna.                               |
|                                                                             |
 ----------------------------------------------------------------------------- 

 LDA part: xc-table for Pade appr. of Perdew
 POSCAR found type information on POSCAR  Al Sb
 POSCAR found :  2 types and       2 ions
 generate k-points for:   18   18   18
 POSCAR, INCAR and KPOINTS ok, starting setup
 FFT: planning ...
 WAVECAR not read
 entering main loop
       N       E                     dE             d eps       ncg     rms          rms(c)
DAV:   1     0.132848987539E+02    0.13285E+02   -0.27841E+03  3120   0.728E+02
DAV:   2    -0.776839141935E+01   -0.21053E+02   -0.20695E+02  4256   0.826E+01
DAV:   3    -0.827260899054E+01   -0.50422E+00   -0.50422E+00  4312   0.143E+01
DAV:   4    -0.827526960407E+01   -0.26606E-02   -0.26606E-02  4536   0.127E+00
DAV:   5    -0.827528382035E+01   -0.14216E-04   -0.14216E-04  4376   0.772E-02    0.206E+00
RMM:   6    -0.821562369560E+01    0.59660E-01   -0.52479E-02  3121   0.129E+00    0.124E+00
RMM:   7    -0.819774029836E+01    0.17883E-01   -0.63261E-02  3186   0.153E+00    0.220E-01
RMM:   8    -0.819840607590E+01   -0.66578E-03   -0.36804E-03  3246   0.434E-01    0.501E-02
RMM:   9    -0.819879090596E+01   -0.38483E-03   -0.62168E-04  3298   0.173E-01    0.152E-02
RMM:  10    -0.819879672762E+01   -0.58217E-05   -0.52065E-05  3652   0.531E-02    0.455E-03
RMM:  11    -0.819879983360E+01   -0.31060E-05   -0.10292E-05  3507   0.246E-02    0.197E-03
RMM:  12    -0.819880025763E+01   -0.42403E-06   -0.64756E-07  3805   0.671E-03
   1 F= -.81988003E+01 E0= -.81988003E+01  d E =0.000000E+00
