unknown system                          
            1
    -1.627600    1.627600    1.627600
     1.627600   -1.627600    1.627600
     1.627600    1.627600   -1.627600
   Ti
     1
Direct configuration=     1
   0.00000000  0.00000000  0.00000000
unknown system                          
            1
    -1.626446    1.626446    1.626446
     1.626446   -1.626446    1.626446
     1.626446    1.626446   -1.626446
   Ti
     1
Direct configuration=     2
   0.00000000  0.00000000  0.00000000
unknown system                          
            1
    -1.624944    1.624944    1.624944
     1.624944   -1.624944    1.624944
     1.624944    1.624944   -1.624944
   Ti
     1
Direct configuration=     3
   0.00000000  0.00000000  0.00000000
unknown system                          
            1
    -1.625261    1.625261    1.625261
     1.625261   -1.625261    1.625261
     1.625261    1.625261   -1.625261
   Ti
     1
Direct configuration=     4
   0.00000000  0.00000000  0.00000000
unknown system                          
            1
    -1.626035    1.626035    1.626035
     1.626035   -1.626035    1.626035
     1.626035    1.626035   -1.626035
   Ti
     1
Direct configuration=     5
   0.00000000  0.00000000  0.00000000
