Automatically generated mesh
     220
Reciprocal lattice
    0.00000000000000    0.00000000000000    0.00000000000000             1
    0.05263157894737    0.00000000000000    0.00000000000000            12
    0.10526315789474    0.00000000000000    0.00000000000000            12
    0.15789473684210    0.00000000000000    0.00000000000000            12
    0.21052631578947    0.00000000000000    0.00000000000000            12
    0.26315789473684    0.00000000000000    0.00000000000000            12
    0.31578947368421    0.00000000000000    0.00000000000000            12
    0.36842105263158    0.00000000000000    0.00000000000000            12
    0.42105263157895    0.00000000000000    0.00000000000000            12
    0.47368421052632    0.00000000000000    0.00000000000000            12
    0.05263157894737    0.05263157894737    0.00000000000000            24
    0.10526315789474    0.05263157894737    0.00000000000000            48
    0.15789473684210    0.05263157894737    0.00000000000000            48
    0.21052631578947    0.05263157894737    0.00000000000000            48
    0.26315789473684    0.05263157894737    0.00000000000000            48
    0.31578947368421    0.05263157894737    0.00000000000000            48
    0.36842105263158    0.05263157894737    0.00000000000000            48
    0.42105263157895    0.05263157894737    0.00000000000000            48
    0.47368421052632    0.05263157894737    0.00000000000000            24
    0.10526315789474    0.10526315789474    0.00000000000000            24
    0.15789473684210    0.10526315789474    0.00000000000000            48
    0.21052631578947    0.10526315789474    0.00000000000000            48
    0.26315789473684    0.10526315789474    0.00000000000000            48
    0.31578947368421    0.10526315789474    0.00000000000000            48
    0.36842105263158    0.10526315789474    0.00000000000000            48
    0.42105263157895    0.10526315789474    0.00000000000000            48
    0.15789473684210    0.15789473684210    0.00000000000000            24
    0.21052631578947    0.15789473684210    0.00000000000000            48
    0.26315789473684    0.15789473684210    0.00000000000000            48
    0.31578947368421    0.15789473684210    0.00000000000000            48
    0.36842105263158    0.15789473684210    0.00000000000000            48
    0.42105263157895    0.15789473684210    0.00000000000000            24
    0.21052631578947    0.21052631578947    0.00000000000000            24
    0.26315789473684    0.21052631578947    0.00000000000000            48
    0.31578947368421    0.21052631578947    0.00000000000000            48
    0.36842105263158    0.21052631578947    0.00000000000000            48
    0.26315789473684    0.26315789473684    0.00000000000000            24
    0.31578947368421    0.26315789473684    0.00000000000000            48
    0.36842105263158    0.26315789473684    0.00000000000000            24
    0.31578947368421    0.31578947368421    0.00000000000000            24
    0.05263157894737    0.05263157894737    0.05263157894737             8
    0.10526315789474    0.05263157894737    0.05263157894737            24
    0.15789473684210    0.05263157894737    0.05263157894737            24
    0.21052631578947    0.05263157894737    0.05263157894737            24
    0.26315789473684    0.05263157894737    0.05263157894737            24
    0.31578947368421    0.05263157894737    0.05263157894737            24
    0.36842105263158    0.05263157894737    0.05263157894737            24
    0.42105263157895    0.05263157894737    0.05263157894737            24
   -0.05263157894737    0.05263157894737    0.05263157894737             6
    0.10526315789474    0.10526315789474    0.05263157894737            24
    0.15789473684210    0.10526315789474    0.05263157894737            48
    0.21052631578947    0.10526315789474    0.05263157894737            48
    0.26315789473684    0.10526315789474    0.05263157894737            48
    0.31578947368421    0.10526315789474    0.05263157894737            48
    0.36842105263158    0.10526315789474    0.05263157894737            48
    0.42105263157895    0.10526315789474    0.05263157894737            24
   -0.10526315789474    0.10526315789474    0.05263157894737            24
    0.15789473684210    0.15789473684210    0.05263157894737            24
    0.21052631578947    0.15789473684210    0.05263157894737            48
    0.26315789473684    0.15789473684210    0.05263157894737            48
    0.31578947368421    0.15789473684210    0.05263157894737            48
    0.36842105263158    0.15789473684210    0.05263157894737            48
   -0.15789473684210    0.15789473684210    0.05263157894737            24
   -0.10526315789474    0.15789473684210    0.05263157894737            24
    0.21052631578947    0.21052631578947    0.05263157894737            24
    0.26315789473684    0.21052631578947    0.05263157894737            48
    0.31578947368421    0.21052631578947    0.05263157894737            48
    0.36842105263158    0.21052631578947    0.05263157894737            24
   -0.21052631578947    0.21052631578947    0.05263157894737            24
   -0.15789473684210    0.21052631578947    0.05263157894737            48
    0.26315789473684    0.26315789473684    0.05263157894737            24
    0.31578947368421    0.26315789473684    0.05263157894737            48
   -0.26315789473684    0.26315789473684    0.05263157894737            24
   -0.21052631578947    0.26315789473684    0.05263157894737            48
   -0.15789473684210    0.26315789473684    0.05263157894737            24
    0.31578947368421    0.31578947368421    0.05263157894737             8
   -0.31578947368421    0.31578947368421    0.05263157894737            24
   -0.26315789473684    0.31578947368421    0.05263157894737            48
   -0.21052631578947    0.31578947368421    0.05263157894737            48
   -0.36842105263158    0.36842105263158    0.05263157894737            24
   -0.31578947368421    0.36842105263158    0.05263157894737            48
   -0.26315789473684    0.36842105263158    0.05263157894737            48
   -0.21052631578947    0.36842105263158    0.05263157894737            24
   -0.42105263157894    0.42105263157895    0.05263157894737            24
   -0.36842105263158    0.42105263157895    0.05263157894737            48
   -0.31578947368421    0.42105263157895    0.05263157894737            48
   -0.26315789473684    0.42105263157895    0.05263157894737            48
   -0.47368421052631    0.47368421052632    0.05263157894737            24
   -0.42105263157894    0.47368421052632    0.05263157894737            48
   -0.36842105263158    0.47368421052632    0.05263157894737            48
   -0.31578947368421    0.47368421052632    0.05263157894737            48
   -0.26315789473684    0.47368421052632    0.05263157894737            24
   -0.47368421052631   -0.47368421052631    0.05263157894737            24
   -0.42105263157894   -0.47368421052631    0.05263157894737            48
   -0.36842105263157   -0.47368421052631    0.05263157894737            48
   -0.31578947368421   -0.47368421052631    0.05263157894737            48
   -0.42105263157894   -0.42105263157894    0.05263157894737            24
   -0.36842105263158   -0.42105263157894    0.05263157894737            48
   -0.31578947368421   -0.42105263157894    0.05263157894737            24
   -0.36842105263158   -0.36842105263158    0.05263157894737            24
    0.10526315789474    0.10526315789474    0.10526315789474             8
    0.15789473684210    0.10526315789474    0.10526315789474            24
    0.21052631578947    0.10526315789474    0.10526315789474            24
    0.26315789473684    0.10526315789474    0.10526315789474            24
    0.31578947368421    0.10526315789474    0.10526315789474            24
    0.36842105263158    0.10526315789474    0.10526315789474            24
   -0.10526315789474    0.10526315789474    0.10526315789474             6
    0.15789473684210    0.15789473684210    0.10526315789474            24
    0.21052631578947    0.15789473684210    0.10526315789474            48
    0.26315789473684    0.15789473684210    0.10526315789474            48
    0.31578947368421    0.15789473684210    0.10526315789474            48
    0.36842105263158    0.15789473684210    0.10526315789474            24
   -0.15789473684210    0.15789473684210    0.10526315789474            24
    0.21052631578947    0.21052631578947    0.10526315789474            24
    0.26315789473684    0.21052631578947    0.10526315789474            48
    0.31578947368421    0.21052631578947    0.10526315789474            48
   -0.21052631578947    0.21052631578947    0.10526315789474            24
   -0.15789473684210    0.21052631578947    0.10526315789474            24
    0.26315789473684    0.26315789473684    0.10526315789474            24
    0.31578947368421    0.26315789473684    0.10526315789474            24
   -0.26315789473684    0.26315789473684    0.10526315789474            24
   -0.21052631578947    0.26315789473684    0.10526315789474            48
   -0.31578947368421    0.31578947368421    0.10526315789474            24
   -0.26315789473684    0.31578947368421    0.10526315789474            48
   -0.21052631578947    0.31578947368421    0.10526315789474            24
   -0.36842105263158    0.36842105263158    0.10526315789474            24
   -0.31578947368421    0.36842105263158    0.10526315789474            48
   -0.26315789473684    0.36842105263158    0.10526315789474            48
   -0.42105263157894    0.42105263157895    0.10526315789474            24
   -0.36842105263158    0.42105263157895    0.10526315789474            48
   -0.31578947368421    0.42105263157895    0.10526315789474            48
   -0.26315789473684    0.42105263157895    0.10526315789474            24
   -0.47368421052631    0.47368421052632    0.10526315789474            24
   -0.42105263157894    0.47368421052632    0.10526315789474            48
   -0.36842105263158    0.47368421052632    0.10526315789474            48
   -0.31578947368421    0.47368421052632    0.10526315789474            48
   -0.47368421052631   -0.47368421052631    0.10526315789474            24
   -0.42105263157894   -0.47368421052631    0.10526315789474            48
   -0.36842105263157   -0.47368421052631    0.10526315789474            48
   -0.31578947368421   -0.47368421052631    0.10526315789474            24
   -0.42105263157894   -0.42105263157894    0.10526315789474            24
   -0.36842105263158   -0.42105263157894    0.10526315789474            48
   -0.36842105263158   -0.36842105263158    0.10526315789474             8
    0.15789473684210    0.15789473684210    0.15789473684210             8
    0.21052631578947    0.15789473684210    0.15789473684210            24
    0.26315789473684    0.15789473684210    0.15789473684210            24
    0.31578947368421    0.15789473684210    0.15789473684210            24
   -0.15789473684210    0.15789473684210    0.15789473684210             6
    0.21052631578947    0.21052631578947    0.15789473684210            24
    0.26315789473684    0.21052631578947    0.15789473684210            48
    0.31578947368421    0.21052631578947    0.15789473684210            24
   -0.21052631578947    0.21052631578947    0.15789473684210            24
    0.26315789473684    0.26315789473684    0.15789473684210            24
   -0.26315789473684    0.26315789473684    0.15789473684210            24
   -0.21052631578947    0.26315789473684    0.15789473684210            24
   -0.31578947368421    0.31578947368421    0.15789473684210            24
   -0.26315789473684    0.31578947368421    0.15789473684210            48
   -0.36842105263158    0.36842105263158    0.15789473684210            24
   -0.31578947368421    0.36842105263158    0.15789473684210            48
   -0.26315789473684    0.36842105263158    0.15789473684210            24
   -0.42105263157894    0.42105263157895    0.15789473684210            24
   -0.36842105263158    0.42105263157895    0.15789473684210            48
   -0.31578947368421    0.42105263157895    0.15789473684210            48
   -0.47368421052631    0.47368421052632    0.15789473684210            24
   -0.42105263157894    0.47368421052632    0.15789473684210            48
   -0.36842105263158    0.47368421052632    0.15789473684210            48
   -0.31578947368421    0.47368421052632    0.15789473684210            24
   -0.47368421052631   -0.47368421052631    0.15789473684210            24
   -0.42105263157894   -0.47368421052631    0.15789473684210            48
   -0.36842105263158   -0.47368421052631    0.15789473684210            48
   -0.42105263157894   -0.42105263157894    0.15789473684210            24
   -0.36842105263158   -0.42105263157894    0.15789473684210            24
    0.21052631578947    0.21052631578947    0.21052631578947             8
    0.26315789473684    0.21052631578947    0.21052631578947            24
   -0.21052631578947    0.21052631578947    0.21052631578947             6
    0.26315789473684    0.26315789473684    0.21052631578947             8
   -0.26315789473684    0.26315789473684    0.21052631578947            24
   -0.31578947368421    0.31578947368421    0.21052631578947            24
   -0.26315789473684    0.31578947368421    0.21052631578947            24
   -0.36842105263158    0.36842105263158    0.21052631578947            24
   -0.31578947368421    0.36842105263158    0.21052631578947            48
   -0.42105263157894    0.42105263157895    0.21052631578947            24
   -0.36842105263158    0.42105263157895    0.21052631578947            48
   -0.31578947368421    0.42105263157895    0.21052631578947            24
   -0.47368421052631    0.47368421052632    0.21052631578947            24
   -0.42105263157894    0.47368421052632    0.21052631578947            48
   -0.36842105263158    0.47368421052632    0.21052631578947            48
   -0.47368421052631   -0.47368421052631    0.21052631578947            24
   -0.42105263157894   -0.47368421052631    0.21052631578947            48
   -0.36842105263158   -0.47368421052631    0.21052631578947            24
   -0.42105263157894   -0.42105263157894    0.21052631578947            24
   -0.26315789473684    0.26315789473684    0.26315789473684             6
   -0.31578947368421    0.31578947368421    0.26315789473684            24
   -0.36842105263158    0.36842105263158    0.26315789473684            24
   -0.31578947368421    0.36842105263158    0.26315789473684            24
   -0.42105263157894    0.42105263157895    0.26315789473684            24
   -0.36842105263158    0.42105263157895    0.26315789473684            48
   -0.47368421052631    0.47368421052632    0.26315789473684            24
   -0.42105263157894    0.47368421052632    0.26315789473684            48
   -0.36842105263158    0.47368421052632    0.26315789473684            24
   -0.47368421052631   -0.47368421052631    0.26315789473684            24
   -0.42105263157894   -0.47368421052631    0.26315789473684            48
   -0.42105263157894   -0.42105263157894    0.26315789473684             8
   -0.31578947368421    0.31578947368421    0.31578947368421             6
   -0.36842105263158    0.36842105263158    0.31578947368421            24
   -0.42105263157894    0.42105263157895    0.31578947368421            24
   -0.36842105263158    0.42105263157895    0.31578947368421            24
   -0.47368421052631    0.47368421052632    0.31578947368421            24
   -0.42105263157894    0.47368421052632    0.31578947368421            48
   -0.47368421052631   -0.47368421052631    0.31578947368421            24
   -0.42105263157894   -0.47368421052631    0.31578947368421            24
   -0.36842105263158    0.36842105263158    0.36842105263158             6
   -0.42105263157894    0.42105263157895    0.36842105263158            24
   -0.47368421052631    0.47368421052632    0.36842105263158            24
   -0.42105263157894    0.47368421052632    0.36842105263158            24
   -0.47368421052631   -0.47368421052631    0.36842105263158            24
   -0.42105263157894    0.42105263157895    0.42105263157895             6
   -0.47368421052631    0.47368421052632    0.42105263157895            24
   -0.47368421052631   -0.47368421052631    0.42105263157895             8
   -0.47368421052631    0.47368421052632    0.47368421052632             6
Tetrahedra
      8079    0.00002429897458
         4        41        42        42        50
         8        42        42        50        50
         4        42        50        50       101
         4        42        43        50        51
         4        42        50        50        51
        12        50        50        51       101
         8        43        50        51        51
         8        50        51        51       102
         8        50        51       101       102
         4        43        44        51        52
         4        43        51        51        52
        12        51        51        52       102
         8        44        51        52        52
         4        51        52        52       103
         4        51        52       102       103
         4        44        45        52        53
         4        44        52        52        53
         8        52        52        53       103
         8        45        52        53        53
         4        52        53        53       104
         4        52        53       103       104
         4        45        46        53        54
         4        45        53        53        54
         8        53        53        54       104
         8        46        53        54        54
         4        53        54        54       105
         4        53        54       104       105
         4        46        47        54        55
         4        46        54        54        55
         8        54        54        55       105
         8        47        54        55        55
         4        54        55        55       106
         4        54        55       105       106
         4        47        48        55        56
         4        47        55        55        56
         8        55        55        56       106
        12        48        55        56        56
        12        55        56        56       106
         4        55        56       106       106
         4        48        48        55        56
         8        48        55        55        56
         4        55        55        56       105
         4        55        56       105       106
         4        47        48        54        55
         4        48        54        55        55
         8        54        55        55       105
         8        47        54        54        55
         4        54        54        55       104
         4        54        55       104       105
         4        46        47        53        54
         4        47        53        54        54
         8        53        54        54       104
         8        46        53        53        54
         4        53        53        54       103
         4        53        54       103       104
         4        45        46        52        53
         4        46        52        53        53
         8        52        53        53       103
         8        45        52        52        53
         4        52        52        53       102
         4        52        53       102       103
         4        44        45        51        52
         4        45        51        52        52
         8        51        52        52       102
         8        44        51        51        52
         4        51        51        52       101
         4        51        52       101       102
         4        43        44        50        51
         4        44        50        51        51
        16        50        51        51       101
         8        43        50        50        51
         4        50        50        50        51
         4        42        42        43        50
         8        42        43        50        50
         4        42        50        50        50
         4        42        42        42        50
         8        20        42        42        50
         4        20        42        50        50
        12        12        41        42        42
         4        12        42        42        42
         8        12        20        42        42
        16        12        12        41        42
         4        12        12        42        64
         4        12        20        42        64
         4        11        12        41        57
         4        12        12        41        57
        12        12        12        57        64
         8        11        12        57        57
         4        12        57        57       107
         4        12        57        64       107
         4        11        49        57        57
         4        11        57        57        57
         4        57        57        57       107
         4        49        57        57        57
         4        57        57        57        64
         4        57        57        64       107
         4        11        12        49        57
         4        12        49        57        57
         8        12        57        57        64
        16        11        12        12        57
         4        12        12        20        57
         4        12        20        57        64
         8        11        12        41        42
         8        11        12        12        42
         8        12        12        20        42
         4        12        42        42        50
         4        12        20        42        50
         4        50        51        58       101
        12        51        58       101       102
         4        58       101       102       108
         4        51        52        59       102
         4        51        58        59       102
         8        58        59       102       108
        12        52        59       102       103
         4        59       102       103       109
         4        59       102       108       109
         4        52        53        60       103
         4        52        59        60       103
         8        59        60       103       109
        12        53        60       103       104
         4        60       103       104       110
         4        60       103       109       110
         4        53        54        61       104
         4        53        60        61       104
         8        60        61       104       110
        12        54        61       104       105
         4        61       104       105       111
         4        61       104       110       111
         4        54        55        62       105
         4        54        61        62       105
         8        61        62       105       111
        12        55        62       105       106
         4        62       105       106       112
         4        62       105       111       112
        16        55        56        62       106
         4        55        62        62       106
         8        62        62       106       112
        12        56        62       106       106
         4        62       106       106       111
        16        62       106       111       112
         4        55        56        61       106
         4        56        61        62       106
         8        61        62       106       111
        12        55        61       105       106
         4        61       105       106       110
         4        61       106       110       111
         4        54        55        60       105
         4        55        60        61       105
         8        60        61       105       110
        12        54        60       104       105
         4        60       104       105       109
         4        60       105       109       110
         4        53        54        59       104
         4        54        59        60       104
         8        59        60       104       109
        12        53        59       103       104
         4        59       103       104       108
         4        59       104       108       109
         4        52        53        58       103
         4        53        58        59       103
        12        58        59       103       108
        12        52        58       102       103
         4        58       102       102       103
        16        58       102       103       108
        16        51        52        58       102
         8        51        58       102       102
        16        51        51       101       102
         4        51        51       102       102
        12        43        50        51       101
         8        43        51        51       101
         8        43        50        50       101
         4        21        43        50       101
         4        21        43        51       101
         4        13        42        50        50
         4        13        43        50        50
         8        13        21        43        50
        12        13        20        42        50
         4        13        20        50        70
         4        13        21        50        70
         4        12        20        42        63
         4        13        20        42        63
         8        13        20        63        70
        12        12        20        63        64
         4        20        63        64       113
         4        20        63        70       113
         4        12        57        64        64
         4        12        63        64        64
         4        63        64        64       113
         8        57        64        64       107
         8        64        64       107       113
         4        64        64       113       113
         4        57        57        63       107
        12        57        63        64       107
        12        63        64       107       113
         4        63        64        70       107
         4        63        70       107       113
         4        12        13        57        64
         4        13        57        63        64
         8        13        63        64        70
        12        12        13        20        64
         4        13        20        21        64
         4        13        21        64        70
         4        12        20        42        43
         4        12        13        20        43
         8        13        20        21        43
        16        20        42        43        50
         4        20        43        50        51
         4        20        21        43        51
         4        58        59        65       108
         8        59        65       108       109
         4        65       108       109       114
         4        59        60        66       109
         4        59        65        66       109
         8        65        66       109       114
         8        60        66       109       110
         4        66       109       110       115
         4        66       109       114       115
         4        60        61        67       110
         4        60        66        67       110
         8        66        67       110       115
         8        61        67       110       111
         4        67       110       111       116
         4        67       110       115       116
         4        61        62        68       111
         4        61        67        68       111
         8        67        68       111       116
        12        62        68       111       112
        12        68       111       112       116
         4        68       111       116       116
         4        62        62        67       112
        12        62        67        68       112
        12        67        68       112       116
         8        62        67       111       112
         4        67       111       112       115
         4        67       112       115       116
         4        61        62        66       111
         4        62        66        67       111
         8        66        67       111       115
         8        61        66       110       111
         4        66       110       111       114
         4        66       111       114       115
         4        60        61        65       110
         4        61        65        66       110
        12        65        66       110       114
         8        60        65       109       110
         4        65       109       109       110
        12        65       109       110       114
         4        59        59        60       109
         8        59        60        65       109
         8        59        65       109       109
         8        59        59       108       109
        16        59       103       108       109
         4        59       103       109       109
        12        52        58        59       108
         4        52        59        59       108
         8        52        59       103       108
        12        52        58       102       108
         4        52        52       102       108
         4        52        52       103       108
         4        44        51        58       102
         4        44        52        58       102
         4        44        52        52       102