unknown system                          
            1
    -1.601270    1.601270    1.601270
     1.601270   -1.601270    1.601270
     1.601270    1.601270   -1.601270
   Ti
     1
Direct configuration=     1
   0.00000000  0.00000000  0.00000000
