   3   3   0   0
  0.2629182E+02  0.4813773E-09  0.4813773E-09  0.4813773E-09  0.5000000E-15
  1.000000000000000E-004
  CAR
 unknown system
     11.87038352    -37.35744263  301      9.06574744      1.00000000
    -37.357  0.0000E+00  0.0000E+00
    -37.193  0.0000E+00  0.0000E+00
    -37.029  0.0000E+00  0.0000E+00
    -36.865  0.0000E+00  0.0000E+00
    -36.701  0.0000E+00  0.0000E+00
    -36.537  0.0000E+00  0.0000E+00
    -36.373  0.0000E+00  0.0000E+00
    -36.209  0.0000E+00  0.0000E+00
    -36.045  0.0000E+00  0.0000E+00
    -35.881  0.0000E+00  0.0000E+00
    -35.717  0.0000E+00  0.0000E+00
    -35.552  0.0000E+00  0.0000E+00
    -35.388  0.0000E+00  0.0000E+00
    -35.224  0.0000E+00  0.0000E+00
    -35.060  0.1219E+02  0.2000E+01
    -34.896  0.0000E+00  0.2000E+01
    -34.732  0.0000E+00  0.2000E+01
    -34.568  0.0000E+00  0.2000E+01
    -34.404  0.0000E+00  0.2000E+01
    -34.240  0.0000E+00  0.2000E+01
    -34.076  0.0000E+00  0.2000E+01
    -33.911  0.0000E+00  0.2000E+01
    -33.747  0.0000E+00  0.2000E+01
    -33.583  0.0000E+00  0.2000E+01
    -33.419  0.0000E+00  0.2000E+01
    -33.255  0.0000E+00  0.2000E+01
    -33.091  0.0000E+00  0.2000E+01
    -32.927  0.0000E+00  0.2000E+01
    -32.763  0.0000E+00  0.2000E+01
    -32.599  0.0000E+00  0.2000E+01
    -32.435  0.0000E+00  0.2000E+01
    -32.271  0.0000E+00  0.2000E+01
    -32.106  0.0000E+00  0.2000E+01
    -31.942  0.0000E+00  0.2000E+01
    -31.778  0.0000E+00  0.2000E+01
    -31.614  0.0000E+00  0.2000E+01
    -31.450  0.0000E+00  0.2000E+01
    -31.286  0.0000E+00  0.2000E+01
    -31.122  0.0000E+00  0.2000E+01
    -30.958  0.0000E+00  0.2000E+01
    -30.794  0.0000E+00  0.2000E+01
    -30.630  0.0000E+00  0.2000E+01
    -30.466  0.0000E+00  0.2000E+01
    -30.301  0.0000E+00  0.2000E+01
    -30.137  0.0000E+00  0.2000E+01
    -29.973  0.0000E+00  0.2000E+01
    -29.809  0.0000E+00  0.2000E+01
    -29.645  0.0000E+00  0.2000E+01
    -29.481  0.0000E+00  0.2000E+01
    -29.317  0.0000E+00  0.2000E+01
    -29.153  0.0000E+00  0.2000E+01
    -28.989  0.0000E+00  0.2000E+01
    -28.825  0.0000E+00  0.2000E+01
    -28.661  0.0000E+00  0.2000E+01
    -28.496  0.0000E+00  0.2000E+01
    -28.332  0.0000E+00  0.2000E+01
    -28.168  0.0000E+00  0.2000E+01
    -28.004  0.0000E+00  0.2000E+01
    -27.840  0.0000E+00  0.2000E+01
    -27.676  0.0000E+00  0.2000E+01
    -27.512  0.0000E+00  0.2000E+01
    -27.348  0.0000E+00  0.2000E+01
    -27.184  0.0000E+00  0.2000E+01
    -27.020  0.0000E+00  0.2000E+01
    -26.856  0.0000E+00  0.2000E+01
    -26.691  0.0000E+00  0.2000E+01
    -26.527  0.0000E+00  0.2000E+01
    -26.363  0.0000E+00  0.2000E+01
    -26.199  0.0000E+00  0.2000E+01
    -26.035  0.0000E+00  0.2000E+01
    -25.871  0.0000E+00  0.2000E+01
    -25.707  0.0000E+00  0.2000E+01
    -25.543  0.0000E+00  0.2000E+01
    -25.379  0.0000E+00  0.2000E+01
    -25.215  0.0000E+00  0.2000E+01
    -25.050  0.0000E+00  0.2000E+01
    -24.886  0.0000E+00  0.2000E+01
    -24.722  0.0000E+00  0.2000E+01
    -24.558  0.0000E+00  0.2000E+01
    -24.394  0.0000E+00  0.2000E+01
    -24.230  0.0000E+00  0.2000E+01
    -24.066  0.0000E+00  0.2000E+01
    -23.902  0.0000E+00  0.2000E+01
    -23.738  0.0000E+00  0.2000E+01
    -23.574  0.0000E+00  0.2000E+01
    -23.410  0.0000E+00  0.2000E+01
    -23.245  0.0000E+00  0.2000E+01
    -23.081  0.0000E+00  0.2000E+01
    -22.917  0.0000E+00  0.2000E+01
    -22.753  0.0000E+00  0.2000E+01
    -22.589  0.0000E+00  0.2000E+01
    -22.425  0.0000E+00  0.2000E+01
    -22.261  0.0000E+00  0.2000E+01
    -22.097  0.0000E+00  0.2000E+01
    -21.933  0.0000E+00  0.2000E+01
    -21.769  0.0000E+00  0.2000E+01
    -21.605  0.0000E+00  0.2000E+01
    -21.440  0.0000E+00  0.2000E+01
    -21.276  0.0000E+00  0.2000E+01
    -21.112  0.0000E+00  0.2000E+01
    -20.948  0.0000E+00  0.2000E+01
    -20.784  0.0000E+00  0.2000E+01
    -20.620  0.0000E+00  0.2000E+01
    -20.456  0.0000E+00  0.2000E+01
    -20.292  0.0000E+00  0.2000E+01
    -20.128  0.0000E+00  0.2000E+01
    -19.964  0.0000E+00  0.2000E+01
    -19.800  0.0000E+00  0.2000E+01
    -19.635  0.0000E+00  0.2000E+01
    -19.471  0.0000E+00  0.2000E+01
    -19.307  0.0000E+00  0.2000E+01
    -19.143  0.0000E+00  0.2000E+01
    -18.979  0.0000E+00  0.2000E+01
    -18.815  0.0000E+00  0.2000E+01
    -18.651  0.0000E+00  0.2000E+01
    -18.487  0.0000E+00  0.2000E+01
    -18.323  0.0000E+00  0.2000E+01
    -18.159  0.0000E+00  0.2000E+01
    -17.994  0.0000E+00  0.2000E+01
    -17.830  0.0000E+00  0.2000E+01
    -17.666  0.0000E+00  0.2000E+01
    -17.502  0.0000E+00  0.2000E+01
    -17.338  0.0000E+00  0.2000E+01
    -17.174  0.0000E+00  0.2000E+01
    -17.010  0.0000E+00  0.2000E+01
    -16.846  0.0000E+00  0.2000E+01
    -16.682  0.0000E+00  0.2000E+01
    -16.518  0.0000E+00  0.2000E+01
    -16.354  0.0000E+00  0.2000E+01
    -16.189  0.0000E+00  0.2000E+01
    -16.025  0.0000E+00  0.2000E+01
    -15.861  0.0000E+00  0.2000E+01
    -15.697  0.0000E+00  0.2000E+01
    -15.533  0.0000E+00  0.2000E+01
    -15.369  0.0000E+00  0.2000E+01
    -15.205  0.0000E+00  0.2000E+01
    -15.041  0.0000E+00  0.2000E+01
    -14.877  0.0000E+00  0.2000E+01
    -14.713  0.0000E+00  0.2000E+01
    -14.549  0.0000E+00  0.2000E+01
    -14.384  0.0000E+00  0.2000E+01
    -14.220  0.0000E+00  0.2000E+01
    -14.056  0.0000E+00  0.2000E+01
    -13.892  0.0000E+00  0.2000E+01
    -13.728  0.2104E+02  0.5452E+01
    -13.564  0.0000E+00  0.1200E+02
    -13.400  0.0000E+00  0.1200E+02
    -13.236  0.0000E+00  0.1200E+02
    -13.072  0.0000E+00  0.1200E+02
    -12.908  0.0000E+00  0.1200E+02
    -12.744  0.0000E+00  0.1200E+02
    -12.579  0.0000E+00  0.1200E+02
    -12.415  0.0000E+00  0.1200E+02
    -12.251  0.0000E+00  0.1200E+02
    -12.087  0.0000E+00  0.1200E+02
    -11.923  0.0000E+00  0.1200E+02
    -11.759  0.0000E+00  0.1200E+02
    -11.595  0.0000E+00  0.1200E+02
    -11.431  0.0000E+00  0.1200E+02
    -11.267  0.0000E+00  0.1200E+02
    -11.103  0.0000E+00  0.1200E+02
    -10.939  0.0000E+00  0.1200E+02
    -10.774  0.0000E+00  0.1200E+02
    -10.610  0.0000E+00  0.1200E+02
    -10.446  0.8474E+01  0.1339E+02
    -10.282  0.1647E+02  0.1800E+02
    -10.118  0.0000E+00  0.1800E+02
     -9.954  0.0000E+00  0.1800E+02
     -9.790  0.0000E+00  0.1800E+02
     -9.626  0.0000E+00  0.1800E+02
     -9.462  0.0000E+00  0.1800E+02
     -9.298  0.0000E+00  0.1800E+02
     -9.133  0.0000E+00  0.1800E+02
     -8.969  0.0000E+00  0.1800E+02
     -8.805  0.0000E+00  0.1800E+02
     -8.641  0.0000E+00  0.1800E+02
     -8.477  0.0000E+00  0.1800E+02
     -8.313  0.0000E+00  0.1800E+02
     -8.149  0.0000E+00  0.1800E+02
     -7.985  0.0000E+00  0.1800E+02
     -7.821  0.0000E+00  0.1800E+02
     -7.657  0.0000E+00  0.1800E+02
     -7.493  0.0000E+00  0.1800E+02
     -7.328  0.0000E+00  0.1800E+02
     -7.164  0.0000E+00  0.1800E+02
     -7.000  0.0000E+00  0.1800E+02
     -6.836  0.0000E+00  0.1800E+02
     -6.672  0.0000E+00  0.1800E+02
     -6.508  0.0000E+00  0.1800E+02
     -6.344  0.0000E+00  0.1800E+02
     -6.180  0.0000E+00  0.1800E+02
     -6.016  0.0000E+00  0.1800E+02
     -5.852  0.0000E+00  0.1800E+02
     -5.688  0.0000E+00  0.1800E+02
     -5.523  0.0000E+00  0.1800E+02
     -5.359  0.0000E+00  0.1800E+02
     -5.195  0.0000E+00  0.1800E+02
     -5.031  0.0000E+00  0.1800E+02
     -4.867  0.0000E+00  0.1800E+02
     -4.703  0.0000E+00  0.1800E+02
     -4.539  0.0000E+00  0.1800E+02
     -4.375  0.0000E+00  0.1800E+02
     -4.211  0.0000E+00  0.1800E+02
     -4.047  0.0000E+00  0.1800E+02
     -3.883  0.0000E+00  0.1800E+02
     -3.718  0.0000E+00  0.1800E+02
     -3.554  0.0000E+00  0.1800E+02
     -3.390  0.0000E+00  0.1800E+02
     -3.226  0.0000E+00  0.1800E+02
     -3.062  0.3133E-05  0.1800E+02
     -2.898  0.5936E-01  0.1802E+02
     -2.734  0.4017E-01  0.1806E+02
     -2.570  0.1794E+00  0.1815E+02
     -2.406  0.4043E+00  0.1832E+02
     -2.242  0.2041E+01  0.1889E+02
     -2.078  0.2187E+01  0.1992E+02
     -1.913  0.0000E+00  0.2000E+02
     -1.749  0.0000E+00  0.2000E+02
     -1.585  0.0000E+00  0.2000E+02
     -1.421  0.0000E+00  0.2000E+02
     -1.257  0.0000E+00  0.2000E+02
     -1.093  0.0000E+00  0.2000E+02
     -0.929  0.0000E+00  0.2000E+02
     -0.765  0.0000E+00  0.2000E+02
     -0.601  0.0000E+00  0.2000E+02
     -0.437  0.0000E+00  0.2000E+02
     -0.272  0.0000E+00  0.2000E+02
     -0.108  0.0000E+00  0.2000E+02
      0.056  0.0000E+00  0.2000E+02
      0.220  0.0000E+00  0.2000E+02
      0.384  0.0000E+00  0.2000E+02
      0.548  0.0000E+00  0.2000E+02
      0.712  0.0000E+00  0.2000E+02
      0.876  0.0000E+00  0.2000E+02
      1.040  0.0000E+00  0.2000E+02
      1.204  0.0000E+00  0.2000E+02
      1.368  0.0000E+00  0.2000E+02
      1.533  0.0000E+00  0.2000E+02
      1.697  0.0000E+00  0.2000E+02
      1.861  0.0000E+00  0.2000E+02
      2.025  0.0000E+00  0.2000E+02
      2.189  0.0000E+00  0.2000E+02
      2.353  0.0000E+00  0.2000E+02
      2.517  0.0000E+00  0.2000E+02
      2.681  0.0000E+00  0.2000E+02
      2.845  0.0000E+00  0.2000E+02
      3.009  0.0000E+00  0.2000E+02
      3.173  0.4423E-01  0.2001E+02
      3.338  0.4444E+00  0.2012E+02
      3.502  0.2472E+01  0.2073E+02
      3.666  0.1019E+01  0.2113E+02
      3.830  0.4734E+00  0.2143E+02
      3.994  0.8337E+00  0.2168E+02
      4.158  0.6551E+00  0.2190E+02
      4.322  0.4294E+01  0.2299E+02
      4.486  0.2508E+01  0.2395E+02
      4.650  0.2590E+01  0.2497E+02
      4.814  0.2600E+01  0.2592E+02
      4.978  0.1408E+00  0.2603E+02
      5.143  0.1942E+01  0.2639E+02
      5.307  0.4502E+01  0.2864E+02
      5.471  0.3272E+01  0.3023E+02
      5.635  0.1605E+01  0.3076E+02
      5.799  0.1507E+01  0.3132E+02
      5.963  0.5428E+00  0.3162E+02
      6.127  0.8762E+00  0.3184E+02
      6.291  0.7321E+00  0.3204E+02
      6.455  0.1471E+01  0.3234E+02
      6.619  0.6084E+00  0.3254E+02
      6.784  0.1179E+01  0.3281E+02
      6.948  0.4112E+00  0.3309E+02
      7.112  0.7285E+00  0.3331E+02
      7.276  0.3898E+00  0.3361E+02
      7.440  0.2110E+01  0.3400E+02
      7.604  0.3335E+01  0.3557E+02
      7.768  0.7448E+00  0.3592E+02
      7.932  0.6787E-01  0.3597E+02
      8.096  0.1664E-01  0.3600E+02
      8.260  0.2379E-01  0.3601E+02
      8.424  0.1979E+00  0.3607E+02
      8.589  0.1709E+01  0.3654E+02
      8.753  0.2215E+01  0.3725E+02
      8.917  0.1277E+01  0.3794E+02
      9.081  0.9832E+01  0.3965E+02
      9.245  0.5437E+01  0.4232E+02
      9.409  0.1075E+02  0.4616E+02
      9.573  0.1685E+01  0.4799E+02
      9.737  0.0000E+00  0.4800E+02
      9.901  0.0000E+00  0.4800E+02
     10.065  0.0000E+00  0.4800E+02
     10.229  0.0000E+00  0.4800E+02
     10.394  0.0000E+00  0.4800E+02
     10.558  0.0000E+00  0.4800E+02
     10.722  0.0000E+00  0.4800E+02
     10.886  0.0000E+00  0.4800E+02
     11.050  0.0000E+00  0.4800E+02
     11.214  0.0000E+00  0.4800E+02
     11.378  0.0000E+00  0.4800E+02
     11.542  0.0000E+00  0.4800E+02
     11.706  0.0000E+00  0.4800E+02
     11.870  0.0000E+00  0.4800E+02
