    3    3    1    1
  0.2629182E+02  0.4813773E-09  0.4813773E-09  0.4813773E-09  0.5000000E-15
  1.000000000000000E-004
  CAR
 unknown system
     39     84     24

  0.0000000E+00  0.0000000E+00  0.0000000E+00  0.4551661E-03
    1      -35.119814   1.000000
    2      -13.730437   1.000000
    3      -13.730437   1.000000
    4      -13.706069   1.000000
    5      -13.706069   1.000000
    6      -13.706069   1.000000
    7      -10.348889   1.000000
    8      -10.348889   1.000000
    9      -10.348889   1.000000
   10       -3.039033   1.000000
   11        4.773702   1.000000
   12        4.773702   1.000000
   13        4.773702   1.000000
   14        5.082751   1.000000
   15        5.082751   1.000000
   16        7.227865   1.000000
   17        8.016321   1.000000
   18        8.016321   1.000000
   19        8.016321   1.000000
   20        9.094868   0.000019
   21        9.094870   0.000019
   22        9.094873   0.000019
   23        9.096027   0.000009
   24        9.263952   0.000000

  0.7692308E-01 -0.1307058E-17  0.5726264E-18  0.3641329E-02
    1      -35.119652   1.000000
    2      -13.731523   1.000000
    3      -13.731523   1.000000
    4      -13.706257   1.000000
    5      -13.705924   1.000000
    6      -13.705924   1.000000
    7      -10.359069   1.000000
    8      -10.346680   1.000000
    9      -10.346680   1.000000
   10       -2.983517   1.000000
   11        4.645256   1.000000
   12        4.687349   1.000000
   13        4.687349   1.000000
   14        5.163804   1.000000
   15        5.163804   1.000000
   16        6.985554   1.000000
   17        7.962417   1.000000
   18        7.962417   1.000000
   19        8.167981   1.000000
   20        8.996600   1.000000
   21        9.063515   0.623873
   22        9.063515   0.623871
   23        9.243960   0.000000
   24        9.342045   0.000000

  0.1538462E+00 -0.4554882E-17  0.3086018E-17  0.3641329E-02
    1      -35.119197   1.000000
    2      -13.734526   1.000000
    3      -13.734526   1.000000
    4      -13.706805   1.000000
    5      -13.705490   1.000000
    6      -13.705490   1.000000
    7      -10.386538   1.000000
    8      -10.340564   1.000000
    9      -10.340564   1.000000
   10       -2.828154   1.000000
   11        4.325174   1.000000
   12        4.551076   1.000000
   13        4.551076   1.000000
   14        5.276012   1.000000
   15        5.276012   1.000000
   16        6.532460   1.000000
   17        7.841929   1.000000
   18        7.841929   1.000000
   19        8.261042   1.000000
   20        9.038182   0.999952
   21        9.038182   0.999952
   22        9.171550   0.000000
   23        9.267390   0.000000
   24        9.378352   0.000000

  0.2307692E+00 -0.6896093E-17  0.4692797E-17  0.3641329E-02
    1      -35.118559   1.000000
    2      -13.738784   1.000000
    3      -13.738784   1.000000
    4      -13.707693   1.000000
    5      -13.704837   1.000000
    6      -13.704837   1.000000
    7      -10.423519   1.000000
    8      -10.331985   1.000000
    9      -10.331985   1.000000
   10       -2.604933   1.000000
   11        3.935561   1.000000
   12        4.444044   1.000000
   13        4.444044   1.000000
   14        5.324606   1.000000
   15        5.324606   1.000000
   16        6.071843   1.000000
   17        7.728679   1.000000
   18        7.728679   1.000000
   19        8.270496   1.000000
   20        9.038199   0.999951
   21        9.038199   0.999951
   22        9.310809   0.000000
   23        9.472702   0.000000
   24        9.524627   0.000000

  0.3076923E+00 -0.9109764E-17  0.6172036E-17  0.3641329E-02
    1      -35.117879   1.000000
    2      -13.743308   1.000000
    3      -13.743307   1.000000
    4      -13.708784   1.000000
    5      -13.704105   1.000000
    6      -13.704105   1.000000
    7      -10.460634   1.000000
    8      -10.322920   1.000000
    9      -10.322920   1.000000
   10       -2.361909   1.000000
   11        3.573383   1.000000
   12        4.384018   1.000000
   13        4.384018   1.000000
   14        5.291944   1.000000
   15        5.291944   1.000000
   16        5.691252   1.000000
   17        7.664894   1.000000
   18        7.664894   1.000000
   19        8.309800   1.000000
   20        9.057287   0.884257
   21        9.057287   0.884256
   22        9.275392   0.000000
   23        9.367037   0.000000
   24        9.486462   0.000000

  0.3846154E+00  0.2426813E-17 -0.6098973E-17  0.3641329E-02
    1      -35.117315   1.000000
    2      -13.747051   1.000000
    3      -13.747051   1.000000
    4      -13.709801   1.000000
    5      -13.703478   1.000000
    6      -13.703478   1.000000
    7      -10.489820   1.000000
    8      -10.315448   1.000000
    9      -10.315448   1.000000
   10       -2.155068   1.000000
   11        3.301055   1.000000
   12        4.367077   1.000000
   13        4.367077   1.000000
   14        5.211191   1.000000
   15        5.211191   1.000000
   16        5.430038   1.000000
   17        7.646340   1.000000
   18        7.646340   1.000000
   19        8.378060   1.000000
   20        9.089545   0.000382
   21        9.089545   0.000382
   22        9.407056   0.000000
   23        9.412095   0.000000
   24        9.412439   0.000000

  0.4615385E+00  0.4349751E-17 -0.8756343E-17  0.3641329E-02
    1      -35.117000   1.000000
    2      -13.749166   1.000000
    3      -13.749166   1.000000
    4      -13.710424   1.000000
    5      -13.703123   1.000000
    6      -13.703123   1.000000
    7      -10.505700   1.000000
    8      -10.311249   1.000000
    9      -10.311249   1.000000
   10       -2.035896   1.000000
   11        3.156008   1.000000
   12        4.371820   1.000000
   13        4.371820   1.000000
   14        5.144480   1.000000
   15        5.144480   1.000000
   16        5.299270   1.000000
   17        7.646693   1.000000
   18        7.646693   1.000000
   19        8.434331   1.000000
   20        9.121080   0.000000
   21        9.121080   0.000000
   22        9.279659   0.000000
   23        9.352841   0.000000
   24        9.352841   0.000000

  0.7692308E-01  0.7692308E-01 -0.3092227E-17  0.2730997E-02
    1      -35.119599   1.000000
    2      -13.733395   1.000000
    3      -13.730172   1.000000
    4      -13.706410   1.000000
    5      -13.705828   1.000000
    6      -13.705828   1.000000
    7      -10.354258   1.000000
    8      -10.350159   1.000000
    9      -10.350159   1.000000
   10       -2.966257   1.000000
   11        4.436483   1.000000
   12        4.787921   1.000000
   13        4.787921   1.000000
   14        5.096415   1.000000
   15        5.198429   1.000000
   16        6.968464   1.000000
   17        7.876296   1.000000
   18        7.876296   1.000000
   19        8.327115   1.000000
   20        8.930958   1.000000
   21        9.069909   0.278090
   22        9.069909   0.278088
   23        9.265165   0.000000
   24        9.273457   0.000000

  0.1538462E+00  0.7692308E-01  0.1044528E-17  0.1092399E-01
    1      -35.119242   1.000000
    2      -13.736727   1.000000
    3      -13.731031   1.000000
    4      -13.706857   1.000000
    5      -13.705514   1.000000
    6      -13.705433   1.000000
    7      -10.375228   1.000000
    8      -10.349089   1.000000
    9      -10.342943   1.000000
   10       -2.847988   1.000000
   11        4.166562   1.000000
   12        4.689965   1.000000
   13        4.727217   1.000000
   14        5.169472   1.000000
   15        5.281244   1.000000
   16        6.672122   1.000000
   17        7.736790   1.000000
   18        7.745423   1.000000
   19        8.451890   1.000000
   20        8.996890   1.000000
   21        9.054358   0.946380
   22        9.102069   0.000000
   23        9.278493   0.000000
   24        9.355192   0.000000

  0.2307692E+00  0.7692308E-01  0.3685459E-17  0.1092399E-01
    1      -35.118666   1.000000
    2      -13.740758   1.000000
    3      -13.733936   1.000000
    4      -13.707537   1.000000
    5      -13.705061   1.000000
    6      -13.704778   1.000000
    7      -10.409282   1.000000
    8      -10.343745   1.000000
    9      -10.333313   1.000000
   10       -2.653818   1.000000
   11        3.881024   1.000000
   12        4.503166   1.000000
   13        4.626950   1.000000
   14        5.236979   1.000000
   15        5.360502   1.000000
   16        6.255334   1.000000
   17        7.591271   1.000000
   18        7.639539   1.000000
   19        8.441929   1.000000
   20        9.027217   1.000000
   21        9.047262   0.995529
   22        9.275550   0.000000
   23        9.280822   0.000000
   24        9.478323   0.000000

  0.3076923E+00  0.7692308E-01  0.3096394E-17  0.1092399E-01
    1      -35.118004   1.000000
    2      -13.744587   1.000000
    3      -13.738213   1.000000
    4      -13.708424   1.000000
    5      -13.704499   1.000000
    6      -13.704024   1.000000
    7      -10.446305   1.000000
    8      -10.335389   1.000000
    9      -10.324670   1.000000
   10       -2.426125   1.000000
   11        3.602665   1.000000
   12        4.364394   1.000000
   13        4.548004   1.000000
   14        5.230144   1.000000
   15        5.371747   1.000000
   16        5.851524   1.000000
   17        7.503485   1.000000
   18        7.592347   1.000000
   19        8.430995   1.000000
   20        9.052975   0.964568
   21        9.055497   0.926429
   22        9.282687   0.000000
   23        9.337027   0.000000
   24        9.477108   0.000000

  0.3846154E+00  0.7692308E-01  0.4703173E-17  0.1092399E-01
    1      -35.117404   1.000000
    2      -13.747352   1.000000
    3      -13.742824   1.000000
    4      -13.709346   1.000000
    5      -13.703935   1.000000
    6      -13.703373   1.000000
    7      -10.477861   1.000000
    8      -10.325934   1.000000
    9      -10.318912   1.000000
   10       -2.216742   1.000000
   11        3.374195   1.000000
   12        4.308049   1.000000
   13        4.490179   1.000000
   14        5.176605   1.000000
   15        5.313692   1.000000
   16        5.539462   1.000000
   17        7.473144   1.000000
   18        7.591092   1.000000
   19        8.456120   1.000000
   20        9.079623   0.024863
   21        9.088197   0.000750
   22        9.282998   0.000000
   23        9.363594   0.000000
   24        9.435680   0.000000

  0.4615385E+00  0.7692308E-01  0.2045803E-17  0.1092399E-01
    1      -35.117005   1.000000
    2      -13.748420   1.000000
    3      -13.746700   1.000000
    4      -13.710019   1.000000
    5      -13.703489   1.000000
    6      -13.702990   1.000000
    7      -10.497842   1.000000
    8      -10.317533   1.000000
    9      -10.317274   1.000000
   10       -2.075364   1.000000
   11        3.232202   1.000000
   12        4.323701   1.000000
   13        4.431048   1.000000
   14        5.144193   1.000000
   15        5.226034   1.000000
   16        5.352145   1.000000
   17        7.470743   1.000000
   18        7.604046   1.000000
   19        8.498868   1.000000
   20        9.115093   0.000000
   21        9.119933   0.000000
   22        9.279200   0.000000
   23        9.345015   0.000000
   24        9.411605   0.000000

 -0.4615385E+00  0.7692308E-01 -0.4060479E-17  0.1092399E-01
    1      -35.116900   1.000000
    2      -13.748970   1.000000
    3      -13.747567   1.000000
    4      -13.710191   1.000000
    5      -13.703308   1.000000
    6      -13.702983   1.000000
    7      -10.502933   1.000000
    8      -10.320046   1.000000
    9      -10.312079   1.000000
   10       -2.036561   1.000000
   11        3.195069   1.000000
   12        4.357730   1.000000
   13        4.384504   1.000000
   14        5.155975   1.000000
   15        5.179318   1.000000
   16        5.305552   1.000000
   17        7.463630   1.000000
   18        7.612924   1.000000
   19        8.516555   1.000000
   20        9.121033   0.000000
   21        9.140798   0.000000
   22        9.271848   0.000000
   23        9.350090   0.000000
   24        9.364181   0.000000

 -0.3846154E+00  0.7692308E-01  0.5691979E-17  0.1092399E-01
    1      -35.117111   1.000000
    2      -13.749136   1.000000
    3      -13.744952   1.000000
    4      -13.709782   1.000000
    5      -13.703427   1.000000
    6      -13.703326   1.000000
    7      -10.492399   1.000000
    8      -10.326531   1.000000
    9      -10.310796   1.000000
   10       -2.110070   1.000000
   11        3.269172   1.000000
   12        4.291134   1.000000
   13        4.459802   1.000000
   14        5.140975   1.000000
   15        5.268969   1.000000
   16        5.401375   1.000000
   17        7.434003   1.000000
   18        7.622533   1.000000
   19        8.490428   1.000000
   20        9.092265   0.000088
   21        9.123498   0.000000
   22        9.275944   0.000000
   23        9.373721   0.000000
   24        9.389318   0.000000

 -0.3076923E+00  0.7692308E-01  0.4630109E-17  0.1092399E-01
    1      -35.117589   1.000000
    2      -13.747180   1.000000
    3      -13.741156   1.000000
    4      -13.708954   1.000000
    5      -13.703934   1.000000
    6      -13.703850   1.000000
    7      -10.468001   1.000000
    8      -10.335187   1.000000
    9      -10.313998   1.000000
   10       -2.277958   1.000000
   11        3.452498   1.000000
   12        4.262298   1.000000
   13        4.537132   1.000000
   14        5.179093   1.000000
   15        5.364195   1.000000
   16        5.630483   1.000000
   17        7.390748   1.000000
   18        7.654627   1.000000
   19        8.449172   1.000000
   20        9.062874   0.657786
   21        9.084518   0.003970
   22        9.280192   0.000000
   23        9.371347   0.000000
   24        9.433321   0.000000

 -0.2307692E+00  0.7692308E-01  0.6109348E-17  0.1092399E-01
    1      -35.118227   1.000000
    2      -13.743545   1.000000
    3      -13.737029   1.000000
    4      -13.707992   1.000000
    5      -13.704644   1.000000
    6      -13.704458   1.000000
    7      -10.434182   1.000000
    8      -10.343927   1.000000
    9      -10.320978   1.000000
   10       -2.499386   1.000000
   11        3.728879   1.000000
   12        4.290332   1.000000
   13        4.628808   1.000000
   14        5.213617   1.000000
   15        5.413154   1.000000
   16        5.976339   1.000000
   17        7.375968   1.000000
   18        7.731176   1.000000
   19        8.428779   1.000000
   20        9.045473   0.997930
   21        9.050442   0.984786
   22        9.278868   0.000000
   23        9.327946   0.000000
   24        9.499144   0.000000

 -0.1538462E+00  0.7692308E-01 -0.6161661E-17  0.1092399E-01
    1      -35.118878   1.000000
    2      -13.739063   1.000000
    3      -13.733556   1.000000
    4      -13.707157   1.000000
    5      -13.705292   1.000000
    6      -13.705091   1.000000
    7      -10.398287   1.000000
    8      -10.350410   1.000000
    9      -10.330168   1.000000
   10       -2.722119   1.000000
   11        4.060605   1.000000
   12        4.379970   1.000000
   13        4.739143   1.000000
   14        5.189065   1.000000
   15        5.386230   1.000000
   16        6.386700   1.000000
   17        7.458412   1.000000
   18        7.846059   1.000000
   19        8.431101   1.000000
   20        9.031210   0.999999
   21        9.040080   0.999858
   22        9.249088   0.000000
   23        9.275322   0.000000
   24        9.450107   0.000000

 -0.7692308E-01  0.7692308E-01 -0.2614117E-17  0.5461994E-02
    1      -35.119391   1.000000
    2      -13.734729   1.000000
    3      -13.731562   1.000000
    4      -13.706570   1.000000
    5      -13.705741   1.000000
    6      -13.705610   1.000000
    7      -10.370466   1.000000
    8      -10.351634   1.000000
    9      -10.339452   1.000000
   10       -2.896021   1.000000
   11        4.390050   1.000000
   12        4.522030   1.000000
   13        4.800205   1.000000
   14        5.138344   1.000000
   15        5.290270   1.000000
   16        6.754581   1.000000
   17        7.693387   1.000000
   18        7.946757   1.000000
   19        8.365494   1.000000
   20        9.017811   1.000000
   21        9.035999   0.999987
   22        9.088151   0.000767
   23        9.270280   0.000000
   24        9.319813   0.000000

  0.1538462E+00  0.1538462E+00 -0.6184453E-17  0.2730997E-02
    1      -35.118999   1.000000
    2      -13.739590   1.000000
    3      -13.729414   1.000000
    4      -13.707387   1.000000
    5      -13.705096   1.000000
    6      -13.705096   1.000000
    7      -10.370325   1.000000
    8      -10.353772   1.000000
    9      -10.353772   1.000000
   10       -2.777786   1.000000
   11        3.893915   1.000000
   12        4.818707   1.000000
   13        4.818707   1.000000
   14        5.134803   1.000000
   15        5.228527   1.000000
   16        6.646882   1.000000
   17        7.615925   1.000000
   18        7.615925   1.000000
   19        8.533864   1.000000
   20        9.030234   1.000000
   21        9.058979   0.830763
   22        9.058979   0.830763
   23        9.301801   0.000000
   24        9.408031   0.000000

  0.2307692E+00  0.1538462E+00 -0.1330949E-17  0.1092399E-01
    1      -35.118528   1.000000
    2      -13.742446   1.000000
    3      -13.730145   1.000000
    4      -13.708022   1.000000
    5      -13.704634   1.000000
    6      -13.704482   1.000000
    7      -10.395723   1.000000
    8      -10.353555   1.000000
    9      -10.346956   1.000000
   10       -2.634823   1.000000
   11        3.661459   1.000000
   12        4.714949   1.000000
   13        4.781837   1.000000
   14        5.182134   1.000000
   15        5.271844   1.000000
   16        6.419397   1.000000
   17        7.440713   1.000000
   18        7.519009   1.000000
   19        8.553921   1.000000
   20        9.030388   1.000000
   21        9.058806   0.836853
   22        9.213076   0.000000
   23        9.313049   0.000000
   24        9.481536   0.000000

  0.3076923E+00  0.1538462E+00  0.1482906E-18  0.1092399E-01
    1      -35.117932   1.000000
    2      -13.744649   1.000000
    3      -13.733046   1.000000
    4      -13.708625   1.000000
    5      -13.704287   1.000000
    6      -13.703716   1.000000
    7      -10.429873   1.000000
    8      -10.348509   1.000000
    9      -10.338691   1.000000
   10       -2.453230   1.000000
   11        3.497056   1.000000
   12        4.523190   1.000000
   13        4.708995   1.000000
   14        5.198980   1.000000
   15        5.337420   1.000000
   16        6.083767   1.000000
   17        7.260167   1.000000
   18        7.485166   1.000000
   19        8.574082   1.000000
   20        9.045830   0.997574
   21        9.064999   0.542143
   22        9.284139   0.000000
   23        9.314216   0.000000
   24        9.488277   0.000000

  0.3846154E+00  0.1538462E+00  0.1755069E-17  0.1092399E-01
    1      -35.117352   1.000000
    2      -13.745726   1.000000
    3      -13.737391   1.000000
    4      -13.709137   1.000000
    5      -13.704062   1.000000
    6      -13.703027   1.000000
    7      -10.460865   1.000000
    8      -10.339825   1.000000
    9      -10.334624   1.000000
   10       -2.275508   1.000000
   11        3.406517   1.000000
   12        4.376361   1.000000
   13        4.626144   1.000000
   14        5.178481   1.000000
   15        5.345272   1.000000
   16        5.746855   1.000000
   17        7.160436   1.000000
   18        7.496659   1.000000
   19        8.584975   1.000000
   20        9.081707   0.012005
   21        9.083914   0.005097
   22        9.307298   0.000000
   23        9.309652   0.000000
   24        9.462301   0.000000

  0.4615385E+00  0.1538462E+00 -0.9023005E-18  0.1092399E-01
    1      -35.116919   1.000000
    2      -13.745467   1.000000
    3      -13.742125   1.000000
    4      -13.709461   1.000000
    5      -13.703940   1.000000
    6      -13.702618   1.000000
    7      -10.482209   1.000000
    8      -10.335699   1.000000
    9      -10.329490   1.000000
   10       -2.141253   1.000000
   11        3.371618   1.000000
   12        4.318023   1.000000
   13        4.518631   1.000000
   14        5.180429   1.000000
   15        5.291536   1.000000
   16        5.502016   1.000000
   17        7.119344   1.000000
   18        7.516156   1.000000
   19        8.608757   1.000000
   20        9.112588   0.000000
   21        9.117439   0.000000
   22        9.297390   0.000000
   23        9.319544   0.000000
   24        9.443720   0.000000

 -0.4615385E+00  0.1538462E+00 -0.7008582E-17  0.1092399E-01
    1      -35.116732   1.000000
    2      -13.746161   1.000000
    3      -13.743942   1.000000
    4      -13.709469   1.000000
    5      -13.703913   1.000000
    6      -13.702591   1.000000
    7      -10.490347   1.000000
    8      -10.341387   1.000000
    9      -10.319840   1.000000
   10       -2.078069   1.000000
   11        3.360073   1.000000
   12        4.353020   1.000000
   13        4.391386   1.000000
   14        5.210385   1.000000
   15        5.238194   1.000000
   16        5.404279   1.000000
   17        7.090887   1.000000
   18        7.525303   1.000000
   19        8.632401   1.000000
   20        9.113500   0.000000
   21        9.159059   0.000000
   22        9.271605   0.000000
   23        9.343478   0.000000
   24        9.424542   0.000000

 -0.3846154E+00  0.1538462E+00 -0.5529342E-17  0.1092399E-01
    1      -35.116833   1.000000
    2      -13.748630   1.000000
    3      -13.741495   1.000000
    4      -13.709129   1.000000
    5      -13.703988   1.000000
    6      -13.702921   1.000000
    7      -10.484442   1.000000
    8      -10.349927   1.000000
    9      -10.313051   1.000000
   10       -2.098862   1.000000
   11        3.361890   1.000000
   12        4.276421   1.000000
   13        4.458502   1.000000
   14        5.152670   1.000000
   15        5.334354   1.000000
   16        5.462915   1.000000
   17        7.038563   1.000000
   18        7.534090   1.000000
   19        8.631523   1.000000
   20        9.088393   0.000681
   21        9.173400   0.000000
   22        9.257704   0.000000
   23        9.371536   0.000000
   24        9.378638   0.000000

 -0.3076923E+00  0.1538462E+00  0.5818615E-17  0.1092399E-01
    1      -35.117201   1.000000
    2      -13.748988   1.000000
    3      -13.738619   1.000000
    4      -13.708572   1.000000
    5      -13.704152   1.000000
    6      -13.703516   1.000000
    7      -10.466261   1.000000
    8      -10.358631   1.000000
    9      -10.310678   1.000000
   10       -2.201425   1.000000
   11        3.408268   1.000000
   12        4.204769   1.000000
   13        4.598354   1.000000
   14        5.131804   1.000000
   15        5.428237   1.000000
   16        5.665685   1.000000
   17        6.959716   1.000000
   18        7.568578   1.000000
   19        8.608570   1.000000
   20        9.063411   0.629449
   21        9.134159   0.000000
   22        9.280534   0.000000
   23        9.363293   0.000000
   24        9.395269   0.000000

 -0.2307692E+00  0.1538462E+00  0.3161245E-17  0.1092399E-01
    1      -35.117750   1.000000
    2      -13.747185   1.000000
    3      -13.735933   1.000000
    4      -13.708010   1.000000
    5      -13.704388   1.000000
    6      -13.704211   1.000000
    7      -10.440457   1.000000
    8      -10.364016   1.000000
    9      -10.313291   1.000000
   10       -2.365808   1.000000
   11        3.539532   1.000000
   12        4.195368   1.000000
   13        4.736808   1.000000
   14        5.129532   1.000000
   15        5.478302   1.000000
   16        5.962118   1.000000
   17        6.913279   1.000000
   18        7.648734   1.000000
   19        8.581158   1.000000
   20        9.049448   0.989419
   21        9.088039   0.000809
   22        9.289732   0.000000
   23        9.337357   0.000000
   24        9.447299   0.000000

 -0.1538462E+00  0.1538462E+00 -0.9109764E-17  0.5461994E-02
    1      -35.118355   1.000000
    2      -13.743611   1.000000
    3      -13.734069   1.000000
    4      -13.707557   1.000000
    5      -13.704843   1.000000
    6      -13.704699   1.000000
    7      -10.415245   1.000000
    8      -10.361711   1.000000
    9      -10.320318   1.000000
   10       -2.554570   1.000000
   11        3.766798   1.000000
   12        4.255276   1.000000
   13        4.821956   1.000000
   14        5.127041   1.000000
   15        5.462191   1.000000
   16        6.230136   1.000000
   17        7.053391   1.000000
   18        7.760556   1.000000
   19        8.543523   1.000000
   20        9.043557   0.999150
   21        9.050326   0.985407
   22        9.285593   0.000000
   23        9.303402   0.000000
   24        9.494898   0.000000

  0.2307692E+00  0.2307692E+00 -0.9276680E-17  0.2730997E-02
    1      -35.118172   1.000000
    2      -13.743413   1.000000
    3      -13.728347   1.000000
    4      -13.708799   1.000000
    5      -13.703940   1.000000
    6      -13.703940   1.000000
    7      -10.396125   1.000000
    8      -10.359140   1.000000
    9      -10.359140   1.000000
   10       -2.556071   1.000000
   11        3.485805   1.000000
   12        4.837321   1.000000
   13        4.837321   1.000000
   14        5.139921   1.000000
   15        5.190264   1.000000
   16        6.388027   1.000000
   17        7.430715   1.000000
   18        7.430715   1.000000
   19        8.523548   1.000000
   20        9.066144   0.477649
   21        9.066144   0.477648
   22        9.178439   0.000000
   23        9.347888   0.000000
   24        9.573443   0.000000

  0.3076923E+00  0.2307692E+00 -0.1370268E-16  0.1092399E-01
    1      -35.117685   1.000000
    2      -13.743427   1.000000
    3      -13.729052   1.000000
    4      -13.709464   1.000000
    5      -13.703426   1.000000
    6      -13.703213   1.000000
    7      -10.420028   1.000000
    8      -10.359260   1.000000
    9      -10.356659   1.000000
   10       -2.440787   1.000000
   11        3.406565   1.000000
   12        4.708246   1.000000
   13        4.806235   1.000000
   14        5.178157   1.000000
   15        5.214924   1.000000
   16        6.203209   1.000000
   17        7.266759   1.000000
   18        7.405926   1.000000
   19        8.597342   1.000000
   20        9.054736   0.940300
   21        9.074780   0.100731
   22        9.219587   0.000000
   23        9.363988   0.000000
   24        9.538963   0.000000

  0.3846154E+00  0.2307692E+00  0.7477314E-18  0.1092399E-01
    1      -35.117174   1.000000
    2      -13.742500   1.000000
    3      -13.732021   1.000000
    4      -13.709804   1.000000
    5      -13.703277   1.000000
    6      -13.702511   1.000000
    7      -10.446774   1.000000
    8      -10.354818   1.000000
    9      -10.353909   1.000000
   10       -2.318435   1.000000
   11        3.431842   1.000000
   12        4.516289   1.000000
   13        4.729823   1.000000
   14        5.219757   1.000000
   15        5.258360   1.000000
   16        5.944568   1.000000
   17        7.027440   1.000000
   18        7.424567   1.000000
   19        8.674034   1.000000
   20        9.067300   0.413101
   21        9.091488   0.000136
   22        9.248566   0.000000
   23        9.361813   0.000000
   24        9.500360   0.000000

  0.4615385E+00  0.2307692E+00 -0.3977943E-17  0.1092399E-01
    1      -35.116758   1.000000
    2      -13.740891   1.000000
    3      -13.736486   1.000000
    4      -13.709713   1.000000
    5      -13.703542   1.000000
    6      -13.702071   1.000000
    7      -10.465655   1.000000
    8      -10.358906   1.000000
    9      -10.344333   1.000000
   10       -2.214887   1.000000
   11        3.528842   1.000000
   12        4.382038   1.000000
   13        4.610425   1.000000
   14        5.240866   1.000000
   15        5.279882   1.000000
   16        5.695486   1.000000
   17        6.845959   1.000000
   18        7.443062   1.000000
   19        8.707072   1.000000
   20        9.094580   0.000023
   21        9.120321   0.000000
   22        9.280698   0.000000
   23        9.344975   0.000000
   24        9.462393   0.000000

 -0.4615385E+00  0.2307692E+00  0.2741253E-16  0.1092399E-01
    1      -35.116532   1.000000
    2      -13.741404   1.000000
    3      -13.739037   1.000000
    4      -13.709157   1.000000
    5      -13.704114   1.000000
    6      -13.702020   1.000000
    7      -10.472775   1.000000
    8      -10.368289   1.000000
    9      -10.332712   1.000000
   10       -2.147043   1.000000
   11        3.612315   1.000000
   12        4.336445   1.000000
   13        4.462893   1.000000
   14        5.223979   1.000000
   15        5.301933   1.000000
   16        5.571681   1.000000
   17        6.728291   1.000000
   18        7.441919   1.000000
   19        8.728479   1.000000
   20        9.097299   0.000004
   21        9.160376   0.000000
   22        9.309592   0.000000
   23        9.329209   0.000000
   24        9.437302   0.000000

 -0.3846154E+00  0.2307692E+00  0.2889177E-16  0.1092399E-01
    1      -35.116548   1.000000
    2      -13.745668   1.000000
    3      -13.737369   1.000000
    4      -13.708296   1.000000
    5      -13.704759   1.000000
    6      -13.702336   1.000000
    7      -10.468217   1.000000
    8      -10.379670   1.000000
    9      -10.321669   1.000000
   10       -2.125097   1.000000
   11        3.591748   1.000000
   12        4.321191   1.000000
   13        4.391785   1.000000
   14        5.165867   1.000000
   15        5.387609   1.000000
   16        5.607606   1.000000
   17        6.638966   1.000000
   18        7.437691   1.000000
   19        8.736137   1.000000
   20        9.075445   0.085114
   21        9.203974   0.000000
   22        9.259307   0.000000