 vasp.6.0.8 29Jun18 (build Jun 13 2019 12:54:44) complex

 executed on      IFC18_CrayMPICH date 2021.12.05  14:21:48
 running   64 mpi-ranks, with    1 threads/rank
 distrk:  each k-point on   16 cores,    4 groups
 distr:  one band on NCORES_PER_BAND=   4 cores,    4 groups


--------------------------------------------------------------------------------------------------------


 INCAR:
 POTCAR:    PAW_PBE U 06Sep2000
 POTCAR:    PAW_PBE Bi_d 06Sep2000
 POTCAR:    PAW_PBE Pt 04Feb2005
 POTCAR:    PAW_PBE U 06Sep2000
   VRHFIN =U:  [Xe,5d,4f]
   LEXCH  = PE
   EATOM  =  1405.3058 eV,  103.2871 Ry

   TITEL  = PAW_PBE U 06Sep2000
   LULTRA =        F    use ultrasoft PP ?
   IUNSCR =        1    unscreen: 0-lin 1-nonlin 2-no
   RPACOR =    2.200    partial core radius
   POMASS =  238.029; ZVAL   =   14.000    mass and valenz
   RCORE  =    2.800    outmost cutoff radius
   RWIGS  =    3.000; RWIGS  =    1.588    wigner-seitz radius (au A)
   ENMAX  =  252.502; ENMIN  =  189.376 eV
   RCLOC  =    1.811    cutoff for local pot
   LCOR   =        T    correct aug charges
   LPAW   =        T    paw PP
   EAUG   =  526.410
   DEXC   =    0.000
   RMAX   =    2.863    core radius for proj-oper
   RAUG   =    1.300    factor for augmentation sphere
   RDEP   =    2.950    radius for radial grids
   RDEPT  =    2.270    core radius for aug-charge

   Atomic configuration
   18 entries
     n  l   j            E        occ.
     1  0  0.50   -116038.1941   2.0000
     2  0  0.50    -21694.8835   2.0000
     2  1  1.50    -18009.1553   6.0000
     3  0  0.50     -5481.2929   2.0000
     3  1  1.50     -4458.9283   6.0000
     3  2  2.50     -3575.9978  10.0000
     4  0  0.50     -1400.5351   2.0000
     4  1  1.50     -1066.7807   6.0000
     4  2  2.50      -732.1336  10.0000
     4  3  3.50      -377.4393  14.0000
     5  0  0.50      -314.7366   2.0000
     5  1  1.50      -211.6057   6.0000
     5  2  2.50      -103.2045  10.0000
     6  0  0.50       -50.6026   2.0000
     7  0  0.50        -4.5896   2.0000
     6  1  1.50       -25.2884   6.0000
     6  2  1.50        -3.1039   2.0000
     5  3  2.50        -6.3670   2.0000
   Description
     l       E           TYP  RCUT    TYP  RCUT
     0    -50.6026097     23  2.600
     0     -4.5896371     23  2.600
     1    -25.2883770     23  2.500
     1     27.2116520     23  2.500
     2     -3.1038686     23  2.500
     2      0.8290654     23  2.500
     3     -6.3670133     23  2.800
     3     -7.7275959     23  2.800
  local pseudopotential read in
  partial core-charges read in
  partial kinetic energy density read in
  atomic valenz-charges read in
  non local Contribution for L=           0  read in
    real space projection operators read in
  non local Contribution for L=           0  read in
    real space projection operators read in
  non local Contribution for L=           1  read in
    real space projection operators read in
  non local Contribution for L=           1  read in
    real space projection operators read in
  non local Contribution for L=           2  read in
    real space projection operators read in
  non local Contribution for L=           2  read in
    real space projection operators read in
  non local Contribution for L=           3  read in
    real space projection operators read in
  non local Contribution for L=           3  read in
    real space projection operators read in
    PAW grid and wavefunctions read in

   number of l-projection  operators is LMAX  =           8
   number of lm-projection operators is LMMAX =          32

 POTCAR:    PAW_PBE Bi_d 06Sep2000
   VRHFIN =Bi:
   LEXCH  = PE
   EATOM  =  1959.2045 eV,  143.9975 Ry

   TITEL  = PAW_PBE Bi_d 06Sep2000
   LULTRA =        F    use ultrasoft PP ?
   IUNSCR =        1    unscreen: 0-lin 1-nonlin 2-no
   RPACOR =    2.200    partial core radius
   POMASS =  208.980; ZVAL   =   15.000    mass and valenz
   RCORE  =    2.500    outmost cutoff radius
   RWIGS  =    3.090; RWIGS  =    1.635    wigner-seitz radius (au A)
   ENMAX  =  242.839; ENMIN  =  182.129 eV
   ICORE  =        3    local potential
   LCOR   =        T    correct aug charges
   LPAW   =        T    paw PP
   EAUG   =  442.899
   DEXC   =    0.000
   RMAX   =    2.551    core radius for proj-oper
   RAUG   =    1.300    factor for augmentation sphere
   RDEP   =    2.650    radius for radial grids
   RDEPT  =    2.039    core radius for aug-charge

   Atomic configuration
   16 entries
     n  l   j            E        occ.
     1  0  0.50    -90639.6581   2.0000
     2  0  0.50    -16282.4666   2.0000
     2  1  1.50    -13922.8286   6.0000
     3  0  0.50     -3930.4763   2.0000
     3  1  1.50     -3256.7013   6.0000
     3  2  2.50     -2581.6168  10.0000
     4  0  0.50      -902.2614   2.0000
     4  1  1.50      -681.5915   6.0000
     4  2  2.50      -429.8249  10.0000
     4  3  3.50      -152.6004  14.0000
     5  0  0.50      -157.7156   2.0000
     5  1  1.50       -95.8054   6.0000
     5  2  2.50       -27.0806  10.0000
     6  0  0.50       -14.4732   2.0000
     6  1  1.50        -4.5702   3.0000
     5  3  2.50        -2.7212   0.0000
   Description
     l       E           TYP  RCUT    TYP  RCUT
     2    -27.0805982     23  2.500
     2     -1.3605826     23  2.500
     0    -14.4732271     23  2.500
     0      6.8029130     23  2.500
     1     -4.5701651     23  2.500
     1     13.6058260     23  2.500
     3     -1.3605826      7  2.500
  local pseudopotential read in
  partial core-charges read in
  partial kinetic energy density read in
  atomic valenz-charges read in
  non local Contribution for L=           2  read in
    real space projection operators read in
  non local Contribution for L=           2  read in
    real space projection operators read in
  non local Contribution for L=           0  read in
    real space projection operators read in
  non local Contribution for L=           0  read in
    real space projection operators read in
  non local Contribution for L=           1  read in
    real space projection operators read in
  non local Contribution for L=           1  read in
    real space projection operators read in
    PAW grid and wavefunctions read in

   number of l-projection  operators is LMAX  =           6
   number of lm-projection operators is LMMAX =          18

 POTCAR:    PAW_PBE Pt 04Feb2005
   VRHFIN =Pt: s1d9
   LEXCH  = PE
   EATOM  =   729.1176 eV,   53.5886 Ry

   TITEL  = PAW_PBE Pt 04Feb2005
   LULTRA =        F    use ultrasoft PP ?
   IUNSCR =        1    unscreen: 0-lin 1-nonlin 2-no
   RPACOR =    2.330    partial core radius
   POMASS =  195.080; ZVAL   =   10.000    mass and valenz
   RCORE  =    2.600    outmost cutoff radius
   RWIGS  =    2.750; RWIGS  =    1.455    wigner-seitz radius (au A)
   ENMAX  =  230.283; ENMIN  =  172.712 eV
   ICORE  =        3    local potential
   LCOR   =        T    correct aug charges
   LPAW   =        T    paw PP
   EAUG   =  358.966
   DEXC   =    0.000
   RMAX   =    2.658    core radius for proj-oper
   RAUG   =    1.300    factor for augmentation sphere
   RDEP   =    2.761    radius for radial grids
   RDEPT  =    2.203    core radius for aug-charge

   Atomic configuration
   16 entries
     n  l   j            E        occ.
     1  0  0.50    -78401.1885   2.0000
     2  0  0.50    -13770.7750   2.0000
     2  1  1.50    -11931.0468   6.0000
     3  0  0.50     -3234.7234   2.0000
     3  1  1.50     -2699.2216   6.0000
     3  2  2.50     -2119.5714  10.0000
     4  0  0.50      -695.1528   2.0000
     4  1  1.50      -519.6034   6.0000
     4  2  2.50      -306.6786  10.0000
     4  3  3.50       -70.1041  14.0000
     5  0  0.50      -101.7747   2.0000
     5  1  1.50       -55.9873   6.0000
     5  2  2.50        -6.1423   9.0000
     6  0  0.50        -5.6573   1.0000
     6  1  1.50        -6.8029   0.0000
     5  3  2.50        -1.3606   0.0000
   Description
     l       E           TYP  RCUT    TYP  RCUT
     2     -6.1423404     23  2.500
     2     -7.5029230     23  2.500
     0     -5.6573207     23  2.500
     0      0.7416693     23  2.500
     1     -2.7211652     23  2.600
     1     20.4087390     23  2.600
     3     -1.3605826     23  2.500
  local pseudopotential read in
  partial core-charges read in
  partial kinetic energy density read in
  atomic valenz-charges read in
  non local Contribution for L=           2  read in
    real space projection operators read in
  non local Contribution for L=           2  read in
    real space projection operators read in
  non local Contribution for L=           0  read in
    real space projection operators read in
  non local Contribution for L=           0  read in
    real space projection operators read in
  non local Contribution for L=           1  read in
    real space projection operators read in
  non local Contribution for L=           1  read in
    real space projection operators read in
    PAW grid and wavefunctions read in

   number of l-projection  operators is LMAX  =           6
   number of lm-projection operators is LMMAX =          18

 WARNING: PSMAXN for non-local potential too small
          PSMAXN should be >   13.5545592237991       NTYP=           1

 -----------------------------------------------------------------------------
|                                                                             |
|  ADVICE TO THIS USER RUNNING 'VASP/VAMP'   (HEAR YOUR MASTER'S VOICE ...):  |
|                                                                             |
|      You enforced a specific xc-type in the INCAR file,                     |
|      a different type was found on the POTCAR file                          |
|          I HOPE YOU KNOW, WHAT YOU ARE  DOING                               |
|                                                                             |
 -----------------------------------------------------------------------------

  PAW_PBE U 06Sep2000                   :
 energy of atom  1       EATOM=-1405.3058
 kinetic energy error for atom=    0.0006 (will be added to EATOM!!)
  PAW_PBE Bi_d 06Sep2000                :
 energy of atom  2       EATOM=-1959.2045
 kinetic energy error for atom=    0.0012 (will be added to EATOM!!)
  PAW_PBE Pt 04Feb2005                  :
 energy of atom  3       EATOM= -729.1176
 kinetic energy error for atom=    0.0010 (will be added to EATOM!!)


 POSCAR: U1 Bi1 Pt1
  positions in direct lattice
  No initial velocities read in
 exchange correlation table for  LEXCH =       14
   RHO(1)=    0.500       N(1)  =     2000
   RHO(2)=  100.500       N(2)  =     4000



--------------------------------------------------------------------------------------------------------


 ion  position               nearest neighbor table
   1  0.250  0.250  0.250-   3 2.95   3 2.95   3 2.95   3 2.95   2 3.40   2 3.40   2 3.40   2 3.40
                             2 3.40   2 3.40
   2  0.750  0.750  0.750-   3 2.95   3 2.95   3 2.95   3 2.95   1 3.40   1 3.40   1 3.40   1 3.40
                             1 3.40   1 3.40
   3  0.000  0.000  0.000-   2 2.95   2 2.95   2 2.95   1 2.95   2 2.95   1 2.95   1 2.95   1 2.95


  LATTYP: Found a face centered cubic cell.
 ALAT       =     6.8077035717

  Lattice vectors:

 A1 = (   0.0000000000,   3.4038517858,   3.4038517858)
 A2 = (   3.4038517858,   0.0000000000,   3.4038517858)
 A3 = (   3.4038517858,   3.4038517858,   0.0000000000)


Analysis of symmetry for initial positions (statically):
=====================================================================
 Subroutine PRICEL returns:
 Original cell was already a primitive cell.


 Routine SETGRP: Setting up the symmetry group for a
 face centered cubic supercell.


 Subroutine GETGRP returns: Found 24 space group operations
 (whereof 24 operations were pure point group operations)
 out of a pool of 48 trial point group operations.


The static configuration has the point symmetry T_d .


Analysis of symmetry for dynamics (positions and initial velocities):
=====================================================================
 Subroutine PRICEL returns:
 Original cell was already a primitive cell.


 Routine SETGRP: Setting up the symmetry group for a
 face centered cubic supercell.


 Subroutine GETGRP returns: Found 24 space group operations
 (whereof 24 operations were pure point group operations)
 out of a pool of 48 trial point group operations.


The dynamic configuration has the point symmetry T_d .


 Subroutine INISYM returns: Found 24 space group operations
 (whereof 24 operations are pure point group operations),
 and found     1 'primitive' translations


----------------------------------------------------------------------------------------

                                     Primitive cell

  volume of cell :      78.8755

  direct lattice vectors                    reciprocal lattice vectors
     0.000000000  3.403851786  3.403851786    -0.146892412  0.146892412  0.146892412
     3.403851786  0.000000000  3.403851786     0.146892412 -0.146892412  0.146892412
     3.403851786  3.403851786  0.000000000     0.146892412  0.146892412 -0.146892412

  length of vectors
     4.813773360  4.813773360  4.813773360     0.254425121  0.254425121  0.254425121

  position of ions in fractional coordinates (direct lattice)
     0.250000000  0.250000000  0.250000000
     0.750000000  0.750000000  0.750000000
     0.000000000  0.000000000  0.000000000

  ion indices of the primitive-cell ions
   primitive index   ion index
                 1           1
                 2           2
                 3           3

----------------------------------------------------------------------------------------



 KPOINTS: KPOINTS

Automatic generation of k-mesh.
Space group operators:
 irot       det(A)        alpha          n_x          n_y          n_z        tau_x        tau_y        tau_z
    1     1.000000     0.000000     1.000000     0.000000     0.000000     0.000000     0.000000     0.000000
    2     1.000000   120.000000    -0.577350    -0.577350    -0.577350     0.000000     0.000000     0.000000
    3     1.000000   120.000000     0.577350     0.577350     0.577350     0.000000     0.000000     0.000000
    4    -1.000000    90.000000    -0.000000    -0.000000    -1.000000     0.000000     0.000000     0.000000
    5    -1.000000   180.000000     0.000000     0.707107     0.707107     0.000000     0.000000     0.000000
    6    -1.000000    90.000000    -0.000000     1.000000    -0.000000     0.000000     0.000000     0.000000
    7     1.000000   180.000000    -0.000000    -0.000000     1.000000     0.000000     0.000000     0.000000
    8     1.000000   120.000000    -0.577350     0.577350     0.577350     0.000000     0.000000     0.000000
    9     1.000000   120.000000    -0.577350     0.577350    -0.577350     0.000000     0.000000     0.000000
   10    -1.000000    90.000000     0.000000     0.000000     1.000000     0.000000     0.000000     0.000000
   11    -1.000000    90.000000    -1.000000     0.000000     0.000000     0.000000     0.000000     0.000000
   12    -1.000000   180.000000     0.707107     0.000000     0.707107     0.000000     0.000000     0.000000
   13     1.000000   120.000000     0.577350    -0.577350     0.577350     0.000000     0.000000     0.000000
   14     1.000000   120.000000    -0.577350    -0.577350     0.577350     0.000000     0.000000     0.000000
   15     1.000000   180.000000     1.000000     0.000000     0.000000     0.000000     0.000000     0.000000
   16    -1.000000    90.000000     0.000000    -1.000000     0.000000     0.000000     0.000000     0.000000
   17    -1.000000   180.000000     0.707107     0.707107    -0.000000     0.000000     0.000000     0.000000
   18    -1.000000    90.000000     1.000000     0.000000     0.000000     0.000000     0.000000     0.000000
   19     1.000000   120.000000     0.577350    -0.577350    -0.577350     0.000000     0.000000     0.000000
   20     1.000000   180.000000     0.000000     1.000000     0.000000     0.000000     0.000000     0.000000
   21     1.000000   120.000000     0.577350     0.577350    -0.577350     0.000000     0.000000     0.000000
   22    -1.000000   180.000000    -0.000000    -0.707107     0.707107     0.000000     0.000000     0.000000
   23    -1.000000   180.000000     0.707107    -0.707107     0.000000     0.000000     0.000000     0.000000
   24    -1.000000   180.000000     0.707107     0.000000    -0.707107     0.000000     0.000000     0.000000

 Subroutine IBZKPT returns following result:
 ===========================================

 Found     84 irreducible k-points:

 Following reciprocal coordinates:
            Coordinates               Weight
  0.000000  0.000000  0.000000      1.000000
  0.076923 -0.000000  0.000000      8.000000
  0.153846 -0.000000  0.000000      8.000000
  0.230769 -0.000000  0.000000      8.000000
  0.307692 -0.000000  0.000000      8.000000
  0.384615  0.000000 -0.000000      8.000000
  0.461538  0.000000 -0.000000      8.000000
  0.076923  0.076923 -0.000000      6.000000
  0.153846  0.076923  0.000000     24.000000
  0.230769  0.076923  0.000000     24.000000
  0.307692  0.076923  0.000000     24.000000
  0.384615  0.076923  0.000000     24.000000
  0.461538  0.076923  0.000000     24.000000
 -0.461538  0.076923 -0.000000     24.000000
 -0.384615  0.076923  0.000000     24.000000
 -0.307692  0.076923  0.000000     24.000000
 -0.230769  0.076923  0.000000     24.000000
 -0.153846  0.076923 -0.000000     24.000000
 -0.076923  0.076923 -0.000000     12.000000
  0.153846  0.153846 -0.000000      6.000000
  0.230769  0.153846 -0.000000     24.000000
  0.307692  0.153846  0.000000     24.000000
  0.384615  0.153846  0.000000     24.000000
  0.461538  0.153846 -0.000000     24.000000
 -0.461538  0.153846 -0.000000     24.000000
 -0.384615  0.153846 -0.000000     24.000000
 -0.307692  0.153846  0.000000     24.000000
 -0.230769  0.153846  0.000000     24.000000
 -0.153846  0.153846 -0.000000     12.000000
  0.230769  0.230769 -0.000000      6.000000
  0.307692  0.230769 -0.000000     24.000000
  0.384615  0.230769  0.000000     24.000000
  0.461538  0.230769 -0.000000     24.000000
 -0.461538  0.230769  0.000000     24.000000
 -0.384615  0.230769  0.000000     24.000000
 -0.307692  0.230769 -0.000000     24.000000
 -0.230769  0.230769 -0.000000     12.000000
  0.307692  0.307692 -0.000000      6.000000
  0.384615  0.307692 -0.000000     24.000000
  0.461538  0.307692 -0.000000     24.000000
 -0.461538  0.307692  0.000000     24.000000
 -0.384615  0.307692  0.000000     24.000000
 -0.307692  0.307692 -0.000000     12.000000
  0.384615  0.384615 -0.000000      6.000000
  0.461538  0.384615 -0.000000     24.000000
 -0.461538  0.384615  0.000000     24.000000
 -0.384615  0.384615  0.000000     12.000000
  0.461538  0.461538 -0.000000      6.000000
 -0.461538  0.461538  0.000000     12.000000
  0.230769  0.153846  0.076923     24.000000
  0.307692  0.153846  0.076923     48.000000
  0.384615  0.153846  0.076923     48.000000
  0.461538  0.153846  0.076923     48.000000
 -0.461538  0.153846  0.076923     48.000000
  0.307692  0.230769  0.076923     24.000000
  0.384615  0.230769  0.076923     48.000000
  0.461538  0.230769  0.076923     48.000000
 -0.461538  0.230769  0.076923     48.000000
 -0.384615  0.230769  0.076923     48.000000
 -0.307692  0.230769  0.076923     48.000000
 -0.230769  0.230769  0.076923     48.000000
 -0.153846  0.230769  0.076923     24.000000
  0.384615  0.307692  0.076923     24.000000
  0.461538  0.307692  0.076923     48.000000
 -0.461538  0.307692  0.076923     48.000000
 -0.384615  0.307692  0.076923     48.000000
 -0.307692  0.307692  0.076923     48.000000
 -0.230769  0.307692  0.076923     24.000000
  0.461538  0.384615  0.076923     24.000000
 -0.461538  0.384615  0.076923     48.000000
 -0.384615  0.384615  0.076923     48.000000
 -0.307692  0.384615  0.076923     24.000000
 -0.461538  0.461538  0.076923     24.000000
 -0.384615  0.461538  0.076923     24.000000
  0.461538  0.307692  0.153846     24.000000
 -0.461538  0.307692  0.153846     48.000000
 -0.384615  0.307692  0.153846     48.000000
 -0.461538  0.384615  0.153846     24.000000
 -0.384615  0.384615  0.153846     48.000000
 -0.307692  0.384615  0.153846     48.000000
 -0.230769  0.384615  0.153846     24.000000
 -0.384615  0.461538  0.153846     24.000000
 -0.307692  0.461538  0.153846     24.000000
 -0.307692  0.461538  0.230769     24.000000

 Following cartesian coordinates:
            Coordinates               Weight
  0.000000  0.000000  0.000000      1.000000
 -0.011593  0.011593  0.011593      8.000000
 -0.023186  0.023186  0.023186      8.000000
 -0.034779  0.034779  0.034779      8.000000
 -0.046372  0.046372  0.046372      8.000000
 -0.057965  0.057965  0.057965      8.000000
 -0.069558  0.069558  0.069558      8.000000
 -0.000000 -0.000000  0.023186      6.000000
 -0.011593  0.011593  0.034779     24.000000
 -0.023186  0.023186  0.046372     24.000000
 -0.034779  0.034779  0.057965     24.000000
 -0.046372  0.046372  0.069558     24.000000
 -0.057965  0.057965  0.081151     24.000000
  0.081151 -0.081151 -0.057965     24.000000
  0.069558 -0.069558 -0.046372     24.000000
  0.057965 -0.057965 -0.034779     24.000000
  0.046372 -0.046372 -0.023186     24.000000
  0.034779 -0.034779 -0.011593     24.000000
  0.023186 -0.023186  0.000000     12.000000
 -0.000000 -0.000000  0.046372      6.000000
 -0.011593  0.011593  0.057965     24.000000
 -0.023186  0.023186  0.069558     24.000000
 -0.034779  0.034779  0.081151     24.000000
 -0.046372  0.046372  0.092744     24.000000
  0.092744 -0.092744 -0.046372     24.000000
  0.081151 -0.081151 -0.034779     24.000000
  0.069558 -0.069558 -0.023186     24.000000
  0.057965 -0.057965 -0.011593     24.000000
  0.046372 -0.046372  0.000000     12.000000
 -0.000000  0.000000  0.069558      6.000000
 -0.011593  0.011593  0.081151     24.000000
 -0.023186  0.023186  0.092744     24.000000
 -0.034779  0.034779  0.104337     24.000000
  0.104337 -0.104337 -0.034779     24.000000
  0.092744 -0.092744 -0.023186     24.000000
  0.081151 -0.081151 -0.011593     24.000000
  0.069558 -0.069558  0.000000     12.000000
 -0.000000 -0.000000  0.092744      6.000000
 -0.011593  0.011593  0.104337     24.000000
 -0.023186  0.023186  0.115930     24.000000
  0.115930 -0.115930 -0.023186     24.000000
  0.104337 -0.104337 -0.011593     24.000000
  0.092744 -0.092744  0.000000     12.000000
  0.000000 -0.000000  0.115930      6.000000
 -0.011593  0.011593  0.127523     24.000000
  0.127523 -0.127523 -0.011593     24.000000
  0.115930 -0.115930 -0.000000     12.000000
 -0.000000  0.000000  0.139116      6.000000
  0.139116 -0.139116 -0.000000     12.000000
 -0.000000  0.023186  0.046372     24.000000
 -0.011593  0.034779  0.057965     48.000000
 -0.023186  0.046372  0.069558     48.000000
 -0.034779  0.057965  0.081151     48.000000
  0.104337 -0.081151 -0.057965     48.000000
  0.000000  0.023186  0.069558     24.000000
 -0.011593  0.034779  0.081151     48.000000
 -0.023186  0.046372  0.092744     48.000000
  0.115930 -0.092744 -0.046372     48.000000
  0.104337 -0.081151 -0.034779     48.000000
  0.092744 -0.069558 -0.023186     48.000000
  0.081151 -0.057965 -0.011593     48.000000
  0.069558 -0.046372  0.000000     24.000000
 -0.000000  0.023186  0.092744     24.000000
 -0.011593  0.034779  0.104337     48.000000
  0.127523 -0.104337 -0.034779     48.000000
  0.115930 -0.092744 -0.023186     48.000000
  0.104337 -0.081151 -0.011593     48.000000
  0.092744 -0.069558 -0.000000     24.000000
  0.000000  0.023186  0.115930     24.000000
  0.139116 -0.115930 -0.023186     48.000000
  0.127523 -0.104337 -0.011593     48.000000
  0.115930 -0.092744 -0.000000     24.000000
  0.150709 -0.127523 -0.011593     24.000000
  0.139116 -0.115930 -0.000000     24.000000
  0.000000  0.046372  0.092744     24.000000
  0.139116 -0.092744 -0.046372     48.000000
  0.127523 -0.081151 -0.034779     48.000000
  0.150709 -0.104337 -0.034779     24.000000
  0.139116 -0.092744 -0.023186     48.000000
  0.127523 -0.081151 -0.011593     48.000000
  0.115930 -0.069558 -0.000000     24.000000
  0.150709 -0.104337 -0.011593     24.000000
  0.139116 -0.092744 -0.000000     24.000000
  0.150709 -0.081151 -0.011593     24.000000



--------------------------------------------------------------------------------------------------------




 Dimension of arrays:
   k-points           NKPTS =     84   k-points in BZ     NKDIM =     84   number of bands    NBANDS=     24
   number of dos      NEDOS =    301   number of ions     NIONS =      3
   non local maximal  LDIM  =      8   non local SUM 2l+1 LMDIM =     32
   total plane-waves  NPLWV =  74088
   max r-space proj   IRMAX =      1   max aug-charges    IRDMAX= 458465
   dimension x,y,z NGX =    42 NGY =   42 NGZ =   42
   dimension x,y,z NGXF=    84 NGYF=   84 NGZF=   84
   support grid    NGXF=   168 NGYF=  168 NGZF=  168
   ions per type =               1   1   1
   NGX,Y,Z   is equivalent  to a cutoff of  14.50, 14.50, 14.50 a.u.
   NGXF,Y,Z  is equivalent  to a cutoff of  29.01, 29.01, 29.01 a.u.

 SYSTEM =  unknown system
 POSCAR =  U1 Bi1 Pt1

 Startparameter for this run:
   NWRITE =      2    write-flag & timer
   PREC   = acc       normal or accurate (medium, high low for compatibility)
   ISTART =      0    job   : 0-new  1-cont  2-samecut
   ICHARG =      2    charge: 1-file 2-atom 10-const
   ISPIN  =      1    spin polarized calculation?
   LNONCOLLINEAR =      F non collinear calculations
   LSORBIT =      F    spin-orbit coupling
   INIWAV =      1    electr: 0-lowe 1-rand  2-diag
   LASPH  =      F    aspherical Exc in radial PAW
   METAGGA=      F    non-selfconsistent MetaGGA calc.

 Electronic Relaxation 1
   ENCUT  =  700.0 eV  51.45 Ry    7.17 a.u.  10.38 10.38 10.38*2*pi/ulx,y,z
   ENINI  =  700.0     initial cutoff
   ENAUG  =  526.4 eV  augmentation charge cutoff
   NELM   =     60;   NELMIN=  5; NELMDL= -5     # of ELM steps
   EDIFF  = 0.1E-06   stopping-criterion for ELM
   LREAL  =      F    real-space projection
   NLSPLINE    = F    spline interpolate recip. space projectors
   LCOMPAT=      F    compatible to vasp.4.4
   GGA_COMPAT  = T    GGA compatible to vasp.4.4-vasp.4.6
   LMAXPAW     = -100 max onsite density
   LMAXMIX     =    2 max onsite mixed and CHGCAR
   VOSKOWN=      0    Vosko Wilk Nusair interpolation
   ROPT   =    0.00000   0.00000   0.00000
 Ionic relaxation
   EDIFFG = 0.1E-05   stopping-criterion for IOM
   NSW    =      0    number of steps for IOM
   NBLOCK =      1;   KBLOCK =      1    inner block; outer block
   IBRION =     -1    ionic relax: 0-MD 1-quasi-New 2-CG
   NFREE  =      0    steps in history (QN), initial steepest desc. (CG)
   ISIF   =      3    stress and relaxation
   IWAVPR =     10    prediction:  0-non 1-charg 2-wave 3-comb
   ISYM   =      2    0-nonsym 1-usesym 2-fastsym
   LCORR  =      T    Harris-Foulkes like correction to forces

   POTIM  = 0.5000    time-step for ionic-motion
   TEIN   =    0.0    initial temperature
   TEBEG  =    0.0;   TEEND  =   0.0 temperature during run
   SMASS  =  -3.00    Nose mass-parameter (am)
   estimated Nose-frequenzy (Omega)   =  0.10E-29 period in steps = 0.13E+47 mass=  -0.530E-27a.u.
   SCALEE = 1.0000    scale energy and forces
   NPACO  =    256;   APACO  = 16.0  distance and # of slots for P.C.
   PSTRESS=    0.0 pullay stress

  Mass of Ions in am
   POMASS = 238.03208.98195.08
  Ionic Valenz
   ZVAL   =  14.00 15.00 10.00
  Atomic Wigner-Seitz radii
   RWIGS  =  -1.00 -1.00 -1.00
  virtual crystal weights
   VCA    =   1.00  1.00  1.00
   NELECT =      39.0000    total number of electrons
   NUPDOWN=      -1.0000    fix difference up-down

 DOS related values:
   EMIN   =  10.00;   EMAX   =-10.00  energy-range for DOS
   EFERMI =   0.00
   ISMEAR =     0;   SIGMA  =   0.01  broadening in eV -4-tet -1-fermi 0-gaus

 Electronic relaxation 2 (details)
   IALGO  =     38    algorithm
   LDIAG  =      T    sub-space diagonalisation (order eigenvalues)
   LSUBROT=      F    optimize rotation matrix (better conditioning)
   TURBO    =      0    0=normal 1=particle mesh
   IRESTART =      0    0=no restart 2=restart with 2 vectors
   NREBOOT  =      0    no. of reboots
   NMIN     =      0    reboot dimension
   EREF     =   0.00    reference energy to select bands
   IMIX   =      4    mixing-type and parameters
     AMIX     =   0.40;   BMIX     =  1.00
     AMIX_MAG =   1.60;   BMIX_MAG =  1.00
     AMIN     =   0.10
     WC   =   100.;   INIMIX=   1;  MIXPRE=   1;  MAXMIX= -45

 Intra band minimization:
   WEIMIN = 0.0000     energy-eigenvalue tresh-hold
   EBREAK =  0.10E-08  absolut break condition
   DEPER  =   0.30     relativ break condition

   TIME   =   0.40     timestep for ELM

  volume/ion in A,a.u.               =      26.29       177.43
  Fermi-wavevector in a.u.,A,eV,Ry     =   1.294541  2.446327 22.801130  1.675836
  Thomas-Fermi vector in A             =   2.426117

 Write flags
   LWAVE        =      F    write WAVECAR
   LDOWNSAMPLE  =      F    k-point downsampling of WAVECAR
   LCHARG       =      F    write CHGCAR
   LVTOT        =      F    write LOCPOT, total local potential
   LVHAR        =      F    write LOCPOT, Hartree potential only
   LELF         =      F    write electronic localiz. function (ELF)
   LORBIT       =      0    0 simple, 1 ext, 2 COOP (PROOUT), +10 PAW based schemes


 Dipole corrections
   LMONO  =      F    monopole corrections only (constant potential shift)
   LDIPOL =      F    correct potential (dipole corrections)
   IDIPOL =      0    1-x, 2-y, 3-z, 4-all directions
   EPSILON=  1.0000000 bulk dielectric constant

 Exchange correlation treatment:
   GGA     =    PS    GGA type
   LEXCH   =    14    internal setting for exchange type
   VOSKOWN=      0    Vosko Wilk Nusair interpolation
   LHFCALC =     F    Hartree Fock is set to
   LHFONE  =     F    Hartree Fock one center treatment
   AEXX    =    0.0000 exact exchange contribution

 Linear response parameters
   LEPSILON=     F    determine dielectric tensor
   LRPA    =     F    only Hartree local field effects (RPA)
   LNABLA  =     F    use nabla operator in PAW spheres
   LVEL    =     F    velocity operator in full k-point grid
   LINTERFAST=   F  fast interpolation
   KINTER  =     0    interpolate to denser k-point grid
   CSHIFT  =0.1000    complex shift for real part using Kramers Kronig
   OMEGAMAX=  -1.0    maximum frequency
   DEG_THRESHOLD= 0.2000000E-02 threshold for treating states as degnerate
   RTIME   =   -0.100 relaxation time in fs
  (WPLASMAI=    0.000 imaginary part of plasma frequency in eV, 0.658/RTIME)
   DFIELD  = 0.0000000 0.0000000 0.0000000 field for delta impulse in time

 Orbital magnetization related:
   ORBITALMAG=     F  switch on orbital magnetization
   LCHIMAG   =     F  perturbation theory with respect to B field
   DQ        =  0.001000  dq finite difference perturbation B field
   LLRAUG    =     F  two centre corrections for induced B field



--------------------------------------------------------------------------------------------------------


 Static calculation
 charge density and potential will be updated during run
 non-spin polarized calculation
 Variant of blocked Davidson
 Davidson routine will perform the subspace rotation
 perform sub-space diagonalisation
    after iterative eigenvector-optimisation
 modified Broyden-mixing scheme, WC =      100.0
 initial mixing is a Kerker type mixing with AMIX =  0.4000 and BMIX =      1.0000
 Hartree-type preconditioning will be used
 using additional bands            4
 reciprocal scheme for non local part
 use partial core corrections
 calculate Harris-corrections to forces
   (improved forces if not selfconsistent)
 use gradient corrections
 use of overlap-Matrix (Vanderbilt PP)
 Gauss-broadening in eV      SIGMA  =   0.01


--------------------------------------------------------------------------------------------------------


  energy-cutoff  :      700.00
  volume of cell :       78.88
      direct lattice vectors                 reciprocal lattice vectors
     0.000000000  3.403851786  3.403851786    -0.146892412  0.146892412  0.146892412
     3.403851786  0.000000000  3.403851786     0.146892412 -0.146892412  0.146892412
     3.403851786  3.403851786  0.000000000     0.146892412  0.146892412 -0.146892412

  length of vectors
     4.813773360  4.813773360  4.813773360     0.254425121  0.254425121  0.254425121



 k-points in units of 2pi/SCALE and weight: KPOINTS
   0.00000000  0.00000000  0.00000000       0.000
  -0.01159304  0.01159304  0.01159304       0.004
  -0.02318608  0.02318608  0.02318608       0.004
  -0.03477911  0.03477911  0.03477911       0.004
  -0.04637215  0.04637215  0.04637215       0.004
  -0.05796519  0.05796519  0.05796519       0.004
  -0.06955823  0.06955823  0.06955823       0.004
  -0.00000000 -0.00000000  0.02318608       0.003
  -0.01159304  0.01159304  0.03477911       0.011
  -0.02318608  0.02318608  0.04637215       0.011
  -0.03477911  0.03477911  0.05796519       0.011
  -0.04637215  0.04637215  0.06955823       0.011
  -0.05796519  0.05796519  0.08115127       0.011
   0.08115127 -0.08115127 -0.05796519       0.011
   0.06955823 -0.06955823 -0.04637215       0.011
   0.05796519 -0.05796519 -0.03477911       0.011
   0.04637215 -0.04637215 -0.02318608       0.011
   0.03477911 -0.03477911 -0.01159304       0.011
   0.02318608 -0.02318608  0.00000000       0.005
  -0.00000000 -0.00000000  0.04637215       0.003
  -0.01159304  0.01159304  0.05796519       0.011
  -0.02318608  0.02318608  0.06955823       0.011
  -0.03477911  0.03477911  0.08115127       0.011
  -0.04637215  0.04637215  0.09274430       0.011
   0.09274430 -0.09274430 -0.04637215       0.011
   0.08115127 -0.08115127 -0.03477911       0.011
   0.06955823 -0.06955823 -0.02318608       0.011
   0.05796519 -0.05796519 -0.01159304       0.011
   0.04637215 -0.04637215  0.00000000       0.005
  -0.00000000  0.00000000  0.06955823       0.003
  -0.01159304  0.01159304  0.08115127       0.011
  -0.02318608  0.02318608  0.09274430       0.011
  -0.03477911  0.03477911  0.10433734       0.011
   0.10433734 -0.10433734 -0.03477911       0.011
   0.09274430 -0.09274430 -0.02318608       0.011
   0.08115127 -0.08115127 -0.01159304       0.011
   0.06955823 -0.06955823  0.00000000       0.005
  -0.00000000 -0.00000000  0.09274430       0.003
  -0.01159304  0.01159304  0.10433734       0.011
  -0.02318608  0.02318608  0.11593038       0.011
   0.11593038 -0.11593038 -0.02318608       0.011
   0.10433734 -0.10433734 -0.01159304       0.011
   0.09274430 -0.09274430  0.00000000       0.005
   0.00000000 -0.00000000  0.11593038       0.003
  -0.01159304  0.01159304  0.12752342       0.011
   0.12752342 -0.12752342 -0.01159304       0.011
   0.11593038 -0.11593038 -0.00000000       0.005
  -0.00000000  0.00000000  0.13911646       0.003
   0.13911646 -0.13911646 -0.00000000       0.005
  -0.00000000  0.02318608  0.04637215       0.011
  -0.01159304  0.03477911  0.05796519       0.022
  -0.02318608  0.04637215  0.06955823       0.022
  -0.03477911  0.05796519  0.08115127       0.022
   0.10433734 -0.08115127 -0.05796519       0.022
   0.00000000  0.02318608  0.06955823       0.011
  -0.01159304  0.03477911  0.08115127       0.022
  -0.02318608  0.04637215  0.09274430       0.022
   0.11593038 -0.09274430 -0.04637215       0.022
   0.10433734 -0.08115127 -0.03477911       0.022
   0.09274430 -0.06955823 -0.02318608       0.022
   0.08115127 -0.05796519 -0.01159304       0.022
   0.06955823 -0.04637215  0.00000000       0.011
  -0.00000000  0.02318608  0.09274430       0.011
  -0.01159304  0.03477911  0.10433734       0.022
   0.12752342 -0.10433734 -0.03477911       0.022
   0.11593038 -0.09274430 -0.02318608       0.022
   0.10433734 -0.08115127 -0.01159304       0.022
   0.09274430 -0.06955823 -0.00000000       0.011
   0.00000000  0.02318608  0.11593038       0.011
   0.13911646 -0.11593038 -0.02318608       0.022
   0.12752342 -0.10433734 -0.01159304       0.022
   0.11593038 -0.09274430 -0.00000000       0.011
   0.15070950 -0.12752342 -0.01159304       0.011
   0.13911646 -0.11593038 -0.00000000       0.011
   0.00000000  0.04637215  0.09274430       0.011
   0.13911646 -0.09274430 -0.04637215       0.022
   0.12752342 -0.08115127 -0.03477911       0.022
   0.15070950 -0.10433734 -0.03477911       0.011
   0.13911646 -0.09274430 -0.02318608       0.022
   0.12752342 -0.08115127 -0.01159304       0.022
   0.11593038 -0.06955823 -0.00000000       0.011
   0.15070950 -0.10433734 -0.01159304       0.011
   0.13911646 -0.09274430 -0.00000000       0.011
   0.15070950 -0.08115127 -0.01159304       0.011

 k-points in reciprocal lattice and weights: KPOINTS
   0.00000000  0.00000000  0.00000000       0.000
   0.07692308 -0.00000000  0.00000000       0.004
   0.15384615 -0.00000000  0.00000000       0.004
   0.23076923 -0.00000000  0.00000000       0.004
   0.30769231 -0.00000000  0.00000000       0.004
   0.38461538  0.00000000 -0.00000000       0.004
   0.46153846  0.00000000 -0.00000000       0.004
   0.07692308  0.07692308 -0.00000000       0.003
   0.15384615  0.07692308  0.00000000       0.011
   0.23076923  0.07692308  0.00000000       0.011
   0.30769231  0.07692308  0.00000000       0.011
   0.38461538  0.07692308  0.00000000       0.011
   0.46153846  0.07692308  0.00000000       0.011
  -0.46153846  0.07692308 -0.00000000       0.011
  -0.38461538  0.07692308  0.00000000       0.011
  -0.30769231  0.07692308  0.00000000       0.011
  -0.23076923  0.07692308  0.00000000       0.011
  -0.15384615  0.07692308 -0.00000000       0.011
  -0.07692308  0.07692308 -0.00000000       0.005
   0.15384615  0.15384615 -0.00000000       0.003
   0.23076923  0.15384615 -0.00000000       0.011
   0.30769231  0.15384615  0.00000000       0.011
   0.38461538  0.15384615  0.00000000       0.011
   0.46153846  0.15384615 -0.00000000       0.011
  -0.46153846  0.15384615 -0.00000000       0.011
  -0.38461538  0.15384615 -0.00000000       0.011
  -0.30769231  0.15384615  0.00000000       0.011
  -0.23076923  0.15384615  0.00000000       0.011
  -0.15384615  0.15384615 -0.00000000       0.005
   0.23076923  0.23076923 -0.00000000       0.003
   0.30769231  0.23076923 -0.00000000       0.011
   0.38461538  0.23076923  0.00000000       0.011
   0.46153846  0.23076923 -0.00000000       0.011
  -0.46153846  0.23076923  0.00000000       0.011
  -0.38461538  0.23076923  0.00000000       0.011
  -0.30769231  0.23076923 -0.00000000       0.011
  -0.23076923  0.23076923 -0.00000000       0.005
   0.30769231  0.30769231 -0.00000000       0.003
   0.38461538  0.30769231 -0.00000000       0.011
   0.46153846  0.30769231 -0.00000000       0.011
  -0.46153846  0.30769231  0.00000000       0.011
  -0.38461538  0.30769231  0.00000000       0.011
  -0.30769231  0.30769231 -0.00000000       0.005
   0.38461538  0.38461538 -0.00000000       0.003
   0.46153846  0.38461538 -0.00000000       0.011
  -0.46153846  0.38461538  0.00000000       0.011
  -0.38461538  0.38461538  0.00000000       0.005
   0.46153846  0.46153846 -0.00000000       0.003
  -0.46153846  0.46153846  0.00000000       0.005
   0.23076923  0.15384615  0.07692308       0.011
   0.30769231  0.15384615  0.07692308       0.022
   0.38461538  0.15384615  0.07692308       0.022
   0.46153846  0.15384615  0.07692308       0.022
  -0.46153846  0.15384615  0.07692308       0.022
   0.30769231  0.23076923  0.07692308       0.011
   0.38461538  0.23076923  0.07692308       0.022
   0.46153846  0.23076923  0.07692308       0.022
  -0.46153846  0.23076923  0.07692308       0.022
  -0.38461538  0.23076923  0.07692308       0.022
  -0.30769231  0.23076923  0.07692308       0.022
  -0.23076923  0.23076923  0.07692308       0.022
  -0.15384615  0.23076923  0.07692308       0.011
   0.38461538  0.30769231  0.07692308       0.011
   0.46153846  0.30769231  0.07692308       0.022
  -0.46153846  0.30769231  0.07692308       0.022
  -0.38461538  0.30769231  0.07692308       0.022
  -0.30769231  0.30769231  0.07692308       0.022
  -0.23076923  0.30769231  0.07692308       0.011
   0.46153846  0.38461538  0.07692308       0.011
  -0.46153846  0.38461538  0.07692308       0.022
  -0.38461538  0.38461538  0.07692308       0.022
  -0.30769231  0.38461538  0.07692308       0.011
  -0.46153846  0.46153846  0.07692308       0.011
  -0.38461538  0.46153846  0.07692308       0.011
   0.46153846  0.30769231  0.15384615       0.011
  -0.46153846  0.30769231  0.15384615       0.022
  -0.38461538  0.30769231  0.15384615       0.022
  -0.46153846  0.38461538  0.15384615       0.011
  -0.38461538  0.38461538  0.15384615       0.022
  -0.30769231  0.38461538  0.15384615       0.022
  -0.23076923  0.38461538  0.15384615       0.011
  -0.38461538  0.46153846  0.15384615       0.011
  -0.30769231  0.46153846  0.15384615       0.011
  -0.30769231  0.46153846  0.23076923       0.011

 position of ions in fractional coordinates (direct lattice)
   0.25000000  0.25000000  0.25000000
   0.75000000  0.75000000  0.75000000
   0.00000000  0.00000000  0.00000000

 position of ions in cartesian coordinates  (Angst):
   1.70192589  1.70192589  1.70192589
   5.10577768  5.10577768  5.10577768
   0.00000000  0.00000000  0.00000000



--------------------------------------------------------------------------------------------------------


 k-point  1 :   0.0000 0.0000 0.0000  plane waves:    3287
 k-point  2 :   0.0769-0.0000 0.0000  plane waves:    3338
 k-point  3 :   0.1538-0.0000 0.0000  plane waves:    3323
 k-point  4 :   0.2308-0.0000 0.0000  plane waves:    3326
 k-point  5 :   0.3077-0.0000 0.0000  plane waves:    3329
 k-point  6 :   0.3846 0.0000-0.0000  plane waves:    3317
 k-point  7 :   0.4615 0.0000-0.0000  plane waves:    3311
 k-point  8 :   0.0769 0.0769-0.0000  plane waves:    3339
 k-point  9 :   0.1538 0.0769 0.0000  plane waves:    3329
 k-point 10 :   0.2308 0.0769 0.0000  plane waves:    3327
 k-point 11 :   0.3077 0.0769 0.0000  plane waves:    3331
 k-point 12 :   0.3846 0.0769 0.0000  plane waves:    3318
 k-point 13 :   0.4615 0.0769 0.0000  plane waves:    3316
 k-point 14 :  -0.4615 0.0769-0.0000  plane waves:    3315
 k-point 15 :  -0.3846 0.0769 0.0000  plane waves:    3321
 k-point 16 :  -0.3077 0.0769 0.0000  plane waves:    3322
 k-point 17 :  -0.2308 0.0769 0.0000  plane waves:    3335
 k-point 18 :  -0.1538 0.0769-0.0000  plane waves:    3326
 k-point 19 :  -0.0769 0.0769-0.0000  plane waves:    3329
 k-point 20 :   0.1538 0.1538-0.0000  plane waves:    3323
 k-point 21 :   0.2308 0.1538-0.0000  plane waves:    3322
 k-point 22 :   0.3077 0.1538 0.0000  plane waves:    3322
 k-point 23 :   0.3846 0.1538 0.0000  plane waves:    3319
 k-point 24 :   0.4615 0.1538-0.0000  plane waves:    3309
 k-point 25 :  -0.4615 0.1538-0.0000  plane waves:    3308
 k-point 26 :  -0.3846 0.1538-0.0000  plane waves:    3311
 k-point 27 :  -0.3077 0.1538 0.0000  plane waves:    3329
 k-point 28 :  -0.2308 0.1538 0.0000  plane waves:    3327
 k-point 29 :  -0.1538 0.1538-0.0000  plane waves:    3333
 k-point 30 :   0.2308 0.2308-0.0000  plane waves:    3339
 k-point 31 :   0.3077 0.2308-0.0000  plane waves:    3324
 k-point 32 :   0.3846 0.2308 0.0000  plane waves:    3319
 k-point 33 :   0.4615 0.2308-0.0000  plane waves:    3315
 k-point 34 :  -0.4615 0.2308 0.0000  plane waves:    3310
 k-point 35 :  -0.3846 0.2308 0.0000  plane waves:    3307
 k-point 36 :  -0.3077 0.2308-0.0000  plane waves:    3315
 k-point 37 :  -0.2308 0.2308-0.0000  plane waves:    3328
 k-point 38 :   0.3077 0.3077-0.0000  plane waves:    3327
 k-point 39 :   0.3846 0.3077-0.0000  plane waves:    3327
 k-point 40 :   0.4615 0.3077-0.0000  plane waves:    3318
 k-point 41 :  -0.4615 0.3077 0.0000  plane waves:    3310
 k-point 42 :  -0.3846 0.3077 0.0000  plane waves:    3297
 k-point 43 :  -0.3077 0.3077-0.0000  plane waves:    3304
 k-point 44 :   0.3846 0.3846-0.0000  plane waves:    3326
 k-point 45 :   0.4615 0.3846-0.0000  plane waves:    3320
 k-point 46 :  -0.4615 0.3846 0.0000  plane waves:    3307
 k-point 47 :  -0.3846 0.3846 0.0000  plane waves:    3304
 k-point 48 :   0.4615 0.4615-0.0000  plane waves:    3310
 k-point 49 :  -0.4615 0.4615 0.0000  plane waves:    3308
 k-point 50 :   0.2308 0.1538 0.0769  plane waves:    3320
 k-point 51 :   0.3077 0.1538 0.0769  plane waves:    3330
 k-point 52 :   0.3846 0.1538 0.0769  plane waves:    3325
 k-point 53 :   0.4615 0.1538 0.0769  plane waves:    3315
 k-point 54 :  -0.4615 0.1538 0.0769  plane waves:    3307
 k-point 55 :   0.3077 0.2308 0.0769  plane waves:    3321
 k-point 56 :   0.3846 0.2308 0.0769  plane waves:    3322
 k-point 57 :   0.4615 0.2308 0.0769  plane waves:    3317
 k-point 58 :  -0.4615 0.2308 0.0769  plane waves:    3313
 k-point 59 :  -0.3846 0.2308 0.0769  plane waves:    3305
 k-point 60 :  -0.3077 0.2308 0.0769  plane waves:    3309
 k-point 61 :  -0.2308 0.2308 0.0769  plane waves:    3324
 k-point 62 :  -0.1538 0.2308 0.0769  plane waves:    3322
 k-point 63 :   0.3846 0.3077 0.0769  plane waves:    3321
 k-point 64 :   0.4615 0.3077 0.0769  plane waves:    3317
 k-point 65 :  -0.4615 0.3077 0.0769  plane waves:    3316
 k-point 66 :  -0.3846 0.3077 0.0769  plane waves:    3306
 k-point 67 :  -0.3077 0.3077 0.0769  plane waves:    3304
 k-point 68 :  -0.2308 0.3077 0.0769  plane waves:    3316
 k-point 69 :   0.4615 0.3846 0.0769  plane waves:    3320
 k-point 70 :  -0.4615 0.3846 0.0769  plane waves:    3317
 k-point 71 :  -0.3846 0.3846 0.0769  plane waves:    3308
 k-point 72 :  -0.3077 0.3846 0.0769  plane waves:    3301
 k-point 73 :  -0.4615 0.4615 0.0769  plane waves:    3316
 k-point 74 :  -0.3846 0.4615 0.0769  plane waves:    3317
 k-point 75 :   0.4615 0.3077 0.1538  plane waves:    3320
 k-point 76 :  -0.4615 0.3077 0.1538  plane waves:    3315
 k-point 77 :  -0.3846 0.3077 0.1538  plane waves:    3312
 k-point 78 :  -0.4615 0.3846 0.1538  plane waves:    3314
 k-point 79 :  -0.3846 0.3846 0.1538  plane waves:    3312
 k-point 80 :  -0.3077 0.3846 0.1538  plane waves:    3307
 k-point 81 :  -0.2308 0.3846 0.1538  plane waves:    3309
 k-point 82 :  -0.3846 0.4615 0.1538  plane waves:    3317
 k-point 83 :  -0.3077 0.4615 0.1538  plane waves:    3306
 k-point 84 :  -0.3077 0.4615 0.2308  plane waves:    3308

 maximum and minimum number of plane-waves per node :       846      815

 maximum number of plane-waves:      3339
 maximum index in each direction:
   IXMAX=   10   IYMAX=   10   IZMAX=   10
   IXMIN=  -10   IYMIN=  -10   IZMIN=  -10


 parallel 3D FFT for wavefunctions:
    minimum data exchange during FFTs selected (reduces bandwidth)
 parallel 3D FFT for charge:
    minimum data exchange during FFTs selected (reduces bandwidth)


 total amount of memory used by VASP MPI-rank0   100552. kBytes
=======================================================================

   base      :      30000. kBytes
   nonl-proj :      53713. kBytes
   fftplans  :       6282. kBytes
   grid      :       3541. kBytes
   one-center:         49. kBytes
   wavefun   :       6967. kBytes

     INWAV:  cpu time    0.0002: real time    0.0005
 Broyden mixing: mesh for mixing (old mesh)
   NGX = 21   NGY = 21   NGZ = 21
  (NGX  = 84   NGY  = 84   NGZ  = 84)
  gives a total of   9261 points

 initial charge density was supplied:
 charge density of overlapping atoms calculated
 number of electron      39.0000000 magnetization
 keeping initial charge density in first step


--------------------------------------------------------------------------------------------------------


 Maximum index for augmentation-charges        30879 (set IRDMAX)


--------------------------------------------------------------------------------------------------------


 First call to EWALD:  gamma=   0.413
 Maximum number of real-space cells 3x 3x 3
 Maximum number of reciprocal cells 3x 3x 3

    FEWALD:  cpu time    0.0053: real time    0.0061


--------------------------------------- Iteration      1(   1)  ---------------------------------------


    POTLOK:  cpu time    0.0521: real time    0.1353
    SETDIJ:  cpu time    0.0942: real time    0.0944
     EDDAV:  cpu time    1.5187: real time    1.5470
       DOS:  cpu time    0.0043: real time    0.0047
    --------------------------------------------
      LOOP:  cpu time    1.6696: real time    1.7822

 eigenvalue-minimisations  :  4032
 total energy-change (2. order) : 0.4284926E+03  (-0.2233901E+04)
 number of electron      39.0000000 magnetization
 augmentation part       39.0000000 magnetization

 Free energy of the ion-electron system (eV)
  ---------------------------------------------------
  alpha Z        PSCENC =       199.36218625
  Ewald energy   TEWEN  =     -3502.29989139
  -Hartree energ DENC   =      -823.31844468
  -exchange      EXHF   =         0.00000000
  -V(xc)+E(xc)   XCENC  =        89.45036869
  PAW double counting   =      3513.29252893    -3436.88002192
  entropy T*S    EENTRO =        -0.00012057
  eigenvalues    EBANDS =       293.53392625
  atomic energy  EATOM  =      4095.35208632
  Solvation  Ediel_sol  =         0.00000000
  ---------------------------------------------------
  free energy    TOTEN  =       428.49261787 eV

  energy without entropy =      428.49273844  energy(sigma->0) =      428.49267816


--------------------------------------------------------------------------------------------------------




--------------------------------------- Iteration      1(   2)  ---------------------------------------


     EDDAV:  cpu time    1.6746: real time    1.9025
       DOS:  cpu time    0.0032: real time    0.0034
    --------------------------------------------
      LOOP:  cpu time    1.6778: real time    1.9068

 eigenvalue-minimisations  :  4544
 total energy-change (2. order) :-0.4002398E+03  (-0.3927528E+03)
 number of electron      39.0000000 magnetization
 augmentation part       39.0000000 magnetization

 Free energy of the ion-electron system (eV)
  ---------------------------------------------------
  alpha Z        PSCENC =       199.36218625
  Ewald energy   TEWEN  =     -3502.29989139
  -Hartree energ DENC   =      -823.31844468
  -exchange      EXHF   =         0.00000000
  -V(xc)+E(xc)   XCENC  =        89.45036869
  PAW double counting   =      3513.29252893    -3436.88002192
  entropy T*S    EENTRO =        -0.00037746
  eigenvalues    EBANDS =      -106.70556805
  atomic energy  EATOM  =      4095.35208632
  Solvation  Ediel_sol  =         0.00000000
  ---------------------------------------------------
  free energy    TOTEN  =        28.25286668 eV

  energy without entropy =       28.25324415  energy(sigma->0) =       28.25305542


--------------------------------------------------------------------------------------------------------




--------------------------------------- Iteration      1(   3)  ---------------------------------------


     EDDAV:  cpu time    1.7830: real time    1.8224
       DOS:  cpu time    0.0031: real time    0.0034
    --------------------------------------------
      LOOP:  cpu time    1.7862: real time    1.8262

 eigenvalue-minimisations  :  4904
 total energy-change (2. order) :-0.4864652E+02  (-0.4747371E+02)
 number of electron      39.0000000 magnetization
 augmentation part       39.0000000 magnetization

 Free energy of the ion-electron system (eV)
  ---------------------------------------------------
  alpha Z        PSCENC =       199.36218625
  Ewald energy   TEWEN  =     -3502.29989139
  -Hartree energ DENC   =      -823.31844468
  -exchange      EXHF   =         0.00000000
  -V(xc)+E(xc)   XCENC  =        89.45036869
  PAW double counting   =      3513.29252893    -3436.88002192
  entropy T*S    EENTRO =        -0.00074461
  eigenvalues    EBANDS =      -155.35171722
  atomic energy  EATOM  =      4095.35208632
  Solvation  Ediel_sol  =         0.00000000
  ---------------------------------------------------
  free energy    TOTEN  =       -20.39364964 eV

  energy without entropy =      -20.39290503  energy(sigma->0) =      -20.39327733


--------------------------------------------------------------------------------------------------------




--------------------------------------- Iteration      1(   4)  ---------------------------------------


     EDDAV:  cpu time    2.5245: real time    2.5455
       DOS:  cpu time    0.0031: real time    0.0035
    --------------------------------------------
      LOOP:  cpu time    2.5276: real time    2.5492

 eigenvalue-minimisations  :  7800
 total energy-change (2. order) :-0.5296118E+01  (-0.5270122E+01)
 number of electron      39.0000000 magnetization
 augmentation part       39.0000000 magnetization

 Free energy of the ion-electron system (eV)
  ---------------------------------------------------
  alpha Z        PSCENC =       199.36218625
  Ewald energy   TEWEN  =     -3502.29989139
  -Hartree energ DENC   =      -823.31844468
  -exchange      EXHF   =         0.00000000
  -V(xc)+E(xc)   XCENC  =        89.45036869
  PAW double counting   =      3513.29252893    -3436.88002192
  entropy T*S    EENTRO =        -0.00105830
  eigenvalues    EBANDS =      -160.64752129
  atomic energy  EATOM  =      4095.35208632
  Solvation  Ediel_sol  =         0.00000000
  ---------------------------------------------------
  free energy    TOTEN  =       -25.68976739 eV

  energy without entropy =      -25.68870910  energy(sigma->0) =      -25.68923825


--------------------------------------------------------------------------------------------------------




--------------------------------------- Iteration      1(   5)  ---------------------------------------


     EDDAV:  cpu time    1.8754: real time    1.9067
       DOS:  cpu time    0.0032: real time    0.0034
    CHARGE:  cpu time    0.3603: real time    0.3618
    MIXING:  cpu time    0.0060: real time    0.0062
    --------------------------------------------
      LOOP:  cpu time    2.2449: real time    2.2778

 eigenvalue-minimisations  :  5448
 total energy-change (2. order) :-0.1783125E+00  (-0.1781101E+00)
 number of electron      39.0000000 magnetization
 augmentation part        8.9944687 magnetization

 Broyden mixing:
  rms(total) = 0.14651E+01    rms(broyden)= 0.14651E+01
  rms(prec ) = 0.44609E+01
  weight for this iteration     100.00

 Free energy of the ion-electron system (eV)
  ---------------------------------------------------
  alpha Z        PSCENC =       199.36218625
  Ewald energy   TEWEN  =     -3502.29989139
  -Hartree energ DENC   =      -823.31844468
  -exchange      EXHF   =         0.00000000
  -V(xc)+E(xc)   XCENC  =        89.45036869
  PAW double counting   =      3513.29252893    -3436.88002192
  entropy T*S    EENTRO =        -0.00118989
  eigenvalues    EBANDS =      -160.82570217
  atomic energy  EATOM  =      4095.35208632
  Solvation  Ediel_sol  =         0.00000000
  ---------------------------------------------------
  free energy    TOTEN  =       -25.86807986 eV

  energy without entropy =      -25.86688997  energy(sigma->0) =      -25.86748492


--------------------------------------------------------------------------------------------------------




--------------------------------------- Iteration      1(   6)  ---------------------------------------


    POTLOK:  cpu time    0.0387: real time    0.0678
    SETDIJ:  cpu time    0.0913: real time    0.0917
     EDDAV:  cpu time    2.0419: real time    2.0421
       DOS:  cpu time    0.0029: real time    0.0033
    CHARGE:  cpu time    0.3180: real time    0.3182
    MIXING:  cpu time    0.0057: real time    0.0061
    --------------------------------------------
      LOOP:  cpu time    2.4985: real time    2.5299

 eigenvalue-minimisations  :  6040
 total energy-change (2. order) :-0.9058025E+01  (-0.2253729E+02)
 number of electron      39.0000000 magnetization
 augmentation part        7.0180382 magnetization

 Broyden mixing:
  rms(total) = 0.22028E+01    rms(broyden)= 0.22028E+01
  rms(prec ) = 0.61927E+01
  weight for this iteration     100.00

 eigenvalues of (default mixing * dielectric matrix)
  average eigenvalue GAMMA=   0.3638
  0.3638

 Free energy of the ion-electron system (eV)
  ---------------------------------------------------
  alpha Z        PSCENC =       199.36218625
  Ewald energy   TEWEN  =     -3502.29989139
  -Hartree energ DENC   =      -834.57099584
  -exchange      EXHF   =         0.00000000
  -V(xc)+E(xc)   XCENC  =        90.10795555
  PAW double counting   =      3762.10605745    -3685.23478797
  entropy T*S    EENTRO =        -0.00006313
  eigenvalues    EBANDS =      -159.74865175
  atomic energy  EATOM  =      4095.35208632
  Solvation  Ediel_sol  =         0.00000000
  ---------------------------------------------------
  free energy    TOTEN  =       -34.92610453 eV

  energy without entropy =      -34.92604140  energy(sigma->0) =      -34.92607296


--------------------------------------------------------------------------------------------------------




--------------------------------------- Iteration      1(   7)  ---------------------------------------


    POTLOK:  cpu time    0.0376: real time    0.0786
    SETDIJ:  cpu time    0.1010: real time    0.1014
     EDDAV:  cpu time    1.9631: real time    1.9639
       DOS:  cpu time    0.0032: real time    0.0036
    CHARGE:  cpu time    0.2986: real time    0.2988
    MIXING:  cpu time    0.0043: real time    0.0045
    --------------------------------------------
      LOOP:  cpu time    2.4079: real time    2.4495

 eigenvalue-minimisations  :  5800
 total energy-change (2. order) : 0.1005908E+02  (-0.2714353E+01)
 number of electron      39.0000000 magnetization
 augmentation part        7.4617122 magnetization

 Broyden mixing:
  rms(total) = 0.11068E+01    rms(broyden)= 0.11068E+01
  rms(prec ) = 0.32937E+01
  weight for this iteration     100.00

 eigenvalues of (default mixing * dielectric matrix)
  average eigenvalue GAMMA=   0.7351
  0.7351  0.7351

 Free energy of the ion-electron system (eV)
  ---------------------------------------------------
  alpha Z        PSCENC =       199.36218625
  Ewald energy   TEWEN  =     -3502.29989139
  -Hartree energ DENC   =      -820.37392622
  -exchange      EXHF   =         0.00000000
  -V(xc)+E(xc)   XCENC  =        89.43836299
  PAW double counting   =      3842.06061361    -3769.54933681
  entropy T*S    EENTRO =        -0.00071525
  eigenvalues    EBANDS =      -158.85639912
  atomic energy  EATOM  =      4095.35208632
  Solvation  Ediel_sol  =         0.00000000
  ---------------------------------------------------
  free energy    TOTEN  =       -24.86701962 eV

  energy without entropy =      -24.86630437  energy(sigma->0) =      -24.86666200


--------------------------------------------------------------------------------------------------------




--------------------------------------- Iteration      1(   8)  ---------------------------------------


    POTLOK:  cpu time    0.0702: real time    0.0916
    SETDIJ:  cpu time    0.0909: real time    0.0911
     EDDAV:  cpu time    1.9935: real time    1.9939
       DOS:  cpu time    0.0033: real time    0.0035
    CHARGE:  cpu time    0.3028: real time    0.3029
    MIXING:  cpu time    0.0051: real time    0.0053
    --------------------------------------------
      LOOP:  cpu time    2.4658: real time    2.4882

 eigenvalue-minimisations  :  5944
 total energy-change (2. order) : 0.2748183E+00  (-0.4007933E+01)
 number of electron      39.0000000 magnetization
 augmentation part        9.1039988 magnetization

 Broyden mixing:
  rms(total) = 0.93775E+00    rms(broyden)= 0.93775E+00
  rms(prec ) = 0.30085E+01
  weight for this iteration     100.00

 eigenvalues of (default mixing * dielectric matrix)
  average eigenvalue GAMMA=   0.8837
  1.6014  0.5248  0.5248

 Free energy of the ion-electron system (eV)
  ---------------------------------------------------
  alpha Z        PSCENC =       199.36218625
  Ewald energy   TEWEN  =     -3502.29989139
  -Hartree energ DENC   =      -808.70764087
  -exchange      EXHF   =         0.00000000
  -V(xc)+E(xc)   XCENC  =        88.93895793
  PAW double counting   =      3880.41473209    -3810.85428094
  entropy T*S    EENTRO =        -0.00126336
  eigenvalues    EBANDS =      -166.79708737
  atomic energy  EATOM  =      4095.35208632
  Solvation  Ediel_sol  =         0.00000000
  ---------------------------------------------------
  free energy    TOTEN  =       -24.59220136 eV

  energy without entropy =      -24.59093800  energy(sigma->0) =      -24.59156968


--------------------------------------------------------------------------------------------------------




--------------------------------------- Iteration      1(   9)  ---------------------------------------


    POTLOK:  cpu time    0.0444: real time    0.0790
    SETDIJ:  cpu time    0.0900: real time    0.0908
     EDDAV:  cpu time    2.1070: real time    2.1073
       DOS:  cpu time    0.0033: real time    0.0037
    CHARGE:  cpu time    0.3039: real time    0.3040
    MIXING:  cpu time    0.0051: real time    0.0052
    --------------------------------------------
      LOOP:  cpu time    2.5538: real time    2.5901

 eigenvalue-minimisations  :  6304
 total energy-change (2. order) : 0.9946903E+00  (-0.1035956E+01)
 number of electron      39.0000000 magnetization
 augmentation part        8.1530880 magnetization

 Broyden mixing:
  rms(total) = 0.16262E+00    rms(broyden)= 0.16262E+00
  rms(prec ) = 0.29002E+00
  weight for this iteration     100.00

 eigenvalues of (default mixing * dielectric matrix)
  average eigenvalue GAMMA=   0.8825
  1.9239  0.5746  0.5746  0.4567

 Free energy of the ion-electron system (eV)
  ---------------------------------------------------
  alpha Z        PSCENC =       199.36218625
  Ewald energy   TEWEN  =     -3502.29989139
  -Hartree energ DENC   =      -813.63938346
  -exchange      EXHF   =         0.00000000
  -V(xc)+E(xc)   XCENC  =        89.18059648
  PAW double counting   =      3978.80025356    -3909.80959281
  entropy T*S    EENTRO =        -0.00142479
  eigenvalues    EBANDS =      -160.54234122
  atomic energy  EATOM  =      4095.35208632
  Solvation  Ediel_sol  =         0.00000000
  ---------------------------------------------------
  free energy    TOTEN  =       -23.59751107 eV

  energy without entropy =      -23.59608628  energy(sigma->0) =      -23.59679867


--------------------------------------------------------------------------------------------------------




--------------------------------------- Iteration      1(  10)  ---------------------------------------


    POTLOK:  cpu time    0.0437: real time    0.0840
    SETDIJ:  cpu time    0.0916: real time    0.0918
     EDDAV:  cpu time    2.1315: real time    2.1317
       DOS:  cpu time    0.0033: real time    0.0035
    CHARGE:  cpu time    0.2935: real time    0.2937
    MIXING:  cpu time    0.0090: real time    0.0095
    --------------------------------------------
      LOOP:  cpu time    2.5726: real time    2.6153

 eigenvalue-minimisations  :  6480
 total energy-change (2. order) :-0.1008311E+00  (-0.1277892E+00)
 number of electron      39.0000000 magnetization
 augmentation part        7.9207560 magnetization

 Broyden mixing:
  rms(total) = 0.24106E+00    rms(broyden)= 0.24106E+00
  rms(prec ) = 0.77871E+00
  weight for this iteration     100.00

 eigenvalues of (default mixing * dielectric matrix)
  average eigenvalue GAMMA=   0.9409
  1.9308  1.0277  0.5199  0.5199  0.7062

 Free energy of the ion-electron system (eV)
  ---------------------------------------------------
  alpha Z        PSCENC =       199.36218625
  Ewald energy   TEWEN  =     -3502.29989139
  -Hartree energ DENC   =      -813.33630453
  -exchange      EXHF   =         0.00000000
  -V(xc)+E(xc)   XCENC  =        89.18716326
  PAW double counting   =      4047.08124725    -3978.88125369
  entropy T*S    EENTRO =        -0.00131759
  eigenvalues    EBANDS =      -160.16225800
  atomic energy  EATOM  =      4095.35208632
  Solvation  Ediel_sol  =         0.00000000
  ---------------------------------------------------
  free energy    TOTEN  =       -23.69834212 eV

  energy without entropy =      -23.69702453  energy(sigma->0) =      -23.69768333


--------------------------------------------------------------------------------------------------------




--------------------------------------- Iteration      1(  11)  ---------------------------------------


    POTLOK:  cpu time    0.0780: real time    0.0967
    SETDIJ:  cpu time    0.0902: real time    0.0903
     EDDAV:  cpu time    2.0003: real time    2.0005
       DOS:  cpu time    0.0033: real time    0.0040
    CHARGE:  cpu time    0.3030: real time    0.3034
    MIXING:  cpu time    0.0048: real time    0.0050
    --------------------------------------------
      LOOP:  cpu time    2.4794: real time    2.4995

 eigenvalue-minimisations  :  5944
 total energy-change (2. order) : 0.8004672E-01  (-0.5787064E-01)
 number of electron      39.0000000 magnetization
 augmentation part        8.1310631 magnetization

 Broyden mixing:
  rms(total) = 0.38737E-01    rms(broyden)= 0.38737E-01
  rms(prec ) = 0.86897E-01
  weight for this iteration     100.00

 eigenvalues of (default mixing * dielectric matrix)
  average eigenvalue GAMMA=   1.0734
  1.9735  1.9735  0.5258  0.5258  0.7588  0.6825

 Free energy of the ion-electron system (eV)
  ---------------------------------------------------
  alpha Z        PSCENC =       199.36218625
  Ewald energy   TEWEN  =     -3502.29989139
  -Hartree energ DENC   =      -811.79586935
  -exchange      EXHF   =         0.00000000
  -V(xc)+E(xc)   XCENC  =        89.11930825
  PAW double counting   =      4039.17531886    -3971.24071301
  entropy T*S    EENTRO =        -0.00177751
  eigenvalues    EBANDS =      -161.28894381
  atomic energy  EATOM  =      4095.35208632
  Solvation  Ediel_sol  =         0.00000000
  ---------------------------------------------------
  free energy    TOTEN  =       -23.61829540 eV

  energy without entropy =      -23.61651789  energy(sigma->0) =      -23.61740665


--------------------------------------------------------------------------------------------------------




--------------------------------------- Iteration      1(  12)  ---------------------------------------


    POTLOK:  cpu time    0.0831: real time    0.1268
    SETDIJ:  cpu time    0.0928: real time    0.0929
     EDDAV:  cpu time    2.3946: real time    2.3950
       DOS:  cpu time    0.0032: real time    0.0034
    CHARGE:  cpu time    0.3016: real time    0.3017
    MIXING:  cpu time    0.0076: real time    0.0077
    --------------------------------------------
      LOOP:  cpu time    2.8828: real time    2.9268

 eigenvalue-minimisations  :  7320
 total energy-change (2. order) :-0.2459996E-02  (-0.5014300E-02)
 number of electron      39.0000000 magnetization
 augmentation part        8.1793003 magnetization

 Broyden mixing:
  rms(total) = 0.43157E-01    rms(broyden)= 0.43157E-01
  rms(prec ) = 0.11538E+00
  weight for this iteration     100.00

 eigenvalues of (default mixing * dielectric matrix)
  average eigenvalue GAMMA=   1.2211
  2.5261  2.5261  0.5265  0.5265  0.9001  0.9001  0.6424

 Free energy of the ion-electron system (eV)
  ---------------------------------------------------
  alpha Z        PSCENC =       199.36218625
  Ewald energy   TEWEN  =     -3502.29989139
  -Hartree energ DENC   =      -811.57670389
  -exchange      EXHF   =         0.00000000
  -V(xc)+E(xc)   XCENC  =        89.10732037
  PAW double counting   =      4039.95310057    -3972.04665248
  entropy T*S    EENTRO =        -0.00189792
  eigenvalues    EBANDS =      -161.47030324
  atomic energy  EATOM  =      4095.35208632
  Solvation  Ediel_sol  =         0.00000000
  ---------------------------------------------------
  free energy    TOTEN  =       -23.62075540 eV

  energy without entropy =      -23.61885749  energy(sigma->0) =      -23.61980644


--------------------------------------------------------------------------------------------------------




--------------------------------------- Iteration      1(  13)  ---------------------------------------


    POTLOK:  cpu time    0.0744: real time    0.1314
    SETDIJ:  cpu time    0.0899: real time    0.0901
     EDDAV:  cpu time    2.1143: real time    2.1149
       DOS:  cpu time    0.0033: real time    0.0035
    CHARGE:  cpu time    0.3152: real time    0.3153
    MIXING:  cpu time    0.0051: real time    0.0052
    --------------------------------------------
      LOOP:  cpu time    2.6021: real time    2.6605

 eigenvalue-minimisations  :  6328
 total energy-change (2. order) :-0.4941812E-03  (-0.2845319E-03)
 number of electron      39.0000000 magnetization
 augmentation part        8.1783926 magnetization

 Broyden mixing:
  rms(total) = 0.37955E-01    rms(broyden)= 0.37955E-01
  rms(prec ) = 0.11927E+00
  weight for this iteration     100.00

 eigenvalues of (default mixing * dielectric matrix)
  average eigenvalue GAMMA=   1.2089
  2.7918  2.0329  1.3384  0.5269  0.5269  0.9096  0.9096  0.6349

 Free energy of the ion-electron system (eV)
  ---------------------------------------------------
  alpha Z        PSCENC =       199.36218625
  Ewald energy   TEWEN  =     -3502.29989139
  -Hartree energ DENC   =      -811.92566721
  -exchange      EXHF   =         0.00000000
  -V(xc)+E(xc)   XCENC  =        89.11506918
  PAW double counting   =      4038.08650355    -3970.02188112
  entropy T*S    EENTRO =        -0.00192679
  eigenvalues    EBANDS =      -161.28772836
  atomic energy  EATOM  =      4095.35208632
  Solvation  Ediel_sol  =         0.00000000
  ---------------------------------------------------
  free energy    TOTEN  =       -23.62124958 eV

  energy without entropy =      -23.61932279  energy(sigma->0) =      -23.62028619


--------------------------------------------------------------------------------------------------------




--------------------------------------- Iteration      1(  14)  ---------------------------------------


    POTLOK:  cpu time    0.0750: real time    0.1033
    SETDIJ:  cpu time    0.0897: real time    0.0899
     EDDAV:  cpu time    2.0218: real time    2.0221
       DOS:  cpu time    0.0030: real time    0.0033
    CHARGE:  cpu time    0.3036: real time    0.3038
    MIXING:  cpu time    0.0050: real time    0.0059
    --------------------------------------------
      LOOP:  cpu time    2.4982: real time    2.5288

 eigenvalue-minimisations  :  6056
 total energy-change (2. order) : 0.1650106E-02  (-0.1768175E-02)
 number of electron      39.0000000 magnetization
 augmentation part        8.1377874 magnetization

 Broyden mixing:
  rms(total) = 0.71570E-02    rms(broyden)= 0.71569E-02
  rms(prec ) = 0.20425E-01
  weight for this iteration     100.00

 eigenvalues of (default mixing * dielectric matrix)
  average eigenvalue GAMMA=   1.1801
  2.5076  2.2088  1.1984  1.1984  0.5269  0.5269  0.9073  0.9073  0.6396

 Free energy of the ion-electron system (eV)
  ---------------------------------------------------
  alpha Z        PSCENC =       199.36218625
  Ewald energy   TEWEN  =     -3502.29989139
  -Hartree energ DENC   =      -812.15938017
  -exchange      EXHF   =         0.00000000
  -V(xc)+E(xc)   XCENC  =        89.12514200
  PAW double counting   =      4043.63918791    -3975.53775687
  entropy T*S    EENTRO =        -0.00189222
  eigenvalues    EBANDS =      -161.09928130
  atomic energy  EATOM  =      4095.35208632
  Solvation  Ediel_sol  =         0.00000000
  ---------------------------------------------------
  free energy    TOTEN  =       -23.61959948 eV

  energy without entropy =      -23.61770725  energy(sigma->0) =      -23.61865336


--------------------------------------------------------------------------------------------------------




--------------------------------------- Iteration      1(  15)  ---------------------------------------


    POTLOK:  cpu time    0.0553: real time    0.0760
    SETDIJ:  cpu time    0.0907: real time    0.0908
     EDDAV:  cpu time    2.2845: real time    2.2849
       DOS:  cpu time    0.0031: real time    0.0036
    CHARGE:  cpu time    0.3025: real time    0.3026
    MIXING:  cpu time    0.0063: real time    0.0064
    --------------------------------------------
      LOOP:  cpu time    2.7425: real time    2.7634

 eigenvalue-minimisations  :  6904
 total energy-change (2. order) : 0.1790692E-04  (-0.7061565E-04)
 number of electron      39.0000000 magnetization
 augmentation part        8.1445504 magnetization

 Broyden mixing:
  rms(total) = 0.21301E-02    rms(broyden)= 0.21300E-02
  rms(prec ) = 0.45137E-02
  weight for this iteration     100.00

 eigenvalues of (default mixing * dielectric matrix)
  average eigenvalue GAMMA=   1.2208
  2.7030  2.1922  1.4710  1.4710  0.5269  0.5269  0.9905  0.9905  0.6408  0.6949

 Free energy of the ion-electron system (eV)
  ---------------------------------------------------
  alpha Z        PSCENC =       199.36218625
  Ewald energy   TEWEN  =     -3502.29989139
  -Hartree energ DENC   =      -812.08020112
  -exchange      EXHF   =         0.00000000
  -V(xc)+E(xc)   XCENC  =        89.12231746
  PAW double counting   =      4043.67792481    -3975.57934017
  entropy T*S    EENTRO =        -0.00191447
  eigenvalues    EBANDS =      -161.17274925
  atomic energy  EATOM  =      4095.35208632
  Solvation  Ediel_sol  =         0.00000000
  ---------------------------------------------------
  free energy    TOTEN  =       -23.61958157 eV

  energy without entropy =      -23.61766710  energy(sigma->0) =      -23.61862433


--------------------------------------------------------------------------------------------------------




--------------------------------------- Iteration      1(  16)  ---------------------------------------


    POTLOK:  cpu time    0.0544: real time    0.0767
    SETDIJ:  cpu time    0.0922: real time    0.0924
     EDDAV:  cpu time    2.0556: real time    2.0558
       DOS:  cpu time    0.0032: real time    0.0034
    CHARGE:  cpu time    0.3035: real time    0.3037
    MIXING:  cpu time    0.0059: real time    0.0124
    --------------------------------------------
      LOOP:  cpu time    2.5147: real time    2.5461

 eigenvalue-minimisations  :  6088
 total energy-change (2. order) :-0.5877092E-05  (-0.9563940E-05)
 number of electron      39.0000000 magnetization
 augmentation part        8.1473081 magnetization

 Broyden mixing:
  rms(total) = 0.14871E-02    rms(broyden)= 0.14871E-02
  rms(prec ) = 0.48361E-02
  weight for this iteration     100.00

 eigenvalues of (default mixing * dielectric matrix)
  average eigenvalue GAMMA=   1.2347
  2.6284  2.2931  1.6341  1.6341  0.5269  0.5269  1.0127  1.0127  0.6389  0.8369
  0.8369

 Free energy of the ion-electron system (eV)
  ---------------------------------------------------
  alpha Z        PSCENC =       199.36218625
  Ewald energy   TEWEN  =     -3502.29989139
  -Hartree energ DENC   =      -812.06216440
  -exchange      EXHF   =         0.00000000
  -V(xc)+E(xc)   XCENC  =        89.12173391
  PAW double counting   =      4043.87837434    -3975.77974362
  entropy T*S    EENTRO =        -0.00191838
  eigenvalues    EBANDS =      -161.19025047
  atomic energy  EATOM  =      4095.35208632
  Solvation  Ediel_sol  =         0.00000000
  ---------------------------------------------------
  free energy    TOTEN  =       -23.61958745 eV

  energy without entropy =      -23.61766906  energy(sigma->0) =      -23.61862825


--------------------------------------------------------------------------------------------------------




--------------------------------------- Iteration      1(  17)  ---------------------------------------


    POTLOK:  cpu time    0.0402: real time    0.0760
    SETDIJ:  cpu time    0.0904: real time    0.0907
     EDDAV:  cpu time    2.0211: real time    2.0215
       DOS:  cpu time    0.0033: real time    0.0035
    CHARGE:  cpu time    0.3026: real time    0.3027
    MIXING:  cpu time    0.0062: real time    0.0063
    --------------------------------------------
      LOOP:  cpu time    2.4638: real time    2.5011

 eigenvalue-minimisations  :  5976
 total energy-change (2. order) : 0.3161824E-05  (-0.3432570E-05)
 number of electron      39.0000000 magnetization
 augmentation part        8.1456853 magnetization

 Broyden mixing:
  rms(total) = 0.38143E-03    rms(broyden)= 0.38135E-03
  rms(prec ) = 0.81907E-03
  weight for this iteration     100.00

 eigenvalues of (default mixing * dielectric matrix)
  average eigenvalue GAMMA=   1.2730
  2.6151  2.6151  2.0596  0.5269  0.5269  1.3388  1.1745  1.1745  0.9251  0.9251
  0.6390  0.7558

 Free energy of the ion-electron system (eV)
  ---------------------------------------------------
  alpha Z        PSCENC =       199.36218625
  Ewald energy   TEWEN  =     -3502.29989139
  -Hartree energ DENC   =      -812.06597547
  -exchange      EXHF   =         0.00000000
  -V(xc)+E(xc)   XCENC  =        89.12221113
  PAW double counting   =      4044.27322760    -3976.17753060
  entropy T*S    EENTRO =        -0.00191504
  eigenvalues    EBANDS =      -161.18398308
  atomic energy  EATOM  =      4095.35208632
  Solvation  Ediel_sol  =         0.00000000
  ---------------------------------------------------
  free energy    TOTEN  =       -23.61958428 eV

  energy without entropy =      -23.61766925  energy(sigma->0) =      -23.61862677


--------------------------------------------------------------------------------------------------------




--------------------------------------- Iteration      1(  18)  ---------------------------------------


    POTLOK:  cpu time    0.0380: real time    0.0705
    SETDIJ:  cpu time    0.0905: real time    0.0906
     EDDAV:  cpu time    2.0099: real time    2.0102
       DOS:  cpu time    0.0032: real time    0.0035
    CHARGE:  cpu time    0.3034: real time    0.3036
    MIXING:  cpu time    0.0061: real time    0.0063
    --------------------------------------------
      LOOP:  cpu time    2.4510: real time    2.4830

 eigenvalue-minimisations  :  5920
 total energy-change (2. order) :-0.3530931E-07  (-0.2476798E-06)
 number of electron      39.0000000 magnetization
 augmentation part        8.1460356 magnetization

 Broyden mixing:
  rms(total) = 0.16653E-03    rms(broyden)= 0.16636E-03
  rms(prec ) = 0.47645E-03
  weight for this iteration     100.00

 eigenvalues of (default mixing * dielectric matrix)
  average eigenvalue GAMMA=   1.2957
  2.7127  2.7127  2.0395  1.4718  1.4718  0.5269  0.5269  0.6390  1.0220  1.0220
  1.0037  0.8477  0.8477

 Free energy of the ion-electron system (eV)
  ---------------------------------------------------
  alpha Z        PSCENC =       199.36218625
  Ewald energy   TEWEN  =     -3502.29989139
  -Hartree energ DENC   =      -812.06018599
  -exchange      EXHF   =         0.00000000
  -V(xc)+E(xc)   XCENC  =        89.12206521
  PAW double counting   =      4044.43615987    -3976.34218703
  entropy T*S    EENTRO =        -0.00191673
  eigenvalues    EBANDS =      -161.18790083
  atomic energy  EATOM  =      4095.35208632
  Solvation  Ediel_sol  =         0.00000000
  ---------------------------------------------------
  free energy    TOTEN  =       -23.61958432 eV

  energy without entropy =      -23.61766759  energy(sigma->0) =      -23.61862595


--------------------------------------------------------------------------------------------------------




[...]
  212              fftbas_plan_mpi                       0.082112                     12   6
  213                dfftw_execute                         0.036289                   36   7
  214                map_backward                          0.004825                   12   7
  215                  map_gather                            0.001369                  6   8
  216                  m_alltoallv_z                         0.002033                  6   8
  217                  map_scatter                           0.001128                  6   8
  218                map_forward                           0.037849                   12   7
  219                  map_gather                            0.019997                  6   8
  220                  m_alltoallv_z                         0.006087                  6   8
  221                  map_scatter                           0.011461                  6   8
  222            M_sumb_d                              0.008804                        6   5
  223          M_sumb_d                              0.000027                          1   4
  224        setdij_                               1.547313                           20   3
  225          fft3d_mpi                             0.290215                         40   4
  226            fftbas_plan_mpi                       0.268542                       40   5
  227              dfftw_execute                         0.116837                    120   6
  228              map_backward                          0.020534                     40   6
  229                map_gather                            0.004124                   20   7
  230                m_alltoallv_z                         0.011792                   20   7
  231                map_scatter                           0.003672                   20   7
  232              map_forward                           0.120666                     40   6
  233                map_gather                            0.059670                   20   7
  234                m_alltoallv_z                         0.020083                   20   7
  235                map_scatter                           0.039929                   20   7
  236          M_sumb_d                              0.022998                         20   4
  237        set_dd_magatom                        0.000003                            1   3
  238        set_dd_paw                            0.009080                            1   3
  239          set_rsgf_all                          0.000004                          1   4
  240          M_sumb_d                              0.008922                          8   4
  241        strkin                                0.000865                            1   3
  242          M_sumb_d                              0.000214                          1   4
  243        strelo                                0.003114                            1   3
  244          M_sumb_d                              0.000118                          2   4
  245        strenl                                1.147104                            1   3
  246          spher                                 0.841036                         19   4
  247          phase                                 0.013260                        189   4
  248          proj1                                 0.267658                       1134   4
  249            crexp_mul_wave                        0.033640                     3402   5
  250            M_sumb_d                              0.086082                     1134   5
  251          M_sumb_d                              0.002279                          1   4
  252        M_sumb_d                              0.000203                            6   3
  253        fft3d_mpi                             0.018150                           11   3
  254          fftbas_plan_mpi                       0.016833                         11   4
  255            dfftw_execute                         0.006180                       33   5
  256            map_forward                           0.003446                       10   5
  257              map_gather                            0.000607                      5   6
  258              m_alltoallv_z                         0.001453                      5   6
  259              map_scatter                           0.001141                      5   6
  260            map_backward                          0.004789                       12   5
  261              map_gather                            0.001189                      6   6
  262              m_alltoallv_z                         0.002229                      6   6
  263              map_scatter                           0.001083                      6   6
  264        ggaall_grid                           0.002076                            1   3
  265        forhar                                0.007410                            2   3
  266          M_sumb_d                              0.000261                          2   4
  267        strehar                               0.003180                            1   3
  268          M_sumb_d                              0.000188                          1   4
  269        chggra                                0.007311                            1   3
  270          fft3d_mpi                             0.004798                          3   4
  271            fftbas_plan_mpi                       0.004432                        3   5
  272              dfftw_execute                         0.001722                      9   6
  273              map_backward                          0.000753                      2   6
  274                map_gather                            0.000201                    1   7
  275                m_alltoallv_z                         0.000254                    1   7
  276                map_scatter                           0.000246                    1   7
  277              map_forward                           0.001276                      4   6
  278                map_gather                            0.000273                    2   7
  279                m_alltoallv_z                         0.000498                    2   7
  280                map_scatter                           0.000405                    2   7
  281          M_sumb_d                              0.000113                          3   4
  282        brmix                                 0.010135                            1   3
  283          M_sumb_d                              0.000212                          6   4
  284          brpre                                 0.000049                          1   4
  285          setg0                                 0.001709                          1   4
  286          broyd                                 0.002982                          1   4
  287            M_sumb_d                              0.000768                       21   5
  288            brget                                 0.000442                       79   5
  289            brsav                                 0.000099                       19   5
  290          M_bcast_z                             0.003989                          1   4
  291          M_bcast_d                             0.000076                          1   4
  292        M_bcast_d                             0.000052                            2   3
  293      potlok                                0.031245                              1   2
  294        fft3d_mpi                             0.021040                           13   3
  295          fftbas_plan_mpi                       0.019511                         13   4
  296            dfftw_execute                         0.007265                       39   5
  297            map_forward                           0.004706                       14   5
  298              map_gather                            0.000850                      8   6
  299              m_alltoallv_z                         0.001987                      8   6
  300              map_scatter                           0.001505                      8   6
  301            map_backward                          0.004804                       12   5
  302              map_gather                            0.001400                      6   6
  303              m_alltoallv_z                         0.001853                      6   6
  304              map_scatter                           0.001245                      6   6
  305        ggaall_grid                           0.002074                            1   3
  306        M_sumb_d                              0.000236                            6   3
  307        M_bcast_d                             0.000122                            1   3
  308      potlok_metagga                        0.000003                              1   2
  309      set_dd_magatom                        0.000003                              1   2
  310      set_dd_paw                            0.000510                              1   2
  311        set_rsgf_all                          0.000004                            1   3
  312        M_sumb_d                              0.000315                            8   3
  313      densta                                0.002638                              1   2
  314        M_sumb_d                              0.000882                           44   3
  315      lprj_proall                           0.000007                              1   2

 Flat profile
 ============

             routine name                   CPU           calls
 ---------------------------------------------------------------
 total_time                             14.808842           1
 dfftw_execute                           7.466095       62388
 eddav                                   6.654194          19
 fftbas_plan_mpi                         4.540287       20798
 M_sumb_d                                3.420555       56831
 setdij_                                 2.760531          43
 set_charge                              2.643000          15
 m_alltoallv_z                           2.154345       20827
 elmin                                   1.827063           1
 pdssyex_zheevx                          1.765584         399
 M_alltoall_d                            1.495204       68600
 proj1                                   1.195256        8234
 orth1                                   1.183782       14073
 vhamil                                  1.132893        9368
 gemm                                    1.070184       28104
 spher                                   0.984239          20
 fftwav_mpi                              0.942314       11089
 map_forward                             0.924217       22504
 map_scatter                             0.830981       20827
 map_gather                              0.826856       20827
 vnlac0                                  0.633428        9368
 redis_pw                                0.584686       26550
 M_bcast_z                               0.537356        7241
 hamiltmu                                0.520524        4684
 redis_proj                              0.510481       33545
 w1_copy                                 0.418462       28104
 fft3d_mpi                               0.349365       20796
 work_mul_crexp                          0.348931       28104
 map_backward                            0.333232       19088
 fftext_mpi                              0.318834        9368
 crpa_reader                             0.274293           1
 crexp_mul_wave                          0.264770       24702
 eccp                                    0.245456        2394
 kinhamil                                0.194631        9368
 overl                                   0.183850       16363
 M_bcast_d                               0.152372        4722
 pw_charge                               0.133549        1721
 potlok                                  0.125253          16
 overl1                                  0.114314        9368
 apply_precond                           0.099158        6974
 setup_precond                           0.081583        2394
 w1_projall                              0.076621        3487
 lincom                                  0.069327         420
 force_and_stress                        0.060825           1
 fornl                                   0.049679           1
 soft_charge                             0.045601          15
 phase                                   0.044679         631
 truncate_high_frequency_w1              0.039744       11762
 ggaall_grid                             0.034429          17
 densta                                  0.032729          20
 brmix                                   0.023736          15
 strenl                                  0.022871           1
 setg0                                   0.021285          16
 broyd                                   0.020394          15
 forhar                                  0.007149           2
 depsum                                  0.006398          15
 forloc                                  0.003676           1
 brget                                   0.003512         654
 strelo                                  0.002996           1
 strehar                                 0.002992           1
 set_dd_paw                              0.002720          17
 chggra                                  0.002400           1
 orthch                                  0.002164           1
 choleski                                0.001765          21
 proj                                    0.001598          21
 brgrid                                  0.001592           1
 brsav                                   0.001489         182
 brpre                                   0.000945          15
 strkin                                  0.000651           1
 fordep                                  0.000127           1
 potlok_metagga                          0.000092          16
 vectorpot                               0.000078          16
 set_rsgf_all                            0.000075          17
 set_dd_magatom                          0.000059          17
 set_kineden                             0.000053          14
 rotate_active_occupied_orbital          0.000015           1
 lprj_proall                             0.000007           1
 redis_pw_over_bands                     0.000004           1
 ---------------------------------------------------------------
  summed up times    65.6354289054871

 Accumulative profile
 ====================

             routine name                   CPU           calls
 ---------------------------------------------------------------
 total_time                             65.635429           1
 elmin                                  46.051020           1
 eddav                                  37.944043          19
 fft3d_mpi                              17.397725       20796
 fftbas_plan_mpi                        17.076013       20798
 hamiltmu                               12.003664        4684
 fftwav_mpi                              9.994077       11089
 kinhamil                                7.595865        9368
 dfftw_execute                           7.466095       62388
 fftext_mpi                              7.401234        9368
 set_charge                              4.608815          15
 force_and_stress                        3.664506           1
 setdij_                                 3.468177          43
 M_sumb_d                                3.420555       56831
 map_forward                             3.107575       22504
 vnlac0                                  2.640068        9368
 m_alltoallv_z                           2.154345       20827
 proj1                                   2.042802        8234
 map_backward                            1.962056       19088
 w1_projall                              1.823240        3487
 pdssyex_zheevx                          1.765584         399
 soft_charge                             1.695926          15
 M_alltoall_d                            1.495204       68600
 redis_pw                                1.433802       26550
 orth1                                   1.183782       14073
 redis_proj                              1.156570       33545
 strenl                                  1.147104           1
 vhamil                                  1.132893        9368
 gemm                                    1.070184       28104
 spher                                   0.984239          20
 map_scatter                             0.830981       20827
 map_gather                              0.826856       20827
 M_bcast_z                               0.537356        7241
 potlok                                  0.491709          16
 fordep                                  0.476152           1
 w1_copy                                 0.418462       28104
 eccp                                    0.383792        2394
 work_mul_crexp                          0.348931       28104
 crpa_reader                             0.274293           1
 crexp_mul_wave                          0.264770       24702
 set_dd_paw                              0.191823          17
 overl                                   0.183850       16363
 M_bcast_d                               0.152372        4722
 setup_precond                           0.140148        2394
 pw_charge                               0.133549        1721
 overl1                                  0.114314        9368
 apply_precond                           0.099158        6974
 brmix                                   0.095738          15
 lincom                                  0.069327         420
 fornl                                   0.066619           1
 densta                                  0.049149          20
 phase                                   0.044679         631
 truncate_high_frequency_w1              0.039744       11762
 orthch                                  0.034930           1
 ggaall_grid                             0.034429          17
 broyd                                   0.031506          15
 proj                                    0.030124          21
 setg0                                   0.021285          16
 depsum                                  0.012096          15
 forhar                                  0.007410           2
 chggra                                  0.007311           1
 forloc                                  0.003740           1
 brget                                   0.003512         654
 strehar                                 0.003180           1
 strelo                                  0.003114           1
 choleski                                0.001765          21
 brgrid                                  0.001592           1
 brsav                                   0.001489         182
 brpre                                   0.000945          15
 strkin                                  0.000865           1
 potlok_metagga                          0.000092          16
 vectorpot                               0.000078          16
 set_rsgf_all                            0.000075          17
 set_dd_magatom                          0.000059          17
 set_kineden                             0.000053          14
 rotate_active_occupied_orbital          0.000015           1
 lprj_proall                             0.000007           1
 redis_pw_over_bands                     0.000004           1
 ---------------------------------------------------------------

Profiling took   1.647086  1.960329  0.005884  0.004452 seconds
Profiling took   1.605296 seconds
