 ----------------------------------------------------
    OOO  PPPP  EEEEE N   N M   M PPPP
   O   O P   P E     NN  N MM MM P   P
   O   O PPPP  EEEEE N N N M M M PPPP   -- VERSION
   O   O P     E     N  NN M   M P
    OOO  P     EEEEE N   N M   M P
 ----------------------------------------------------
 running   64 mpi-ranks, with    1 threads/rank
 distrk:  each k-point on   16 cores,    4 groups
 distr:  one band on    4 cores,    4 groups
 using from now: INCAR
 vasp.6.0.8 29Jun18 (build Jun 13 2019 12:54:44) complex

 POSCAR found type information on POSCAR  U  Bi Pt
 POSCAR found :  3 types and       3 ions
 scaLAPACK will be used
 WARNING: PSMAXN for non-local potential too small

 -----------------------------------------------------------------------------
|                                                                             |
|  ADVICE TO THIS USER RUNNING 'VASP/VAMP'   (HEAR YOUR MASTER'S VOICE ...):  |
|                                                                             |
|      You enforced a specific xc-type in the INCAR file,                     |
|      a different type was found on the POTCAR file                          |
|          I HOPE YOU KNOW, WHAT YOU ARE  DOING                               |
|                                                                             |
 -----------------------------------------------------------------------------

 LDA part: xc-table for Pade appr. of Perdew
 POSCAR, INCAR and KPOINTS ok, starting setup
 FFT: planning ...
 WAVECAR not read
 entering main loop
       N       E                     dE             d eps       ncg     rms          rms(c)
 ELPA: falling back to scaLAPACK
 ELPA: falling back to scaLAPACK
 ELPA: falling back to scaLAPACK
 ELPA: falling back to scaLAPACK
DAV:   1     0.428492617874E+03    0.42849E+03   -0.22339E+04  4032   0.228E+03
DAV:   2     0.282528666839E+02   -0.40024E+03   -0.39275E+03  4544   0.495E+02
DAV:   3    -0.203936496365E+02   -0.48647E+02   -0.47474E+02  4904   0.176E+02
DAV:   4    -0.256897673936E+02   -0.52961E+01   -0.52701E+01  7800   0.451E+01
DAV:   5    -0.258680798617E+02   -0.17831E+00   -0.17811E+00  5448   0.713E+00    0.147E+01
DAV:   6    -0.349261045268E+02   -0.90580E+01   -0.22537E+02  6040   0.929E+01    0.220E+01
DAV:   7    -0.248670196179E+02    0.10059E+02   -0.27144E+01  5800   0.281E+01    0.111E+01
DAV:   8    -0.245922013618E+02    0.27482E+00   -0.40079E+01  5944   0.241E+01    0.938E+00
DAV:   9    -0.235975110693E+02    0.99469E+00   -0.10360E+01  6304   0.184E+01    0.163E+00
DAV:  10    -0.236983421202E+02   -0.10083E+00   -0.12779E+00  6480   0.460E+00    0.241E+00
DAV:  11    -0.236182954046E+02    0.80047E-01   -0.57871E-01  5944   0.348E+00    0.387E-01
DAV:  12    -0.236207554004E+02   -0.24600E-02   -0.50143E-02  7320   0.920E-01    0.432E-01
DAV:  13    -0.236212495815E+02   -0.49418E-03   -0.28453E-03  6328   0.228E-01    0.380E-01
DAV:  14    -0.236195994757E+02    0.16501E-02   -0.17682E-02  6056   0.611E-01    0.716E-02
DAV:  15    -0.236195815688E+02    0.17907E-04   -0.70616E-04  6904   0.146E-01    0.213E-02
DAV:  16    -0.236195874458E+02   -0.58771E-05   -0.95639E-05  6088   0.368E-02    0.149E-02
DAV:  17    -0.236195842840E+02    0.31618E-05   -0.34326E-05  5976   0.269E-02    0.381E-03
DAV:  18    -0.236195843193E+02   -0.35309E-07   -0.24768E-06  5920   0.843E-03    0.167E-03
DAV:  19    -0.236195843238E+02   -0.44911E-08   -0.10976E-07  3856   0.188E-03
   1 F= -.23619584E+02 E0= -.23618626E+02  d E =-.191660E-02
