<?xml version="1.0" encoding="ISO-8859-1"?>
<modeling>
 <generator>
  <i name="program" type="string">vasp </i>
  <i name="version" type="string">6.0.8  </i>
  <i name="subversion" type="string">29Jun18 (build Jun 13 2019 12:54:44) complex                          parallel </i>
  <i name="platform" type="string">IFC18_CrayMPICH </i>
  <i name="date" type="string">2021 12 05 </i>
  <i name="time" type="string">14:21:48 </i>
 </generator>
 <incar>
  <i type="int" name="KPAR">     4</i>
  <i type="int" name="NPAR">     4</i>
  <i type="int" name="ISTART">     0</i>
  <i type="string" name="PREC"> ACC</i>
  <i type="string" name="ALGO"> Normal</i>
  <i type="logical" name="ADDGRID"> T  </i>
  <i type="int" name="ISPIN">     1</i>
  <i type="int" name="NELMIN">     5</i>
  <i type="int" name="IBRION">    -1</i>
  <i name="EDIFF">      0.00000010</i>
  <i type="int" name="NSW">     0</i>
  <i type="int" name="ISIF">     3</i>
  <i name="ENCUT">    700.00000000</i>
  <i type="logical" name="LREAL"> F  </i>
  <i type="int" name="ISMEAR">     0</i>
  <i name="SIGMA">      0.01000000</i>
  <i type="logical" name="LWAVE"> F  </i>
  <i type="logical" name="LCHARG"> F  </i>
  <i type="logical" name="LVTOT"> F  </i>
  <i type="string" name="ALGO"> Normal</i>
  <i type="string" name="GGA"> PS</i>
  <i name="EDIFF">      0.00000010</i>
  <i type="int" name="ISPIN">     1</i>
 </incar>
 <structure name="primitive_cell" >
  <crystal>
   <varray name="basis" >
    <v>       0.00000000       3.40385179       3.40385179 </v>
    <v>       3.40385179       0.00000000       3.40385179 </v>
    <v>       3.40385179       3.40385179       0.00000000 </v>
   </varray>
   <i name="volume">     78.87546264 </i>
   <varray name="rec_basis" >
    <v>      -0.14689241       0.14689241       0.14689241 </v>
    <v>       0.14689241      -0.14689241       0.14689241 </v>
    <v>       0.14689241       0.14689241      -0.14689241 </v>
   </varray>
  </crystal>
  <varray name="positions" >
   <v>       0.25000000       0.25000000       0.25000000 </v>
   <v>       0.75000000       0.75000000       0.75000000 </v>
   <v>       0.00000000       0.00000000       0.00000000 </v>
  </varray>
 </structure>
 <varray name="primitive_index" >
  <v type="int" >        1 </v>
  <v type="int" >        2 </v>
  <v type="int" >        3 </v>
 </varray>
 <kpoints>
  <generation param="Gamma">
   <v type="int" name="divisions">      13       13       13 </v>
   <v name="usershift">      0.00000000       0.00000000       0.00000000 </v>
   <v name="genvec1">      0.07692308      -0.00000000       0.00000000 </v>
   <v name="genvec2">     -0.00000000       0.07692308      -0.00000000 </v>
   <v name="genvec3">      0.00000000       0.00000000       0.07692308 </v>
   <v name="shift">      0.00000000       0.00000000       0.00000000 </v>
  </generation>
  <varray name="kpointlist" >
   <v>       0.00000000       0.00000000       0.00000000 </v>
   <v>       0.07692308      -0.00000000       0.00000000 </v>
   <v>       0.15384615      -0.00000000       0.00000000 </v>
   <v>       0.23076923      -0.00000000       0.00000000 </v>
   <v>       0.30769231      -0.00000000       0.00000000 </v>
   <v>       0.38461538       0.00000000      -0.00000000 </v>
   <v>       0.46153846       0.00000000      -0.00000000 </v>
   <v>       0.07692308       0.07692308      -0.00000000 </v>
   <v>       0.15384615       0.07692308       0.00000000 </v>
   <v>       0.23076923       0.07692308       0.00000000 </v>
   <v>       0.30769231       0.07692308       0.00000000 </v>
   <v>       0.38461538       0.07692308       0.00000000 </v>
   <v>       0.46153846       0.07692308       0.00000000 </v>
   <v>      -0.46153846       0.07692308      -0.00000000 </v>
   <v>      -0.38461538       0.07692308       0.00000000 </v>
   <v>      -0.30769231       0.07692308       0.00000000 </v>
   <v>      -0.23076923       0.07692308       0.00000000 </v>
   <v>      -0.15384615       0.07692308      -0.00000000 </v>
   <v>      -0.07692308       0.07692308      -0.00000000 </v>
   <v>       0.15384615       0.15384615      -0.00000000 </v>
   <v>       0.23076923       0.15384615      -0.00000000 </v>
   <v>       0.30769231       0.15384615       0.00000000 </v>
   <v>       0.38461538       0.15384615       0.00000000 </v>
   <v>       0.46153846       0.15384615      -0.00000000 </v>
   <v>      -0.46153846       0.15384615      -0.00000000 </v>
   <v>      -0.38461538       0.15384615      -0.00000000 </v>
   <v>      -0.30769231       0.15384615       0.00000000 </v>
   <v>      -0.23076923       0.15384615       0.00000000 </v>
   <v>      -0.15384615       0.15384615      -0.00000000 </v>
   <v>       0.23076923       0.23076923      -0.00000000 </v>
   <v>       0.30769231       0.23076923      -0.00000000 </v>
   <v>       0.38461538       0.23076923       0.00000000 </v>
   <v>       0.46153846       0.23076923      -0.00000000 </v>
   <v>      -0.46153846       0.23076923       0.00000000 </v>
   <v>      -0.38461538       0.23076923       0.00000000 </v>
   <v>      -0.30769231       0.23076923      -0.00000000 </v>
   <v>      -0.23076923       0.23076923      -0.00000000 </v>
   <v>       0.30769231       0.30769231      -0.00000000 </v>
   <v>       0.38461538       0.30769231      -0.00000000 </v>
   <v>       0.46153846       0.30769231      -0.00000000 </v>
   <v>      -0.46153846       0.30769231       0.00000000 </v>
   <v>      -0.38461538       0.30769231       0.00000000 </v>
   <v>      -0.30769231       0.30769231      -0.00000000 </v>
   <v>       0.38461538       0.38461538      -0.00000000 </v>
   <v>       0.46153846       0.38461538      -0.00000000 </v>
   <v>      -0.46153846       0.38461538       0.00000000 </v>
   <v>      -0.38461538       0.38461538       0.00000000 </v>
   <v>       0.46153846       0.46153846      -0.00000000 </v>
   <v>      -0.46153846       0.46153846       0.00000000 </v>
   <v>       0.23076923       0.15384615       0.07692308 </v>
   <v>       0.30769231       0.15384615       0.07692308 </v>
   <v>       0.38461538       0.15384615       0.07692308 </v>
   <v>       0.46153846       0.15384615       0.07692308 </v>
   <v>      -0.46153846       0.15384615       0.07692308 </v>
   <v>       0.30769231       0.23076923       0.07692308 </v>
   <v>       0.38461538       0.23076923       0.07692308 </v>
   <v>       0.46153846       0.23076923       0.07692308 </v>
   <v>      -0.46153846       0.23076923       0.07692308 </v>
   <v>      -0.38461538       0.23076923       0.07692308 </v>
   <v>      -0.30769231       0.23076923       0.07692308 </v>
   <v>      -0.23076923       0.23076923       0.07692308 </v>
   <v>      -0.15384615       0.23076923       0.07692308 </v>
   <v>       0.38461538       0.30769231       0.07692308 </v>
   <v>       0.46153846       0.30769231       0.07692308 </v>
   <v>      -0.46153846       0.30769231       0.07692308 </v>
   <v>      -0.38461538       0.30769231       0.07692308 </v>
   <v>      -0.30769231       0.30769231       0.07692308 </v>
   <v>      -0.23076923       0.30769231       0.07692308 </v>
   <v>       0.46153846       0.38461538       0.07692308 </v>
   <v>      -0.46153846       0.38461538       0.07692308 </v>
   <v>      -0.38461538       0.38461538       0.07692308 </v>
   <v>      -0.30769231       0.38461538       0.07692308 </v>
   <v>      -0.46153846       0.46153846       0.07692308 </v>
   <v>      -0.38461538       0.46153846       0.07692308 </v>
   <v>       0.46153846       0.30769231       0.15384615 </v>
   <v>      -0.46153846       0.30769231       0.15384615 </v>
   <v>      -0.38461538       0.30769231       0.15384615 </v>
   <v>      -0.46153846       0.38461538       0.15384615 </v>
   <v>      -0.38461538       0.38461538       0.15384615 </v>
   <v>      -0.30769231       0.38461538       0.15384615 </v>
   <v>      -0.23076923       0.38461538       0.15384615 </v>
   <v>      -0.38461538       0.46153846       0.15384615 </v>
   <v>      -0.30769231       0.46153846       0.15384615 </v>
   <v>      -0.30769231       0.46153846       0.23076923 </v>
  </varray>
  <varray name="weights" >
   <v>       0.00045517 </v>
   <v>       0.00364133 </v>
   <v>       0.00364133 </v>
   <v>       0.00364133 </v>
   <v>       0.00364133 </v>
   <v>       0.00364133 </v>
   <v>       0.00364133 </v>
   <v>       0.00273100 </v>
   <v>       0.01092399 </v>
   <v>       0.01092399 </v>
   <v>       0.01092399 </v>
   <v>       0.01092399 </v>
   <v>       0.01092399 </v>
   <v>       0.01092399 </v>
   <v>       0.01092399 </v>
   <v>       0.01092399 </v>
   <v>       0.01092399 </v>
   <v>       0.01092399 </v>
   <v>       0.00546199 </v>
   <v>       0.00273100 </v>
   <v>       0.01092399 </v>
   <v>       0.01092399 </v>
   <v>       0.01092399 </v>
   <v>       0.01092399 </v>
   <v>       0.01092399 </v>
   <v>       0.01092399 </v>
   <v>       0.01092399 </v>
   <v>       0.01092399 </v>
   <v>       0.00546199 </v>
   <v>       0.00273100 </v>
   <v>       0.01092399 </v>
   <v>       0.01092399 </v>
   <v>       0.01092399 </v>
   <v>       0.01092399 </v>
   <v>       0.01092399 </v>
   <v>       0.01092399 </v>
   <v>       0.00546199 </v>
   <v>       0.00273100 </v>
   <v>       0.01092399 </v>
   <v>       0.01092399 </v>
   <v>       0.01092399 </v>
   <v>       0.01092399 </v>
   <v>       0.00546199 </v>
   <v>       0.00273100 </v>
   <v>       0.01092399 </v>
   <v>       0.01092399 </v>
   <v>       0.00546199 </v>
   <v>       0.00273100 </v>
   <v>       0.00546199 </v>
   <v>       0.01092399 </v>
   <v>       0.02184797 </v>
   <v>       0.02184797 </v>
   <v>       0.02184797 </v>
   <v>       0.02184797 </v>
   <v>       0.01092399 </v>
   <v>       0.02184797 </v>
   <v>       0.02184797 </v>
   <v>       0.02184797 </v>
   <v>       0.02184797 </v>
   <v>       0.02184797 </v>
   <v>       0.02184797 </v>
   <v>       0.01092399 </v>
   <v>       0.01092399 </v>
   <v>       0.02184797 </v>
   <v>       0.02184797 </v>
   <v>       0.02184797 </v>
   <v>       0.02184797 </v>
   <v>       0.01092399 </v>
   <v>       0.01092399 </v>
   <v>       0.02184797 </v>
   <v>       0.02184797 </v>
   <v>       0.01092399 </v>
   <v>       0.01092399 </v>
   <v>       0.01092399 </v>
   <v>       0.01092399 </v>
   <v>       0.02184797 </v>
   <v>       0.02184797 </v>
   <v>       0.01092399 </v>
   <v>       0.02184797 </v>
   <v>       0.02184797 </v>
   <v>       0.01092399 </v>
   <v>       0.01092399 </v>
   <v>       0.01092399 </v>
   <v>       0.01092399 </v>
  </varray>
 </kpoints>
 <parameters>
  <separator name="general" >
   <i type="string" name="SYSTEM">unknown system</i>
   <i type="logical" name="LCOMPAT"> F  </i>
  </separator>
  <separator name="electronic" >
   <i type="string" name="PREC">acc</i>
   <i name="ENMAX">    700.00000000</i>
   <i name="ENAUG">    526.41000000</i>
   <i name="EDIFF">      0.00000010</i>
   <i type="int" name="IALGO">    38</i>
   <i type="int" name="IWAVPR">    10</i>
   <i type="int" name="NBANDS">    24</i>
   <i type="int" name="NBANDSLOW">    -1</i>
   <i type="int" name="NBANDSHIGH">    -1</i>
   <i name="NELECT">     39.00000000</i>
   <i type="int" name="TURBO">     0</i>
   <i type="int" name="IRESTART">     0</i>
   <i type="int" name="NREBOOT">     0</i>
   <i type="int" name="NMIN">     0</i>
   <i name="EREF">      0.00000000</i>
   <separator name="electronic smearing" >
    <i type="int" name="ISMEAR">     0</i>
    <i name="SIGMA">      0.01000000</i>
    <i name="KSPACING">      0.50000000</i>
    <i type="logical" name="KGAMMA"> T  </i>
    <i type="logical" name="KBLOWUP"> T  </i>
   </separator>
   <separator name="electronic projectors" >
    <i type="logical" name="LREAL"> F  </i>
    <v name="ROPT">      0.00000000      0.00000000      0.00000000</v>
    <i type="int" name="LMAXPAW">  -100</i>
    <i type="int" name="LMAXMIX">     2</i>
    <i type="logical" name="NLSPLINE"> F  </i>
   </separator>
   <separator name="electronic startup" >
    <i type="int" name="ISTART">     0</i>
    <i type="int" name="ICHARG">     2</i>
    <i type="int" name="INIWAV">     1</i>
   </separator>
   <separator name="electronic spin" >
    <i type="int" name="ISPIN">     1</i>
    <i type="logical" name="LNONCOLLINEAR"> F  </i>
    <v name="MAGMOM">      1.00000000      1.00000000      1.00000000</v>
    <i name="NUPDOWN">     -1.00000000</i>
    <i type="logical" name="LSORBIT"> F  </i>
    <v name="SAXIS">      0.00000000      0.00000000      1.00000000</v>
    <i type="logical" name="LSPIRAL"> F  </i>
    <v name="QSPIRAL">      0.00000000      0.00000000      0.00000000</v>
    <i type="logical" name="LZEROZ"> F  </i>
   </separator>
   <separator name="electronic exchange-correlation" >
    <i type="logical" name="LASPH"> F  </i>
    <i type="logical" name="LMETAGGA"> F  </i>
   </separator>
   <separator name="electronic convergence" >
    <i type="int" name="NELM">    60</i>
    <i type="int" name="NELMDL">    -5</i>
    <i type="int" name="NELMIN">     5</i>
    <i name="ENINI">    700.00000000</i>
    <separator name="electronic convergence detail" >
     <i type="logical" name="LDIAG"> T  </i>
     <i type="logical" name="LSUBROT"> F  </i>
     <i name="WEIMIN">      0.00000000</i>
     <i name="EBREAK">      0.00000000</i>
     <i name="DEPER">      0.30000000</i>
     <i type="int" name="NRMM">     4</i>
     <i name="TIME">      0.40000000</i>
    </separator>
   </separator>
   <separator name="electronic mixer" >
    <i name="AMIX">      0.40000000</i>
    <i name="BMIX">      1.00000000</i>
    <i name="AMIN">      0.10000000</i>
    <i name="AMIX_MAG">      1.60000000</i>
    <i name="BMIX_MAG">      1.00000000</i>
    <separator name="electronic mixer details" >
     <i type="int" name="IMIX">     4</i>
     <i type="logical" name="MIXFIRST"> F  </i>
     <i type="int" name="MAXMIX">   -45</i>
     <i name="WC">    100.00000000</i>
     <i type="int" name="INIMIX">     1</i>
     <i type="int" name="MIXPRE">     1</i>
     <i type="int" name="MREMOVE">     5</i>
    </separator>
   </separator>
   <separator name="electronic dipolcorrection" >
    <i type="logical" name="LDIPOL"> F  </i>
    <i type="logical" name="LMONO"> F  </i>
    <i type="int" name="IDIPOL">     0</i>
    <i name="EPSILON">      1.00000000</i>
    <v name="DIPOL">   -100.00000000   -100.00000000   -100.00000000</v>
    <i name="EFIELD">      0.00000000</i>
   </separator>
  </separator>
  <separator name="grids" >
   <i type="int" name="NGX">    42</i>
   <i type="int" name="NGY">    42</i>
   <i type="int" name="NGZ">    42</i>
   <i type="int" name="NGXF">    84</i>
   <i type="int" name="NGYF">    84</i>
   <i type="int" name="NGZF">    84</i>
   <i type="logical" name="ADDGRID"> T  </i>
  </separator>
  <separator name="ionic" >
   <i type="int" name="NSW">     0</i>
   <i type="int" name="IBRION">    -1</i>
   <i type="int" name="MDALGO">     0</i>
   <i type="int" name="ISIF">     3</i>
   <i name="PSTRESS">      0.00000000</i>
   <i name="EDIFFG">      0.00000100</i>
   <i type="int" name="NFREE">     0</i>
   <i name="POTIM">      0.50000000</i>
   <i name="SMASS">     -3.00000000</i>
   <i name="SCALEE">      1.00000000</i>
  </separator>
  <separator name="ionic md" >
   <i name="TEBEG">      0.00010000</i>
   <i name="TEEND">      0.00010000</i>
   <i type="int" name="NBLOCK">     1</i>
   <i type="int" name="KBLOCK">     1</i>
   <i type="int" name="NPACO">   256</i>
   <i name="APACO">     16.00000000</i>
  </separator>
  <separator name="symmetry" >
   <i type="int" name="ISYM">     2</i>
   <i name="SYMPREC">      0.00001000</i>
  </separator>
  <separator name="dos" >
   <i type="int" name="LORBIT">     0</i>
   <v name="RWIGS">     -1.00000000     -1.00000000     -1.00000000</v>
   <i type="int" name="NEDOS">   301</i>
   <i name="EMIN">     10.00000000</i>
   <i name="EMAX">    -10.00000000</i>
   <i name="EFERMI">      0.00000000</i>
  </separator>
  <separator name="writing" >
   <i type="int" name="NWRITE">     2</i>
   <i type="logical" name="LWAVE"> F  </i>
   <i type="logical" name="LDOWNSAMPLE"> F  </i>
   <i type="logical" name="LCHARG"> F  </i>
   <i type="logical" name="LPARD"> F  </i>
   <i type="logical" name="LVTOT"> F  </i>
   <i type="logical" name="LVHAR"> F  </i>
   <i type="logical" name="LELF"> F  </i>
   <i type="logical" name="LOPTICS"> F  </i>
   <v name="STM">      0.00000000      0.00000000      0.00000000      0.00000000      0.00000000      0.00000000      0.00000000</v>
  </separator>
  <separator name="performance" >
   <i type="int" name="NPAR">     4</i>
   <i type="int" name="NSIM">     4</i>
   <i type="int" name="NBLK">    -1</i>
   <i type="logical" name="LPLANE"> T  </i>
   <i type="logical" name="LSCALAPACK"> T  </i>
   <i type="logical" name="LSCAAWARE"> F  </i>
   <i type="logical" name="LSCALU"> F  </i>
   <i type="logical" name="LASYNC"> F  </i>
   <i type="logical" name="LORBITALREAL"> F  </i>
  </separator>
  <separator name="miscellaneous" >
   <i type="int" name="IDIOT">     3</i>
   <i type="int" name="PHON_NSTRUCT">    -1</i>
   <i type="logical" name="LMUSIC"> F  </i>
   <v name="POMASS">    238.02900000    208.98000000    195.08000000</v>
   <v name="DARWINR">      0.00000000      0.00000000      0.00000000</v>
   <v name="DARWINV">      1.00000000      1.00000000      1.00000000</v>
   <i type="logical" name="LCORR"> T  </i>
  </separator>
  <i type="logical" name="GGA_COMPAT"> T  </i>
  <i type="logical" name="LBERRY"> F  </i>
  <i type="int" name="ICORELEVEL">     0</i>
  <i type="logical" name="LDAU"> F  </i>
  <i type="int" name="I_CONSTRAINED_M">     0</i>
  <separator name="electronic exchange-correlation" >
   <i type="string" name="GGA">PS</i>
   <i type="int" name="VOSKOWN">     0</i>
   <i type="logical" name="LHFCALC"> F  </i>
   <i type="string" name="PRECFOCK"></i>
   <i type="logical" name="LSYMGRAD"> F  </i>
   <i type="logical" name="LHFONE"> F  </i>
   <i type="logical" name="LRHFCALC"> F  </i>
   <i type="logical" name="LTHOMAS"> F  </i>
   <i type="logical" name="LMODELHF"> F  </i>
   <i type="logical" name="LFOCKACE"> F  </i>
   <i name="ENCUT4O">     -1.00000000</i>
   <i type="int" name="EXXOEP">     0</i>
   <i type="int" name="FOURORBIT">     0</i>
   <i name="AEXX">      0.00000000</i>
   <i name="HFALPHA">      0.00000000</i>
   <i name="MCALPHA">      0.00000000</i>
   <i name="ALDAX">      1.00000000</i>
   <i name="AGGAX">      1.00000000</i>
   <i name="ALDAC">      1.00000000</i>
   <i name="AGGAC">      1.00000000</i>
   <i type="int" name="NKREDX">     1</i>
   <i type="int" name="NKREDY">     1</i>
   <i type="int" name="NKREDZ">     1</i>
   <i type="logical" name="SHIFTRED"> F  </i>
   <i type="logical" name="ODDONLY"> F  </i>
   <i type="logical" name="EVENONLY"> F  </i>
   <i type="int" name="LMAXFOCK">     0</i>
   <i type="int" name="NMAXFOCKAE">     0</i>
   <i type="logical" name="LFOCKAEDFT"> F  </i>
   <i name="HFSCREEN">      0.00000000</i>
   <i name="HFSCREENC">      0.00000000</i>
   <i type="int" name="NBANDSGWLOW">     0</i>
  </separator>
  <separator name="vdW DFT" >
   <i type="logical" name="LUSE_VDW"> F  </i>
   <i name="Zab_VDW">     -0.84910000</i>
   <i name="PARAM1">      0.12340000</i>
   <i name="PARAM2">      1.00000000</i>
   <i name="PARAM3">      0.00000000</i>
  </separator>
  <separator name="model GW" >
   <i type="int" name="MODEL_GW">     0</i>
   <i name="MODEL_EPS0">     15.77509253</i>
   <i name="MODEL_ALPHA">      1.00000000</i>
  </separator>
  <separator name="linear response parameters" >
   <i type="logical" name="LEPSILON"> F  </i>
   <i type="logical" name="LRPA"> F  </i>
   <i type="logical" name="LNABLA"> F  </i>
   <i type="logical" name="LVEL"> F  </i>
   <i type="int" name="KINTER">     0</i>
   <i name="CSHIFT">      0.10000000</i>
   <i name="OMEGAMAX">     -1.00000000</i>
   <i name="DEG_THRESHOLD">      0.00200000</i>
   <i name="RTIME">     -0.10000000</i>
   <i name="WPLASMAI">      0.00000000</i>
   <v name="DFIELD">      0.00000000      0.00000000      0.00000000</v>
   <v name="WPLASMA">      0.00000000      0.00000000      0.00000000      0.00000000      0.00000000      0.00000000      0.00000000      0.00000000      0.00000000</v>
  </separator>
  <separator name="orbital magnetization" >
   <i type="logical" name="NUCIND"> F  </i>
   <v name="MAGPOS">      0.00000000      0.00000000      0.00000000</v>
   <i type="logical" name="LNICSALL"> T  </i>
   <i type="logical" name="ORBITALMAG"> F  </i>
   <i type="logical" name="LMAGBLOCH"> F  </i>
   <i type="logical" name="LCHIMAG"> F  </i>
   <i type="logical" name="LGAUGE"> T  </i>
   <i type="int" name="MAGATOM">     0</i>
   <v name="MAGDIPOL">      0.00000000      0.00000000      0.00000000</v>
   <v name="AVECCONST">      0.00000000      0.00000000      0.00000000</v>
  </separator>
  <separator name="response functions" >
   <i type="logical" name="LFINITE_TEMPERATURE"> F  </i>
   <i type="logical" name="LADDER"> F  </i>
   <i type="logical" name="LRPAFORCE"> F  </i>
   <i type="logical" name="LFXC"> F  </i>
   <i type="logical" name="LHARTREE"> T  </i>
   <i type="int" name="IBSE">     0</i>
   <v type="int" name="KPOINT">    -1     0     0     0</v>
   <i type="logical" name="LTCTC"> F  </i>
   <i type="logical" name="LTCTE"> F  </i>
   <i type="logical" name="LTETE"> F  </i>
   <i type="logical" name="LTRIPLET"> F  </i>
   <i type="logical" name="LFXCEPS"> F  </i>
   <i type="logical" name="LFXHEG"> F  </i>
   <i type="int" name="NATURALO">     2</i>
   <i type="logical" name="L2ORDER"> F  </i>
   <i type="logical" name="LDMP1"> F  </i>
   <i type="logical" name="LMP2LT"> F  </i>
   <i type="logical" name="LSMP2LT"> F  </i>
   <i type="logical" name="LUSEW"> F  </i>
   <i name="ENCUTGW">     -2.00000000</i>
   <i name="ENCUTGWSOFT">     -2.00000000</i>
   <i name="ENCUTLF">     -1.00000000</i>
   <i type="int" name="LMAXMP2">    -1</i>
   <i name="SCISSOR">      0.00000000</i>
   <i type="int" name="NOMEGA">     0</i>
   <i type="int" name="NOMEGAR">     0</i>
   <i type="int" name="NBANDSGW">    -1</i>
   <i type="int" name="NBANDSO">    -1</i>
   <i type="int" name="NBANDSV">    -1</i>
   <i type="int" name="NELM">     1</i>
   <i type="int" name="NELMHF">     1</i>
   <i type="int" name="DIM">     3</i>
   <i type="int" name="IESPILON">     4</i>
   <i type="int" name="ANTIRES">     0</i>
   <i name="OMEGAMAX">    -30.00000000</i>
   <i name="OMEGAMIN">    -30.00000000</i>
   <i name="OMEGATL">   -200.00000000</i>
   <i type="int" name="OMEGAGRID">   145</i>
   <i name="CSHIFT">     -0.10000000</i>
   <i type="logical" name="LSELFENERGY"> F  </i>
   <i type="logical" name="LSPECTRAL"> F  </i>
   <i type="logical" name="LSPECTRALGW"> F  </i>
   <i type="logical" name="LSINGLES"> F  </i>
   <i type="logical" name="LFERMIGW"> F  </i>
   <i type="logical" name="ODDONLYGW"> F  </i>
   <i type="logical" name="EVENONLYGW"> F  </i>
   <i type="int" name="NKREDLFX">     1</i>
   <i type="int" name="NKREDLFY">     1</i>
   <i type="int" name="NKREDLFZ">     1</i>
   <i type="int" name="MAXMEM">  2800</i>
   <i type="int" name="TELESCOPE">     0</i>
   <i type="int" name="NTAUPAR">     1</i>
   <i type="int" name="NOMEGAPAR">    -1</i>
   <i name="LAMBDA">      1.00000000</i>
  </separator>
  <separator name="External order field" >
   <i name="OFIELD_KAPPA">      0.00000000</i>
   <v name="OFIELD_K">      0.00000000      0.00000000      0.00000000</v>
   <i name="OFIELD_Q6_NEAR">      0.00000000</i>
   <i name="OFIELD_Q6_FAR">      0.00000000</i>
   <i name="OFIELD_A">      0.00000000</i>
  </separator>
 </parameters>
 <atominfo>
  <atoms>       3 </atoms>
  <types>       3 </types>
  <array name="atoms" >
   <dimension dim="1">ion</dimension>
   <field type="string">element</field>
   <field type="int">atomtype</field>
   <set>
    <rc><c>U </c><c>   1</c></rc>
    <rc><c>Bi</c><c>   2</c></rc>
    <rc><c>Pt</c><c>   3</c></rc>
   </set>
  </array>
  <array name="atomtypes" >
   <dimension dim="1">type</dimension>
   <field type="int">atomspertype</field>
   <field type="string">element</field>
   <field>mass</field>
   <field>valence</field>
   <field type="string">pseudopotential</field>
   <set>
    <rc><c>   1</c><c>U </c><c>    238.02900000</c><c>     14.00000000</c><c>  PAW_PBE U 06Sep2000                   </c></rc>
    <rc><c>   1</c><c>Bi</c><c>    208.98000000</c><c>     15.00000000</c><c>  PAW_PBE Bi_d 06Sep2000                </c></rc>
    <rc><c>   1</c><c>Pt</c><c>    195.08000000</c><c>     10.00000000</c><c>  PAW_PBE Pt 04Feb2005                  </c></rc>
   </set>
  </array>
 </atominfo>
 <structure name="initialpos" >
  <crystal>
   <varray name="basis" >
    <v>       0.00000000       3.40385179       3.40385179 </v>
    <v>       3.40385179       0.00000000       3.40385179 </v>
    <v>       3.40385179       3.40385179       0.00000000 </v>
   </varray>
   <i name="volume">     78.87546264 </i>
   <varray name="rec_basis" >
    <v>      -0.14689241       0.14689241       0.14689241 </v>
    <v>       0.14689241      -0.14689241       0.14689241 </v>
    <v>       0.14689241       0.14689241      -0.14689241 </v>
   </varray>
  </crystal>
  <varray name="positions" >
   <v>       0.25000000       0.25000000       0.25000000 </v>
   <v>       0.75000000       0.75000000       0.75000000 </v>
   <v>       0.00000000       0.00000000       0.00000000 </v>
  </varray>
 </structure>
 <calculation>
  <scstep>
   <time name="dav">    1.52    1.55</time>
   <time name="total">    1.67    1.78</time>
   <energy>
    <i name="alphaZ">    199.36218625 </i>
    <i name="ewald">  -3502.29989139 </i>
    <i name="hartreedc">   -823.31844468 </i>
    <i name="XCdc">     89.45036869 </i>
    <i name="pawpsdc">   3513.29252893 </i>
    <i name="pawaedc">  -3436.88002192 </i>
    <i name="eentropy">     -0.00012057 </i>
    <i name="bandstr">    293.53392625 </i>
    <i name="atom">   4095.35208632 </i>
    <i name="e_fr_energy">    428.49261787 </i>
    <i name="e_wo_entrp">    428.49273844 </i>
    <i name="e_0_energy">    428.49267816 </i>
   </energy>
  </scstep>
  <scstep>
   <time name="dav">    1.67    1.90</time>
   <time name="total">    1.68    1.91</time>
   <energy>
    <i name="e_fr_energy">     28.25286668 </i>
    <i name="e_wo_entrp">     28.25324415 </i>
    <i name="e_0_energy">     28.25305542 </i>
   </energy>
  </scstep>
  <scstep>
   <time name="dav">    1.78    1.82</time>
   <time name="total">    1.79    1.83</time>
   <energy>
    <i name="e_fr_energy">    -20.39364964 </i>
    <i name="e_wo_entrp">    -20.39290503 </i>
    <i name="e_0_energy">    -20.39327733 </i>
   </energy>
  </scstep>
  <scstep>
   <time name="dav">    2.52    2.55</time>
   <time name="total">    2.53    2.55</time>
   <energy>
    <i name="e_fr_energy">    -25.68976739 </i>
    <i name="e_wo_entrp">    -25.68870910 </i>
    <i name="e_0_energy">    -25.68923825 </i>
   </energy>
  </scstep>
  <scstep>
   <time name="dav">    1.88    1.91</time>
   <time name="total">    2.24    2.28</time>
   <energy>
    <i name="e_fr_energy">    -25.86807986 </i>
    <i name="e_wo_entrp">    -25.86688997 </i>
    <i name="e_0_energy">    -25.86748492 </i>
   </energy>
  </scstep>
  <scstep>
   <time name="dav">    2.04    2.04</time>
   <time name="total">    2.50    2.53</time>
   <energy>
    <i name="e_fr_energy">    -34.92610453 </i>
    <i name="e_wo_entrp">    -34.92604140 </i>
    <i name="e_0_energy">    -34.92607296 </i>
   </energy>
  </scstep>
  <scstep>
   <time name="dav">    1.96    1.96</time>
   <time name="total">    2.41    2.45</time>
   <energy>
    <i name="e_fr_energy">    -24.86701962 </i>
    <i name="e_wo_entrp">    -24.86630437 </i>
    <i name="e_0_energy">    -24.86666200 </i>
   </energy>
  </scstep>
  <scstep>
   <time name="dav">    1.99    1.99</time>
   <time name="total">    2.47    2.49</time>
   <energy>
    <i name="e_fr_energy">    -24.59220136 </i>
    <i name="e_wo_entrp">    -24.59093800 </i>
    <i name="e_0_energy">    -24.59156968 </i>
   </energy>
  </scstep>
  <scstep>
   <time name="dav">    2.11    2.11</time>
   <time name="total">    2.55    2.59</time>
   <energy>
    <i name="e_fr_energy">    -23.59751107 </i>
    <i name="e_wo_entrp">    -23.59608628 </i>
    <i name="e_0_energy">    -23.59679867 </i>
   </energy>
  </scstep>
  <scstep>
   <time name="dav">    2.13    2.13</time>
   <time name="total">    2.57    2.62</time>
   <energy>
    <i name="e_fr_energy">    -23.69834212 </i>
    <i name="e_wo_entrp">    -23.69702453 </i>
    <i name="e_0_energy">    -23.69768333 </i>
   </energy>
  </scstep>
  <scstep>
   <time name="dav">    2.00    2.00</time>
   <time name="total">    2.48    2.50</time>
   <energy>
    <i name="e_fr_energy">    -23.61829540 </i>
    <i name="e_wo_entrp">    -23.61651789 </i>
    <i name="e_0_energy">    -23.61740665 </i>
   </energy>
  </scstep>
  <scstep>
   <time name="dav">    2.39    2.40</time>
   <time name="total">    2.88    2.93</time>
   <energy>
    <i name="e_fr_energy">    -23.62075540 </i>
    <i name="e_wo_entrp">    -23.61885749 </i>
    <i name="e_0_energy">    -23.61980644 </i>
   </energy>
  </scstep>
  <scstep>
   <time name="dav">    2.11    2.11</time>
   <time name="total">    2.60    2.66</time>
   <energy>
    <i name="e_fr_energy">    -23.62124958 </i>
    <i name="e_wo_entrp">    -23.61932279 </i>
    <i name="e_0_energy">    -23.62028619 </i>
   </energy>
  </scstep>
  <scstep>
   <time name="dav">    2.02    2.02</time>
   <time name="total">    2.50    2.53</time>
   <energy>
    <i name="e_fr_energy">    -23.61959948 </i>
    <i name="e_wo_entrp">    -23.61770725 </i>
    <i name="e_0_energy">    -23.61865336 </i>
   </energy>
  </scstep>
  <scstep>
   <time name="dav">    2.28    2.28</time>
   <time name="total">    2.74    2.76</time>
   <energy>
    <i name="e_fr_energy">    -23.61958157 </i>
    <i name="e_wo_entrp">    -23.61766710 </i>
    <i name="e_0_energy">    -23.61862433 </i>
   </energy>
  </scstep>
  <scstep>
   <time name="dav">    2.06    2.06</time>
   <time name="total">    2.51    2.55</time>
   <energy>
    <i name="e_fr_energy">    -23.61958745 </i>
    <i name="e_wo_entrp">    -23.61766906 </i>
    <i name="e_0_energy">    -23.61862825 </i>
   </energy>
  </scstep>
  <scstep>
   <time name="dav">    2.02    2.02</time>
   <time name="total">    2.46    2.50</time>
   <energy>
    <i name="e_fr_energy">    -23.61958428 </i>
    <i name="e_wo_entrp">    -23.61766925 </i>
    <i name="e_0_energy">    -23.61862677 </i>
   </energy>
  </scstep>
  <scstep>
   <time name="dav">    2.01    2.01</time>
   <time name="total">    2.45    2.48</time>
   <energy>
    <i name="e_fr_energy">    -23.61958432 </i>
    <i name="e_wo_entrp">    -23.61766759 </i>
    <i name="e_0_energy">    -23.61862595 </i>
   </energy>
  </scstep>
  <scstep>
   <time name="dav">    1.49    1.49</time>
   <time name="total">    1.64    1.66</time>
   <energy>
    <i name="alphaZ">    199.36218625 </i>
    <i name="ewald">  -3502.29989139 </i>
    <i name="hartreedc">   -812.06195596 </i>
    <i name="XCdc">     89.12211230 </i>
    <i name="pawpsdc">   4044.48815768 </i>
    <i name="pawaedc">  -3976.39394627 </i>
    <i name="eentropy">     -0.00191660 </i>
    <i name="bandstr">   -161.18641665 </i>
    <i name="atom">   4095.35208632 </i>
    <i name="e_fr_energy">    -23.61958432 </i>
    <i name="e_wo_entrp">    -23.61766772 </i>
    <i name="e_0_energy">    -23.61862602 </i>
   </energy>
  </scstep>
  <structure>
   <crystal>
    <varray name="basis" >
     <v>       0.00000000       3.40385179       3.40385179 </v>
     <v>       3.40385179       0.00000000       3.40385179 </v>
     <v>       3.40385179       3.40385179       0.00000000 </v>
    </varray>
    <i name="volume">     78.87546264 </i>
    <varray name="rec_basis" >
     <v>      -0.14689241       0.14689241       0.14689241 </v>
     <v>       0.14689241      -0.14689241       0.14689241 </v>
     <v>       0.14689241       0.14689241      -0.14689241 </v>
    </varray>
   </crystal>
   <varray name="positions" >
    <v>       0.25000000       0.25000000       0.25000000 </v>
    <v>       0.75000000       0.75000000       0.75000000 </v>
    <v>       0.00000000       0.00000000       0.00000000 </v>
   </varray>
  </structure>
  <varray name="forces" >
   <v>       0.00000000      -0.00000000       0.00000000 </v>
   <v>       0.00000000      -0.00000000       0.00000000 </v>
   <v>      -0.00000000       0.00000000      -0.00000000 </v>
  </varray>
  <varray name="stress" >
   <v>     -76.44171683       0.00000000       0.00000000 </v>
   <v>       0.00000000     -76.44171683       0.00000000 </v>
   <v>       0.00000000       0.00000000     -76.44171683 </v>
  </varray>
  <energy>
   <i name="e_fr_energy">    -23.61958432 </i>
   <i name="e_wo_entrp">    -23.61862602 </i>
   <i name="e_0_energy">     -0.00191660 </i>
  </energy>
  <time name="totalsc">   48.60   49.91</time>
  <eigenvalues>
   <array>
    <dimension dim="1">band</dimension>
    <dimension dim="2">kpoint</dimension>
    <dimension dim="3">spin</dimension>
    <field>eigene</field>
    <field>occ</field>
    <set>
     <set comment="spin 1">
      <set comment="kpoint 1">
       <r>  -35.1198    1.0000 </r>
       <r>  -13.7304    1.0000 </r>
       <r>  -13.7304    1.0000 </r>
       <r>  -13.7061    1.0000 </r>
       <r>  -13.7061    1.0000 </r>
       <r>  -13.7061    1.0000 </r>
       <r>  -10.3489    1.0000 </r>
       <r>  -10.3489    1.0000 </r>
       <r>  -10.3489    1.0000 </r>
       <r>   -3.0390    1.0000 </r>
       <r>    4.7737    1.0000 </r>
       <r>    4.7737    1.0000 </r>
       <r>    4.7737    1.0000 </r>
       <r>    5.0828    1.0000 </r>
       <r>    5.0828    1.0000 </r>
       <r>    7.2279    1.0000 </r>
       <r>    8.0163    1.0000 </r>
       <r>    8.0163    1.0000 </r>
       <r>    8.0163    1.0000 </r>
       <r>    9.0949    0.0000 </r>
       <r>    9.0949    0.0000 </r>
       <r>    9.0949    0.0000 </r>
       <r>    9.0960    0.0000 </r>
       <r>    9.2640    0.0000 </r>
      </set>
      <set comment="kpoint 2">
       <r>  -35.1197    1.0000 </r>
       <r>  -13.7315    1.0000 </r>
       <r>  -13.7315    1.0000 </r>
       <r>  -13.7063    1.0000 </r>
       <r>  -13.7059    1.0000 </r>
       <r>  -13.7059    1.0000 </r>
       <r>  -10.3591    1.0000 </r>
       <r>  -10.3467    1.0000 </r>
       <r>  -10.3467    1.0000 </r>
       <r>   -2.9835    1.0000 </r>
       <r>    4.6453    1.0000 </r>
       <r>    4.6873    1.0000 </r>
       <r>    4.6873    1.0000 </r>
       <r>    5.1638    1.0000 </r>
       <r>    5.1638    1.0000 </r>
       <r>    6.9856    1.0000 </r>
       <r>    7.9624    1.0000 </r>
       <r>    7.9624    1.0000 </r>
       <r>    8.1680    1.0000 </r>
       <r>    8.9966    1.0000 </r>
       <r>    9.0635    0.6239 </r>
       <r>    9.0635    0.6239 </r>
       <r>    9.2440    0.0000 </r>
       <r>    9.3420    0.0000 </r>
      </set>
      <set comment="kpoint 3">
       <r>  -35.1192    1.0000 </r>
       <r>  -13.7345    1.0000 </r>
       <r>  -13.7345    1.0000 </r>
       <r>  -13.7068    1.0000 </r>
       <r>  -13.7055    1.0000 </r>
       <r>  -13.7055    1.0000 </r>
       <r>  -10.3865    1.0000 </r>
       <r>  -10.3406    1.0000 </r>
       <r>  -10.3406    1.0000 </r>
       <r>   -2.8282    1.0000 </r>
       <r>    4.3252    1.0000 </r>
       <r>    4.5511    1.0000 </r>
       <r>    4.5511    1.0000 </r>
       <r>    5.2760    1.0000 </r>
       <r>    5.2760    1.0000 </r>
       <r>    6.5325    1.0000 </r>
       <r>    7.8419    1.0000 </r>
       <r>    7.8419    1.0000 </r>
       <r>    8.2610    1.0000 </r>
       <r>    9.0382    1.0000 </r>
       <r>    9.0382    1.0000 </r>
       <r>    9.1715    0.0000 </r>
       <r>    9.2674    0.0000 </r>
       <r>    9.3784    0.0000 </r>
      </set>
      <set comment="kpoint 4">
       <r>  -35.1186    1.0000 </r>
       <r>  -13.7388    1.0000 </r>
       <r>  -13.7388    1.0000 </r>
       <r>  -13.7077    1.0000 </r>
       <r>  -13.7048    1.0000 </r>
       <r>  -13.7048    1.0000 </r>
       <r>  -10.4235    1.0000 </r>
       <r>  -10.3320    1.0000 </r>
       <r>  -10.3320    1.0000 </r>
       <r>   -2.6049    1.0000 </r>
       <r>    3.9356    1.0000 </r>
       <r>    4.4440    1.0000 </r>
       <r>    4.4440    1.0000 </r>
       <r>    5.3246    1.0000 </r>
       <r>    5.3246    1.0000 </r>
       <r>    6.0718    1.0000 </r>
       <r>    7.7287    1.0000 </r>
       <r>    7.7287    1.0000 </r>
       <r>    8.2705    1.0000 </r>
       <r>    9.0382    1.0000 </r>
       <r>    9.0382    1.0000 </r>
       <r>    9.3108    0.0000 </r>
       <r>    9.4727    0.0000 </r>
       <r>    9.5246    0.0000 </r>
      </set>
      <set comment="kpoint 5">
       <r>  -35.1179    1.0000 </r>
       <r>  -13.7433    1.0000 </r>
       <r>  -13.7433    1.0000 </r>
       <r>  -13.7088    1.0000 </r>
       <r>  -13.7041    1.0000 </r>
       <r>  -13.7041    1.0000 </r>
       <r>  -10.4606    1.0000 </r>
       <r>  -10.3229    1.0000 </r>
       <r>  -10.3229    1.0000 </r>
       <r>   -2.3619    1.0000 </r>
       <r>    3.5734    1.0000 </r>
       <r>    4.3840    1.0000 </r>
       <r>    4.3840    1.0000 </r>
       <r>    5.2919    1.0000 </r>
       <r>    5.2919    1.0000 </r>
       <r>    5.6913    1.0000 </r>
       <r>    7.6649    1.0000 </r>
       <r>    7.6649    1.0000 </r>
       <r>    8.3098    1.0000 </r>
       <r>    9.0573    0.8843 </r>
       <r>    9.0573    0.8843 </r>
       <r>    9.2754    0.0000 </r>
       <r>    9.3670    0.0000 </r>
       <r>    9.4865    0.0000 </r>
      </set>
      <set comment="kpoint 6">
       <r>  -35.1173    1.0000 </r>
       <r>  -13.7471    1.0000 </r>
       <r>  -13.7471    1.0000 </r>
       <r>  -13.7098    1.0000 </r>
       <r>  -13.7035    1.0000 </r>
       <r>  -13.7035    1.0000 </r>
       <r>  -10.4898    1.0000 </r>
       <r>  -10.3154    1.0000 </r>
       <r>  -10.3154    1.0000 </r>
       <r>   -2.1551    1.0000 </r>
       <r>    3.3011    1.0000 </r>
       <r>    4.3671    1.0000 </r>
       <r>    4.3671    1.0000 </r>
       <r>    5.2112    1.0000 </r>
       <r>    5.2112    1.0000 </r>
       <r>    5.4300    1.0000 </r>
       <r>    7.6463    1.0000 </r>
       <r>    7.6463    1.0000 </r>
       <r>    8.3781    1.0000 </r>
       <r>    9.0895    0.0004 </r>
       <r>    9.0895    0.0004 </r>
       <r>    9.4071    0.0000 </r>
       <r>    9.4121    0.0000 </r>
       <r>    9.4124    0.0000 </r>
      </set>
      <set comment="kpoint 7">
       <r>  -35.1170    1.0000 </r>
       <r>  -13.7492    1.0000 </r>
       <r>  -13.7492    1.0000 </r>
       <r>  -13.7104    1.0000 </r>
       <r>  -13.7031    1.0000 </r>
       <r>  -13.7031    1.0000 </r>
       <r>  -10.5057    1.0000 </r>
       <r>  -10.3112    1.0000 </r>
       <r>  -10.3112    1.0000 </r>
       <r>   -2.0359    1.0000 </r>
       <r>    3.1560    1.0000 </r>
       <r>    4.3718    1.0000 </r>
       <r>    4.3718    1.0000 </r>
       <r>    5.1445    1.0000 </r>
       <r>    5.1445    1.0000 </r>
       <r>    5.2993    1.0000 </r>
       <r>    7.6467    1.0000 </r>
       <r>    7.6467    1.0000 </r>
       <r>    8.4343    1.0000 </r>
       <r>    9.1211    0.0000 </r>
       <r>    9.1211    0.0000 </r>
       <r>    9.2797    0.0000 </r>
       <r>    9.3528    0.0000 </r>
       <r>    9.3528    0.0000 </r>
      </set>
      <set comment="kpoint 8">
       <r>  -35.1196    1.0000 </r>
       <r>  -13.7334    1.0000 </r>
       <r>  -13.7302    1.0000 </r>
       <r>  -13.7064    1.0000 </r>
       <r>  -13.7058    1.0000 </r>
       <r>  -13.7058    1.0000 </r>
       <r>  -10.3543    1.0000 </r>
       <r>  -10.3502    1.0000 </r>
       <r>  -10.3502    1.0000 </r>
       <r>   -2.9663    1.0000 </r>
       <r>    4.4365    1.0000 </r>
       <r>    4.7879    1.0000 </r>
       <r>    4.7879    1.0000 </r>
       <r>    5.0964    1.0000 </r>
       <r>    5.1984    1.0000 </r>
       <r>    6.9685    1.0000 </r>
       <r>    7.8763    1.0000 </r>
       <r>    7.8763    1.0000 </r>
       <r>    8.3271    1.0000 </r>
       <r>    8.9310    1.0000 </r>
       <r>    9.0699    0.2781 </r>
       <r>    9.0699    0.2781 </r>
       <r>    9.2652    0.0000 </r>
       <r>    9.2735    0.0000 </r>
      </set>
      <set comment="kpoint 9">
       <r>  -35.1192    1.0000 </r>
       <r>  -13.7367    1.0000 </r>
       <r>  -13.7310    1.0000 </r>
       <r>  -13.7069    1.0000 </r>
       <r>  -13.7055    1.0000 </r>
       <r>  -13.7054    1.0000 </r>
       <r>  -10.3752    1.0000 </r>
       <r>  -10.3491    1.0000 </r>
       <r>  -10.3429    1.0000 </r>
       <r>   -2.8480    1.0000 </r>
       <r>    4.1666    1.0000 </r>
       <r>    4.6900    1.0000 </r>
       <r>    4.7272    1.0000 </r>
       <r>    5.1695    1.0000 </r>
       <r>    5.2812    1.0000 </r>
       <r>    6.6721    1.0000 </r>
       <r>    7.7368    1.0000 </r>
       <r>    7.7454    1.0000 </r>
       <r>    8.4519    1.0000 </r>
       <r>    8.9969    1.0000 </r>
       <r>    9.0544    0.9464 </r>
       <r>    9.1021    0.0000 </r>
       <r>    9.2785    0.0000 </r>
       <r>    9.3552    0.0000 </r>
      </set>
      <set comment="kpoint 10">
       <r>  -35.1187    1.0000 </r>
       <r>  -13.7408    1.0000 </r>
       <r>  -13.7339    1.0000 </r>
       <r>  -13.7075    1.0000 </r>
       <r>  -13.7051    1.0000 </r>
       <r>  -13.7048    1.0000 </r>
       <r>  -10.4093    1.0000 </r>
       <r>  -10.3437    1.0000 </r>
       <r>  -10.3333    1.0000 </r>
       <r>   -2.6538    1.0000 </r>
       <r>    3.8810    1.0000 </r>
       <r>    4.5032    1.0000 </r>
       <r>    4.6270    1.0000 </r>
       <r>    5.2370    1.0000 </r>
       <r>    5.3605    1.0000 </r>
       <r>    6.2553    1.0000 </r>
       <r>    7.5913    1.0000 </r>
       <r>    7.6395    1.0000 </r>
       <r>    8.4419    1.0000 </r>
       <r>    9.0272    1.0000 </r>
       <r>    9.0473    0.9955 </r>
       <r>    9.2756    0.0000 </r>
       <r>    9.2808    0.0000 </r>
       <r>    9.4783    0.0000 </r>
      </set>
      <set comment="kpoint 11">
       <r>  -35.1180    1.0000 </r>
       <r>  -13.7446    1.0000 </r>
       <r>  -13.7382    1.0000 </r>
       <r>  -13.7084    1.0000 </r>
       <r>  -13.7045    1.0000 </r>
       <r>  -13.7040    1.0000 </r>
       <r>  -10.4463    1.0000 </r>
       <r>  -10.3354    1.0000 </r>
       <r>  -10.3247    1.0000 </r>
       <r>   -2.4261    1.0000 </r>
       <r>    3.6027    1.0000 </r>
       <r>    4.3644    1.0000 </r>
       <r>    4.5480    1.0000 </r>
       <r>    5.2301    1.0000 </r>
       <r>    5.3717    1.0000 </r>
       <r>    5.8515    1.0000 </r>
       <r>    7.5035    1.0000 </r>
       <r>    7.5923    1.0000 </r>
       <r>    8.4310    1.0000 </r>
       <r>    9.0530    0.9646 </r>
       <r>    9.0555    0.9264 </r>
       <r>    9.2827    0.0000 </r>
       <r>    9.3370    0.0000 </r>
       <r>    9.4771    0.0000 </r>
      </set>
      <set comment="kpoint 12">
       <r>  -35.1174    1.0000 </r>
       <r>  -13.7474    1.0000 </r>
       <r>  -13.7428    1.0000 </r>
       <r>  -13.7093    1.0000 </r>
       <r>  -13.7039    1.0000 </r>
       <r>  -13.7034    1.0000 </r>
       <r>  -10.4779    1.0000 </r>
       <r>  -10.3259    1.0000 </r>
       <r>  -10.3189    1.0000 </r>
       <r>   -2.2167    1.0000 </r>
       <r>    3.3742    1.0000 </r>
       <r>    4.3080    1.0000 </r>
       <r>    4.4902    1.0000 </r>
       <r>    5.1766    1.0000 </r>
       <r>    5.3137    1.0000 </r>
       <r>    5.5395    1.0000 </r>
       <r>    7.4731    1.0000 </r>
       <r>    7.5911    1.0000 </r>
       <r>    8.4561    1.0000 </r>
       <r>    9.0796    0.0249 </r>
       <r>    9.0882    0.0007 </r>
       <r>    9.2830    0.0000 </r>
       <r>    9.3636    0.0000 </r>
       <r>    9.4357    0.0000 </r>
      </set>
      <set comment="kpoint 13">
       <r>  -35.1170    1.0000 </r>
       <r>  -13.7484    1.0000 </r>
       <r>  -13.7467    1.0000 </r>
       <r>  -13.7100    1.0000 </r>
       <r>  -13.7035    1.0000 </r>
       <r>  -13.7030    1.0000 </r>
       <r>  -10.4978    1.0000 </r>
       <r>  -10.3175    1.0000 </r>
       <r>  -10.3173    1.0000 </r>
       <r>   -2.0754    1.0000 </r>
       <r>    3.2322    1.0000 </r>
       <r>    4.3237    1.0000 </r>
       <r>    4.4310    1.0000 </r>
       <r>    5.1442    1.0000 </r>
       <r>    5.2260    1.0000 </r>
       <r>    5.3521    1.0000 </r>
       <r>    7.4707    1.0000 </r>
       <r>    7.6040    1.0000 </r>
       <r>    8.4989    1.0000 </r>
       <r>    9.1151    0.0000 </r>
       <r>    9.1199    0.0000 </r>
       <r>    9.2792    0.0000 </r>
       <r>    9.3450    0.0000 </r>
       <r>    9.4116    0.0000 </r>
      </set>
      <set comment="kpoint 14">
       <r>  -35.1169    1.0000 </r>
       <r>  -13.7490    1.0000 </r>
       <r>  -13.7476    1.0000 </r>
       <r>  -13.7102    1.0000 </r>
       <r>  -13.7033    1.0000 </r>
       <r>  -13.7030    1.0000 </r>
       <r>  -10.5029    1.0000 </r>
       <r>  -10.3200    1.0000 </r>
       <r>  -10.3121    1.0000 </r>
       <r>   -2.0366    1.0000 </r>
       <r>    3.1951    1.0000 </r>
       <r>    4.3577    1.0000 </r>
       <r>    4.3845    1.0000 </r>
       <r>    5.1560    1.0000 </r>
       <r>    5.1793    1.0000 </r>
       <r>    5.3056    1.0000 </r>
       <r>    7.4636    1.0000 </r>
       <r>    7.6129    1.0000 </r>
       <r>    8.5166    1.0000 </r>
       <r>    9.1210    0.0000 </r>
       <r>    9.1408    0.0000 </r>
       <r>    9.2718    0.0000 </r>
       <r>    9.3501    0.0000 </r>
       <r>    9.3642    0.0000 </r>
      </set>
      <set comment="kpoint 15">
       <r>  -35.1171    1.0000 </r>
       <r>  -13.7491    1.0000 </r>
       <r>  -13.7450    1.0000 </r>
       <r>  -13.7098    1.0000 </r>
       <r>  -13.7034    1.0000 </r>
       <r>  -13.7033    1.0000 </r>
       <r>  -10.4924    1.0000 </r>
       <r>  -10.3265    1.0000 </r>
       <r>  -10.3108    1.0000 </r>
       <r>   -2.1101    1.0000 </r>
       <r>    3.2692    1.0000 </r>
       <r>    4.2911    1.0000 </r>
       <r>    4.4598    1.0000 </r>
       <r>    5.1410    1.0000 </r>
       <r>    5.2690    1.0000 </r>
       <r>    5.4014    1.0000 </r>
       <r>    7.4340    1.0000 </r>
       <r>    7.6225    1.0000 </r>
       <r>    8.4904    1.0000 </r>
       <r>    9.0923    0.0001 </r>
       <r>    9.1235    0.0000 </r>
       <r>    9.2759    0.0000 </r>
       <r>    9.3737    0.0000 </r>
       <r>    9.3893    0.0000 </r>
      </set>
      <set comment="kpoint 16">
       <r>  -35.1176    1.0000 </r>
       <r>  -13.7472    1.0000 </r>
       <r>  -13.7412    1.0000 </r>
       <r>  -13.7090    1.0000 </r>
       <r>  -13.7039    1.0000 </r>
       <r>  -13.7039    1.0000 </r>
       <r>  -10.4680    1.0000 </r>
       <r>  -10.3352    1.0000 </r>
       <r>  -10.3140    1.0000 </r>
       <r>   -2.2780    1.0000 </r>
       <r>    3.4525    1.0000 </r>
       <r>    4.2623    1.0000 </r>
       <r>    4.5371    1.0000 </r>
       <r>    5.1791    1.0000 </r>
       <r>    5.3642    1.0000 </r>
       <r>    5.6305    1.0000 </r>
       <r>    7.3907    1.0000 </r>
       <r>    7.6546    1.0000 </r>
       <r>    8.4492    1.0000 </r>
       <r>    9.0629    0.6578 </r>
       <r>    9.0845    0.0040 </r>
       <r>    9.2802    0.0000 </r>
       <r>    9.3713    0.0000 </r>
       <r>    9.4333    0.0000 </r>
      </set>
      <set comment="kpoint 17">
       <r>  -35.1182    1.0000 </r>
       <r>  -13.7435    1.0000 </r>
       <r>  -13.7370    1.0000 </r>
       <r>  -13.7080    1.0000 </r>
       <r>  -13.7046    1.0000 </r>
       <r>  -13.7045    1.0000 </r>
       <r>  -10.4342    1.0000 </r>
       <r>  -10.3439    1.0000 </r>
       <r>  -10.3210    1.0000 </r>
       <r>   -2.4994    1.0000 </r>
       <r>    3.7289    1.0000 </r>
       <r>    4.2903    1.0000 </r>
       <r>    4.6288    1.0000 </r>
       <r>    5.2136    1.0000 </r>
       <r>    5.4132    1.0000 </r>
       <r>    5.9763    1.0000 </r>
       <r>    7.3760    1.0000 </r>
       <r>    7.7312    1.0000 </r>
       <r>    8.4288    1.0000 </r>
       <r>    9.0455    0.9979 </r>
       <r>    9.0504    0.9848 </r>
       <r>    9.2789    0.0000 </r>
       <r>    9.3279    0.0000 </r>
       <r>    9.4991    0.0000 </r>
      </set>
      <set comment="kpoint 18">
       <r>  -35.1189    1.0000 </r>
       <r>  -13.7391    1.0000 </r>
       <r>  -13.7336    1.0000 </r>
       <r>  -13.7072    1.0000 </r>
       <r>  -13.7053    1.0000 </r>
       <r>  -13.7051    1.0000 </r>
       <r>  -10.3983    1.0000 </r>
       <r>  -10.3504    1.0000 </r>
       <r>  -10.3302    1.0000 </r>
       <r>   -2.7221    1.0000 </r>
       <r>    4.0606    1.0000 </r>
       <r>    4.3800    1.0000 </r>
       <r>    4.7391    1.0000 </r>
       <r>    5.1891    1.0000 </r>
       <r>    5.3862    1.0000 </r>
       <r>    6.3867    1.0000 </r>
       <r>    7.4584    1.0000 </r>
       <r>    7.8461    1.0000 </r>
       <r>    8.4311    1.0000 </r>
       <r>    9.0312    1.0000 </r>
       <r>    9.0401    0.9999 </r>
       <r>    9.2491    0.0000 </r>
       <r>    9.2753    0.0000 </r>
       <r>    9.4501    0.0000 </r>
      </set>
      <set comment="kpoint 19">
       <r>  -35.1194    1.0000 </r>
       <r>  -13.7347    1.0000 </r>
       <r>  -13.7316    1.0000 </r>
       <r>  -13.7066    1.0000 </r>
       <r>  -13.7057    1.0000 </r>
       <r>  -13.7056    1.0000 </r>
       <r>  -10.3705    1.0000 </r>
       <r>  -10.3516    1.0000 </r>
       <r>  -10.3395    1.0000 </r>
       <r>   -2.8960    1.0000 </r>
       <r>    4.3900    1.0000 </r>
       <r>    4.5220    1.0000 </r>
       <r>    4.8002    1.0000 </r>
       <r>    5.1383    1.0000 </r>
       <r>    5.2903    1.0000 </r>
       <r>    6.7546    1.0000 </r>
       <r>    7.6934    1.0000 </r>
       <r>    7.9468    1.0000 </r>
       <r>    8.3655    1.0000 </r>
       <r>    9.0178    1.0000 </r>
       <r>    9.0360    1.0000 </r>
       <r>    9.0882    0.0008 </r>
       <r>    9.2703    0.0000 </r>
       <r>    9.3198    0.0000 </r>
      </set>
      <set comment="kpoint 20">
       <r>  -35.1190    1.0000 </r>
       <r>  -13.7396    1.0000 </r>
       <r>  -13.7294    1.0000 </r>
       <r>  -13.7074    1.0000 </r>
       <r>  -13.7051    1.0000 </r>
       <r>  -13.7051    1.0000 </r>
       <r>  -10.3703    1.0000 </r>
       <r>  -10.3538    1.0000 </r>
       <r>  -10.3538    1.0000 </r>
       <r>   -2.7778    1.0000 </r>
       <r>    3.8939    1.0000 </r>
       <r>    4.8187    1.0000 </r>
       <r>    4.8187    1.0000 </r>
       <r>    5.1348    1.0000 </r>
       <r>    5.2285    1.0000 </r>
       <r>    6.6469    1.0000 </r>
       <r>    7.6159    1.0000 </r>
       <r>    7.6159    1.0000 </r>
       <r>    8.5339    1.0000 </r>
       <r>    9.0302    1.0000 </r>
       <r>    9.0590    0.8308 </r>
       <r>    9.0590    0.8308 </r>
       <r>    9.3018    0.0000 </r>
       <r>    9.4080    0.0000 </r>
      </set>
      <set comment="kpoint 21">
       <r>  -35.1185    1.0000 </r>
       <r>  -13.7424    1.0000 </r>
       <r>  -13.7301    1.0000 </r>
       <r>  -13.7080    1.0000 </r>
       <r>  -13.7046    1.0000 </r>
       <r>  -13.7045    1.0000 </r>
       <r>  -10.3957    1.0000 </r>
       <r>  -10.3536    1.0000 </r>
       <r>  -10.3470    1.0000 </r>
       <r>   -2.6348    1.0000 </r>
       <r>    3.6615    1.0000 </r>
       <r>    4.7149    1.0000 </r>
       <r>    4.7818    1.0000 </r>
       <r>    5.1821    1.0000 </r>
       <r>    5.2718    1.0000 </r>
       <r>    6.4194    1.0000 </r>
       <r>    7.4407    1.0000 </r>
       <r>    7.5190    1.0000 </r>
       <r>    8.5539    1.0000 </r>
       <r>    9.0304    1.0000 </r>
       <r>    9.0588    0.8369 </r>
       <r>    9.2131    0.0000 </r>
       <r>    9.3130    0.0000 </r>
       <r>    9.4815    0.0000 </r>
      </set>
      <set comment="kpoint 22">
       <r>  -35.1179    1.0000 </r>
       <r>  -13.7446    1.0000 </r>
       <r>  -13.7330    1.0000 </r>
       <r>  -13.7086    1.0000 </r>
       <r>  -13.7043    1.0000 </r>
       <r>  -13.7037    1.0000 </r>
       <r>  -10.4299    1.0000 </r>
       <r>  -10.3485    1.0000 </r>
       <r>  -10.3387    1.0000 </r>
       <r>   -2.4532    1.0000 </r>
       <r>    3.4971    1.0000 </r>
       <r>    4.5232    1.0000 </r>
       <r>    4.7090    1.0000 </r>
       <r>    5.1990    1.0000 </r>
       <r>    5.3374    1.0000 </r>
       <r>    6.0838    1.0000 </r>
       <r>    7.2602    1.0000 </r>
       <r>    7.4852    1.0000 </r>
       <r>    8.5741    1.0000 </r>
       <r>    9.0458    0.9976 </r>
       <r>    9.0650    0.5421 </r>
       <r>    9.2841    0.0000 </r>
       <r>    9.3142    0.0000 </r>
       <r>    9.4883    0.0000 </r>
      </set>
      <set comment="kpoint 23">
       <r>  -35.1174    1.0000 </r>
       <r>  -13.7457    1.0000 </r>
       <r>  -13.7374    1.0000 </r>
       <r>  -13.7091    1.0000 </r>
       <r>  -13.7041    1.0000 </r>
       <r>  -13.7030    1.0000 </r>
       <r>  -10.4609    1.0000 </r>
       <r>  -10.3398    1.0000 </r>
       <r>  -10.3346    1.0000 </r>
       <r>   -2.2755    1.0000 </r>
       <r>    3.4065    1.0000 </r>
       <r>    4.3764    1.0000 </r>
       <r>    4.6261    1.0000 </r>
       <r>    5.1785    1.0000 </r>
       <r>    5.3453    1.0000 </r>
       <r>    5.7469    1.0000 </r>
       <r>    7.1604    1.0000 </r>
       <r>    7.4967    1.0000 </r>
       <r>    8.5850    1.0000 </r>
       <r>    9.0817    0.0120 </r>
       <r>    9.0839    0.0051 </r>
       <r>    9.3073    0.0000 </r>
       <r>    9.3097    0.0000 </r>
       <r>    9.4623    0.0000 </r>
      </set>
      <set comment="kpoint 24">
       <r>  -35.1169    1.0000 </r>
       <r>  -13.7455    1.0000 </r>
       <r>  -13.7421    1.0000 </r>
       <r>  -13.7095    1.0000 </r>
       <r>  -13.7039    1.0000 </r>
       <r>  -13.7026    1.0000 </r>
       <r>  -10.4822    1.0000 </r>
       <r>  -10.3357    1.0000 </r>
       <r>  -10.3295    1.0000 </r>
       <r>   -2.1413    1.0000 </r>
       <r>    3.3716    1.0000 </r>
       <r>    4.3180    1.0000 </r>
       <r>    4.5186    1.0000 </r>
       <r>    5.1804    1.0000 </r>
       <r>    5.2915    1.0000 </r>
       <r>    5.5020    1.0000 </r>
       <r>    7.1193    1.0000 </r>
       <r>    7.5162    1.0000 </r>
       <r>    8.6088    1.0000 </r>
       <r>    9.1126    0.0000 </r>
       <r>    9.1174    0.0000 </r>
       <r>    9.2974    0.0000 </r>
       <r>    9.3195    0.0000 </r>
       <r>    9.4437    0.0000 </r>
      </set>
      <set comment="kpoint 25">
       <r>  -35.1167    1.0000 </r>
       <r>  -13.7462    1.0000 </r>
       <r>  -13.7439    1.0000 </r>
       <r>  -13.7095    1.0000 </r>
       <r>  -13.7039    1.0000 </r>
       <r>  -13.7026    1.0000 </r>
       <r>  -10.4903    1.0000 </r>
       <r>  -10.3414    1.0000 </r>
       <r>  -10.3198    1.0000 </r>
       <r>   -2.0781    1.0000 </r>
       <r>    3.3601    1.0000 </r>
       <r>    4.3530    1.0000 </r>
       <r>    4.3914    1.0000 </r>
       <r>    5.2104    1.0000 </r>
       <r>    5.2382    1.0000 </r>
       <r>    5.4043    1.0000 </r>
       <r>    7.0909    1.0000 </r>
       <r>    7.5253    1.0000 </r>
       <r>    8.6324    1.0000 </r>
       <r>    9.1135    0.0000 </r>
       <r>    9.1591    0.0000 </r>
       <r>    9.2716    0.0000 </r>
       <r>    9.3435    0.0000 </r>
       <r>    9.4245    0.0000 </r>
      </set>
      <set comment="kpoint 26">
       <r>  -35.1168    1.0000 </r>
       <r>  -13.7486    1.0000 </r>
       <r>  -13.7415    1.0000 </r>
       <r>  -13.7091    1.0000 </r>
       <r>  -13.7040    1.0000 </r>
       <r>  -13.7029    1.0000 </r>
       <r>  -10.4844    1.0000 </r>
       <r>  -10.3499    1.0000 </r>
       <r>  -10.3131    1.0000 </r>
       <r>   -2.0989    1.0000 </r>
       <r>    3.3619    1.0000 </r>
       <r>    4.2764    1.0000 </r>
       <r>    4.4585    1.0000 </r>
       <r>    5.1527    1.0000 </r>
       <r>    5.3344    1.0000 </r>
       <r>    5.4629    1.0000 </r>
       <r>    7.0386    1.0000 </r>
       <r>    7.5341    1.0000 </r>
       <r>    8.6315    1.0000 </r>
       <r>    9.0884    0.0007 </r>
       <r>    9.1734    0.0000 </r>
       <r>    9.2577    0.0000 </r>
       <r>    9.3715    0.0000 </r>
       <r>    9.3786    0.0000 </r>
      </set>
      <set comment="kpoint 27">
       <r>  -35.1172    1.0000 </r>
       <r>  -13.7490    1.0000 </r>
       <r>  -13.7386    1.0000 </r>
       <r>  -13.7086    1.0000 </r>
       <r>  -13.7042    1.0000 </r>
       <r>  -13.7035    1.0000 </r>
       <r>  -10.4663    1.0000 </r>
       <r>  -10.3586    1.0000 </r>
       <r>  -10.3107    1.0000 </r>
       <r>   -2.2014    1.0000 </r>
       <r>    3.4083    1.0000 </r>
       <r>    4.2048    1.0000 </r>
       <r>    4.5984    1.0000 </r>
       <r>    5.1318    1.0000 </r>
       <r>    5.4282    1.0000 </r>
       <r>    5.6657    1.0000 </r>
       <r>    6.9597    1.0000 </r>
       <r>    7.5686    1.0000 </r>
       <r>    8.6086    1.0000 </r>
       <r>    9.0634    0.6294 </r>
       <r>    9.1342    0.0000 </r>
       <r>    9.2805    0.0000 </r>
       <r>    9.3633    0.0000 </r>
       <r>    9.3953    0.0000 </r>
      </set>
      <set comment="kpoint 28">
       <r>  -35.1177    1.0000 </r>
       <r>  -13.7472    1.0000 </r>
       <r>  -13.7359    1.0000 </r>
       <r>  -13.7080    1.0000 </r>
       <r>  -13.7044    1.0000 </r>
       <r>  -13.7042    1.0000 </r>
       <r>  -10.4405    1.0000 </r>
       <r>  -10.3640    1.0000 </r>
       <r>  -10.3133    1.0000 </r>
       <r>   -2.3658    1.0000 </r>
       <r>    3.5395    1.0000 </r>
       <r>    4.1954    1.0000 </r>
       <r>    4.7368    1.0000 </r>
       <r>    5.1295    1.0000 </r>
       <r>    5.4783    1.0000 </r>
       <r>    5.9621    1.0000 </r>
       <r>    6.9133    1.0000 </r>
       <r>    7.6487    1.0000 </r>
       <r>    8.5812    1.0000 </r>
       <r>    9.0494    0.9894 </r>
       <r>    9.0880    0.0008 </r>
       <r>    9.2897    0.0000 </r>
       <r>    9.3374    0.0000 </r>
       <r>    9.4473    0.0000 </r>
      </set>
      <set comment="kpoint 29">
       <r>  -35.1184    1.0000 </r>
       <r>  -13.7436    1.0000 </r>
       <r>  -13.7341    1.0000 </r>
       <r>  -13.7076    1.0000 </r>
       <r>  -13.7048    1.0000 </r>
       <r>  -13.7047    1.0000 </r>
       <r>  -10.4152    1.0000 </r>
       <r>  -10.3617    1.0000 </r>
       <r>  -10.3203    1.0000 </r>
       <r>   -2.5546    1.0000 </r>
       <r>    3.7668    1.0000 </r>
       <r>    4.2553    1.0000 </r>
       <r>    4.8220    1.0000 </r>
       <r>    5.1270    1.0000 </r>
       <r>    5.4622    1.0000 </r>
       <r>    6.2301    1.0000 </r>
       <r>    7.0534    1.0000 </r>
       <r>    7.7606    1.0000 </r>
       <r>    8.5435    1.0000 </r>
       <r>    9.0436    0.9991 </r>
       <r>    9.0503    0.9854 </r>
       <r>    9.2856    0.0000 </r>
       <r>    9.3034    0.0000 </r>
       <r>    9.4949    0.0000 </r>
      </set>
      <set comment="kpoint 30">
       <r>  -35.1182    1.0000 </r>
       <r>  -13.7434    1.0000 </r>
       <r>  -13.7283    1.0000 </r>
       <r>  -13.7088    1.0000 </r>
       <r>  -13.7039    1.0000 </r>
       <r>  -13.7039    1.0000 </r>
       <r>  -10.3961    1.0000 </r>
       <r>  -10.3591    1.0000 </r>
       <r>  -10.3591    1.0000 </r>
       <r>   -2.5561    1.0000 </r>
       <r>    3.4858    1.0000 </r>
       <r>    4.8373    1.0000 </r>
       <r>    4.8373    1.0000 </r>
       <r>    5.1399    1.0000 </r>
       <r>    5.1903    1.0000 </r>
       <r>    6.3880    1.0000 </r>
       <r>    7.4307    1.0000 </r>
       <r>    7.4307    1.0000 </r>
       <r>    8.5235    1.0000 </r>
       <r>    9.0661    0.4776 </r>
       <r>    9.0661    0.4776 </r>
       <r>    9.1784    0.0000 </r>
       <r>    9.3479    0.0000 </r>
       <r>    9.5734    0.0000 </r>
      </set>
      <set comment="kpoint 31">
       <r>  -35.1177    1.0000 </r>
       <r>  -13.7434    1.0000 </r>
       <r>  -13.7291    1.0000 </r>
       <r>  -13.7095    1.0000 </r>
       <r>  -13.7034    1.0000 </r>
       <r>  -13.7032    1.0000 </r>
       <r>  -10.4200    1.0000 </r>
       <r>  -10.3593    1.0000 </r>
       <r>  -10.3567    1.0000 </r>
       <r>   -2.4408    1.0000 </r>
       <r>    3.4066    1.0000 </r>
       <r>    4.7082    1.0000 </r>
       <r>    4.8062    1.0000 </r>
       <r>    5.1782    1.0000 </r>
       <r>    5.2149    1.0000 </r>
       <r>    6.2032    1.0000 </r>
       <r>    7.2668    1.0000 </r>
       <r>    7.4059    1.0000 </r>
       <r>    8.5973    1.0000 </r>
       <r>    9.0547    0.9403 </r>
       <r>    9.0748    0.1007 </r>
       <r>    9.2196    0.0000 </r>
       <r>    9.3640    0.0000 </r>
       <r>    9.5390    0.0000 </r>
      </set>
      <set comment="kpoint 32">
       <r>  -35.1172    1.0000 </r>
       <r>  -13.7425    1.0000 </r>
       <r>  -13.7320    1.0000 </r>
       <r>  -13.7098    1.0000 </r>
       <r>  -13.7033    1.0000 </r>
       <r>  -13.7025    1.0000 </r>
       <r>  -10.4468    1.0000 </r>
       <r>  -10.3548    1.0000 </r>
       <r>  -10.3539    1.0000 </r>
       <r>   -2.3184    1.0000 </r>
       <r>    3.4318    1.0000 </r>
       <r>    4.5163    1.0000 </r>
       <r>    4.7298    1.0000 </r>
       <r>    5.2198    1.0000 </r>
       <r>    5.2584    1.0000 </r>
       <r>    5.9446    1.0000 </r>
       <r>    7.0274    1.0000 </r>
       <r>    7.4246    1.0000 </r>
       <r>    8.6740    1.0000 </r>
       <r>    9.0673    0.4131 </r>
       <r>    9.0915    0.0001 </r>
       <r>    9.2486    0.0000 </r>
       <r>    9.3618    0.0000 </r>
       <r>    9.5004    0.0000 </r>
      </set>
      <set comment="kpoint 33">
       <r>  -35.1168    1.0000 </r>
       <r>  -13.7409    1.0000 </r>
       <r>  -13.7365    1.0000 </r>
       <r>  -13.7097    1.0000 </r>
       <r>  -13.7035    1.0000 </r>
       <r>  -13.7021    1.0000 </r>
       <r>  -10.4657    1.0000 </r>
       <r>  -10.3589    1.0000 </r>
       <r>  -10.3443    1.0000 </r>
       <r>   -2.2149    1.0000 </r>
       <r>    3.5288    1.0000 </r>
       <r>    4.3820    1.0000 </r>
       <r>    4.6104    1.0000 </r>
       <r>    5.2409    1.0000 </r>
       <r>    5.2799    1.0000 </r>
       <r>    5.6955    1.0000 </r>
       <r>    6.8460    1.0000 </r>
       <r>    7.4431    1.0000 </r>
       <r>    8.7071    1.0000 </r>
       <r>    9.0946    0.0000 </r>
       <r>    9.1203    0.0000 </r>
       <r>    9.2807    0.0000 </r>
       <r>    9.3450    0.0000 </r>
       <r>    9.4624    0.0000 </r>
      </set>
      <set comment="kpoint 34">
       <r>  -35.1165    1.0000 </r>
       <r>  -13.7414    1.0000 </r>
       <r>  -13.7390    1.0000 </r>
       <r>  -13.7092    1.0000 </r>
       <r>  -13.7041    1.0000 </r>
       <r>  -13.7020    1.0000 </r>
       <r>  -10.4728    1.0000 </r>
       <r>  -10.3683    1.0000 </r>
       <r>  -10.3327    1.0000 </r>
       <r>   -2.1470    1.0000 </r>
       <r>    3.6123    1.0000 </r>
       <r>    4.3364    1.0000 </r>
       <r>    4.4629    1.0000 </r>
       <r>    5.2240    1.0000 </r>
       <r>    5.3019    1.0000 </r>
       <r>    5.5717    1.0000 </r>
       <r>    6.7283    1.0000 </r>
       <r>    7.4419    1.0000 </r>
       <r>    8.7285    1.0000 </r>
       <r>    9.0973    0.0000 </r>
       <r>    9.1604    0.0000 </r>
       <r>    9.3096    0.0000 </r>
       <r>    9.3292    0.0000 </r>
       <r>    9.4373    0.0000 </r>
      </set>
      <set comment="kpoint 35">
       <r>  -35.1165    1.0000 </r>
       <r>  -13.7457    1.0000 </r>
       <r>  -13.7374    1.0000 </r>
       <r>  -13.7083    1.0000 </r>
       <r>  -13.7048    1.0000 </r>
       <r>  -13.7023    1.0000 </r>
       <r>  -10.4682    1.0000 </r>
       <r>  -10.3797    1.0000 </r>
       <r>  -10.3217    1.0000 </r>
       <r>   -2.1251    1.0000 </r>
       <r>    3.5917    1.0000 </r>
       <r>    4.3212    1.0000 </r>
       <r>    4.3918    1.0000 </r>
       <r>    5.1659    1.0000 </r>
       <r>    5.3876    1.0000 </r>
       <r>    5.6076    1.0000 </r>
       <r>    6.6390    1.0000 </r>
       <r>    7.4377    1.0000 </r>
       <r>    8.7361    1.0000 </r>
       <r>    9.0754    0.0851 </r>
       <r>    9.2040    0.0000 </r>
       <r>    9.2593    0.0000 </r>
       <r>    9.3604    0.0000 </r>
       <r>    9.4079    0.0000 </r>
      </set>
      <set comment="kpoint 36">
       <r>  -35.1168    1.0000 </r>
       <r>  -13.7484    1.0000 </r>
       <r>  -13.7362    1.0000 </r>
       <r>  -13.7077    1.0000 </r>
       <r>  -13.7050    1.0000 </r>
       <r>  -13.7029    1.0000 </r>
       <r>  -10.4563    1.0000 </r>
       <r>  -10.3871    1.0000 </r>
       <r>  -10.3137    1.0000 </r>
       <r>   -2.1562    1.0000 </r>
       <r>    3.5037    1.0000 </r>
       <r>    4.2168    1.0000 </r>
       <r>    4.5183    1.0000 </r>
       <r>    5.1416    1.0000 </r>
       <r>    5.4640    1.0000 </r>
       <r>    5.7708    1.0000 </r>
       <r>    6.5641    1.0000 </r>
       <r>    7.4635    1.0000 </r>
       <r>    8.7162    1.0000 </r>
       <r>    9.0548    0.9388 </r>
       <r>    9.1916    0.0000 </r>
       <r>    9.2595    0.0000 </r>
       <r>    9.3570    0.0000 </r>
       <r>    9.3925    0.0000 </r>
      </set>
      <set comment="kpoint 37">
       <r>  -35.1172    1.0000 </r>
       <r>  -13.7489    1.0000 </r>
       <r>  -13.7357    1.0000 </r>
       <r>  -13.7078    1.0000 </r>
       <r>  -13.7047    1.0000 </r>
       <r>  -13.7036    1.0000 </r>
       <r>  -10.4458    1.0000 </r>
       <r>  -10.3822    1.0000 </r>
       <r>  -10.3107    1.0000 </r>
       <r>   -2.2411    1.0000 </r>
       <r>    3.4634    1.0000 </r>
       <r>    4.1711    1.0000 </r>
       <r>    4.6621    1.0000 </r>
       <r>    5.1265    1.0000 </r>
       <r>    5.4986    1.0000 </r>
       <r>    5.9362    1.0000 </r>
       <r>    6.6036    1.0000 </r>
       <r>    7.5399    1.0000 </r>
       <r>    8.6660    1.0000 </r>
       <r>    9.0492    0.9902 </r>
       <r>    9.1384    0.0000 </r>
       <r>    9.2871    0.0000 </r>
       <r>    9.3465    0.0000 </r>
       <r>    9.4037    0.0000 </r>
      </set>
      <set comment="kpoint 38">
       <r>  -35.1173    1.0000 </r>
       <r>  -13.7412    1.0000 </r>
       <r>  -13.7272    1.0000 </r>
       <r>  -13.7103    1.0000 </r>
       <r>  -13.7026    1.0000 </r>
       <r>  -13.7026    1.0000 </r>
       <r>  -10.4278    1.0000 </r>
       <r>  -10.3652    1.0000 </r>
       <r>  -10.3652    1.0000 </r>
       <r>   -2.3984    1.0000 </r>
       <r>    3.4090    1.0000 </r>
       <r>    4.8223    1.0000 </r>
       <r>    4.8223    1.0000 </r>
       <r>    4.9943    1.0000 </r>
       <r>    5.2509    1.0000 </r>
       <r>    6.1108    1.0000 </r>
       <r>    7.3893    1.0000 </r>
       <r>    7.3893    1.0000 </r>
       <r>    8.5909    1.0000 </r>
       <r>    9.0850    0.0032 </r>
       <r>    9.0850    0.0032 </r>
       <r>    9.1702    0.0000 </r>
       <r>    9.4076    0.0000 </r>
       <r>    9.6317    0.0000 </r>
      </set>
      <set comment="kpoint 39">
       <r>  -35.1169    1.0000 </r>
       <r>  -13.7384    1.0000 </r>
       <r>  -13.7280    1.0000 </r>
       <r>  -13.7108    1.0000 </r>
       <r>  -13.7021    1.0000 </r>
       <r>  -13.7019    1.0000 </r>
       <r>  -10.4461    1.0000 </r>
       <r>  -10.3674    1.0000 </r>
       <r>  -10.3650    1.0000 </r>
       <r>   -2.3407    1.0000 </r>
       <r>    3.5191    1.0000 </r>
       <r>    4.6634    1.0000 </r>
       <r>    4.7806    1.0000 </r>
       <r>    5.0643    1.0000 </r>
       <r>    5.2717    1.0000 </r>
       <r>    5.9201    1.0000 </r>
       <r>    7.2424    1.0000 </r>
       <r>    7.4155    1.0000 </r>
       <r>    8.7099    1.0000 </r>
       <r>    9.0728    0.1607 </r>
       <r>    9.1001    0.0000 </r>
       <r>    9.1875    0.0000 </r>
       <r>    9.4252    0.0000 </r>
       <r>    9.5613    0.0000 </r>
      </set>
      <set comment="kpoint 40">
       <r>  -35.1166    1.0000 </r>
       <r>  -13.7357    1.0000 </r>
       <r>  -13.7311    1.0000 </r>
       <r>  -13.7108    1.0000 </r>
       <r>  -13.7023    1.0000 </r>
       <r>  -13.7015    1.0000 </r>
       <r>  -10.4594    1.0000 </r>
       <r>  -10.3741    1.0000 </r>
       <r>  -10.3587    1.0000 </r>
       <r>   -2.2798    1.0000 </r>
       <r>    3.7065    1.0000 </r>
       <r>    4.4867    1.0000 </r>
       <r>    4.6877    1.0000 </r>
       <r>    5.1693    1.0000 </r>
       <r>    5.2963    1.0000 </r>
       <r>    5.7135    1.0000 </r>
       <r>    6.9259    1.0000 </r>
       <r>    7.4324    1.0000 </r>
       <r>    8.7990    1.0000 </r>
       <r>    9.0749    0.0987 </r>
       <r>    9.1234    0.0000 </r>
       <r>    9.2348    0.0000 </r>
       <r>    9.4171    0.0000 </r>
       <r>    9.4896    0.0000 </r>
      </set>
      <set comment="kpoint 41">
       <r>  -35.1163    1.0000 </r>
       <r>  -13.7358    1.0000 </r>
       <r>  -13.7339    1.0000 </r>
       <r>  -13.7100    1.0000 </r>
       <r>  -13.7031    1.0000 </r>
       <r>  -13.7014    1.0000 </r>
       <r>  -10.4612    1.0000 </r>
       <r>  -10.3876    1.0000 </r>
       <r>  -10.3477    1.0000 </r>
       <r>   -2.2232    1.0000 </r>
       <r>    3.8843    1.0000 </r>
       <r>    4.3714    1.0000 </r>
       <r>    4.5551    1.0000 </r>
       <r>    5.1879    1.0000 </r>
       <r>    5.3459    1.0000 </r>
       <r>    5.6127    1.0000 </r>
       <r>    6.6181    1.0000 </r>
       <r>    7.4158    1.0000 </r>
       <r>    8.8180    1.0000 </r>
       <r>    9.0813    0.0137 </r>
       <r>    9.1546    0.0000 </r>
       <r>    9.3051    0.0000 </r>
       <r>    9.3795    0.0000 </r>
       <r>    9.4357    0.0000 </r>
      </set>
      <set comment="kpoint 42">
       <r>  -35.1163    1.0000 </r>
       <r>  -13.7409    1.0000 </r>
       <r>  -13.7334    1.0000 </r>
       <r>  -13.7087    1.0000 </r>
       <r>  -13.7044    1.0000 </r>
       <r>  -13.7017    1.0000 </r>
       <r>  -10.4520    1.0000 </r>
       <r>  -10.4045    1.0000 </r>
       <r>  -10.3346    1.0000 </r>
       <r>   -2.1770    1.0000 </r>
       <r>    3.8985    1.0000 </r>
       <r>    4.3372    1.0000 </r>
       <r>    4.4126    1.0000 </r>
       <r>    5.1478    1.0000 </r>
       <r>    5.4090    1.0000 </r>
       <r>    5.6886    1.0000 </r>
       <r>    6.4011    1.0000 </r>
       <r>    7.3893    1.0000 </r>
       <r>    8.8133    1.0000 </r>
       <r>    9.0669    0.4342 </r>
       <r>    9.1898    0.0000 </r>
       <r>    9.3156    0.0000 </r>
       <r>    9.3523    0.0000 </r>
       <r>    9.4202    0.0000 </r>
      </set>
      <set comment="kpoint 43">
       <r>  -35.1165    1.0000 </r>
       <r>  -13.7455    1.0000 </r>
       <r>  -13.7343    1.0000 </r>
       <r>  -13.7073    1.0000 </r>
       <r>  -13.7056    1.0000 </r>
       <r>  -13.7023    1.0000 </r>
       <r>  -10.4453    1.0000 </r>
       <r>  -10.4093    1.0000 </r>
       <r>  -10.3224    1.0000 </r>
       <r>   -2.1505    1.0000 </r>
       <r>    3.7094    1.0000 </r>
       <r>    4.2915    1.0000 </r>
       <r>    4.4065    1.0000 </r>
       <r>    5.1440    1.0000 </r>
       <r>    5.4565    1.0000 </r>
       <r>    5.8069    1.0000 </r>
       <r>    6.3426    1.0000 </r>
       <r>    7.3971    1.0000 </r>
       <r>    8.7837    1.0000 </r>
       <r>    9.0515    0.9777 </r>
       <r>    9.2247    0.0000 </r>
       <r>    9.2525    0.0000 </r>
       <r>    9.3557    0.0000 </r>
       <r>    9.4138    0.0000 </r>
      </set>
      <set comment="kpoint 44">
       <r>  -35.1166    1.0000 </r>
       <r>  -13.7343    1.0000 </r>
       <r>  -13.7263    1.0000 </r>
       <r>  -13.7116    1.0000 </r>
       <r>  -13.7013    1.0000 </r>
       <r>  -13.7013    1.0000 </r>
       <r>  -10.4577    1.0000 </r>
       <r>  -10.3705    1.0000 </r>
       <r>  -10.3705    1.0000 </r>
       <r>   -2.3424    1.0000 </r>
       <r>    3.6906    1.0000 </r>
       <r>    4.7839    1.0000 </r>
       <r>    4.7839    1.0000 </r>
       <r>    4.8583    1.0000 </r>
       <r>    5.3027    1.0000 </r>
       <r>    5.7390    1.0000 </r>
       <r>    7.4545    1.0000 </r>
       <r>    7.4545    1.0000 </r>
       <r>    8.7602    1.0000 </r>
       <r>    9.1117    0.0000 </r>
       <r>    9.1117    0.0000 </r>
       <r>    9.1317    0.0000 </r>
       <r>    9.4695    0.0000 </r>
       <r>    9.6328    0.0000 </r>
      </set>
      <set comment="kpoint 45">
       <r>  -35.1164    1.0000 </r>
       <r>  -13.7312    1.0000 </r>
       <r>  -13.7272    1.0000 </r>
       <r>  -13.7118    1.0000 </r>
       <r>  -13.7011    1.0000 </r>
       <r>  -13.7009    1.0000 </r>
       <r>  -10.4674    1.0000 </r>
       <r>  -10.3751    1.0000 </r>
       <r>  -10.3692    1.0000 </r>
       <r>   -2.3245    1.0000 </r>
       <r>    3.9182    1.0000 </r>
       <r>    4.6131    1.0000 </r>
       <r>    4.7392    1.0000 </r>
       <r>    4.9775    1.0000 </r>
       <r>    5.3238    1.0000 </r>
       <r>    5.5245    1.0000 </r>
       <r>    7.3007    1.0000 </r>
       <r>    7.4811    1.0000 </r>
       <r>    8.8847    1.0000 </r>
       <r>    9.0764    0.0652 </r>
       <r>    9.1280    0.0000 </r>
       <r>    9.1844    0.0000 </r>
       <r>    9.4837    0.0000 </r>
       <r>    9.5033    0.0000 </r>
      </set>
      <set comment="kpoint 46">
       <r>  -35.1162    1.0000 </r>
       <r>  -13.7306    1.0000 </r>
       <r>  -13.7299    1.0000 </r>
       <r>  -13.7113    1.0000 </r>
       <r>  -13.7018    1.0000 </r>
       <r>  -13.7008    1.0000 </r>
       <r>  -10.4665    1.0000 </r>
       <r>  -10.3868    1.0000 </r>
       <r>  -10.3614    1.0000 </r>
       <r>   -2.2882    1.0000 </r>
       <r>    4.1112    1.0000 </r>
       <r>    4.4647    1.0000 </r>
       <r>    4.6482    1.0000 </r>
       <r>    5.0932    1.0000 </r>
       <r>    5.3561    1.0000 </r>
       <r>    5.4072    1.0000 </r>
       <r>    6.9165    1.0000 </r>
       <r>    7.4567    1.0000 </r>
       <r>    8.9111    1.0000 </r>
       <r>    9.0724    0.1728 </r>
       <r>    9.1481    0.0000 </r>
       <r>    9.2809    0.0000 </r>
       <r>    9.4107    0.0000 </r>
       <r>    9.4736    0.0000 </r>
      </set>
      <set comment="kpoint 47">
       <r>  -35.1162    1.0000 </r>
       <r>  -13.7355    1.0000 </r>
       <r>  -13.7307    1.0000 </r>
       <r>  -13.7101    1.0000 </r>
       <r>  -13.7030    1.0000 </r>
       <r>  -13.7011    1.0000 </r>
       <r>  -10.4556    1.0000 </r>
       <r>  -10.4028    1.0000 </r>
       <r>  -10.3490    1.0000 </r>
       <r>   -2.2363    1.0000 </r>
       <r>    4.1316    1.0000 </r>
       <r>    4.3521    1.0000 </r>
       <r>    4.5301    1.0000 </r>
       <r>    5.1140    1.0000 </r>
       <r>    5.3928    1.0000 </r>
       <r>    5.5414    1.0000 </r>
       <r>    6.5428    1.0000 </r>
       <r>    7.4068    1.0000 </r>
       <r>    8.8708    1.0000 </r>
       <r>    9.0706    0.2458 </r>
       <r>    9.1694    0.0000 </r>
       <r>    9.3536    0.0000 </r>
       <r>    9.3967    0.0000 </r>
       <r>    9.4039    0.0000 </r>
      </set>
      <set comment="kpoint 48">
       <r>  -35.1162    1.0000 </r>
       <r>  -13.7283    1.0000 </r>
       <r>  -13.7258    1.0000 </r>
       <r>  -13.7123    1.0000 </r>
       <r>  -13.7005    1.0000 </r>
       <r>  -13.7005    1.0000 </r>
       <r>  -10.4762    1.0000 </r>
       <r>  -10.3735    1.0000 </r>
       <r>  -10.3735    1.0000 </r>
       <r>   -2.3421    1.0000 </r>
       <r>    4.1313    1.0000 </r>
       <r>    4.7534    1.0000 </r>
       <r>    4.7534    1.0000 </r>
       <r>    4.7797    1.0000 </r>
       <r>    5.3161    1.0000 </r>
       <r>    5.3326    1.0000 </r>
       <r>    7.5283    1.0000 </r>
       <r>    7.5283    1.0000 </r>
       <r>    8.9810    1.0000 </r>
       <r>    9.1138    0.0000 </r>
       <r>    9.1342    0.0000 </r>
       <r>    9.1342    0.0000 </r>
       <r>    9.4279    0.0000 </r>
       <r>    9.5118    0.0000 </r>
      </set>
      <set comment="kpoint 49">
       <r>  -35.1162    1.0000 </r>
       <r>  -13.7278    1.0000 </r>
       <r>  -13.7270    1.0000 </r>
       <r>  -13.7122    1.0000 </r>
       <r>  -13.7007    1.0000 </r>
       <r>  -13.7005    1.0000 </r>
       <r>  -10.4757    1.0000 </r>
       <r>  -10.3779    1.0000 </r>
       <r>  -10.3708    1.0000 </r>
       <r>   -2.3297    1.0000 </r>
       <r>    4.2231    1.0000 </r>
       <r>    4.5962    1.0000 </r>
       <r>    4.7208    1.0000 </r>
       <r>    4.9443    1.0000 </r>
       <r>    5.2400    1.0000 </r>
       <r>    5.3442    1.0000 </r>
       <r>    7.3368    1.0000 </r>
       <r>    7.5162    1.0000 </r>
       <r>    9.0005    1.0000 </r>
       <r>    9.0733    0.1414 </r>
       <r>    9.1413    0.0000 </r>
       <r>    9.2316    0.0000 </r>
       <r>    9.3671    0.0000 </r>
       <r>    9.5117    0.0000 </r>
      </set>
      <set comment="kpoint 50">
       <r>  -35.1188    1.0000 </r>
       <r>  -13.7404    1.0000 </r>
       <r>  -13.7315    1.0000 </r>
       <r>  -13.7074    1.0000 </r>
       <r>  -13.7051    1.0000 </r>
       <r>  -13.7050    1.0000 </r>
       <r>  -10.3911    1.0000 </r>
       <r>  -10.3558    1.0000 </r>
       <r>  -10.3355    1.0000 </r>
       <r>   -2.7148    1.0000 </r>
       <r>    3.8940    1.0000 </r>
       <r>    4.5389    1.0000 </r>
       <r>    4.8241    1.0000 </r>
       <r>    5.1462    1.0000 </r>
       <r>    5.3530    1.0000 </r>
       <r>    6.4752    1.0000 </r>
       <r>    7.3883    1.0000 </r>
       <r>    7.7402    1.0000 </r>
       <r>    8.5332    1.0000 </r>
       <r>    9.0176    1.0000 </r>
       <r>    9.0518    0.9759 </r>
       <r>    9.2163    0.0000 </r>
       <r>    9.2892    0.0000 </r>
       <r>    9.4430    0.0000 </r>
      </set>
      <set comment="kpoint 51">
       <r>  -35.1182    1.0000 </r>
       <r>  -13.7440    1.0000 </r>
       <r>  -13.7337    1.0000 </r>
       <r>  -13.7080    1.0000 </r>
       <r>  -13.7047    1.0000 </r>
       <r>  -13.7044    1.0000 </r>
       <r>  -10.4203    1.0000 </r>
       <r>  -10.3561    1.0000 </r>
       <r>  -10.3262    1.0000 </r>
       <r>   -2.5271    1.0000 </r>
       <r>    3.6530    1.0000 </r>
       <r>    4.3859    1.0000 </r>
       <r>    4.7668    1.0000 </r>
       <r>    5.1645    1.0000 </r>
       <r>    5.4118    1.0000 </r>
       <r>    6.1687    1.0000 </r>
       <r>    7.1728    1.0000 </r>
       <r>    7.6623    1.0000 </r>
       <r>    8.5490    1.0000 </r>
       <r>    9.0385    0.9999 </r>
       <r>    9.0569    0.8939 </r>
       <r>    9.2938    0.0000 </r>
       <r>    9.2979    0.0000 </r>
       <r>    9.4880    0.0000 </r>
      </set>
      <set comment="kpoint 52">
       <r>  -35.1176    1.0000 </r>
       <r>  -13.7467    1.0000 </r>
       <r>  -13.7372    1.0000 </r>
       <r>  -13.7086    1.0000 </r>
[...]
       <r>    8.8330    1.0000 </r>
       <r>    9.0926    0.0001 </r>
       <r>    9.2345    0.0000 </r>
       <r>    9.2907    0.0000 </r>
       <r>    9.3542    0.0000 </r>
       <r>    9.4287    0.0000 </r>
      </set>
      <set comment="kpoint 81">
       <r>  -35.1164    1.0000 </r>
       <r>  -13.7429    1.0000 </r>
       <r>  -13.7317    1.0000 </r>
       <r>  -13.7080    1.0000 </r>
       <r>  -13.7056    1.0000 </r>
       <r>  -13.7013    1.0000 </r>
       <r>  -10.4459    1.0000 </r>
       <r>  -10.4046    1.0000 </r>
       <r>  -10.3380    1.0000 </r>
       <r>   -2.1838    1.0000 </r>
       <r>    3.8411    1.0000 </r>
       <r>    4.2172    1.0000 </r>
       <r>    4.6234    1.0000 </r>
       <r>    5.1990    1.0000 </r>
       <r>    5.3948    1.0000 </r>
       <r>    5.7646    1.0000 </r>
       <r>    6.1633    1.0000 </r>
       <r>    7.5010    1.0000 </r>
       <r>    8.8125    1.0000 </r>
       <r>    9.0779    0.0432 </r>
       <r>    9.2261    0.0000 </r>
       <r>    9.2797    0.0000 </r>
       <r>    9.3348    0.0000 </r>
       <r>    9.4342    0.0000 </r>
      </set>
      <set comment="kpoint 82">
       <r>  -35.1162    1.0000 </r>
       <r>  -13.7361    1.0000 </r>
       <r>  -13.7277    1.0000 </r>
       <r>  -13.7104    1.0000 </r>
       <r>  -13.7034    1.0000 </r>
       <r>  -13.7005    1.0000 </r>
       <r>  -10.4571    1.0000 </r>
       <r>  -10.3922    1.0000 </r>
       <r>  -10.3615    1.0000 </r>
       <r>   -2.2556    1.0000 </r>
       <r>    4.1213    1.0000 </r>
       <r>    4.3179    1.0000 </r>
       <r>    4.7393    1.0000 </r>
       <r>    5.1707    1.0000 </r>
       <r>    5.3767    1.0000 </r>
       <r>    5.4459    1.0000 </r>
       <r>    6.3884    1.0000 </r>
       <r>    7.5769    1.0000 </r>
       <r>    8.8862    1.0000 </r>
       <r>    9.0925    0.0001 </r>
       <r>    9.1851    0.0000 </r>
       <r>    9.3201    0.0000 </r>
       <r>    9.3913    0.0000 </r>
       <r>    9.4209    0.0000 </r>
      </set>
      <set comment="kpoint 83">
       <r>  -35.1162    1.0000 </r>
       <r>  -13.7389    1.0000 </r>
       <r>  -13.7278    1.0000 </r>
       <r>  -13.7092    1.0000 </r>
       <r>  -13.7048    1.0000 </r>
       <r>  -13.7005    1.0000 </r>
       <r>  -10.4475    1.0000 </r>
       <r>  -10.4038    1.0000 </r>
       <r>  -10.3567    1.0000 </r>
       <r>   -2.2274    1.0000 </r>
       <r>    4.1678    1.0000 </r>
       <r>    4.2466    1.0000 </r>
       <r>    4.7091    1.0000 </r>
       <r>    5.1819    1.0000 </r>
       <r>    5.4039    1.0000 </r>
       <r>    5.5421    1.0000 </r>
       <r>    6.0820    1.0000 </r>
       <r>    7.5730    1.0000 </r>
       <r>    8.8675    1.0000 </r>
       <r>    9.1027    0.0000 </r>
       <r>    9.2140    0.0000 </r>
       <r>    9.3384    0.0000 </r>
       <r>    9.3734    0.0000 </r>
       <r>    9.3909    0.0000 </r>
      </set>
      <set comment="kpoint 84">
       <r>  -35.1162    1.0000 </r>
       <r>  -13.7405    1.0000 </r>
       <r>  -13.7278    1.0000 </r>
       <r>  -13.7083    1.0000 </r>
       <r>  -13.7059    1.0000 </r>
       <r>  -13.7005    1.0000 </r>
       <r>  -10.4418    1.0000 </r>
       <r>  -10.4080    1.0000 </r>
       <r>  -10.3557    1.0000 </r>
       <r>   -2.2141    1.0000 </r>
       <r>    4.1459    1.0000 </r>
       <r>    4.2077    1.0000 </r>
       <r>    4.7235    1.0000 </r>
       <r>    5.2150    1.0000 </r>
       <r>    5.4292    1.0000 </r>
       <r>    5.6429    1.0000 </r>
       <r>    5.8585    1.0000 </r>
       <r>    7.5891    1.0000 </r>
       <r>    8.8561    1.0000 </r>
       <r>    9.1098    0.0000 </r>
       <r>    9.2437    0.0000 </r>
       <r>    9.3036    0.0000 </r>
       <r>    9.3597    0.0000 </r>
       <r>    9.4127    0.0000 </r>
      </set>
     </set>
    </set>
   </array>
  </eigenvalues>
  <separator name="orbital magnetization" >
   <v name="MAGDIPOLOUT">      0.00000000      0.00000000      0.00000000</v>
  </separator>
  <dos>
   <i name="efermi">      9.06574744 </i>
   <total>
    <array>
     <dimension dim="1">gridpoints</dimension>
     <dimension dim="2">spin</dimension>
     <field>energy</field>
     <field>total</field>
     <field>integrated</field>
     <set>
      <set comment="spin 1">
       <r>   -37.3574     0.0000     0.0000 </r>
       <r>   -37.1933     0.0000     0.0000 </r>
       <r>   -37.0293     0.0000     0.0000 </r>
       <r>   -36.8652     0.0000     0.0000 </r>
       <r>   -36.7011     0.0000     0.0000 </r>
       <r>   -36.5370     0.0000     0.0000 </r>
       <r>   -36.3729     0.0000     0.0000 </r>
       <r>   -36.2088     0.0000     0.0000 </r>
       <r>   -36.0447     0.0000     0.0000 </r>
       <r>   -35.8806     0.0000     0.0000 </r>
       <r>   -35.7165     0.0000     0.0000 </r>
       <r>   -35.5524     0.0000     0.0000 </r>
       <r>   -35.3883     0.0000     0.0000 </r>
       <r>   -35.2242     0.0000     0.0000 </r>
       <r>   -35.0601    12.1882     2.0000 </r>
       <r>   -34.8961     0.0000     2.0000 </r>
       <r>   -34.7320     0.0000     2.0000 </r>
       <r>   -34.5679     0.0000     2.0000 </r>
       <r>   -34.4038     0.0000     2.0000 </r>
       <r>   -34.2397     0.0000     2.0000 </r>
       <r>   -34.0756     0.0000     2.0000 </r>
       <r>   -33.9115     0.0000     2.0000 </r>
       <r>   -33.7474     0.0000     2.0000 </r>
       <r>   -33.5833     0.0000     2.0000 </r>
       <r>   -33.4192     0.0000     2.0000 </r>
       <r>   -33.2551     0.0000     2.0000 </r>
       <r>   -33.0910     0.0000     2.0000 </r>
       <r>   -32.9269     0.0000     2.0000 </r>
       <r>   -32.7628     0.0000     2.0000 </r>
       <r>   -32.5988     0.0000     2.0000 </r>
       <r>   -32.4347     0.0000     2.0000 </r>
       <r>   -32.2706     0.0000     2.0000 </r>
       <r>   -32.1065     0.0000     2.0000 </r>
       <r>   -31.9424     0.0000     2.0000 </r>
       <r>   -31.7783     0.0000     2.0000 </r>
       <r>   -31.6142     0.0000     2.0000 </r>
       <r>   -31.4501     0.0000     2.0000 </r>
       <r>   -31.2860     0.0000     2.0000 </r>
       <r>   -31.1219     0.0000     2.0000 </r>
       <r>   -30.9578     0.0000     2.0000 </r>
       <r>   -30.7937     0.0000     2.0000 </r>
       <r>   -30.6296     0.0000     2.0000 </r>
       <r>   -30.4655     0.0000     2.0000 </r>
       <r>   -30.3015     0.0000     2.0000 </r>
       <r>   -30.1374     0.0000     2.0000 </r>
       <r>   -29.9733     0.0000     2.0000 </r>
       <r>   -29.8092     0.0000     2.0000 </r>
       <r>   -29.6451     0.0000     2.0000 </r>
       <r>   -29.4810     0.0000     2.0000 </r>
       <r>   -29.3169     0.0000     2.0000 </r>
       <r>   -29.1528     0.0000     2.0000 </r>
       <r>   -28.9887     0.0000     2.0000 </r>
       <r>   -28.8246     0.0000     2.0000 </r>
       <r>   -28.6605     0.0000     2.0000 </r>
       <r>   -28.4964     0.0000     2.0000 </r>
       <r>   -28.3323     0.0000     2.0000 </r>
       <r>   -28.1682     0.0000     2.0000 </r>
       <r>   -28.0042     0.0000     2.0000 </r>
       <r>   -27.8401     0.0000     2.0000 </r>
       <r>   -27.6760     0.0000     2.0000 </r>
       <r>   -27.5119     0.0000     2.0000 </r>
       <r>   -27.3478     0.0000     2.0000 </r>
       <r>   -27.1837     0.0000     2.0000 </r>
       <r>   -27.0196     0.0000     2.0000 </r>
       <r>   -26.8555     0.0000     2.0000 </r>
       <r>   -26.6914     0.0000     2.0000 </r>
       <r>   -26.5273     0.0000     2.0000 </r>
       <r>   -26.3632     0.0000     2.0000 </r>
       <r>   -26.1991     0.0000     2.0000 </r>
       <r>   -26.0350     0.0000     2.0000 </r>
       <r>   -25.8709     0.0000     2.0000 </r>
       <r>   -25.7069     0.0000     2.0000 </r>
       <r>   -25.5428     0.0000     2.0000 </r>
       <r>   -25.3787     0.0000     2.0000 </r>
       <r>   -25.2146     0.0000     2.0000 </r>
       <r>   -25.0505     0.0000     2.0000 </r>
       <r>   -24.8864     0.0000     2.0000 </r>
       <r>   -24.7223     0.0000     2.0000 </r>
       <r>   -24.5582     0.0000     2.0000 </r>
       <r>   -24.3941     0.0000     2.0000 </r>
       <r>   -24.2300     0.0000     2.0000 </r>
       <r>   -24.0659     0.0000     2.0000 </r>
       <r>   -23.9018     0.0000     2.0000 </r>
       <r>   -23.7377     0.0000     2.0000 </r>
       <r>   -23.5737     0.0000     2.0000 </r>
       <r>   -23.4096     0.0000     2.0000 </r>
       <r>   -23.2455     0.0000     2.0000 </r>
       <r>   -23.0814     0.0000     2.0000 </r>
       <r>   -22.9173     0.0000     2.0000 </r>
       <r>   -22.7532     0.0000     2.0000 </r>
       <r>   -22.5891     0.0000     2.0000 </r>
       <r>   -22.4250     0.0000     2.0000 </r>
       <r>   -22.2609     0.0000     2.0000 </r>
       <r>   -22.0968     0.0000     2.0000 </r>
       <r>   -21.9327     0.0000     2.0000 </r>
       <r>   -21.7686     0.0000     2.0000 </r>
       <r>   -21.6045     0.0000     2.0000 </r>
       <r>   -21.4404     0.0000     2.0000 </r>
       <r>   -21.2764     0.0000     2.0000 </r>
       <r>   -21.1123     0.0000     2.0000 </r>
       <r>   -20.9482     0.0000     2.0000 </r>
       <r>   -20.7841     0.0000     2.0000 </r>
       <r>   -20.6200     0.0000     2.0000 </r>
       <r>   -20.4559     0.0000     2.0000 </r>
       <r>   -20.2918     0.0000     2.0000 </r>
       <r>   -20.1277     0.0000     2.0000 </r>
       <r>   -19.9636     0.0000     2.0000 </r>
       <r>   -19.7995     0.0000     2.0000 </r>
       <r>   -19.6354     0.0000     2.0000 </r>
       <r>   -19.4713     0.0000     2.0000 </r>
       <r>   -19.3072     0.0000     2.0000 </r>
       <r>   -19.1431     0.0000     2.0000 </r>
       <r>   -18.9791     0.0000     2.0000 </r>
       <r>   -18.8150     0.0000     2.0000 </r>
       <r>   -18.6509     0.0000     2.0000 </r>
       <r>   -18.4868     0.0000     2.0000 </r>
       <r>   -18.3227     0.0000     2.0000 </r>
       <r>   -18.1586     0.0000     2.0000 </r>
       <r>   -17.9945     0.0000     2.0000 </r>
       <r>   -17.8304     0.0000     2.0000 </r>
       <r>   -17.6663     0.0000     2.0000 </r>
       <r>   -17.5022     0.0000     2.0000 </r>
       <r>   -17.3381     0.0000     2.0000 </r>
       <r>   -17.1740     0.0000     2.0000 </r>
       <r>   -17.0099     0.0000     2.0000 </r>
       <r>   -16.8458     0.0000     2.0000 </r>
       <r>   -16.6818     0.0000     2.0000 </r>
       <r>   -16.5177     0.0000     2.0000 </r>
       <r>   -16.3536     0.0000     2.0000 </r>
       <r>   -16.1895     0.0000     2.0000 </r>
       <r>   -16.0254     0.0000     2.0000 </r>
       <r>   -15.8613     0.0000     2.0000 </r>
       <r>   -15.6972     0.0000     2.0000 </r>
       <r>   -15.5331     0.0000     2.0000 </r>
       <r>   -15.3690     0.0000     2.0000 </r>
       <r>   -15.2049     0.0000     2.0000 </r>
       <r>   -15.0408     0.0000     2.0000 </r>
       <r>   -14.8767     0.0000     2.0000 </r>
       <r>   -14.7126     0.0000     2.0000 </r>
       <r>   -14.5485     0.0000     2.0000 </r>
       <r>   -14.3845     0.0000     2.0000 </r>
       <r>   -14.2204     0.0000     2.0000 </r>
       <r>   -14.0563     0.0000     2.0000 </r>
       <r>   -13.8922     0.0000     2.0000 </r>
       <r>   -13.7281    21.0384     5.4522 </r>
       <r>   -13.5640     0.0000    12.0000 </r>
       <r>   -13.3999     0.0000    12.0000 </r>
       <r>   -13.2358     0.0000    12.0000 </r>
       <r>   -13.0717     0.0000    12.0000 </r>
       <r>   -12.9076     0.0000    12.0000 </r>
       <r>   -12.7435     0.0000    12.0000 </r>
       <r>   -12.5794     0.0000    12.0000 </r>
       <r>   -12.4153     0.0000    12.0000 </r>
       <r>   -12.2513     0.0000    12.0000 </r>
       <r>   -12.0872     0.0000    12.0000 </r>
       <r>   -11.9231     0.0000    12.0000 </r>
       <r>   -11.7590     0.0000    12.0000 </r>
       <r>   -11.5949     0.0000    12.0000 </r>
       <r>   -11.4308     0.0000    12.0000 </r>
       <r>   -11.2667     0.0000    12.0000 </r>
       <r>   -11.1026     0.0000    12.0000 </r>
       <r>   -10.9385     0.0000    12.0000 </r>
       <r>   -10.7744     0.0000    12.0000 </r>
       <r>   -10.6103     0.0000    12.0000 </r>
       <r>   -10.4462     8.4740    13.3905 </r>
       <r>   -10.2821    16.4710    18.0000 </r>
       <r>   -10.1180     0.0000    18.0000 </r>
       <r>    -9.9540     0.0000    18.0000 </r>
       <r>    -9.7899     0.0000    18.0000 </r>
       <r>    -9.6258     0.0000    18.0000 </r>
       <r>    -9.4617     0.0000    18.0000 </r>
       <r>    -9.2976     0.0000    18.0000 </r>
       <r>    -9.1335     0.0000    18.0000 </r>
       <r>    -8.9694     0.0000    18.0000 </r>
       <r>    -8.8053     0.0000    18.0000 </r>
       <r>    -8.6412     0.0000    18.0000 </r>
       <r>    -8.4771     0.0000    18.0000 </r>
       <r>    -8.3130     0.0000    18.0000 </r>
       <r>    -8.1489     0.0000    18.0000 </r>
       <r>    -7.9848     0.0000    18.0000 </r>
       <r>    -7.8207     0.0000    18.0000 </r>
       <r>    -7.6567     0.0000    18.0000 </r>
       <r>    -7.4926     0.0000    18.0000 </r>
       <r>    -7.3285     0.0000    18.0000 </r>
       <r>    -7.1644     0.0000    18.0000 </r>
       <r>    -7.0003     0.0000    18.0000 </r>
       <r>    -6.8362     0.0000    18.0000 </r>
       <r>    -6.6721     0.0000    18.0000 </r>
       <r>    -6.5080     0.0000    18.0000 </r>
       <r>    -6.3439     0.0000    18.0000 </r>
       <r>    -6.1798     0.0000    18.0000 </r>
       <r>    -6.0157     0.0000    18.0000 </r>
       <r>    -5.8516     0.0000    18.0000 </r>
       <r>    -5.6875     0.0000    18.0000 </r>
       <r>    -5.5234     0.0000    18.0000 </r>
       <r>    -5.3594     0.0000    18.0000 </r>
       <r>    -5.1953     0.0000    18.0000 </r>
       <r>    -5.0312     0.0000    18.0000 </r>
       <r>    -4.8671     0.0000    18.0000 </r>
       <r>    -4.7030     0.0000    18.0000 </r>
       <r>    -4.5389     0.0000    18.0000 </r>
       <r>    -4.3748     0.0000    18.0000 </r>
       <r>    -4.2107     0.0000    18.0000 </r>
       <r>    -4.0466     0.0000    18.0000 </r>
       <r>    -3.8825     0.0000    18.0000 </r>
       <r>    -3.7184     0.0000    18.0000 </r>
       <r>    -3.5543     0.0000    18.0000 </r>
       <r>    -3.3902     0.0000    18.0000 </r>
       <r>    -3.2261     0.0000    18.0000 </r>
       <r>    -3.0621     0.0000    18.0000 </r>
       <r>    -2.8980     0.0594    18.0179 </r>
       <r>    -2.7339     0.0402    18.0603 </r>
       <r>    -2.5698     0.1794    18.1542 </r>
       <r>    -2.4057     0.4043    18.3240 </r>
       <r>    -2.2416     2.0413    18.8894 </r>
       <r>    -2.0775     2.1868    19.9182 </r>
       <r>    -1.9134     0.0000    20.0000 </r>
       <r>    -1.7493     0.0000    20.0000 </r>
       <r>    -1.5852     0.0000    20.0000 </r>
       <r>    -1.4211     0.0000    20.0000 </r>
       <r>    -1.2570     0.0000    20.0000 </r>
       <r>    -1.0929     0.0000    20.0000 </r>
       <r>    -0.9289     0.0000    20.0000 </r>
       <r>    -0.7648     0.0000    20.0000 </r>
       <r>    -0.6007     0.0000    20.0000 </r>
       <r>    -0.4366     0.0000    20.0000 </r>
       <r>    -0.2725     0.0000    20.0000 </r>
       <r>    -0.1084     0.0000    20.0000 </r>
       <r>     0.0557     0.0000    20.0000 </r>
       <r>     0.2198     0.0000    20.0000 </r>
       <r>     0.3839     0.0000    20.0000 </r>
       <r>     0.5480     0.0000    20.0000 </r>
       <r>     0.7121     0.0000    20.0000 </r>
       <r>     0.8762     0.0000    20.0000 </r>
       <r>     1.0403     0.0000    20.0000 </r>
       <r>     1.2044     0.0000    20.0000 </r>
       <r>     1.3684     0.0000    20.0000 </r>
       <r>     1.5325     0.0000    20.0000 </r>
       <r>     1.6966     0.0000    20.0000 </r>
       <r>     1.8607     0.0000    20.0000 </r>
       <r>     2.0248     0.0000    20.0000 </r>
       <r>     2.1889     0.0000    20.0000 </r>
       <r>     2.3530     0.0000    20.0000 </r>
       <r>     2.5171     0.0000    20.0000 </r>
       <r>     2.6812     0.0000    20.0000 </r>
       <r>     2.8453     0.0000    20.0000 </r>
       <r>     3.0094     0.0000    20.0000 </r>
       <r>     3.1735     0.0442    20.0073 </r>
       <r>     3.3376     0.4444    20.1239 </r>
       <r>     3.5017     2.4720    20.7315 </r>
       <r>     3.6657     1.0194    21.1286 </r>
       <r>     3.8298     0.4734    21.4268 </r>
       <r>     3.9939     0.8337    21.6771 </r>
       <r>     4.1580     0.6551    21.8954 </r>
       <r>     4.3221     4.2940    22.9895 </r>
       <r>     4.4862     2.5075    23.9490 </r>
       <r>     4.6503     2.5903    24.9694 </r>
       <r>     4.8144     2.6002    25.9214 </r>
       <r>     4.9785     0.1408    26.0340 </r>
       <r>     5.1426     1.9419    26.3897 </r>
       <r>     5.3067     4.5015    28.6413 </r>
       <r>     5.4708     3.2718    30.2328 </r>
       <r>     5.6349     1.6049    30.7640 </r>
       <r>     5.7990     1.5072    31.3233 </r>
       <r>     5.9630     0.5428    31.6184 </r>
       <r>     6.1271     0.8762    31.8370 </r>
       <r>     6.2912     0.7321    32.0446 </r>
       <r>     6.4553     1.4710    32.3406 </r>
       <r>     6.6194     0.6084    32.5395 </r>
       <r>     6.7835     1.1794    32.8135 </r>
       <r>     6.9476     0.4112    33.0916 </r>
       <r>     7.1117     0.7285    33.3093 </r>
       <r>     7.2758     0.3898    33.6143 </r>
       <r>     7.4399     2.1102    33.9958 </r>
       <r>     7.6040     3.3353    35.5732 </r>
       <r>     7.7681     0.7448    35.9238 </r>
       <r>     7.9322     0.0679    35.9729 </r>
       <r>     8.0963     0.0166    36.0009 </r>
       <r>     8.2603     0.0238    36.0121 </r>
       <r>     8.4244     0.1979    36.0680 </r>
       <r>     8.5885     1.7086    36.5380 </r>
       <r>     8.7526     2.2154    37.2493 </r>
       <r>     8.9167     1.2770    37.9419 </r>
       <r>     9.0808     9.8321    39.6480 </r>
       <r>     9.2449     5.4368    42.3223 </r>
       <r>     9.4090    10.7464    46.1603 </r>
       <r>     9.5731     1.6850    47.9852 </r>
       <r>     9.7372     0.0000    48.0000 </r>
       <r>     9.9013     0.0000    48.0000 </r>
       <r>    10.0654     0.0000    48.0000 </r>
       <r>    10.2295     0.0000    48.0000 </r>
       <r>    10.3935     0.0000    48.0000 </r>
       <r>    10.5576     0.0000    48.0000 </r>
       <r>    10.7217     0.0000    48.0000 </r>
       <r>    10.8858     0.0000    48.0000 </r>
       <r>    11.0499     0.0000    48.0000 </r>
       <r>    11.2140     0.0000    48.0000 </r>
       <r>    11.3781     0.0000    48.0000 </r>
       <r>    11.5422     0.0000    48.0000 </r>
       <r>    11.7063     0.0000    48.0000 </r>
       <r>    11.8704     0.0000    48.0000 </r>
      </set>
     </set>
    </array>
   </total>
  </dos>
 </calculation>
 <structure name="finalpos" >
  <crystal>
   <varray name="basis" >
    <v>       0.00000000       3.40385179       3.40385179 </v>
    <v>       3.40385179       0.00000000       3.40385179 </v>
    <v>       3.40385179       3.40385179       0.00000000 </v>
   </varray>
   <i name="volume">     78.87546264 </i>
   <varray name="rec_basis" >
    <v>      -0.14689241       0.14689241       0.14689241 </v>
    <v>       0.14689241      -0.14689241       0.14689241 </v>
    <v>       0.14689241       0.14689241      -0.14689241 </v>
   </varray>
  </crystal>
  <varray name="positions" >
   <v>       0.25000000       0.25000000       0.25000000 </v>
   <v>       0.75000000       0.75000000       0.75000000 </v>
   <v>       0.00000000       0.00000000       0.00000000 </v>
  </varray>
 </structure>
</modeling>
