   2   2   0   0
  0.1883572E+02  0.3762782E-09  0.3762782E-09  0.3762782E-09  0.0000000E+00
  1.000000000000000E-004
  CAR 
 unknown system                          
     18.49717548     -8.62186484  301      5.67212933      1.00000000
     -8.622  0.0000E+00  0.0000E+00
     -8.531  0.0000E+00  0.0000E+00
     -8.441  0.0000E+00  0.0000E+00
     -8.351  0.0000E+00  0.0000E+00
     -8.260  0.0000E+00  0.0000E+00
     -8.170  0.0000E+00  0.0000E+00
     -8.079  0.0000E+00  0.0000E+00
     -7.989  0.0000E+00  0.0000E+00
     -7.899  0.0000E+00  0.0000E+00
     -7.808  0.0000E+00  0.0000E+00
     -7.718  0.0000E+00  0.0000E+00
     -7.628  0.0000E+00  0.0000E+00
     -7.537  0.0000E+00  0.0000E+00
     -7.447  0.0000E+00  0.0000E+00
     -7.356  0.5987E-01  0.9478E-03
     -7.266  0.1251E+00  0.9635E-02
     -7.176  0.1726E+00  0.2336E-01
     -7.085  0.2135E+00  0.4072E-01
     -6.995  0.2436E+00  0.6133E-01
     -6.904  0.2773E+00  0.8493E-01
     -6.814  0.3060E+00  0.1113E+00
     -6.724  0.3376E+00  0.1403E+00
     -6.633  0.3655E+00  0.1721E+00
     -6.543  0.3965E+00  0.2065E+00
     -6.452  0.4272E+00  0.2438E+00
     -6.362  0.4594E+00  0.2838E+00
     -6.272  0.4939E+00  0.3269E+00
     -6.181  0.5307E+00  0.3732E+00
     -6.091  0.5709E+00  0.4230E+00
     -6.000  0.6152E+00  0.4765E+00
     -5.910  0.6678E+00  0.5345E+00
     -5.820  0.7276E+00  0.5975E+00
     -5.729  0.8010E+00  0.6664E+00
     -5.639  0.9024E+00  0.7431E+00
     -5.548  0.1054E+01  0.8309E+00
     -5.458  0.1362E+01  0.9396E+00
     -5.368  0.1307E+01  0.1060E+01
     -5.277  0.1303E+01  0.1177E+01
     -5.187  0.1311E+01  0.1296E+01
     -5.096  0.1313E+01  0.1414E+01
     -5.006  0.1344E+01  0.1534E+01
     -4.916  0.1408E+01  0.1658E+01
     -4.825  0.1530E+01  0.1789E+01
     -4.735  0.2505E+01  0.1953E+01
     -4.644  0.0000E+00  0.2000E+01
     -4.554  0.0000E+00  0.2000E+01
     -4.464  0.0000E+00  0.2000E+01
     -4.373  0.0000E+00  0.2000E+01
     -4.283  0.0000E+00  0.2000E+01
     -4.192  0.0000E+00  0.2000E+01
     -4.102  0.0000E+00  0.2000E+01
     -4.012  0.0000E+00  0.2000E+01
     -3.921  0.0000E+00  0.2000E+01
     -3.831  0.0000E+00  0.2000E+01
     -3.740  0.0000E+00  0.2000E+01
     -3.650  0.0000E+00  0.2000E+01
     -3.560  0.0000E+00  0.2000E+01
     -3.469  0.0000E+00  0.2000E+01
     -3.379  0.0000E+00  0.2000E+01
     -3.288  0.0000E+00  0.2000E+01
     -3.198  0.0000E+00  0.2000E+01
     -3.108  0.0000E+00  0.2000E+01
     -3.017  0.0000E+00  0.2000E+01
     -2.927  0.0000E+00  0.2000E+01
     -2.836  0.0000E+00  0.2000E+01
     -2.746  0.0000E+00  0.2000E+01
     -2.656  0.0000E+00  0.2000E+01
     -2.565  0.0000E+00  0.2000E+01
     -2.475  0.0000E+00  0.2000E+01
     -2.384  0.0000E+00  0.2000E+01
     -2.294  0.0000E+00  0.2000E+01
     -2.204  0.0000E+00  0.2000E+01
     -2.113  0.0000E+00  0.2000E+01
     -2.023  0.0000E+00  0.2000E+01
     -1.933  0.0000E+00  0.2000E+01
     -1.842  0.0000E+00  0.2000E+01
     -1.752  0.0000E+00  0.2000E+01
     -1.661  0.0000E+00  0.2000E+01
     -1.571  0.0000E+00  0.2000E+01
     -1.481  0.0000E+00  0.2000E+01
     -1.390  0.0000E+00  0.2000E+01
     -1.300  0.0000E+00  0.2000E+01
     -1.209  0.0000E+00  0.2000E+01
     -1.119  0.0000E+00  0.2000E+01
     -1.029  0.0000E+00  0.2000E+01
     -0.938  0.0000E+00  0.2000E+01
     -0.848  0.0000E+00  0.2000E+01
     -0.757  0.2341E+00  0.2014E+01
     -0.667  0.3328E+00  0.2040E+01
     -0.577  0.4286E+00  0.2075E+01
     -0.486  0.6108E+00  0.2120E+01
     -0.396  0.8820E+00  0.2189E+01
     -0.305  0.1165E+01  0.2282E+01
     -0.215  0.1685E+01  0.2407E+01
     -0.125  0.2470E+01  0.2608E+01
     -0.034  0.2577E+01  0.2837E+01
      0.056  0.1178E+01  0.3001E+01
      0.147  0.9489E+00  0.3096E+01
      0.237  0.7573E+00  0.3170E+01
      0.327  0.6654E+00  0.3234E+01
      0.418  0.5677E+00  0.3290E+01
      0.508  0.5244E+00  0.3339E+01
      0.599  0.4798E+00  0.3384E+01
      0.689  0.4235E+00  0.3425E+01
      0.779  0.3972E+00  0.3462E+01
      0.870  0.3732E+00  0.3497E+01
      0.960  0.3454E+00  0.3530E+01
      1.051  0.3131E+00  0.3559E+01
      1.141  0.2961E+00  0.3587E+01
      1.231  0.2809E+00  0.3613E+01
      1.322  0.4516E+00  0.3643E+01
      1.412  0.6185E+00  0.3692E+01
      1.503  0.8173E+00  0.3757E+01
      1.593  0.1079E+01  0.3846E+01
      1.683  0.9851E+00  0.3940E+01
      1.774  0.9481E+00  0.4028E+01
      1.864  0.9251E+00  0.4112E+01
      1.955  0.8960E+00  0.4195E+01
      2.045  0.8756E+00  0.4275E+01
      2.135  0.8643E+00  0.4353E+01
      2.226  0.9260E+00  0.4433E+01
      2.316  0.9286E+00  0.4517E+01
      2.407  0.9629E+00  0.4603E+01
      2.497  0.9922E+00  0.4692E+01
      2.587  0.1053E+01  0.4784E+01
      2.678  0.1067E+01  0.4879E+01
      2.768  0.1139E+01  0.4979E+01
      2.859  0.1180E+01  0.5084E+01
      2.949  0.1340E+01  0.5199E+01
      3.039  0.1499E+01  0.5330E+01
      3.130  0.1463E+01  0.5463E+01
      3.220  0.1446E+01  0.5594E+01
      3.311  0.1431E+01  0.5724E+01
      3.401  0.1415E+01  0.5852E+01
      3.491  0.1382E+01  0.5979E+01
      3.582  0.1374E+01  0.6103E+01
      3.672  0.1362E+01  0.6227E+01
      3.762  0.1337E+01  0.6349E+01
      3.853  0.1327E+01  0.6469E+01
      3.943  0.1302E+01  0.6588E+01
      4.034  0.1296E+01  0.6705E+01
      4.124  0.1295E+01  0.6822E+01
      4.214  0.1277E+01  0.6939E+01
      4.305  0.1264E+01  0.7053E+01
      4.395  0.1249E+01  0.7167E+01
      4.486  0.1260E+01  0.7280E+01
      4.576  0.1242E+01  0.7393E+01
      4.666  0.1097E+01  0.7503E+01
      4.757  0.8690E+00  0.7590E+01
      4.847  0.7611E+00  0.7663E+01
      4.938  0.6721E+00  0.7728E+01
      5.028  0.5915E+00  0.7785E+01
      5.118  0.5229E+00  0.7836E+01
      5.209  0.4626E+00  0.7880E+01
      5.299  0.3964E+00  0.7919E+01
      5.390  0.3276E+00  0.7951E+01
      5.480  0.2620E+00  0.7979E+01
      5.570  0.1172E+00  0.7997E+01
      5.661  0.0000E+00  0.8000E+01
      5.751  0.0000E+00  0.8000E+01
      5.842  0.0000E+00  0.8000E+01
      5.932  0.0000E+00  0.8000E+01
      6.022  0.0000E+00  0.8000E+01
      6.113  0.0000E+00  0.8000E+01
      6.203  0.0000E+00  0.8000E+01
      6.294  0.0000E+00  0.8000E+01
      6.384  0.0000E+00  0.8000E+01
      6.474  0.0000E+00  0.8000E+01
      6.565  0.0000E+00  0.8000E+01
      6.655  0.0000E+00  0.8000E+01
      6.746  0.2187E-01  0.8001E+01
      6.836  0.6149E-01  0.8004E+01
      6.926  0.7956E-01  0.8011E+01
      7.017  0.1056E+00  0.8019E+01
      7.107  0.1284E+00  0.8030E+01
      7.198  0.1543E+00  0.8042E+01
      7.288  0.1838E+00  0.8058E+01
      7.378  0.2119E+00  0.8076E+01
      7.469  0.2395E+00  0.8096E+01
      7.559  0.2698E+00  0.8119E+01
      7.650  0.3027E+00  0.8145E+01
      7.740  0.3305E+00  0.8173E+01
      7.830  0.3563E+00  0.8204E+01
      7.921  0.3957E+00  0.8238E+01
      8.011  0.4697E+00  0.8277E+01
      8.102  0.5114E+00  0.8322E+01
      8.192  0.5481E+00  0.8370E+01
      8.282  0.5917E+00  0.8421E+01
      8.373  0.6402E+00  0.8477E+01
      8.463  0.6802E+00  0.8536E+01
      8.554  0.7360E+00  0.8600E+01
      8.644  0.8341E+00  0.8671E+01
      8.734  0.9273E+00  0.8751E+01
      8.825  0.1020E+01  0.8839E+01
      8.915  0.1126E+01  0.8936E+01
      9.006  0.1331E+01  0.9046E+01
      9.096  0.1529E+01  0.9177E+01
      9.186  0.1525E+01  0.9316E+01
      9.277  0.1518E+01  0.9453E+01
      9.367  0.1592E+01  0.9594E+01
      9.457  0.1621E+01  0.9739E+01
      9.548  0.1497E+01  0.9881E+01
      9.638  0.1338E+01  0.1001E+02
      9.729  0.1055E+01  0.1012E+02
      9.819  0.7952E+00  0.1020E+02
      9.909  0.5655E+00  0.1026E+02
     10.000  0.4582E+00  0.1031E+02
     10.090  0.6271E+00  0.1036E+02
     10.181  0.9813E+00  0.1043E+02
     10.271  0.1202E+01  0.1053E+02
     10.361  0.1413E+01  0.1065E+02
     10.452  0.1667E+01  0.1078E+02
     10.542  0.2236E+01  0.1096E+02
     10.633  0.2308E+01  0.1118E+02
     10.723  0.1861E+01  0.1137E+02
     10.813  0.1476E+01  0.1152E+02
     10.904  0.1367E+01  0.1164E+02
     10.994  0.1362E+01  0.1176E+02
     11.085  0.1199E+01  0.1188E+02
     11.175  0.1148E+01  0.1198E+02
     11.265  0.1157E+01  0.1209E+02
     11.356  0.1258E+01  0.1220E+02
     11.446  0.1342E+01  0.1231E+02
     11.537  0.1491E+01  0.1244E+02
     11.627  0.1222E+01  0.1256E+02
     11.717  0.1140E+01  0.1267E+02
     11.808  0.1115E+01  0.1277E+02
     11.898  0.1337E+01  0.1288E+02
     11.989  0.1219E+01  0.1299E+02
     12.079  0.1150E+01  0.1310E+02
     12.169  0.1104E+01  0.1320E+02
     12.260  0.1135E+01  0.1330E+02
     12.350  0.1140E+01  0.1340E+02
     12.441  0.1056E+01  0.1350E+02
     12.531  0.1038E+01  0.1360E+02
     12.621  0.1053E+01  0.1369E+02
     12.712  0.1005E+01  0.1379E+02
     12.802  0.9517E+00  0.1387E+02
     12.893  0.9889E+00  0.1396E+02
     12.983  0.9762E+00  0.1405E+02
     13.073  0.9346E+00  0.1413E+02
     13.164  0.9949E+00  0.1422E+02
     13.254  0.9654E+00  0.1431E+02
     13.345  0.8553E+00  0.1439E+02
     13.435  0.8048E+00  0.1447E+02
     13.525  0.8161E+00  0.1454E+02
     13.616  0.9166E+00  0.1462E+02
     13.706  0.1020E+01  0.1471E+02
     13.797  0.1160E+01  0.1481E+02
     13.887  0.1178E+01  0.1492E+02
     13.977  0.1031E+01  0.1502E+02
     14.068  0.9260E+00  0.1510E+02
     14.158  0.8160E+00  0.1518E+02
     14.249  0.7748E+00  0.1525E+02
     14.339  0.7499E+00  0.1532E+02
     14.429  0.6914E+00  0.1539E+02
     14.520  0.5882E+00  0.1545E+02
     14.610  0.4771E+00  0.1549E+02
     14.701  0.3952E+00  0.1553E+02
     14.791  0.3761E+00  0.1557E+02
     14.881  0.3444E+00  0.1560E+02
     14.972  0.3203E+00  0.1563E+02
     15.062  0.3048E+00  0.1566E+02
     15.152  0.2870E+00  0.1569E+02
     15.243  0.2705E+00  0.1571E+02
     15.333  0.2582E+00  0.1573E+02
     15.424  0.2459E+00  0.1576E+02
     15.514  0.2338E+00  0.1578E+02
     15.604  0.2211E+00  0.1580E+02
     15.695  0.2073E+00  0.1582E+02
     15.785  0.1978E+00  0.1584E+02
     15.876  0.1949E+00  0.1585E+02
     15.966  0.1821E+00  0.1587E+02
     16.056  0.1596E+00  0.1589E+02
     16.147  0.1434E+00  0.1590E+02
     16.237  0.1301E+00  0.1591E+02
     16.328  0.1192E+00  0.1592E+02
     16.418  0.1094E+00  0.1594E+02
     16.508  0.1026E+00  0.1594E+02
     16.599  0.1026E+00  0.1595E+02
     16.689  0.1019E+00  0.1596E+02
     16.780  0.8662E-01  0.1597E+02
     16.870  0.7243E-01  0.1598E+02
     16.960  0.5945E-01  0.1599E+02
     17.051  0.4768E-01  0.1599E+02
     17.141  0.3739E-01  0.1599E+02
     17.232  0.3995E-01  0.1600E+02
     17.322  0.0000E+00  0.1600E+02
     17.412  0.0000E+00  0.1600E+02
     17.503  0.0000E+00  0.1600E+02
     17.593  0.0000E+00  0.1600E+02
     17.684  0.0000E+00  0.1600E+02
     17.774  0.0000E+00  0.1600E+02
     17.864  0.0000E+00  0.1600E+02
     17.955  0.0000E+00  0.1600E+02
     18.045  0.0000E+00  0.1600E+02
     18.136  0.0000E+00  0.1600E+02
     18.226  0.0000E+00  0.1600E+02
     18.316  0.0000E+00  0.1600E+02
     18.407  0.0000E+00  0.1600E+02
     18.497  0.0000E+00  0.1600E+02
