    2    2    1    1
  0.1883572E+02  0.3762782E-09  0.3762782E-09  0.3762782E-09  0.0000000E+00
  1.000000000000000E-004
  CAR 
 unknown system                          
      8    286      8
 
  0.0000000E+00  0.0000000E+00  0.0000000E+00  0.1079797E-03
    1       -7.389181   1.000000
    2        5.622963   1.000000
    3        5.622963   1.000000
    4        5.622963   1.000000
    5        9.262047   0.000000
    6       10.228847   0.000000
    7       10.228847   0.000000
    8       10.228847   0.000000
 
  0.4761905E-01  0.0000000E+00  0.0000000E+00  0.8638376E-03
    1       -7.361024   1.000000
    2        5.336270   1.000000
    3        5.591756   1.000000
    4        5.591756   1.000000
    5        9.437159   0.000000
    6       10.285696   0.000000
    7       10.285697   0.000000
    8       10.288059   0.000000
 
  0.9523810E-01  0.0000000E+00  0.0000000E+00  0.8638376E-03
    1       -7.277060   1.000000
    2        4.653575   1.000000
    3        5.505204   1.000000
    4        5.505205   1.000000
    5        9.580745   0.000000
    6       10.439208   0.000000
    7       10.439209   0.000000
    8       10.686492   0.000000
 
  0.1428571E+00  0.0000000E+00  0.0000000E+00  0.8638376E-03
    1       -7.139189   1.000000
    2        3.811160   1.000000
    3        5.380585   1.000000
    4        5.380586   1.000000
    5        9.473709   0.000000
    6       10.639112   0.000000
    7       10.639112   0.000000
    8       11.442031   0.000000
 
  0.1904762E+00  0.0000000E+00  0.0000000E+00  0.8638376E-03
    1       -6.950838   1.000000
    2        2.928127   1.000000
    3        5.237673   1.000000
    4        5.237673   1.000000
    5        9.284016   0.000000
    6       10.807233   0.000000
    7       10.807233   0.000000
    8       12.293868   0.000000
 
  0.2380952E+00  0.0000000E+00  0.0000000E+00  0.8638376E-03
    1       -6.717892   1.000000
    2        2.061003   1.000000
    3        5.093442   1.000000
    4        5.093442   1.000000
    5        9.084107   0.000000
    6       10.869062   0.000000
    7       10.869062   0.000000
    8       13.098000   0.000000
 
  0.2857143E+00  0.0000000E+00  0.0000000E+00  0.8638376E-03
    1       -6.449887   1.000000
    2        1.244164   1.000000
    3        4.960388   1.000000
    4        4.960388   1.000000
    5        8.901228   0.000000
    6       10.813273   0.000000
    7       10.813273   0.000000
    8       13.677235   0.000000
 
  0.3333333E+00  0.0000000E+00  0.0000000E+00  0.8638376E-03
    1       -6.162535   1.000000
    2        0.506914   1.000000
    3        4.846911   1.000000
    4        4.846911   1.000000
    5        8.747889   0.000000
    6       10.691510   0.000000
    7       10.691510   0.000000
    8       13.865470   0.000000
 
  0.3809524E+00  0.0000000E+00  0.0000000E+00  0.8638376E-03
    1       -5.881389   1.000000
    2       -0.117083   1.000000
    3        4.758338   1.000000
    4        4.758339   1.000000
    5        8.630100   0.000000
    6       10.560917   0.000000
    7       10.560917   0.000000
    8       13.816237   0.000000
 
  0.4285714E+00  0.0000000E+00  0.0000000E+00  0.8638376E-03
    1       -5.645966   1.000000
    2       -0.583419   1.000000
    3        4.697867   1.000000
    4        4.697868   1.000000
    5        8.550666   0.000000
    6       10.458259   0.000000
    7       10.458259   0.000000
    8       13.725419   0.000000
 
  0.4761905E+00  0.0000000E+00  0.0000000E+00  0.8638376E-03
    1       -5.507452   1.000000
    2       -0.838031   1.000000
    3        4.667248   1.000000
    4        4.667248   1.000000
    5        8.510755   0.000000
    6       10.402875   0.000000
    7       10.402875   0.000000
    8       13.668643   0.000000
 
  0.4761905E-01  0.4761905E-01  0.0000000E+00  0.6478782E-03
    1       -7.351623   1.000000
    2        5.371932   1.000000
    3        5.514015   1.000000
    4        5.514015   1.000000
    5        9.531595   0.000000
    6       10.104684   0.000000
    7       10.390965   0.000000
    8       10.390965   0.000000
 
  0.9523810E-01  0.4761905E-01  0.0000000E+00  0.2591513E-02
    1       -7.286223   1.000000
    2        4.847265   1.000000
    3        5.388691   1.000000
    4        5.476854   1.000000
    5        9.754481   0.000000
    6       10.073229   0.000000
    7       10.589367   0.000000
    8       10.686833   0.000000
 
  0.1428571E+00  0.4761905E-01  0.0000000E+00  0.2591513E-02
    1       -7.166263   1.000000
    2        4.066650   1.000000
    3        5.236870   1.000000
    4        5.404962   1.000000
    5        9.686350   0.000000
    6       10.257190   0.000000
    7       10.831696   0.000000
    8       11.291575   0.000000
 
  0.1904762E+00  0.4761905E-01  0.0000000E+00  0.2591513E-02
    1       -6.994574   1.000000
    2        3.207588   1.000000
    3        5.078717   1.000000
    4        5.284654   1.000000
    5        9.507215   0.000000
    6       10.470129   0.000000
    7       11.044108   0.000000
    8       11.978889   0.000000
 
  0.2380952E+00  0.4761905E-01  0.0000000E+00  0.2591513E-02
    1       -6.776160   1.000000
    2        2.343451   1.000000
    3        4.930014   1.000000
    4        5.137053   1.000000
    5        9.311593   0.000000
    6       10.606037   0.000000
    7       11.147597   0.000000
    8       12.539594   0.000000
 
  0.2857143E+00  0.4761905E-01  0.0000000E+00  0.2591513E-02
    1       -6.519120   1.000000
    2        1.515400   1.000000
    3        4.801762   1.000000
    4        4.981317   1.000000
    5        9.127627   0.000000
    6       10.610042   0.000000
    7       11.112923   0.000000
    8       13.017115   0.000000
 
  0.3333333E+00  0.4761905E-01  0.0000000E+00  0.2591513E-02
    1       -6.236810   1.000000
    2        0.754611   1.000000
    3        4.701006   1.000000
    4        4.831722   1.000000
    5        8.969225   0.000000
    6       10.521350   0.000000
    7       10.982455   0.000000
    8       13.499750   0.000000
 
  0.3809524E+00  0.4761905E-01  0.0000000E+00  0.2591513E-02
    1       -5.950974   1.000000
    2        0.093236   1.000000
    3        4.631872   1.000000
    4        4.698174   1.000000
    5        8.843725   0.000000
    6       10.410870   0.000000
    7       10.818874   0.000000
    8       13.819136   0.000000
 
  0.4285714E+00  0.4761905E-01  0.0000000E+00  0.2591513E-02
    1       -5.696103   1.000000
    2       -0.427925   1.000000
    3        4.587467   1.000000
    4        4.596320   1.000000
    5        8.754862   0.000000
    6       10.325280   0.000000
    7       10.667351   0.000000
    8       13.881214   0.000000
 
  0.4761905E+00  0.4761905E-01  0.0000000E+00  0.2591513E-02
    1       -5.520408   1.000000
    2       -0.756921   1.000000
    3        4.504333   1.000000
    4        4.594728   1.000000
    5        8.704326   0.000000
    6       10.287678   0.000000
    7       10.553686   0.000000
    8       13.860342   0.000000
 
 -0.4761905E+00  0.4761905E-01  0.0000000E+00  0.2591513E-02
    1       -5.472022   1.000000
    2       -0.843682   1.000000
    3        4.452142   1.000000
    4        4.626289   1.000000
    5        8.692721   0.000000
    6       10.307504   0.000000
    7       10.490889   0.000000
    8       13.854287   0.000000
 
 -0.4285714E+00  0.4761905E-01  0.0000000E+00  0.2591513E-02
    1       -5.567022   1.000000
    2       -0.671700   1.000000
    3        4.433283   1.000000
    4        4.689176   1.000000
    5        8.720075   0.000000
    6       10.385698   0.000000
    7       10.483370   0.000000
    8       13.882932   0.000000
 
 -0.3809524E+00  0.4761905E-01  0.0000000E+00  0.2591513E-02
    1       -5.775078   1.000000
    2       -0.272249   1.000000
    3        4.449274   1.000000
    4        4.780606   1.000000
    5        8.786052   0.000000
    6       10.515802   0.000000
    7       10.527841   0.000000
    8       13.922358   0.000000
 
 -0.3333333E+00  0.4761905E-01  0.0000000E+00  0.2591513E-02
    1       -6.045046   1.000000
    2        0.300977   1.000000
    3        4.500678   1.000000
    4        4.896671   1.000000
    5        8.889755   0.000000
    6       10.611124   0.000000
    7       10.681672   0.000000
    8       13.882201   0.000000
 
 -0.2857143E+00  0.4761905E-01  0.0000000E+00  0.2591513E-02
    1       -6.332823   1.000000
    2        0.999257   1.000000
    3        4.586878   1.000000
    4        5.031902   1.000000
    5        9.029158   0.000000
    6       10.704391   0.000000
    7       10.850799   0.000000
    8       13.605469   0.000000
 
 -0.2380952E+00  0.4761905E-01  0.0000000E+00  0.2591513E-02
    1       -6.608598   1.000000
    2        1.785026   1.000000
    3        4.705680   1.000000
    4        5.178613   1.000000
    5        9.199863   0.000000
    6       10.757329   0.000000
    7       10.963403   0.000000
    8       13.096551   0.000000
 
 -0.1904762E+00  0.4761905E-01  0.0000000E+00  0.2591513E-02
    1       -6.853905   1.000000
    2        2.626713   1.000000
    3        4.852827   1.000000
    4        5.325908   1.000000
    5        9.392730   0.000000
    6       10.714533   0.000000
    7       10.935982   0.000000
    8       12.486708   0.000000
 
 -0.1428571E+00  0.4761905E-01  0.0000000E+00  0.2591513E-02
    1       -7.057424   1.000000
    2        3.489263   1.000000
    3        5.021610   1.000000
    4        5.458857   1.000000
    5        9.587931   0.000000
    6       10.574345   0.000000
    7       10.727080   0.000000
    8       11.820927   0.000000
 
 -0.9523810E-01  0.4761905E-01  0.0000000E+00  0.2591513E-02
    1       -7.212267   1.000000
    2        4.317747   1.000000
    3        5.204129   1.000000
    4        5.558884   1.000000
    5        9.729660   0.000000
    6       10.407527   0.000000
    7       10.415115   0.000000
    8       11.161231   0.000000
 
 -0.4761905E-01  0.4761905E-01  0.0000000E+00  0.1295756E-02
    1       -7.314238   1.000000
    2        4.995621   1.000000
    3        5.402419   1.000000
    4        5.607191   1.000000
    5        9.642066   0.000000
    6       10.243917   0.000000
    7       10.295007   0.000000
    8       10.628757   0.000000
 
  0.9523810E-01  0.9523810E-01  0.0000000E+00  0.6478782E-03
    1       -7.239561   1.000000
    2        4.774420   1.000000
    3        5.230056   1.000000
    4        5.230057   1.000000
    5        9.757079   0.000000
    6       10.166152   0.000000
    7       10.832892   0.000000
    8       10.832892   0.000000
 
  0.1428571E+00  0.9523810E-01  0.0000000E+00  0.2591513E-02
    1       -7.138048   1.000000
    2        4.200781   1.000000
    3        5.052941   1.000000
    4        5.140430   1.000000
    5        9.629985   0.000000
    6       10.348490   0.000000
    7       11.122791   0.000000
    8       11.268768   0.000000
 
  0.1904762E+00  0.9523810E-01  0.0000000E+00  0.2591513E-02
    1       -6.984049   1.000000
    2        3.425678   1.000000
    3        4.877672   1.000000
    4        5.047674   1.000000
    5        9.575839   0.000000
    6       10.420585   0.000000
    7       11.390693   0.000000
    8       11.670387   0.000000
 
  0.2380952E+00  0.9523810E-01  0.0000000E+00  0.2591513E-02
    1       -6.781822   1.000000
    2        2.602347   1.000000
    3        4.719338   1.000000
    4        4.903017   1.000000
    5        9.497570   0.000000
    6       10.530564   0.000000
    7       11.554742   0.000000
    8       11.795155   0.000000
 
  0.2857143E+00  0.9523810E-01  0.0000000E+00  0.2591513E-02
    1       -6.538300   1.000000
    2        1.789760   1.000000
    3        4.588199   1.000000
    4        4.726071   1.000000
    5        9.378023   0.000000
    6       10.577626   0.000000
    7       11.565320   0.000000
    8       11.999417   0.000000
 
  0.3333333E+00  0.9523810E-01  0.0000000E+00  0.2591513E-02
    1       -6.264894   1.000000
    2        1.025773   1.000000
    3        4.490743   1.000000
    4        4.539351   1.000000
    5        9.249901   0.000000
    6       10.497198   0.000000
    7       11.448638   0.000000
    8       12.461540   0.000000
 
  0.3809524E+00  0.9523810E-01  0.0000000E+00  0.2591513E-02
    1       -5.980103   1.000000
    2        0.344098   1.000000
    3        4.359861   1.000000
    4        4.430671   1.000000
    5        9.139926   0.000000
    6       10.372218   0.000000
    7       11.270310   0.000000
    8       13.084102   0.000000
 
  0.4285714E+00  0.9523810E-01  0.0000000E+00  0.2591513E-02
    1       -5.713603   1.000000
    2       -0.216396   1.000000
    3        4.199432   1.000000
    4        4.409586   1.000000
    5        9.062774   0.000000
    6       10.266155   0.000000
    7       11.084571   0.000000
    8       13.713946   0.000000
 
  0.4761905E+00  0.9523810E-01  0.0000000E+00  0.2591513E-02
    1       -5.508929   1.000000
    2       -0.606677   1.000000
    3        4.066317   1.000000
    4        4.427429   1.000000
    5        9.025110   0.000000
    6       10.205269   0.000000
    7       10.924167   0.000000
    8       14.132369   0.000000
 
 -0.4761905E+00  0.9523810E-01  0.0000000E+00  0.2591513E-02
    1       -5.416024   1.000000
    2       -0.773763   1.000000
    3        3.966503   1.000000
    4        4.482733   1.000000
    5        9.028344   0.000000
    6       10.200674   0.000000
    7       10.806776   0.000000
    8       14.285210   0.000000
 
 -0.4285714E+00  0.9523810E-01  0.0000000E+00  0.2591513E-02
    1       -5.464177   1.000000
    2       -0.687337   1.000000
    3        3.904488   1.000000
    4        4.572671   1.000000
    5        9.070623   0.000000
    6       10.256955   0.000000
    7       10.740526   0.000000
    8       14.318400   0.000000
 
 -0.3809524E+00  0.9523810E-01  0.0000000E+00  0.2591513E-02
    1       -5.637572   1.000000
    2       -0.363960   1.000000
    3        3.883715   1.000000
    4        4.693016   1.000000
    5        9.148639   0.000000
    6       10.373222   0.000000
    7       10.726018   0.000000
    8       14.253015   0.000000
 
 -0.3333333E+00  0.9523810E-01  0.0000000E+00  0.2591513E-02
    1       -5.889265   1.000000
    2        0.146595   1.000000
    3        3.906856   1.000000
    4        4.837904   1.000000
    5        9.259095   0.000000
    6       10.540097   0.000000
    7       10.755022   0.000000
    8       13.986017   0.000000
 
 -0.2857143E+00  0.9523810E-01  0.0000000E+00  0.2591513E-02
    1       -6.171933   1.000000
    2        0.791399   1.000000
    3        3.976054   1.000000
    4        4.999347   1.000000
    5        9.399100   0.000000
    6       10.731953   0.000000
    7       10.805155   0.000000
    8       13.484769   0.000000
 
 -0.2380952E+00  0.9523810E-01  0.0000000E+00  0.2591513E-02
    1       -6.451484   1.000000
    2        1.526199   1.000000
    3        4.093479   1.000000
    4        5.166557   1.000000
    5        9.565148   0.000000
    6       10.832147   0.000000
    7       10.888075   0.000000
    8       12.910102   0.000000
 
 -0.1904762E+00  0.9523810E-01  0.0000000E+00  0.2591513E-02
    1       -6.706254   1.000000
    2        2.310708   1.000000
    3        4.262841   1.000000
    4        5.325153   1.000000
    5        9.750276   0.000000
    6       10.779931   0.000000
    7       10.885130   0.000000
    8       12.440390   0.000000
 
 -0.1428571E+00  0.9523810E-01  0.0000000E+00  0.2591513E-02
    1       -6.922896   1.000000
    2        3.094813   1.000000
    3        4.493723   1.000000
    4        5.456736   1.000000
    5        9.934760   0.000000
    6       10.631651   0.000000
    7       10.641619   0.000000
    8       12.111274   0.000000
 
 -0.9523810E-01  0.9523810E-01  0.0000000E+00  0.1295756E-02
    1       -7.093237   1.000000
    2        3.797034   1.000000
    3        4.808731   1.000000
    4        5.540554   1.000000
    5        9.995712   0.000000
    6       10.352439   0.000000
    7       10.489834   0.000000
    8       11.709763   0.000000
 
  0.1428571E+00  0.1428571E+00  0.0000000E+00  0.6478782E-03
    1       -7.055139   1.000000
    2        4.036041   1.000000
    3        4.854513   1.000000
    4        4.854513   1.000000
    5        9.319206   0.000000
    6       10.675811   0.000000
    7       11.467089   0.000000
    8       11.467089   0.000000
 
  0.1904762E+00  0.1428571E+00  0.0000000E+00  0.2591513E-02
    1       -6.919468   1.000000
    2        3.487443   1.000000
    3        4.662453   1.000000
    4        4.710870   1.000000
    5        9.170260   0.000000
    6       10.668175   0.000000
    7       11.712520   0.000000
    8       11.801892   0.000000
 
  0.2380952E+00  0.1428571E+00  0.0000000E+00  0.2591513E-02
    1       -6.734648   1.000000
    2        2.773710   1.000000
    3        4.491752   1.000000
    4        4.563721   1.000000
    5        9.146733   0.000000
    6       10.652523   0.000000
    7       11.615423   0.000000
    8       12.045167   0.000000
 
  0.2857143E+00  0.1428571E+00  0.0000000E+00  0.2591513E-02
    1       -6.506692   1.000000
    2        2.020746   1.000000
    3        4.352483   1.000000
    4        4.368220   1.000000
    5        9.133914   0.000000
    6       10.798841   0.000000
    7       11.443239   0.000000
    8       12.126738   0.000000
 
  0.3333333E+00  0.1428571E+00  0.0000000E+00  0.2591513E-02
    1       -6.245441   1.000000
    2        1.285655   1.000000
    3        4.144480   1.000000
    4        4.251051   1.000000
    5        9.073843   0.000000
    6       10.971946   0.000000
    7       11.491701   0.000000
    8       12.048648   0.000000
 
  0.3809524E+00  0.1428571E+00  0.0000000E+00  0.2591513E-02
    1       -5.966733   1.000000
    2        0.609041   1.000000
    3        3.917583   1.000000
    4        4.191168   1.000000
    5        8.996812   0.000000
    6       10.887923   0.000000
    7       11.875233   0.000000
    8       12.017198   0.000000
 
  0.4285714E+00  0.1428571E+00  0.0000000E+00  0.2591513E-02
    1       -5.696004   1.000000
    2        0.030913   1.000000
    3        3.706104   1.000000
    4        4.174500   1.000000
    5        8.943085   0.000000
    6       10.760708   0.000000
    7       11.671053   0.000000
    8       12.746106   0.000000
 
  0.4761905E+00  0.1428571E+00  0.0000000E+00  0.2591513E-02
    1       -5.471515   1.000000
    2       -0.401558   1.000000
    3        3.522735   1.000000
    4        4.201072   1.000000
    5        8.934734   0.000000
    6       10.658520   0.000000
    7       11.477365   0.000000
    8       13.549178   0.000000
 
 -0.4761905E+00  0.1428571E+00  0.0000000E+00  0.2591513E-02
    1       -5.341347   1.000000
    2       -0.635285   1.000000
    3        3.376299   1.000000
    4        4.269409   1.000000
    5        8.980451   0.000000
    6       10.594347   0.000000
    7       11.316927   0.000000
    8       14.300477   0.000000
 
 -0.4285714E+00  0.1428571E+00  0.0000000E+00  0.2591513E-02
    1       -5.343209   1.000000
    2       -0.630483   1.000000
    3        3.273382   1.000000
    4        4.376498   1.000000
    5        9.080943   0.000000
    6       10.573948   0.000000
    7       11.201057   0.000000
    8       14.712898   0.000000
 
 -0.3809524E+00  0.1428571E+00  0.0000000E+00  0.2591513E-02
    1       -5.476410   1.000000
    2       -0.388527   1.000000
    3        3.219461   1.000000
    4        4.517592   1.000000
    5        9.231306   0.000000
    6       10.601157   0.000000
    7       11.132945   0.000000
    8       14.585196   0.000000
 
 -0.3333333E+00  0.1428571E+00  0.0000000E+00  0.2591513E-02
    1       -5.702502   1.000000
    2        0.048175   1.000000
    3        3.219915   1.000000
    4        4.685807   1.000000
    5        9.421854   0.000000
    6       10.676900   0.000000
    7       11.107118   0.000000
    8       14.069729   0.000000
 
 -0.2857143E+00  0.1428571E+00  0.0000000E+00  0.2591513E-02
    1       -5.973582   1.000000
    2        0.622891   1.000000
    3        3.281509   1.000000
    4        4.871446   1.000000
    5        9.638774   0.000000
    6       10.791910   0.000000
    7       11.104144   0.000000
    8       13.390686   0.000000
 
 -0.2380952E+00  0.1428571E+00  0.0000000E+00  0.2591513E-02
    1       -6.251860   1.000000
    2        1.280118   1.000000
    3        3.415373   1.000000
    4        5.061173   1.000000
    5        9.865450   0.000000
    6       10.902117   0.000000
    7       11.081012   0.000000
    8       12.733752   0.000000
 
 -0.1904762E+00  0.1428571E+00  0.0000000E+00  0.2591513E-02
    1       -6.512270   1.000000
    2        1.960103   1.000000
    3        3.642962   1.000000
    4        5.237090   1.000000
    5       10.079950   0.000000
    6       10.873719   0.000000
    7       10.980607   0.000000
    8       12.288446   0.000000
 
 -0.1428571E+00  0.1428571E+00  0.0000000E+00  0.1295756E-02
    1       -6.739193   1.000000
    2        2.587083   1.000000
    3        3.999414   1.000000
    4        5.376881   1.000000
    5       10.199370   0.000000
    6       10.637540   0.000000
    7       10.804942   0.000000
    8       12.170546   0.000000
 
  0.1904762E+00  0.1904762E+00  0.0000000E+00  0.6478782E-03
    1       -6.802339   1.000000
    2        3.254321   1.000000
    3        4.455028   1.000000
    4        4.455028   1.000000
    5        8.834112   0.000000
    6       10.460020   0.000000
    7       12.220089   0.000000
    8       12.220105   0.000000
 
  0.2380952E+00  0.1904762E+00  0.0000000E+00  0.2591513E-02
    1       -6.635744   1.000000
    2        2.750116   1.000000
    3        4.270918   1.000000
    4        4.271777   1.000000
    5        8.683770   0.000000
    6       10.209879   0.000000
    7       12.360323   0.000000
    8       12.565927   0.000000
 
  0.2857143E+00  0.1904762E+00  0.0000000E+00  0.2591513E-02
    1       -6.424987   1.000000
    2        2.124368   1.000000
    3        4.054799   1.000000
    4        4.120478   1.000000
    5        8.666420   0.000000
    6       10.125639   0.000000
    7       12.250521   0.000000
    8       12.750708   0.000000
 
  0.3333333E+00  0.1904762E+00  0.0000000E+00  0.2591513E-02
    1       -6.178660   1.000000
    2        1.469073   1.000000
    3        3.789915   1.000000
    4        4.010316   1.000000
    5        8.656802   0.000000
    6       10.314498   0.000000
    7       12.101662   0.000000
    8       12.742435   0.000000
 
  0.3809524E+00  0.1904762E+00  0.0000000E+00  0.2591513E-02
    1       -5.910515   1.000000
    2        0.838046   1.000000
    3        3.506929   1.000000
    4        3.944384   1.000000
    5        8.611765   0.000000
    6       10.750332   0.000000
    7       11.986400   0.000000
    8       12.596481   0.000000
 
  0.4285714E+00  0.1904762E+00  0.0000000E+00  0.2591513E-02
    1       -5.642459   1.000000
    2        0.276015   1.000000
    3        3.234612   1.000000
    4        3.924603   1.000000
    5        8.572540   0.000000
    6       11.225011   0.000000
    7       12.047270   0.000000
    8       12.389807   0.000000
 
  0.4761905E+00  0.1904762E+00  0.0000000E+00  0.2591513E-02
    1       -5.407681   1.000000
    2       -0.169577   1.000000
    3        2.992398   1.000000
    4        3.951280   1.000000
    5        8.574712   0.000000
    6       11.379666   0.000000
    7       12.175454   0.000000
    8       12.582582   0.000000
 
 -0.4761905E+00  0.1904762E+00  0.0000000E+00  0.2591513E-02
    1       -5.250135   1.000000
    2       -0.446370   1.000000
    3        2.792904   1.000000
    4        4.023218   1.000000
    5        8.634043   0.000000
    6       11.351872   0.000000
    7       11.982786   0.000000
    8       13.408875   0.000000
 
 -0.4285714E+00  0.1904762E+00  0.0000000E+00  0.2591513E-02
    1       -5.210747   1.000000
    2       -0.509562   1.000000
    3        2.645202   1.000000
    4        4.137629   1.000000
    5        8.755303   0.000000
    6       11.310384   0.000000
    7       11.826359   0.000000
    8       14.278481   0.000000
 
 -0.3809524E+00  0.1904762E+00  0.0000000E+00  0.2591513E-02
    1       -5.301447   1.000000
    2       -0.348019   1.000000
    3        2.557447   1.000000
    4        4.289894   1.000000
    5        8.937258   0.000000
    6       11.290855   0.000000
    7       11.710729   0.000000
    8       14.674723   0.000000
 
 -0.3333333E+00  0.1904762E+00  0.0000000E+00  0.2591513E-02
    1       -5.495290   1.000000
    2        0.004588   1.000000
    3        2.539543   1.000000
    4        4.472993   1.000000
    5        9.173970   0.000000
    6       11.300613   0.000000
    7       11.630078   0.000000
    8       14.097043   0.000000
 
 -0.2857143E+00  0.1904762E+00  0.0000000E+00  0.2591513E-02
    1       -5.747517   1.000000
    2        0.486803   1.000000
    3        2.607377   1.000000
    4        4.676662   1.000000
    5        9.453579   0.000000
    6       11.331490   0.000000
    7       11.561058   0.000000
    8       13.329774   0.000000
 
 -0.2380952E+00  0.1904762E+00  0.0000000E+00  0.2591513E-02
    1       -6.018146   1.000000
    2        1.024519   1.000000
    3        2.789748   1.000000
    4        4.886270   1.000000
    5        9.753390   0.000000
    6       11.333871   0.000000
    7       11.450223   0.000000
    8       12.639781   0.000000
 
 -0.1904762E+00  0.1904762E+00  0.0000000E+00  0.1295756E-02
    1       -6.279113   1.000000
    2        1.534992   1.000000
    3        3.129375   1.000000
    4        5.081644   1.000000
    5       10.020930   0.000000
    6       11.152151   0.000000
    7       11.241759   0.000000
    8       12.266935   0.000000
 
  0.2380952E+00  0.2380952E+00  0.0000000E+00  0.6478782E-03
    1       -6.487775   1.000000
    2        2.469094   1.000000
    3        4.073417   1.000000
    4        4.073417   1.000000
    5        8.346026   0.000000
    6        9.791496   0.000000
    7       13.043965   0.000000
    8       13.043969   0.000000
 
  0.2857143E+00  0.2380952E+00  0.0000000E+00  0.2591513E-02
    1       -6.295457   1.000000
    2        2.012175   1.000000
    3        3.866545   1.000000
    4        3.910288   1.000000
    5        8.203502   0.000000
    6        9.533800   0.000000
    7       13.204779   0.000000
    8       13.377360   0.000000
 
  0.3333333E+00  0.2380952E+00  0.0000000E+00  0.2591513E-02
    1       -6.066439   1.000000
    2        1.483651   1.000000
    3        3.581286   1.000000
    4        3.788608   1.000000
    5        8.190156   0.000000
    6        9.522011   0.000000
    7       13.119653   0.000000
    8       13.486665   0.000000
 
  0.3809524E+00  0.2380952E+00  0.0000000E+00  0.2591513E-02
    1       -5.812946   1.000000
    2        0.947226   1.000000
    3        3.240229   1.000000
    4        3.712679   1.000000
    5        8.184591   0.000000
    6        9.820666   0.000000
    7       12.982682   0.000000
    8       13.400398   0.000000
 
  0.4285714E+00  0.2380952E+00  0.0000000E+00  0.2591513E-02
    1       -5.554099   1.000000
    2        0.448966   1.000000
    3        2.891310   1.000000
    4        3.684776   1.000000
    5        8.168510   0.000000
    6       10.374230   0.000000
    7       12.852459   0.000000
    8       13.210045   0.000000
 
  0.4761905E+00  0.2380952E+00  0.0000000E+00  0.2591513E-02
    1       -5.318713   1.000000
    2        0.034466   1.000000
    3        2.570630   1.000000
    4        3.705547   1.000000
    5        8.180841   0.000000
    6       11.066072   0.000000
    7       12.776192   0.000000
    8       12.987226   0.000000
 
 -0.4761905E+00  0.2380952E+00  0.0000000E+00  0.2591513E-02
    1       -5.145615   1.000000
    2       -0.246576   1.000000
    3        2.300135   1.000000
    4        3.774163   1.000000
    5        8.245922   0.000000
    6       11.720549   0.000000
    7       12.771300   0.000000
    8       12.878388   0.000000
 
 -0.4285714E+00  0.2380952E+00  0.0000000E+00  0.2591513E-02
    1       -5.074587   1.000000
    2       -0.349184   1.000000
    3        2.094114   1.000000
    4        3.888251   1.000000
    5        8.372819   0.000000
    6       12.036323   0.000000
    7       12.580759   0.000000
    8       13.418270   0.000000
 
 -0.3809524E+00  0.2380952E+00  0.0000000E+00  0.2591513E-02
    1       -5.125216   1.000000
    2       -0.255814   1.000000
    3        1.965749   1.000000
    4        4.043611   1.000000
    5        8.562847   0.000000
    6       12.093357   0.000000
    7       12.419803   0.000000
    8       14.190310   0.000000
 
 -0.3333333E+00  0.2380952E+00  0.0000000E+00  0.2591513E-02
    1       -5.282443   1.000000
    2        0.004803   1.000000
    3        1.934044   1.000000
    4        4.233587   1.000000
    5        8.812428   0.000000
    6       12.090964   0.000000
    7       12.276206   0.000000
    8       14.090415   0.000000
 
 -0.2857143E+00  0.2380952E+00  0.0000000E+00  0.2591513E-02
    1       -5.508301   1.000000
    2        0.361534   1.000000
    3        2.032855   1.000000
    4        4.448193   1.000000
    5        9.112498   0.000000
    6       12.054763   0.000000
    7       12.106831   0.000000
    8       13.341593   0.000000
 
 -0.2380952E+00  0.2380952E+00  0.0000000E+00  0.1295756E-02
    1       -5.763540   1.000000
    2        0.721961   1.000000
    3        2.311175   1.000000
    4        4.672730   1.000000
    5        9.443340   0.000000
    6       11.833001   0.000000
    7       11.850483   0.000000
    8       12.770045   0.000000
 