       N       E                     dE             d eps       ncg     rms          rms(c)
DAV:   1     0.156812069337E+02    0.15681E+02   -0.32511E+03  4648   0.770E+02
DAV:   2    -0.856191660755E+01   -0.24243E+02   -0.23584E+02  6096   0.935E+01
DAV:   3    -0.907000057115E+01   -0.50808E+00   -0.50808E+00  5792   0.182E+01
DAV:   4    -0.907203785839E+01   -0.20373E-02   -0.20373E-02  7320   0.122E+00
DAV:   5    -0.907204114421E+01   -0.32858E-05   -0.32858E-05  5912   0.406E-02    0.305E+00
RMM:   6    -0.883910402077E+01    0.23294E+00   -0.21527E-01  4590   0.262E+00    0.169E+00
RMM:   7    -0.878350988256E+01    0.55594E-01   -0.16913E-01  4762   0.244E+00    0.399E-01
RMM:   8    -0.878368489831E+01   -0.17502E-03   -0.52589E-03  5108   0.594E-01    0.555E-02
RMM:   9    -0.878387263172E+01   -0.18773E-03   -0.26552E-04  5404   0.132E-01    0.187E-02
RMM:  10    -0.878387303291E+01   -0.40119E-06   -0.38080E-05  5505   0.428E-02    0.436E-03
RMM:  11    -0.878387380661E+01   -0.77369E-06   -0.35565E-06  5003   0.165E-02
   1 F= -.87838738E+01 E0= -.87838738E+01  d E =0.000000E+00
