   3   3   0   0
  0.1947542E+02  0.4355530E-09  0.4355530E-09  0.4355530E-09  0.5000000E-15
  1.000000000000000E-004
  CAR
 unknown system
     16.79922339    -32.70719864  301     13.47467221      1.00000000
    -32.707  0.0000E+00  0.0000E+00
    -32.542  0.0000E+00  0.0000E+00
    -32.377  0.0000E+00  0.0000E+00
    -32.212  0.0000E+00  0.0000E+00
    -32.047  0.0000E+00  0.0000E+00
    -31.882  0.0000E+00  0.0000E+00
    -31.717  0.0000E+00  0.0000E+00
    -31.552  0.0000E+00  0.0000E+00
    -31.387  0.0000E+00  0.0000E+00
    -31.222  0.0000E+00  0.0000E+00
    -31.057  0.0000E+00  0.0000E+00
    -30.892  0.0000E+00  0.0000E+00
    -30.727  0.0000E+00  0.0000E+00
    -30.562  0.0000E+00  0.0000E+00
    -30.397  0.1212E+02  0.2000E+01
    -30.232  0.0000E+00  0.2000E+01
    -30.067  0.0000E+00  0.2000E+01
    -29.902  0.0000E+00  0.2000E+01
    -29.737  0.0000E+00  0.2000E+01
    -29.572  0.0000E+00  0.2000E+01
    -29.407  0.0000E+00  0.2000E+01
    -29.242  0.0000E+00  0.2000E+01
    -29.077  0.0000E+00  0.2000E+01
    -28.912  0.0000E+00  0.2000E+01
    -28.747  0.0000E+00  0.2000E+01
    -28.582  0.0000E+00  0.2000E+01
    -28.417  0.0000E+00  0.2000E+01
    -28.252  0.0000E+00  0.2000E+01
    -28.087  0.0000E+00  0.2000E+01
    -27.922  0.0000E+00  0.2000E+01
    -27.757  0.0000E+00  0.2000E+01
    -27.592  0.0000E+00  0.2000E+01
    -27.427  0.0000E+00  0.2000E+01
    -27.261  0.0000E+00  0.2000E+01
    -27.096  0.0000E+00  0.2000E+01
    -26.931  0.0000E+00  0.2000E+01
    -26.766  0.0000E+00  0.2000E+01
    -26.601  0.0000E+00  0.2000E+01
    -26.436  0.0000E+00  0.2000E+01
    -26.271  0.0000E+00  0.2000E+01
    -26.106  0.0000E+00  0.2000E+01
    -25.941  0.0000E+00  0.2000E+01
    -25.776  0.0000E+00  0.2000E+01
    -25.611  0.0000E+00  0.2000E+01
    -25.446  0.0000E+00  0.2000E+01
    -25.281  0.0000E+00  0.2000E+01
    -25.116  0.0000E+00  0.2000E+01
    -24.951  0.0000E+00  0.2000E+01
    -24.786  0.0000E+00  0.2000E+01
    -24.621  0.0000E+00  0.2000E+01
    -24.456  0.0000E+00  0.2000E+01
    -24.291  0.0000E+00  0.2000E+01
    -24.126  0.0000E+00  0.2000E+01
    -23.961  0.0000E+00  0.2000E+01
    -23.796  0.0000E+00  0.2000E+01
    -23.631  0.0000E+00  0.2000E+01
    -23.466  0.0000E+00  0.2000E+01
    -23.301  0.0000E+00  0.2000E+01
    -23.136  0.0000E+00  0.2000E+01
    -22.971  0.0000E+00  0.2000E+01
    -22.806  0.0000E+00  0.2000E+01
    -22.641  0.0000E+00  0.2000E+01
    -22.476  0.0000E+00  0.2000E+01
    -22.311  0.0000E+00  0.2000E+01
    -22.146  0.0000E+00  0.2000E+01
    -21.981  0.0000E+00  0.2000E+01
    -21.816  0.0000E+00  0.2000E+01
    -21.651  0.0000E+00  0.2000E+01
    -21.486  0.0000E+00  0.2000E+01
    -21.321  0.0000E+00  0.2000E+01
    -21.156  0.0000E+00  0.2000E+01
    -20.991  0.0000E+00  0.2000E+01
    -20.826  0.0000E+00  0.2000E+01
    -20.661  0.0000E+00  0.2000E+01
    -20.496  0.0000E+00  0.2000E+01
    -20.331  0.0000E+00  0.2000E+01
    -20.166  0.0000E+00  0.2000E+01
    -20.001  0.0000E+00  0.2000E+01
    -19.836  0.0000E+00  0.2000E+01
    -19.671  0.0000E+00  0.2000E+01
    -19.505  0.0000E+00  0.2000E+01
    -19.340  0.0000E+00  0.2000E+01
    -19.175  0.0000E+00  0.2000E+01
    -19.010  0.0000E+00  0.2000E+01
    -18.845  0.0000E+00  0.2000E+01
    -18.680  0.0000E+00  0.2000E+01
    -18.515  0.0000E+00  0.2000E+01
    -18.350  0.0000E+00  0.2000E+01
    -18.185  0.0000E+00  0.2000E+01
    -18.020  0.0000E+00  0.2000E+01
    -17.855  0.0000E+00  0.2000E+01
    -17.690  0.0000E+00  0.2000E+01
    -17.525  0.0000E+00  0.2000E+01
    -17.360  0.0000E+00  0.2000E+01
    -17.195  0.0000E+00  0.2000E+01
    -17.030  0.0000E+00  0.2000E+01
    -16.865  0.0000E+00  0.2000E+01
    -16.700  0.0000E+00  0.2000E+01
    -16.535  0.0000E+00  0.2000E+01
    -16.370  0.0000E+00  0.2000E+01
    -16.205  0.0000E+00  0.2000E+01
    -16.040  0.0000E+00  0.2000E+01
    -15.875  0.0000E+00  0.2000E+01
    -15.710  0.0000E+00  0.2000E+01
    -15.545  0.0000E+00  0.2000E+01
    -15.380  0.0000E+00  0.2000E+01
    -15.215  0.0000E+00  0.2000E+01
    -15.050  0.0000E+00  0.2000E+01
    -14.885  0.0000E+00  0.2000E+01
    -14.720  0.0000E+00  0.2000E+01
    -14.555  0.0000E+00  0.2000E+01
    -14.390  0.0000E+00  0.2000E+01
    -14.225  0.0000E+00  0.2000E+01
    -14.060  0.0000E+00  0.2000E+01
    -13.895  0.0000E+00  0.2000E+01
    -13.730  0.0000E+00  0.2000E+01
    -13.565  0.0000E+00  0.2000E+01
    -13.400  0.0000E+00  0.2000E+01
    -13.235  0.0000E+00  0.2000E+01
    -13.070  0.0000E+00  0.2000E+01
    -12.905  0.0000E+00  0.2000E+01
    -12.740  0.0000E+00  0.2000E+01
    -12.575  0.0000E+00  0.2000E+01
    -12.410  0.0000E+00  0.2000E+01
    -12.245  0.0000E+00  0.2000E+01
    -12.080  0.0000E+00  0.2000E+01
    -11.915  0.0000E+00  0.2000E+01
    -11.749  0.0000E+00  0.2000E+01
    -11.584  0.0000E+00  0.2000E+01
    -11.419  0.0000E+00  0.2000E+01
    -11.254  0.0000E+00  0.2000E+01
    -11.089  0.0000E+00  0.2000E+01
    -10.924  0.0000E+00  0.2000E+01
    -10.759  0.0000E+00  0.2000E+01
    -10.594  0.0000E+00  0.2000E+01
    -10.429  0.0000E+00  0.2000E+01
    -10.264  0.0000E+00  0.2000E+01
    -10.099  0.0000E+00  0.2000E+01
     -9.934  0.1851E+02  0.5054E+01
     -9.769  0.0000E+00  0.1200E+02
     -9.604  0.0000E+00  0.1200E+02
     -9.439  0.0000E+00  0.1200E+02
     -9.274  0.0000E+00  0.1200E+02
     -9.109  0.0000E+00  0.1200E+02
     -8.944  0.0000E+00  0.1200E+02
     -8.779  0.0000E+00  0.1200E+02
     -8.614  0.0000E+00  0.1200E+02
     -8.449  0.0000E+00  0.1200E+02
     -8.284  0.0000E+00  0.1200E+02
     -8.119  0.0000E+00  0.1200E+02
     -7.954  0.0000E+00  0.1200E+02
     -7.789  0.0000E+00  0.1200E+02
     -7.624  0.0000E+00  0.1200E+02
     -7.459  0.0000E+00  0.1200E+02
     -7.294  0.0000E+00  0.1200E+02
     -7.129  0.0000E+00  0.1200E+02
     -6.964  0.0000E+00  0.1200E+02
     -6.799  0.0000E+00  0.1200E+02
     -6.634  0.3977E-08  0.1200E+02
     -6.469  0.2047E+01  0.1242E+02
     -6.304  0.2416E+01  0.1384E+02
     -6.139  0.3333E+01  0.1455E+02
     -5.974  0.6244E+01  0.1661E+02
     -5.809  0.2626E+01  0.1800E+02
     -5.644  0.0000E+00  0.1800E+02
     -5.479  0.0000E+00  0.1800E+02
     -5.314  0.0000E+00  0.1800E+02
     -5.149  0.0000E+00  0.1800E+02
     -4.984  0.0000E+00  0.1800E+02
     -4.819  0.0000E+00  0.1800E+02
     -4.654  0.0000E+00  0.1800E+02
     -4.489  0.0000E+00  0.1800E+02
     -4.324  0.0000E+00  0.1800E+02
     -4.158  0.0000E+00  0.1800E+02
     -3.993  0.0000E+00  0.1800E+02
     -3.828  0.0000E+00  0.1800E+02
     -3.663  0.0000E+00  0.1800E+02
     -3.498  0.0000E+00  0.1800E+02
     -3.333  0.0000E+00  0.1800E+02
     -3.168  0.0000E+00  0.1800E+02
     -3.003  0.0000E+00  0.1800E+02
     -2.838  0.0000E+00  0.1800E+02
     -2.673  0.0000E+00  0.1800E+02
     -2.508  0.0000E+00  0.1800E+02
     -2.343  0.0000E+00  0.1800E+02
     -2.178  0.0000E+00  0.1800E+02
     -2.013  0.0000E+00  0.1800E+02
     -1.848  0.0000E+00  0.1800E+02
     -1.683  0.0000E+00  0.1800E+02
     -1.518  0.0000E+00  0.1800E+02
     -1.353  0.0000E+00  0.1800E+02
     -1.188  0.0000E+00  0.1800E+02
     -1.023  0.0000E+00  0.1800E+02
     -0.858  0.0000E+00  0.1800E+02
     -0.693  0.0000E+00  0.1800E+02
     -0.528  0.7196E-16  0.1800E+02
     -0.363  0.4369E-03  0.1800E+02
     -0.198  0.7674E-13  0.1801E+02
     -0.033  0.1136E+00  0.1804E+02
      0.132  0.3279E-01  0.1806E+02
      0.297  0.2648E+00  0.1810E+02
      0.462  0.1327E+00  0.1815E+02
      0.627  0.6804E+00  0.1828E+02
      0.792  0.1159E+01  0.1865E+02
      0.957  0.1326E+01  0.1908E+02
      1.122  0.1287E+01  0.1952E+02
      1.287  0.6606E+00  0.1983E+02
      1.452  0.3975E+00  0.1995E+02
      1.617  0.4413E-01  0.2000E+02
      1.782  0.0000E+00  0.2000E+02
      1.947  0.0000E+00  0.2000E+02
      2.112  0.0000E+00  0.2000E+02
      2.277  0.0000E+00  0.2000E+02
      2.442  0.0000E+00  0.2000E+02
      2.607  0.0000E+00  0.2000E+02
      2.772  0.0000E+00  0.2000E+02
      2.937  0.0000E+00  0.2000E+02
      3.102  0.0000E+00  0.2000E+02
      3.267  0.0000E+00  0.2000E+02
      3.432  0.0000E+00  0.2000E+02
      3.598  0.0000E+00  0.2000E+02
      3.763  0.0000E+00  0.2000E+02
      3.928  0.0000E+00  0.2000E+02
      4.093  0.0000E+00  0.2000E+02
      4.258  0.0000E+00  0.2000E+02
      4.423  0.0000E+00  0.2000E+02
      4.588  0.0000E+00  0.2000E+02
      4.753  0.0000E+00  0.2000E+02
      4.918  0.0000E+00  0.2000E+02
      5.083  0.0000E+00  0.2000E+02
      5.248  0.0000E+00  0.2000E+02
      5.413  0.0000E+00  0.2000E+02
      5.578  0.0000E+00  0.2000E+02
      5.743  0.0000E+00  0.2000E+02
      5.908  0.7349E-16  0.2000E+02
      6.073  0.5578E+00  0.2012E+02
      6.238  0.1059E+01  0.2046E+02
      6.403  0.6553E+00  0.2080E+02
      6.568  0.1287E+01  0.2116E+02
      6.733  0.2475E+01  0.2192E+02
      6.898  0.1976E+01  0.2259E+02
      7.063  0.2188E+01  0.2329E+02
      7.228  0.2092E+01  0.2404E+02
      7.393  0.2782E+01  0.2491E+02
      7.558  0.1593E+01  0.2538E+02
      7.723  0.7586E+00  0.2572E+02
      7.888  0.9617E+00  0.2601E+02
      8.053  0.4378E+01  0.2758E+02
      8.218  0.1640E+01  0.2840E+02
      8.383  0.2262E+01  0.2912E+02
      8.548  0.1356E+01  0.2985E+02
      8.713  0.4410E+00  0.3004E+02
      8.878  0.4429E+00  0.3016E+02
      9.043  0.6263E+00  0.3033E+02
      9.208  0.5317E+00  0.3057E+02
      9.373  0.7952E+00  0.3099E+02
      9.538  0.1173E+01  0.3131E+02
      9.703  0.6068E+00  0.3151E+02
      9.868  0.5536E+00  0.3167E+02
     10.033  0.5296E+00  0.3190E+02
     10.198  0.2092E+00  0.3200E+02
     10.363  0.7756E+00  0.3224E+02
     10.528  0.8458E+00  0.3250E+02
     10.693  0.3977E+00  0.3267E+02
     10.858  0.1024E+01  0.3303E+02
     11.023  0.7687E+00  0.3325E+02
     11.188  0.6612E+00  0.3349E+02
     11.354  0.3859E+00  0.3371E+02
     11.519  0.3031E+01  0.3447E+02
     11.684  0.2377E+01  0.3546E+02
     11.849  0.7273E+00  0.3575E+02
     12.014  0.4330E+00  0.3594E+02
     12.179  0.0000E+00  0.3600E+02
     12.344  0.1243E-03  0.3600E+02
     12.509  0.1027E+00  0.3602E+02
     12.674  0.1307E+01  0.3626E+02
     12.839  0.1592E+01  0.3677E+02
     13.004  0.1538E+01  0.3728E+02
     13.169  0.1567E+01  0.3788E+02
     13.334  0.5567E+00  0.3809E+02
     13.499  0.7459E+01  0.3956E+02
     13.664  0.3776E+01  0.4107E+02
     13.829  0.2851E+01  0.4216E+02
     13.994  0.6910E+01  0.4415E+02
     14.159  0.5027E+01  0.4597E+02
     14.324  0.3795E+01  0.4766E+02
     14.489  0.5797E+00  0.4798E+02
     14.654  0.0000E+00  0.4800E+02
     14.819  0.0000E+00  0.4800E+02
     14.984  0.0000E+00  0.4800E+02
     15.149  0.0000E+00  0.4800E+02
     15.314  0.0000E+00  0.4800E+02
     15.479  0.0000E+00  0.4800E+02
     15.644  0.0000E+00  0.4800E+02
     15.809  0.0000E+00  0.4800E+02
     15.974  0.0000E+00  0.4800E+02
     16.139  0.0000E+00  0.4800E+02
     16.304  0.0000E+00  0.4800E+02
     16.469  0.0000E+00  0.4800E+02
     16.634  0.0000E+00  0.4800E+02
     16.799  0.0000E+00  0.4800E+02
