    3    3    1    1
  0.1947542E+02  0.4355530E-09  0.4355530E-09  0.4355530E-09  0.5000000E-15
  1.000000000000000E-004
  CAR
 unknown system
     39     84     24

  0.0000000E+00  0.0000000E+00  0.0000000E+00  0.4551661E-03
    1      -30.456907   1.000000
    2       -9.922965   1.000000
    3       -9.922965   1.000000
    4       -9.874319   1.000000
    5       -9.874319   1.000000
    6       -9.874319   1.000000
    7       -6.069003   1.000000
    8       -6.069003   1.000000
    9       -6.069003   1.000000
   10       -0.474170   1.000000
   11        7.799619   1.000000
   12        7.799619   1.000000
   13        7.870413   1.000000
   14        7.870413   1.000000
   15        7.870413   1.000000
   16       11.918156   1.000000
   17       11.918156   1.000000
   18       11.918156   1.000000
   19       12.357816   1.000000
   20       13.236910   1.000000
   21       13.236910   1.000000
   22       13.236910   1.000000
   23       13.881409   0.000000
   24       13.881466   0.000000

  0.7692308E-01  0.1641784E-18 -0.1379187E-17  0.3641329E-02
    1      -30.455844   1.000000
    2       -9.928268   1.000000
    3       -9.928268   1.000000
    4       -9.875303   1.000000
    5       -9.873747   1.000000
    6       -9.873747   1.000000
    7       -6.112283   1.000000
    8       -6.056511   1.000000
    9       -6.056511   1.000000
   10       -0.346526   1.000000
   11        7.516002   1.000000
   12        7.516002   1.000000
   13        7.732777   1.000000
   14        8.135499   1.000000
   15        8.135499   1.000000
   16       11.321460   1.000000
   17       11.840955   1.000000
   18       11.840955   1.000000
   19       12.544521   1.000000
   20       13.267711   1.000000
   21       13.267711   1.000000
   22       13.423038   1.000000
   23       13.883773   0.000000
   24       13.955563   0.000000

  0.1538462E+00 -0.5159451E-17  0.2729435E-17  0.3641329E-02
    1      -30.452905   1.000000
    2       -9.942678   1.000000
    3       -9.942678   1.000000
    4       -9.878518   1.000000
    5       -9.872252   1.000000
    6       -9.872252   1.000000
    7       -6.221962   1.000000
    8       -6.022097   1.000000
    9       -6.022097   1.000000
   10        0.001315   1.000000
   11        7.239460   1.000000
   12        7.239460   1.000000
   13        7.370254   1.000000
   14        8.337372   1.000000
   15        8.337372   1.000000
   16       10.498645   1.000000
   17       11.693342   1.000000
   18       11.693342   1.000000
   19       12.508927   1.000000
   20       13.328593   1.000000
   21       13.328593   1.000000
   22       13.774307   0.000000
   23       14.007830   0.000000
   24       14.131006   0.000000

  0.2307692E+00  0.1943621E-17 -0.5588646E-17  0.3641329E-02
    1      -30.448767   1.000000
    2       -9.962437   1.000000
    3       -9.962437   1.000000
    4       -9.884336   1.000000
    5       -9.870282   1.000000
    6       -9.870282   1.000000
    7       -6.354843   1.000000
    8       -5.974070   1.000000
    9       -5.974070   1.000000
   10        0.479962   1.000000
   11        6.903996   1.000000
   12        7.038870   1.000000
   13        7.038870   1.000000
   14        8.375301   1.000000
   15        8.375301   1.000000
   16        9.774845   1.000000
   17       11.605020   1.000000
   18       11.605020   1.000000
   19       12.467158   1.000000
   20       13.396376   1.000000
   21       13.396377   1.000000
   22       13.899378   0.000000
   23       13.998755   0.000000
   24       14.278947   0.000000

  0.3076923E+00 -0.1031890E-16  0.5458870E-17  0.3641329E-02
    1      -30.444381   1.000000
    2       -9.982804   1.000000
    3       -9.982804   1.000000
    4       -9.892248   1.000000
    5       -9.868261   1.000000
    6       -9.868261   1.000000
    7       -6.472924   1.000000
    8       -5.923694   1.000000
    9       -5.923694   1.000000
   10        0.974052   1.000000
   11        6.469865   1.000000
   12        6.931924   1.000000
   13        6.931924   1.000000
   14        8.247801   1.000000
   15        8.247801   1.000000
   16        9.219555   1.000000
   17       11.617457   1.000000
   18       11.617457   1.000000
   19       12.501599   1.000000
   20       13.475433   0.457176
   21       13.475433   0.457175
   22       13.909128   0.000000
   23       14.124924   0.000000
   24       14.285277   0.000000

  0.3846154E+00  0.7469460E-17 -0.1354450E-16  0.3641329E-02
    1      -30.440752   1.000000
    2       -9.999273   1.000000
    3       -9.999273   1.000000
    4       -9.900238   1.000000
    5       -9.866624   1.000000
    6       -9.866624   1.000000
    7       -6.555630   1.000000
    8       -5.882398   1.000000
    9       -5.882398   1.000000
   10        1.368455   1.000000
   11        6.167967   1.000000
   12        6.912155   1.000000
   13        6.912155   1.000000
   14        8.040191   1.000000
   15        8.040191   1.000000
   16        8.845595   1.000000
   17       11.681539   1.000000
   18       11.681539   1.000000
   19       12.602816   1.000000
   20       13.567821   0.000000
   21       13.567821   0.000000
   22       13.917229   0.000000
   23       14.184198   0.000000
   24       14.205954   0.000000

  0.4615385E+00  0.9084724E-17 -0.1637477E-16  0.3641329E-02
    1      -30.438706   1.000000
    2      -10.008421   1.000000
    3      -10.008421   1.000000
    4       -9.905348   1.000000
    5       -9.865711   1.000000
    6       -9.865711   1.000000
    7       -6.596915   1.000000
    8       -5.859273   1.000000
    9       -5.859273   1.000000
   10        1.581350   1.000000
   11        6.027470   1.000000
   12        6.936960   1.000000
   13        6.936960   1.000000
   14        7.878700   1.000000
   15        7.878700   1.000000
   16        8.655835   1.000000
   17       11.731481   1.000000
   18       11.731481   1.000000
   19       12.703338   1.000000
   20       13.649865   0.000000
   21       13.649865   0.000000
   22       13.921927   0.000000
   23       14.080200   0.000000
   24       14.080200   0.000000

  0.7692308E-01  0.7692308E-01 -0.1677417E-17  0.2730997E-02
    1      -30.455497   1.000000
    2       -9.937286   1.000000
    3       -9.921724   1.000000
    4       -9.875535   1.000000
    5       -9.873652   1.000000
    6       -9.873652   1.000000
    7       -6.091785   1.000000
    8       -6.070327   1.000000
    9       -6.070327   1.000000
   10       -0.306531   1.000000
   11        7.201851   1.000000
   12        7.812342   1.000000
   13        7.878606   1.000000
   14        7.878606   1.000000
   15        8.209475   1.000000
   16       11.353826   1.000000
   17       11.711014   1.000000
   18       11.711014   1.000000
   19       12.621425   1.000000
   20       13.336922   1.000000
   21       13.336922   1.000000
   22       13.338275   1.000000
   23       13.897720   0.000000
   24       13.975035   0.000000

  0.1538462E+00  0.7692308E-01 -0.2067791E-17  0.1092399E-01
    1      -30.453202   1.000000
    2       -9.953081   1.000000
    3       -9.925992   1.000000
    4       -9.877969   1.000000
    5       -9.872605   1.000000
    6       -9.872368   1.000000
    7       -6.175819   1.000000
    8       -6.059111   1.000000
    9       -6.033462   1.000000
   10       -0.040548   1.000000
   11        6.852537   1.000000
   12        7.575748   1.000000
   13        7.689723   1.000000
   14        8.096722   1.000000
   15        8.380247   1.000000
   16       10.767263   1.000000
   17       11.551183   1.000000
   18       11.574439   1.000000
   19       12.632955   1.000000
   20       13.304259   1.000000
   21       13.392854   1.000000
   22       13.664311   0.000000
   23       13.907141   0.000000
   24       14.106263   0.000000

  0.2307692E+00  0.7692308E-01  0.2994185E-18  0.1092399E-01
    1      -30.449490   1.000000
    2       -9.971743   1.000000
    3       -9.939868   1.000000
    4       -9.882549   1.000000
    5       -9.871201   1.000000
    6       -9.870232   1.000000
    7       -6.302208   1.000000
    8       -6.025762   1.000000
    9       -5.981353   1.000000
   10        0.377699   1.000000
   11        6.556806   1.000000
   12        7.325523   1.000000
   13        7.364158   1.000000
   14        8.187099   1.000000
   15        8.497533   1.000000
   16       10.076997   1.000000
   17       11.444387   1.000000
   18       11.477265   1.000000
   19       12.608993   1.000000
   20       13.353742   1.000000
   21       13.433163   1.000000
   22       13.913437   0.000000
   23       13.916152   0.000000
   24       14.244529   0.000000

  0.3076923E+00  0.7692308E-01  0.6616440E-18  0.1092399E-01
    1      -30.445216   1.000000
    2       -9.988902   1.000000
    3       -9.959545   1.000000
    4       -9.889211   1.000000
    5       -9.869664   1.000000
    6       -9.867997   1.000000
    7       -6.424856   1.000000
    8       -5.978321   1.000000
    9       -5.932010   1.000000
   10        0.839356   1.000000
   11        6.331861   1.000000
   12        7.000024   1.000000
   13        7.222487   1.000000
   14        8.106741   1.000000
   15        8.464444   1.000000
   16        9.478137   1.000000
   17       11.404788   1.000000
   18       11.517514   1.000000
   19       12.600087   1.000000
   20       13.445603   0.999980
   21       13.481686   0.160615
   22       13.919325   0.000000
   23       14.049472   0.000000
   24       14.281192   0.000000

  0.3846154E+00  0.7692308E-01  0.3028853E-17  0.1092399E-01
    1      -30.441359   1.000000
    2      -10.000799   1.000000
    3       -9.980275   1.000000
    4       -9.896755   1.000000
    5       -9.868179   1.000000
    6       -9.866218   1.000000
    7       -6.517932   1.000000
    8       -5.927779   1.000000
    9       -5.896446   1.000000
   10        1.231083   1.000000
   11        6.183431   1.000000
   12        6.834152   1.000000
   13        7.133586   1.000000
   14        7.947982   1.000000
   15        8.300742   1.000000
   16        9.029995   1.000000
   17       11.451994   1.000000
   18       11.608112   1.000000
   19       12.648215   1.000000
   20       13.547221   0.000000
   21       13.551622   0.000000
   22       13.921951   0.000000
   23       14.098503   0.000000
   24       14.247324   0.000000

  0.4615385E+00  0.7692308E-01 -0.1478700E-16  0.1092399E-01
    1      -30.438799   1.000000
    2      -10.005089   1.000000
    3       -9.997469   1.000000
    4       -9.902625   1.000000
    5       -9.867049   1.000000
    6       -9.865265   1.000000
    7       -6.571407   1.000000
    8       -5.885444   1.000000
    9       -5.882212   1.000000
   10        1.472497   1.000000
   11        6.114368   1.000000
   12        6.840849   1.000000
   13        7.034540   1.000000
   14        7.864543   1.000000
   15        8.087817   1.000000
   16        8.760865   1.000000
   17       11.521296   1.000000
   18       11.672736   1.000000
   19       12.732861   1.000000
   20       13.631956   0.000000
   21       13.637357   0.000000
   22       13.915193   0.000000
   23       14.068060   0.000000
   24       14.167714   0.000000

 -0.4615385E+00  0.7692308E-01  0.5192551E-17  0.1092399E-01
    1      -30.438117   1.000000
    2      -10.007588   1.000000
    3      -10.001106   1.000000
    4       -9.904231   1.000000
    5       -9.866535   1.000000
    6       -9.865278   1.000000
    7       -6.584190   1.000000
    8       -5.891968   1.000000
    9       -5.860600   1.000000
   10        1.536400   1.000000
   11        6.101054   1.000000
   12        6.889419   1.000000
   13        6.956472   1.000000
   14        7.924163   1.000000
   15        7.949676   1.000000
   16        8.693441   1.000000
   17       11.545831   1.000000
   18       11.679280   1.000000
   19       12.770509   1.000000
   20       13.645613   0.000000
   21       13.689333   0.000000
   22       13.899766   0.000000
   23       14.078021   0.000000
   24       14.095960   0.000000

 -0.3846154E+00  0.7692308E-01  0.8747275E-17  0.1092399E-01
    1      -30.439470   1.000000
    2      -10.008616   1.000000
    3       -9.989695   1.000000
    4       -9.900777   1.000000
    5       -9.866813   1.000000
    6       -9.866212   1.000000
    7       -6.556927   1.000000
    8       -5.923117   1.000000
    9       -5.858747   1.000000
   10        1.419528   1.000000
   11        6.140981   1.000000
   12        6.759230   1.000000
   13        7.095550   1.000000
   14        7.894202   1.000000
   15        8.155028   1.000000
   16        8.834032   1.000000
   17       11.489392   1.000000
   18       11.640490   1.000000
   19       12.716554   1.000000
   20       13.585672   0.000000
   21       13.634039   0.000000
   22       13.908595   0.000000
   23       14.125352   0.000000
   24       14.149190   0.000000

 -0.3076923E+00  0.7692308E-01  0.1749948E-16  0.1092399E-01
    1      -30.442546   1.000000
    2      -10.000306   1.000000
    3       -9.973004   1.000000
    4       -9.893890   1.000000
    5       -9.867857   1.000000
    6       -9.867811   1.000000
    7       -6.489721   1.000000
    8       -5.968438   1.000000
    9       -5.880486   1.000000
   10        1.124777   1.000000
   11        6.288142   1.000000
   12        6.707520   1.000000
   13        7.224559   1.000000
   14        8.000941   1.000000
   15        8.384416   1.000000
   16        9.163863   1.000000
   17       11.364731   1.000000
   18       11.599623   1.000000
   19       12.639295   1.000000
   20       13.514458   0.000000
   21       13.527690   0.000000
   22       13.914565   0.000000
   23       14.124823   0.000000
   24       14.206359   0.000000

 -0.2307692E+00  0.7692308E-01  0.1466921E-16  0.1092399E-01
    1      -30.446651   1.000000
    2       -9.984306   1.000000
    3       -9.954409   1.000000
    4       -9.886413   1.000000
    5       -9.869725   1.000000
    6       -9.869497   1.000000
    7       -6.386599   1.000000
    8       -6.017345   1.000000
    9       -5.921227   1.000000
   10        0.696460   1.000000
   11        6.569540   1.000000
   12        6.763250   1.000000
   13        7.396528   1.000000
   14        8.122316   1.000000
   15        8.538291   1.000000
   16        9.662412   1.000000
   17       11.241170   1.000000
   18       11.614451   1.000000
   19       12.604213   1.000000
   20       13.418926   1.000000
   21       13.459536   0.983848
   22       13.910720   0.000000
   23       14.032826   0.000000
   24       14.248843   0.000000

 -0.1538462E+00  0.7692308E-01  0.3158629E-17  0.1092399E-01
    1      -30.450843   1.000000
    2       -9.963920   1.000000
    3       -9.938171   1.000000
    4       -9.880494   1.000000
    5       -9.871541   1.000000
    6       -9.871397   1.000000
    7       -6.263876   1.000000
    8       -6.057228   1.000000
    9       -5.971913   1.000000
   10        0.232893   1.000000
   11        6.930293   1.000000
   12        6.931096   1.000000
   13        7.649299   1.000000
   14        8.120779   1.000000
   15        8.541449   1.000000
   16       10.296237   1.000000
   17       11.230223   1.000000
   18       11.712936   1.000000
   19       12.619189   1.000000
   20       13.320694   1.000000
   21       13.417796   1.000000
   22       13.872526   0.000000
   23       13.903018   0.000000
   24       14.179259   0.000000

 -0.7692308E-01  0.7692308E-01  0.3283568E-18  0.5461994E-02
    1      -30.454164   1.000000
    2       -9.943663   1.000000
    3       -9.928546   1.000000
    4       -9.876835   1.000000
    5       -9.873017   1.000000
    6       -9.872950   1.000000
    7       -6.158564   1.000000
    8       -6.072475   1.000000
    9       -6.020864   1.000000
   10       -0.148386   1.000000
   11        7.192977   1.000000
   12        7.297187   1.000000
   13        7.886317   1.000000
   14        7.989300   1.000000
   15        8.388634   1.000000
   16       10.926729   1.000000
   17       11.461419   1.000000
   18       11.831140   1.000000
   19       12.624501   1.000000
   20       13.255872   1.000000
   21       13.365142   1.000000
   22       13.620795   0.000000
   23       13.893344   0.000000
   24       14.043472   0.000000

  0.1538462E+00  0.1538462E+00 -0.3354834E-17  0.2730997E-02
    1      -30.451665   1.000000
    2       -9.966420   1.000000
    3       -9.918274   1.000000
    4       -9.879937   1.000000
    5       -9.871626   1.000000
    6       -9.871626   1.000000
    7       -6.152085   1.000000
    8       -6.074245   1.000000
    9       -6.074245   1.000000
   10        0.115452   1.000000
   11        6.469541   1.000000
   12        7.848076   1.000000
   13        7.873962   1.000000
   14        7.873962   1.000000
   15        8.291701   1.000000
   16       10.760338   1.000000
   17       11.396290   1.000000
   18       11.396290   1.000000
   19       12.583212   1.000000
   20       13.445334   0.999983
   21       13.445334   0.999983
   22       13.622229   0.000000
   23       13.947468   0.000000
   24       14.185907   0.000000

  0.2307692E+00  0.1538462E+00 -0.7835468E-17  0.1092399E-01
    1      -30.448651   1.000000
    2       -9.979401   1.000000
    3       -9.921914   1.000000
    4       -9.883541   1.000000
    5       -9.870354   1.000000
    6       -9.869682   1.000000
    7       -6.244511   1.000000
    8       -6.064157   1.000000
    9       -6.036275   1.000000
   10        0.414485   1.000000
   11        6.190568   1.000000
   12        7.642068   1.000000
   13        7.663385   1.000000
   14        8.005119   1.000000
   15        8.374705   1.000000
   16       10.394387   1.000000
   17       11.238227   1.000000
   18       11.335840   1.000000
   19       12.634252   1.000000
   20       13.415029   1.000000
   21       13.476174   0.415904
   22       13.808195   0.000000
   23       13.967652   0.000000
   24       14.291654   0.000000

  0.3076923E+00  0.1538462E+00 -0.5323096E-17  0.1092399E-01
    1      -30.444856   1.000000
    2       -9.988998   1.000000
    3       -9.935682   1.000000
    4       -9.888182   1.000000
    5       -9.869592   1.000000
    6       -9.867191   1.000000
    7       -6.361372   1.000000
    8       -6.031553   1.000000
    9       -5.987870   1.000000
   10        0.761639   1.000000
   11        6.064956   1.000000
   12        7.277718   1.000000
   13        7.508292   1.000000
   14        7.986738   1.000000
   15        8.459277   1.000000
   16        9.897105   1.000000
   17       11.104154   1.000000
   18       11.394503   1.000000
   19       12.716941   1.000000
   20       13.436996   1.000000
   21       13.508139   0.000001
   22       13.937728   0.000000
   23       13.970380   0.000000
   24       14.331130   0.000000

  0.3846154E+00  0.1538462E+00 -0.4063682E-17  0.1092399E-01
    1      -30.441151   1.000000
    2       -9.993114   1.000000
    3       -9.955638   1.000000
    4       -9.893501   1.000000
    5       -9.869279   1.000000
    6       -9.865153   1.000000
    7       -6.457004   1.000000
    8       -5.984203   1.000000
    9       -5.957274   1.000000
   10        1.060364   1.000000
   11        6.108553   1.000000
   12        6.995028   1.000000
   13        7.357476   1.000000
   14        7.905441   1.000000
   15        8.430460   1.000000
   16        9.411734   1.000000
   17       11.075780   1.000000
   18       11.500372   1.000000
   19       12.755696   1.000000
   20       13.521897   0.000000
   21       13.559533   0.000000
   22       13.963005   0.000000
   23       13.994977   0.000000
   24       14.304569   0.000000

  0.4615385E+00  0.1538462E+00 -0.2077174E-16  0.1092399E-01
    1      -30.438379   1.000000
    2       -9.991219   1.000000
    3       -9.977031   1.000000
    4       -9.898161   1.000000
    5       -9.869159   1.000000
    6       -9.864073   1.000000
    7       -6.516251   1.000000
    8       -5.951754   1.000000
    9       -5.932906   1.000000
   10        1.256304   1.000000
   11        6.262253   1.000000
   12        6.861601   1.000000
   13        7.147553   1.000000
   14        7.914209   1.000000
   15        8.297773   1.000000
   16        9.047633   1.000000
   17       11.108806   1.000000
   18       11.566516   1.000000
   19       12.807141   1.000000
   20       13.595749   0.000000
   21       13.635620   0.000000
   22       13.941661   0.000000
   23       14.024259   0.000000
   24       14.267238   0.000000

 -0.4615385E+00  0.1538462E+00 -0.1577777E-16  0.1092399E-01
    1      -30.437173   1.000000
    2       -9.995206   1.000000
    3       -9.984297   1.000000
    4       -9.899921   1.000000
    5       -9.869144   1.000000
    6       -9.864060   1.000000
    7       -6.536345   1.000000
    8       -5.971104   1.000000
    9       -5.889044   1.000000
   10        1.347551   1.000000
   11        6.369489   1.000000
   12        6.897122   1.000000
   13        6.905080   1.000000
   14        8.050035   1.000000
   15        8.122309   1.000000
   16        8.894037   1.000000
   17       11.125131   1.000000
   18       11.562508   1.000000
   19       12.861485   1.000000
   20       13.602444   0.000000
   21       13.718129   0.000000
   22       13.896638   0.000000
   23       14.076964   0.000000
   24       14.188345   0.000000

 -0.3846154E+00  0.1538462E+00  0.2762535E-17  0.1092399E-01
    1      -30.437806   1.000000
    2      -10.006415   1.000000
    3       -9.974057   1.000000
    4       -9.897548   1.000000
    5       -9.869276   1.000000
    6       -9.865008   1.000000
    7       -6.519713   1.000000
    8       -6.008667   1.000000
    9       -5.862309   1.000000
   10        1.340282   1.000000
   11        6.330557   1.000000
   12        6.701649   1.000000
   13        7.069066   1.000000
   14        7.987449   1.000000
   15        8.263630   1.000000
   16        8.993846   1.000000
   17       11.058384   1.000000
   18       11.514585   1.000000
   19       12.863949   1.000000
   20       13.559077   0.000000
   21       13.729343   0.000000
   22       13.872861   0.000000
   23       14.125606   0.000000
   24       14.147750   0.000000

 -0.3076923E+00  0.1538462E+00  0.1151474E-16  0.1092399E-01
    1      -30.440136   1.000000
    2      -10.008412   1.000000
    3       -9.962058   1.000000
    4       -9.892377   1.000000
    5       -9.869546   1.000000
    6       -9.866623   1.000000
    7       -6.470283   1.000000
    8       -6.052635   1.000000
    9       -5.858806   1.000000
   10        1.212372   1.000000
   11        6.262743   1.000000
   12        6.585874   1.000000
   13        7.298837   1.000000
   14        7.938845   1.000000
   15        8.486064   1.000000
   16        9.299792   1.000000
   17       10.896883   1.000000
   18       11.477697   1.000000
   19       12.820382   1.000000
   20       13.516422   0.000000
   21       13.632390   0.000000
   22       13.904094   0.000000
   23       14.108233   0.000000
   24       14.168998   0.000000

 -0.2307692E+00  0.1538462E+00  0.8684468E-17  0.1092399E-01
    1      -30.443630   1.000000
    2      -10.000702   1.000000
    3       -9.950095   1.000000
    4       -9.887114   1.000000
    5       -9.869937   1.000000
    6       -9.868509   1.000000
    7       -6.396483   1.000000
    8       -6.087018   1.000000
    9       -5.879648   1.000000
   10        0.945206   1.000000
   11        6.326668   1.000000
   12        6.583443   1.000000
   13        7.546490   1.000000
   14        7.944037   1.000000
   15        8.637127   1.000000
   16        9.735794   1.000000
   17       10.708902   1.000000
   18       11.507287   1.000000
   19       12.769628   1.000000
   20       13.490334   0.013385
   21       13.512309   0.000000
   22       13.919526   0.000000
   23       14.054911   0.000000
   24       14.209843   0.000000

 -0.1538462E+00  0.1538462E+00 -0.1031890E-16  0.5461994E-02
    1      -30.447494   1.000000
    2       -9.984787   1.000000
    3       -9.941067   1.000000
    4       -9.883239   1.000000
    5       -9.870558   1.000000
    6       -9.870245   1.000000
    7       -6.319262   1.000000
    8       -6.091638   1.000000
    9       -5.920425   1.000000
   10        0.583908   1.000000
   11        6.570086   1.000000
   12        6.701697   1.000000
   13        7.788349   1.000000
   14        7.915865   1.000000
   15        8.656203   1.000000
   16       10.142499   1.000000
   17       10.728785   1.000000
   18       11.612727   1.000000
   19       12.717486   1.000000
   20       13.396453   1.000000
   21       13.467777   0.835255
   22       13.917098   0.000000
   23       13.974117   0.000000
   24       14.220514   0.000000

  0.2307692E+00  0.2307692E+00 -0.5032251E-17  0.2730997E-02
    1      -30.446447   1.000000
    2       -9.983245   1.000000
    3       -9.913398   1.000000
    4       -9.886862   1.000000
    5       -9.868333   1.000000
    6       -9.868333   1.000000
    7       -6.235186   1.000000
    8       -6.080405   1.000000
    9       -6.080405   1.000000
   10        0.556184   1.000000
   11        5.975811   1.000000
   12        7.798603   1.000000
   13        7.798603   1.000000
   14        7.899703   1.000000
   15        8.130250   1.000000
   16       10.387771   1.000000
   17       11.287394   1.000000
   18       11.287394   1.000000
   19       12.549401   1.000000
   20       13.504769   0.000010
   21       13.504769   0.000010
   22       13.758599   0.000000
   23       14.032568   0.000000
   24       14.380119   0.000000

  0.3076923E+00  0.2307692E+00 -0.6927823E-17  0.1092399E-01
    1      -30.443382   1.000000
    2       -9.982299   1.000000
    3       -9.916888   1.000000
    4       -9.890702   1.000000
    5       -9.867014   1.000000
    6       -9.866012   1.000000
    7       -6.314167   1.000000
    8       -6.071007   1.000000
    9       -6.058131   1.000000
   10        0.734351   1.000000
   11        5.964465   1.000000
   12        7.517714   1.000000
   13        7.672371   1.000000
   14        7.931532   1.000000
   15        8.191681   1.000000
   16       10.157659   1.000000
   17       11.170721   1.000000
   18       11.358942   1.000000
   19       12.687229   1.000000
   20       13.482462   0.135312
   21       13.530413   0.000000
   22       13.824335   0.000000
   23       14.062089   0.000000
   24       14.421282   0.000000

  0.3846154E+00  0.2307692E+00 -0.1524590E-16  0.1092399E-01
    1      -30.440169   1.000000
    2       -9.976872   1.000000
    3       -9.930915   1.000000
    4       -9.894117   1.000000
    5       -9.867209   1.000000
    6       -9.863718   1.000000
    7       -6.399565   1.000000
    8       -6.038498   1.000000
    9       -6.035645   1.000000
   10        0.888153   1.000000
   11        6.154785   1.000000
   12        7.192786   1.000000
   13        7.491219   1.000000
   14        7.933818   1.000000
   15        8.293967   1.000000
   16        9.804827   1.000000
   17       10.973991   1.000000
   18       11.472663   1.000000
   19       12.842832   1.000000
   20       13.490787   0.011334
   21       13.569316   0.000000
   22       13.890047   0.000000
   23       14.054305   0.000000
   24       14.379537   0.000000

  0.4615385E+00  0.2307692E+00 -0.4198389E-17  0.1092399E-01
    1      -30.437537   1.000000
    2       -9.968655   1.000000
    3       -9.951518   1.000000
    4       -9.896246   1.000000
    5       -9.868822   1.000000
    6       -9.862412   1.000000
    7       -6.453865   1.000000
    8       -6.039691   1.000000
    9       -5.990487   1.000000
   10        0.998368   1.000000
   11        6.454157   1.000000
   12        7.009177   1.000000
   13        7.245233   1.000000
   14        7.995354   1.000000
   15        8.311925   1.000000
   16        9.425455   1.000000
   17       10.840574   1.000000
   18       11.527663   1.000000
   19       12.904320   1.000000
   20       13.541492   0.000000
   21       13.630170   0.000000
   22       13.955639   0.000000
   23       14.020214   0.000000
   24       14.308016   0.000000

 -0.4615385E+00  0.2307692E+00  0.7955820E-18  0.1092399E-01
    1      -30.436087   1.000000
    2       -9.973901   1.000000
    3       -9.960544   1.000000
    4       -9.895696   1.000000
    5       -9.871146   1.000000
    6       -9.862316   1.000000
    7       -6.469789   1.000000
    8       -6.070648   1.000000
    9       -5.937774   1.000000
   10        1.081440   1.000000
   11        6.682758   1.000000
   12        6.976068   1.000000
   13        6.982244   1.000000
   14        8.136701   1.000000
   15        8.229170   1.000000
   16        9.188090   1.000000
   17       10.743864   1.000000
   18       11.493136   1.000000
   19       12.950366   1.000000
   20       13.537852   0.000000
   21       13.705389   0.000000
   22       13.961943   0.000000
   23       14.055953   0.000000
   24       14.241487   0.000000

 -0.3846154E+00  0.2307692E+00  0.1933589E-16  0.1092399E-01
    1      -30.436147   1.000000
    2       -9.993257   1.000000
    3       -9.954884   1.000000
    4       -9.891943   1.000000
    5       -9.873220   1.000000
    6       -9.863255   1.000000
    7       -6.453197   1.000000
    8       -6.116214   1.000000
    9       -5.892034   1.000000
   10        1.150704   1.000000
   11        6.732353   1.000000
   12        6.739279   1.000000
   13        6.990329   1.000000
   14        8.103132   1.000000
   15        8.328426   1.000000
   16        9.242089   1.000000
   17       10.625272   1.000000
   18       11.412780   1.000000
   19       12.987758   1.000000
   20       13.485704   0.059359
   21       13.768684   0.000000
   22       13.890231   0.000000