 vasp.6.0.8 29Jun18 (build Jun 13 2019 12:54:44) complex

 executed on      IFC18_CrayMPICH date 2021.12.05  14:21:49
 running   64 mpi-ranks, with    1 threads/rank
 distrk:  each k-point on   16 cores,    4 groups
 distr:  one band on NCORES_PER_BAND=   4 cores,    4 groups


--------------------------------------------------------------------------------------------------------


 INCAR:
 POTCAR:    PAW_PBE U 06Sep2000
 POTCAR:    PAW_PBE Bi_d 06Sep2000
 POTCAR:    PAW_PBE Pt 04Feb2005
 POTCAR:    PAW_PBE U 06Sep2000
   VRHFIN =U:  [Xe,5d,4f]
   LEXCH  = PE
   EATOM  =  1405.3058 eV,  103.2871 Ry

   TITEL  = PAW_PBE U 06Sep2000
   LULTRA =        F    use ultrasoft PP ?
   IUNSCR =        1    unscreen: 0-lin 1-nonlin 2-no
   RPACOR =    2.200    partial core radius
   POMASS =  238.029; ZVAL   =   14.000    mass and valenz
   RCORE  =    2.800    outmost cutoff radius
   RWIGS  =    3.000; RWIGS  =    1.588    wigner-seitz radius (au A)
   ENMAX  =  252.502; ENMIN  =  189.376 eV
   RCLOC  =    1.811    cutoff for local pot
   LCOR   =        T    correct aug charges
   LPAW   =        T    paw PP
   EAUG   =  526.410
   DEXC   =    0.000
   RMAX   =    2.863    core radius for proj-oper
   RAUG   =    1.300    factor for augmentation sphere
   RDEP   =    2.950    radius for radial grids
   RDEPT  =    2.270    core radius for aug-charge

   Atomic configuration
   18 entries
     n  l   j            E        occ.
     1  0  0.50   -116038.1941   2.0000
     2  0  0.50    -21694.8835   2.0000
     2  1  1.50    -18009.1553   6.0000
     3  0  0.50     -5481.2929   2.0000
     3  1  1.50     -4458.9283   6.0000
     3  2  2.50     -3575.9978  10.0000
     4  0  0.50     -1400.5351   2.0000
     4  1  1.50     -1066.7807   6.0000
     4  2  2.50      -732.1336  10.0000
     4  3  3.50      -377.4393  14.0000
     5  0  0.50      -314.7366   2.0000
     5  1  1.50      -211.6057   6.0000
     5  2  2.50      -103.2045  10.0000
     6  0  0.50       -50.6026   2.0000
     7  0  0.50        -4.5896   2.0000
     6  1  1.50       -25.2884   6.0000
     6  2  1.50        -3.1039   2.0000
     5  3  2.50        -6.3670   2.0000
   Description
     l       E           TYP  RCUT    TYP  RCUT
     0    -50.6026097     23  2.600
     0     -4.5896371     23  2.600
     1    -25.2883770     23  2.500
     1     27.2116520     23  2.500
     2     -3.1038686     23  2.500
     2      0.8290654     23  2.500
     3     -6.3670133     23  2.800
     3     -7.7275959     23  2.800
  local pseudopotential read in
  partial core-charges read in
  partial kinetic energy density read in
  atomic valenz-charges read in
  non local Contribution for L=           0  read in
    real space projection operators read in
  non local Contribution for L=           0  read in
    real space projection operators read in
  non local Contribution for L=           1  read in
    real space projection operators read in
  non local Contribution for L=           1  read in
    real space projection operators read in
  non local Contribution for L=           2  read in
    real space projection operators read in
  non local Contribution for L=           2  read in
    real space projection operators read in
  non local Contribution for L=           3  read in
    real space projection operators read in
  non local Contribution for L=           3  read in
    real space projection operators read in
    PAW grid and wavefunctions read in

   number of l-projection  operators is LMAX  =           8
   number of lm-projection operators is LMMAX =          32

 POTCAR:    PAW_PBE Bi_d 06Sep2000
   VRHFIN =Bi:
   LEXCH  = PE
   EATOM  =  1959.2045 eV,  143.9975 Ry

   TITEL  = PAW_PBE Bi_d 06Sep2000
   LULTRA =        F    use ultrasoft PP ?
   IUNSCR =        1    unscreen: 0-lin 1-nonlin 2-no
   RPACOR =    2.200    partial core radius
   POMASS =  208.980; ZVAL   =   15.000    mass and valenz
   RCORE  =    2.500    outmost cutoff radius
   RWIGS  =    3.090; RWIGS  =    1.635    wigner-seitz radius (au A)
   ENMAX  =  242.839; ENMIN  =  182.129 eV
   ICORE  =        3    local potential
   LCOR   =        T    correct aug charges
   LPAW   =        T    paw PP
   EAUG   =  442.899
   DEXC   =    0.000
   RMAX   =    2.551    core radius for proj-oper
   RAUG   =    1.300    factor for augmentation sphere
   RDEP   =    2.650    radius for radial grids
   RDEPT  =    2.039    core radius for aug-charge

   Atomic configuration
   16 entries
     n  l   j            E        occ.
     1  0  0.50    -90639.6581   2.0000
     2  0  0.50    -16282.4666   2.0000
     2  1  1.50    -13922.8286   6.0000
     3  0  0.50     -3930.4763   2.0000
     3  1  1.50     -3256.7013   6.0000
     3  2  2.50     -2581.6168  10.0000
     4  0  0.50      -902.2614   2.0000
     4  1  1.50      -681.5915   6.0000
     4  2  2.50      -429.8249  10.0000
     4  3  3.50      -152.6004  14.0000
     5  0  0.50      -157.7156   2.0000
     5  1  1.50       -95.8054   6.0000
     5  2  2.50       -27.0806  10.0000
     6  0  0.50       -14.4732   2.0000
     6  1  1.50        -4.5702   3.0000
     5  3  2.50        -2.7212   0.0000
   Description
     l       E           TYP  RCUT    TYP  RCUT
     2    -27.0805982     23  2.500
     2     -1.3605826     23  2.500
     0    -14.4732271     23  2.500
     0      6.8029130     23  2.500
     1     -4.5701651     23  2.500
     1     13.6058260     23  2.500
     3     -1.3605826      7  2.500
  local pseudopotential read in
  partial core-charges read in
  partial kinetic energy density read in
  atomic valenz-charges read in
  non local Contribution for L=           2  read in
    real space projection operators read in
  non local Contribution for L=           2  read in
    real space projection operators read in
  non local Contribution for L=           0  read in
    real space projection operators read in
  non local Contribution for L=           0  read in
    real space projection operators read in
  non local Contribution for L=           1  read in
    real space projection operators read in
  non local Contribution for L=           1  read in
    real space projection operators read in
    PAW grid and wavefunctions read in

   number of l-projection  operators is LMAX  =           6
   number of lm-projection operators is LMMAX =          18

 POTCAR:    PAW_PBE Pt 04Feb2005
   VRHFIN =Pt: s1d9
   LEXCH  = PE
   EATOM  =   729.1176 eV,   53.5886 Ry

   TITEL  = PAW_PBE Pt 04Feb2005
   LULTRA =        F    use ultrasoft PP ?
   IUNSCR =        1    unscreen: 0-lin 1-nonlin 2-no
   RPACOR =    2.330    partial core radius
   POMASS =  195.080; ZVAL   =   10.000    mass and valenz
   RCORE  =    2.600    outmost cutoff radius
   RWIGS  =    2.750; RWIGS  =    1.455    wigner-seitz radius (au A)
   ENMAX  =  230.283; ENMIN  =  172.712 eV
   ICORE  =        3    local potential
   LCOR   =        T    correct aug charges
   LPAW   =        T    paw PP
   EAUG   =  358.966
   DEXC   =    0.000
   RMAX   =    2.658    core radius for proj-oper
   RAUG   =    1.300    factor for augmentation sphere
   RDEP   =    2.761    radius for radial grids
   RDEPT  =    2.203    core radius for aug-charge

   Atomic configuration
   16 entries
     n  l   j            E        occ.
     1  0  0.50    -78401.1885   2.0000
     2  0  0.50    -13770.7750   2.0000
     2  1  1.50    -11931.0468   6.0000
     3  0  0.50     -3234.7234   2.0000
     3  1  1.50     -2699.2216   6.0000
     3  2  2.50     -2119.5714  10.0000
     4  0  0.50      -695.1528   2.0000
     4  1  1.50      -519.6034   6.0000
     4  2  2.50      -306.6786  10.0000
     4  3  3.50       -70.1041  14.0000
     5  0  0.50      -101.7747   2.0000
     5  1  1.50       -55.9873   6.0000
     5  2  2.50        -6.1423   9.0000
     6  0  0.50        -5.6573   1.0000
     6  1  1.50        -6.8029   0.0000
     5  3  2.50        -1.3606   0.0000
   Description
     l       E           TYP  RCUT    TYP  RCUT
     2     -6.1423404     23  2.500
     2     -7.5029230     23  2.500
     0     -5.6573207     23  2.500
     0      0.7416693     23  2.500
     1     -2.7211652     23  2.600
     1     20.4087390     23  2.600
     3     -1.3605826     23  2.500
  local pseudopotential read in
  partial core-charges read in
  partial kinetic energy density read in
  atomic valenz-charges read in
  non local Contribution for L=           2  read in
    real space projection operators read in
  non local Contribution for L=           2  read in
    real space projection operators read in
  non local Contribution for L=           0  read in
    real space projection operators read in
  non local Contribution for L=           0  read in
    real space projection operators read in
  non local Contribution for L=           1  read in
    real space projection operators read in
  non local Contribution for L=           1  read in
    real space projection operators read in
    PAW grid and wavefunctions read in

   number of l-projection  operators is LMAX  =           6
   number of lm-projection operators is LMMAX =          18

 WARNING: PSMAXN for non-local potential too small
          PSMAXN should be >   13.5545592237991       NTYP=           1

 -----------------------------------------------------------------------------
|                                                                             |
|  ADVICE TO THIS USER RUNNING 'VASP/VAMP'   (HEAR YOUR MASTER'S VOICE ...):  |
|                                                                             |
|      You enforced a specific xc-type in the INCAR file,                     |
|      a different type was found on the POTCAR file                          |
|          I HOPE YOU KNOW, WHAT YOU ARE  DOING                               |
|                                                                             |
 -----------------------------------------------------------------------------

  PAW_PBE U 06Sep2000                   :
 energy of atom  1       EATOM=-1405.3058
 kinetic energy error for atom=    0.0006 (will be added to EATOM!!)
  PAW_PBE Bi_d 06Sep2000                :
 energy of atom  2       EATOM=-1959.2045
 kinetic energy error for atom=    0.0012 (will be added to EATOM!!)
  PAW_PBE Pt 04Feb2005                  :
 energy of atom  3       EATOM= -729.1176
 kinetic energy error for atom=    0.0010 (will be added to EATOM!!)


 POSCAR: U1 Bi1 Pt1
  positions in direct lattice
  No initial velocities read in
 exchange correlation table for  LEXCH =       14
   RHO(1)=    0.500       N(1)  =     2000
   RHO(2)=  100.500       N(2)  =     4000



--------------------------------------------------------------------------------------------------------


 ion  position               nearest neighbor table
   1  0.250  0.250  0.250-   3 2.67   3 2.67   3 2.67   3 2.67   2 3.08   2 3.08   2 3.08   2 3.08
                             2 3.08   2 3.08
   2  0.750  0.750  0.750-   3 2.67   3 2.67   3 2.67   3 2.67   1 3.08   1 3.08   1 3.08   1 3.08
                             1 3.08   1 3.08
   3  0.000  0.000  0.000-   2 2.67   1 2.67   2 2.67   1 2.67   2 2.67   2 2.67   1 2.67   1 2.67


  LATTYP: Found a face centered cubic cell.
 ALAT       =     6.1596501678

  Lattice vectors:

 A1 = (   0.0000000000,   3.0798250839,   3.0798250839)
 A2 = (   3.0798250839,   0.0000000000,   3.0798250839)
 A3 = (   3.0798250839,   3.0798250839,   0.0000000000)


Analysis of symmetry for initial positions (statically):
=====================================================================
 Subroutine PRICEL returns:
 Original cell was already a primitive cell.


 Routine SETGRP: Setting up the symmetry group for a
 face centered cubic supercell.


 Subroutine GETGRP returns: Found 24 space group operations
 (whereof 24 operations were pure point group operations)
 out of a pool of 48 trial point group operations.


The static configuration has the point symmetry T_d .


Analysis of symmetry for dynamics (positions and initial velocities):
=====================================================================
 Subroutine PRICEL returns:
 Original cell was already a primitive cell.


 Routine SETGRP: Setting up the symmetry group for a
 face centered cubic supercell.


 Subroutine GETGRP returns: Found 24 space group operations
 (whereof 24 operations were pure point group operations)
 out of a pool of 48 trial point group operations.


The dynamic configuration has the point symmetry T_d .


 Subroutine INISYM returns: Found 24 space group operations
 (whereof 24 operations are pure point group operations),
 and found     1 'primitive' translations


----------------------------------------------------------------------------------------

                                     Primitive cell

  volume of cell :      58.4263

  direct lattice vectors                    reciprocal lattice vectors
     0.000000000  3.079825084  3.079825084    -0.162346882  0.162346882  0.162346882
     3.079825084  0.000000000  3.079825084     0.162346882 -0.162346882  0.162346882
     3.079825084  3.079825084  0.000000000     0.162346882  0.162346882 -0.162346882

  length of vectors
     4.355530403  4.355530403  4.355530403     0.281193048  0.281193048  0.281193048

  position of ions in fractional coordinates (direct lattice)
     0.250000000  0.250000000  0.250000000
     0.750000000  0.750000000  0.750000000
     0.000000000  0.000000000  0.000000000

  ion indices of the primitive-cell ions
   primitive index   ion index
                 1           1
                 2           2
                 3           3

----------------------------------------------------------------------------------------



 KPOINTS: KPOINTS

Automatic generation of k-mesh.
Space group operators:
 irot       det(A)        alpha          n_x          n_y          n_z        tau_x        tau_y        tau_z
    1     1.000000     0.000000     1.000000     0.000000     0.000000     0.000000     0.000000     0.000000
    2     1.000000   120.000000    -0.577350    -0.577350    -0.577350     0.000000     0.000000     0.000000
    3     1.000000   120.000000     0.577350     0.577350     0.577350     0.000000     0.000000     0.000000
    4    -1.000000    90.000000    -0.000000     0.000000    -1.000000     0.000000     0.000000     0.000000
    5    -1.000000   180.000000    -0.000000     0.707107     0.707107     0.000000     0.000000     0.000000
    6    -1.000000    90.000000    -0.000000     1.000000    -0.000000     0.000000     0.000000     0.000000
    7     1.000000   180.000000     0.000000    -0.000000    -1.000000     0.000000     0.000000     0.000000
    8     1.000000   120.000000    -0.577350     0.577350     0.577350     0.000000     0.000000     0.000000
    9     1.000000   120.000000    -0.577350     0.577350    -0.577350     0.000000     0.000000     0.000000
   10    -1.000000    90.000000     0.000000     0.000000     1.000000     0.000000     0.000000     0.000000
   11    -1.000000    90.000000    -1.000000     0.000000     0.000000     0.000000     0.000000     0.000000
   12    -1.000000   180.000000     0.707107     0.000000     0.707107     0.000000     0.000000     0.000000
   13     1.000000   120.000000     0.577350    -0.577350     0.577350     0.000000     0.000000     0.000000
   14     1.000000   120.000000    -0.577350    -0.577350     0.577350     0.000000     0.000000     0.000000
   15     1.000000   180.000000     1.000000     0.000000     0.000000     0.000000     0.000000     0.000000
   16    -1.000000    90.000000     0.000000    -1.000000     0.000000     0.000000     0.000000     0.000000
   17    -1.000000   180.000000     0.707107     0.707107    -0.000000     0.000000     0.000000     0.000000
   18    -1.000000    90.000000     1.000000     0.000000     0.000000     0.000000     0.000000     0.000000
   19     1.000000   120.000000     0.577350    -0.577350    -0.577350     0.000000     0.000000     0.000000
   20     1.000000   180.000000    -0.000000    -1.000000     0.000000     0.000000     0.000000     0.000000
   21     1.000000   120.000000     0.577350     0.577350    -0.577350     0.000000     0.000000     0.000000
   22    -1.000000   180.000000    -0.000000    -0.707107     0.707107     0.000000     0.000000     0.000000
   23    -1.000000   180.000000     0.707107    -0.707107     0.000000     0.000000     0.000000     0.000000
   24    -1.000000   180.000000     0.707107     0.000000    -0.707107     0.000000     0.000000     0.000000

 Subroutine IBZKPT returns following result:
 ===========================================

 Found     84 irreducible k-points:

 Following reciprocal coordinates:
            Coordinates               Weight
  0.000000  0.000000  0.000000      1.000000
  0.076923  0.000000 -0.000000      8.000000
  0.153846 -0.000000  0.000000      8.000000
  0.230769  0.000000 -0.000000      8.000000
  0.307692 -0.000000  0.000000      8.000000
  0.384615  0.000000 -0.000000      8.000000
  0.461538  0.000000 -0.000000      8.000000
  0.076923  0.076923 -0.000000      6.000000
  0.153846  0.076923 -0.000000     24.000000
  0.230769  0.076923  0.000000     24.000000
  0.307692  0.076923  0.000000     24.000000
  0.384615  0.076923  0.000000     24.000000
  0.461538  0.076923 -0.000000     24.000000
 -0.461538  0.076923  0.000000     24.000000
 -0.384615  0.076923  0.000000     24.000000
 -0.307692  0.076923  0.000000     24.000000
 -0.230769  0.076923  0.000000     24.000000
 -0.153846  0.076923  0.000000     24.000000
 -0.076923  0.076923  0.000000     12.000000
  0.153846  0.153846 -0.000000      6.000000
  0.230769  0.153846 -0.000000     24.000000
  0.307692  0.153846 -0.000000     24.000000
  0.384615  0.153846 -0.000000     24.000000
  0.461538  0.153846 -0.000000     24.000000
 -0.461538  0.153846 -0.000000     24.000000
 -0.384615  0.153846  0.000000     24.000000
 -0.307692  0.153846  0.000000     24.000000
 -0.230769  0.153846  0.000000     24.000000
 -0.153846  0.153846 -0.000000     12.000000
  0.230769  0.230769 -0.000000      6.000000
  0.307692  0.230769 -0.000000     24.000000
  0.384615  0.230769 -0.000000     24.000000
  0.461538  0.230769 -0.000000     24.000000
 -0.461538  0.230769  0.000000     24.000000
 -0.384615  0.230769  0.000000     24.000000
 -0.307692  0.230769  0.000000     24.000000
 -0.230769  0.230769  0.000000     12.000000
  0.307692  0.307692 -0.000000      6.000000
  0.384615  0.307692 -0.000000     24.000000
  0.461538  0.307692 -0.000000     24.000000
 -0.461538  0.307692  0.000000     24.000000
 -0.384615  0.307692 -0.000000     24.000000
 -0.307692  0.307692 -0.000000     12.000000
  0.384615  0.384615 -0.000000      6.000000
  0.461538  0.384615 -0.000000     24.000000
 -0.461538  0.384615 -0.000000     24.000000
 -0.384615  0.384615  0.000000     12.000000
  0.461538  0.461538 -0.000000      6.000000
 -0.461538  0.461538  0.000000     12.000000
  0.230769  0.153846  0.076923     24.000000
  0.307692  0.153846  0.076923     48.000000
  0.384615  0.153846  0.076923     48.000000
  0.461538  0.153846  0.076923     48.000000
 -0.461538  0.153846  0.076923     48.000000
  0.307692  0.230769  0.076923     24.000000
  0.384615  0.230769  0.076923     48.000000
  0.461538  0.230769  0.076923     48.000000
 -0.461538  0.230769  0.076923     48.000000
 -0.384615  0.230769  0.076923     48.000000
 -0.307692  0.230769  0.076923     48.000000
 -0.230769  0.230769  0.076923     48.000000
 -0.153846  0.230769  0.076923     24.000000
  0.384615  0.307692  0.076923     24.000000
  0.461538  0.307692  0.076923     48.000000
 -0.461538  0.307692  0.076923     48.000000
 -0.384615  0.307692  0.076923     48.000000
 -0.307692  0.307692  0.076923     48.000000
 -0.230769  0.307692  0.076923     24.000000
  0.461538  0.384615  0.076923     24.000000
 -0.461538  0.384615  0.076923     48.000000
 -0.384615  0.384615  0.076923     48.000000
 -0.307692  0.384615  0.076923     24.000000
 -0.461538  0.461538  0.076923     24.000000
 -0.384615  0.461538  0.076923     24.000000
  0.461538  0.307692  0.153846     24.000000
 -0.461538  0.307692  0.153846     48.000000
 -0.384615  0.307692  0.153846     48.000000
 -0.461538  0.384615  0.153846     24.000000
 -0.384615  0.384615  0.153846     48.000000
 -0.307692  0.384615  0.153846     48.000000
 -0.230769  0.384615  0.153846     24.000000
 -0.384615  0.461538  0.153846     24.000000
 -0.307692  0.461538  0.153846     24.000000
 -0.307692  0.461538  0.230769     24.000000

 Following cartesian coordinates:
            Coordinates               Weight
  0.000000  0.000000  0.000000      1.000000
 -0.011593  0.011593  0.011593      8.000000
 -0.023186  0.023186  0.023186      8.000000
 -0.034779  0.034779  0.034779      8.000000
 -0.046372  0.046372  0.046372      8.000000
 -0.057965  0.057965  0.057965      8.000000
 -0.069558  0.069558  0.069558      8.000000
  0.000000 -0.000000  0.023186      6.000000
 -0.011593  0.011593  0.034779     24.000000
 -0.023186  0.023186  0.046372     24.000000
 -0.034779  0.034779  0.057965     24.000000
 -0.046372  0.046372  0.069558     24.000000
 -0.057965  0.057965  0.081151     24.000000
  0.081151 -0.081151 -0.057965     24.000000
  0.069558 -0.069558 -0.046372     24.000000
  0.057965 -0.057965 -0.034779     24.000000
  0.046372 -0.046372 -0.023186     24.000000
  0.034779 -0.034779 -0.011593     24.000000
  0.023186 -0.023186  0.000000     12.000000
  0.000000 -0.000000  0.046372      6.000000
 -0.011593  0.011593  0.057965     24.000000
 -0.023186  0.023186  0.069558     24.000000
 -0.034779  0.034779  0.081151     24.000000
 -0.046372  0.046372  0.092744     24.000000
  0.092744 -0.092744 -0.046372     24.000000
  0.081151 -0.081151 -0.034779     24.000000
  0.069558 -0.069558 -0.023186     24.000000
  0.057965 -0.057965 -0.011593     24.000000
  0.046372 -0.046372  0.000000     12.000000
 -0.000000  0.000000  0.069558      6.000000
 -0.011593  0.011593  0.081151     24.000000
 -0.023186  0.023186  0.092744     24.000000
 -0.034779  0.034779  0.104337     24.000000
  0.104337 -0.104337 -0.034779     24.000000
  0.092744 -0.092744 -0.023186     24.000000
  0.081151 -0.081151 -0.011593     24.000000
  0.069558 -0.069558 -0.000000     12.000000
  0.000000 -0.000000  0.092744      6.000000
 -0.011593  0.011593  0.104337     24.000000
 -0.023186  0.023186  0.115930     24.000000
  0.115930 -0.115930 -0.023186     24.000000
  0.104337 -0.104337 -0.011593     24.000000
  0.092744 -0.092744  0.000000     12.000000
  0.000000 -0.000000  0.115930      6.000000
 -0.011593  0.011593  0.127523     24.000000
  0.127523 -0.127523 -0.011593     24.000000
  0.115930 -0.115930  0.000000     12.000000
 -0.000000  0.000000  0.139116      6.000000
  0.139116 -0.139116 -0.000000     12.000000
 -0.000000  0.023186  0.046372     24.000000
 -0.011593  0.034779  0.057965     48.000000
 -0.023186  0.046372  0.069558     48.000000
 -0.034779  0.057965  0.081151     48.000000
  0.104337 -0.081151 -0.057965     48.000000
  0.000000  0.023186  0.069558     24.000000
 -0.011593  0.034779  0.081151     48.000000
 -0.023186  0.046372  0.092744     48.000000
  0.115930 -0.092744 -0.046372     48.000000
  0.104337 -0.081151 -0.034779     48.000000
  0.092744 -0.069558 -0.023186     48.000000
  0.081151 -0.057965 -0.011593     48.000000
  0.069558 -0.046372 -0.000000     24.000000
 -0.000000  0.023186  0.092744     24.000000
 -0.011593  0.034779  0.104337     48.000000
  0.127523 -0.104337 -0.034779     48.000000
  0.115930 -0.092744 -0.023186     48.000000
  0.104337 -0.081151 -0.011593     48.000000
  0.092744 -0.069558 -0.000000     24.000000
  0.000000  0.023186  0.115930     24.000000
  0.139116 -0.115930 -0.023186     48.000000
  0.127523 -0.104337 -0.011593     48.000000
  0.115930 -0.092744  0.000000     24.000000
  0.150709 -0.127523 -0.011593     24.000000
  0.139116 -0.115930 -0.000000     24.000000
 -0.000000  0.046372  0.092744     24.000000
  0.139116 -0.092744 -0.046372     48.000000
  0.127523 -0.081151 -0.034779     48.000000
  0.150709 -0.104337 -0.034779     24.000000
  0.139116 -0.092744 -0.023186     48.000000
  0.127523 -0.081151 -0.011593     48.000000
  0.115930 -0.069558 -0.000000     24.000000
  0.150709 -0.104337 -0.011593     24.000000
  0.139116 -0.092744 -0.000000     24.000000
  0.150709 -0.081151 -0.011593     24.000000



--------------------------------------------------------------------------------------------------------




 Dimension of arrays:
   k-points           NKPTS =     84   k-points in BZ     NKDIM =     84   number of bands    NBANDS=     24
   number of dos      NEDOS =    301   number of ions     NIONS =      3
   non local maximal  LDIM  =      8   non local SUM 2l+1 LMDIM =     32
   total plane-waves  NPLWV =  64000
   max r-space proj   IRMAX =      1   max aug-charges    IRDMAX= 534619
   dimension x,y,z NGX =    40 NGY =   40 NGZ =   40
   dimension x,y,z NGXF=    80 NGYF=   80 NGZF=   80
   support grid    NGXF=   160 NGYF=  160 NGZF=  160
   ions per type =               1   1   1
   NGX,Y,Z   is equivalent  to a cutoff of  15.27, 15.27, 15.27 a.u.
   NGXF,Y,Z  is equivalent  to a cutoff of  30.54, 30.54, 30.54 a.u.

 SYSTEM =  unknown system
 POSCAR =  U1 Bi1 Pt1

 Startparameter for this run:
   NWRITE =      2    write-flag & timer
   PREC   = acc       normal or accurate (medium, high low for compatibility)
   ISTART =      0    job   : 0-new  1-cont  2-samecut
   ICHARG =      2    charge: 1-file 2-atom 10-const
   ISPIN  =      1    spin polarized calculation?
   LNONCOLLINEAR =      F non collinear calculations
   LSORBIT =      F    spin-orbit coupling
   INIWAV =      1    electr: 0-lowe 1-rand  2-diag
   LASPH  =      F    aspherical Exc in radial PAW
   METAGGA=      F    non-selfconsistent MetaGGA calc.

 Electronic Relaxation 1
   ENCUT  =  700.0 eV  51.45 Ry    7.17 a.u.   9.40  9.40  9.40*2*pi/ulx,y,z
   ENINI  =  700.0     initial cutoff
   ENAUG  =  526.4 eV  augmentation charge cutoff
   NELM   =     60;   NELMIN=  5; NELMDL= -5     # of ELM steps
   EDIFF  = 0.1E-06   stopping-criterion for ELM
   LREAL  =      F    real-space projection
   NLSPLINE    = F    spline interpolate recip. space projectors
   LCOMPAT=      F    compatible to vasp.4.4
   GGA_COMPAT  = T    GGA compatible to vasp.4.4-vasp.4.6
   LMAXPAW     = -100 max onsite density
   LMAXMIX     =    2 max onsite mixed and CHGCAR
   VOSKOWN=      0    Vosko Wilk Nusair interpolation
   ROPT   =    0.00000   0.00000   0.00000
 Ionic relaxation
   EDIFFG = 0.1E-05   stopping-criterion for IOM
   NSW    =      0    number of steps for IOM
   NBLOCK =      1;   KBLOCK =      1    inner block; outer block
   IBRION =     -1    ionic relax: 0-MD 1-quasi-New 2-CG
   NFREE  =      0    steps in history (QN), initial steepest desc. (CG)
   ISIF   =      3    stress and relaxation
   IWAVPR =     10    prediction:  0-non 1-charg 2-wave 3-comb
   ISYM   =      2    0-nonsym 1-usesym 2-fastsym
   LCORR  =      T    Harris-Foulkes like correction to forces

   POTIM  = 0.5000    time-step for ionic-motion
   TEIN   =    0.0    initial temperature
   TEBEG  =    0.0;   TEEND  =   0.0 temperature during run
   SMASS  =  -3.00    Nose mass-parameter (am)
   estimated Nose-frequenzy (Omega)   =  0.10E-29 period in steps = 0.13E+47 mass=  -0.434E-27a.u.
   SCALEE = 1.0000    scale energy and forces
   NPACO  =    256;   APACO  = 16.0  distance and # of slots for P.C.
   PSTRESS=    0.0 pullay stress

  Mass of Ions in am
   POMASS = 238.03208.98195.08
  Ionic Valenz
   ZVAL   =  14.00 15.00 10.00
  Atomic Wigner-Seitz radii
   RWIGS  =  -1.00 -1.00 -1.00
  virtual crystal weights
   VCA    =   1.00  1.00  1.00
   NELECT =      39.0000    total number of electrons
   NUPDOWN=      -1.0000    fix difference up-down

 DOS related values:
   EMIN   =  10.00;   EMAX   =-10.00  energy-range for DOS
   EFERMI =   0.00
   ISMEAR =     0;   SIGMA  =   0.01  broadening in eV -4-tet -1-fermi 0-gaus

 Electronic relaxation 2 (details)
   IALGO  =     38    algorithm
   LDIAG  =      T    sub-space diagonalisation (order eigenvalues)
   LSUBROT=      F    optimize rotation matrix (better conditioning)
   TURBO    =      0    0=normal 1=particle mesh
   IRESTART =      0    0=no restart 2=restart with 2 vectors
   NREBOOT  =      0    no. of reboots
   NMIN     =      0    reboot dimension
   EREF     =   0.00    reference energy to select bands
   IMIX   =      4    mixing-type and parameters
     AMIX     =   0.40;   BMIX     =  1.00
     AMIX_MAG =   1.60;   BMIX_MAG =  1.00
     AMIN     =   0.10
     WC   =   100.;   INIMIX=   1;  MIXPRE=   1;  MAXMIX= -45

 Intra band minimization:
   WEIMIN = 0.0000     energy-eigenvalue tresh-hold
   EBREAK =  0.10E-08  absolut break condition
   DEPER  =   0.30     relativ break condition

   TIME   =   0.40     timestep for ELM

  volume/ion in A,a.u.               =      19.48       131.43
  Fermi-wavevector in a.u.,A,eV,Ry     =   1.430739  2.703704 27.851305  2.047013
  Thomas-Fermi vector in A             =   2.550551

 Write flags
   LWAVE        =      F    write WAVECAR
   LDOWNSAMPLE  =      F    k-point downsampling of WAVECAR
   LCHARG       =      F    write CHGCAR
   LVTOT        =      F    write LOCPOT, total local potential
   LVHAR        =      F    write LOCPOT, Hartree potential only
   LELF         =      F    write electronic localiz. function (ELF)
   LORBIT       =      0    0 simple, 1 ext, 2 COOP (PROOUT), +10 PAW based schemes


 Dipole corrections
   LMONO  =      F    monopole corrections only (constant potential shift)
   LDIPOL =      F    correct potential (dipole corrections)
   IDIPOL =      0    1-x, 2-y, 3-z, 4-all directions
   EPSILON=  1.0000000 bulk dielectric constant

 Exchange correlation treatment:
   GGA     =    PS    GGA type
   LEXCH   =    14    internal setting for exchange type
   VOSKOWN=      0    Vosko Wilk Nusair interpolation
   LHFCALC =     F    Hartree Fock is set to
   LHFONE  =     F    Hartree Fock one center treatment
   AEXX    =    0.0000 exact exchange contribution

 Linear response parameters
   LEPSILON=     F    determine dielectric tensor
   LRPA    =     F    only Hartree local field effects (RPA)
   LNABLA  =     F    use nabla operator in PAW spheres
   LVEL    =     F    velocity operator in full k-point grid
   LINTERFAST=   F  fast interpolation
   KINTER  =     0    interpolate to denser k-point grid
   CSHIFT  =0.1000    complex shift for real part using Kramers Kronig
   OMEGAMAX=  -1.0    maximum frequency
   DEG_THRESHOLD= 0.2000000E-02 threshold for treating states as degnerate
   RTIME   =   -0.100 relaxation time in fs
  (WPLASMAI=    0.000 imaginary part of plasma frequency in eV, 0.658/RTIME)
   DFIELD  = 0.0000000 0.0000000 0.0000000 field for delta impulse in time

 Orbital magnetization related:
   ORBITALMAG=     F  switch on orbital magnetization
   LCHIMAG   =     F  perturbation theory with respect to B field
   DQ        =  0.001000  dq finite difference perturbation B field
   LLRAUG    =     F  two centre corrections for induced B field



--------------------------------------------------------------------------------------------------------


 Static calculation
 charge density and potential will be updated during run
 non-spin polarized calculation
 Variant of blocked Davidson
 Davidson routine will perform the subspace rotation
 perform sub-space diagonalisation
    after iterative eigenvector-optimisation
 modified Broyden-mixing scheme, WC =      100.0
 initial mixing is a Kerker type mixing with AMIX =  0.4000 and BMIX =      1.0000
 Hartree-type preconditioning will be used
 using additional bands            4
 reciprocal scheme for non local part
 use partial core corrections
 calculate Harris-corrections to forces
   (improved forces if not selfconsistent)
 use gradient corrections
 use of overlap-Matrix (Vanderbilt PP)
 Gauss-broadening in eV      SIGMA  =   0.01


--------------------------------------------------------------------------------------------------------


  energy-cutoff  :      700.00
  volume of cell :       58.43
      direct lattice vectors                 reciprocal lattice vectors
     0.000000000  3.079825084  3.079825084    -0.162346882  0.162346882  0.162346882
     3.079825084  0.000000000  3.079825084     0.162346882 -0.162346882  0.162346882
     3.079825084  3.079825084  0.000000000     0.162346882  0.162346882 -0.162346882

  length of vectors
     4.355530403  4.355530403  4.355530403     0.281193048  0.281193048  0.281193048



 k-points in units of 2pi/SCALE and weight: KPOINTS
   0.00000000  0.00000000  0.00000000       0.000
  -0.01159304  0.01159304  0.01159304       0.004
  -0.02318608  0.02318608  0.02318608       0.004
  -0.03477911  0.03477911  0.03477911       0.004
  -0.04637215  0.04637215  0.04637215       0.004
  -0.05796519  0.05796519  0.05796519       0.004
  -0.06955823  0.06955823  0.06955823       0.004
   0.00000000 -0.00000000  0.02318608       0.003
  -0.01159304  0.01159304  0.03477911       0.011
  -0.02318608  0.02318608  0.04637215       0.011
  -0.03477911  0.03477911  0.05796519       0.011
  -0.04637215  0.04637215  0.06955823       0.011
  -0.05796519  0.05796519  0.08115127       0.011
   0.08115127 -0.08115127 -0.05796519       0.011
   0.06955823 -0.06955823 -0.04637215       0.011
   0.05796519 -0.05796519 -0.03477911       0.011
   0.04637215 -0.04637215 -0.02318608       0.011
   0.03477911 -0.03477911 -0.01159304       0.011
   0.02318608 -0.02318608  0.00000000       0.005
   0.00000000 -0.00000000  0.04637215       0.003
  -0.01159304  0.01159304  0.05796519       0.011
  -0.02318608  0.02318608  0.06955823       0.011
  -0.03477911  0.03477911  0.08115127       0.011
  -0.04637215  0.04637215  0.09274430       0.011
   0.09274430 -0.09274430 -0.04637215       0.011
   0.08115127 -0.08115127 -0.03477911       0.011
   0.06955823 -0.06955823 -0.02318608       0.011
   0.05796519 -0.05796519 -0.01159304       0.011
   0.04637215 -0.04637215  0.00000000       0.005
  -0.00000000  0.00000000  0.06955823       0.003
  -0.01159304  0.01159304  0.08115127       0.011
  -0.02318608  0.02318608  0.09274430       0.011
  -0.03477911  0.03477911  0.10433734       0.011
   0.10433734 -0.10433734 -0.03477911       0.011
   0.09274430 -0.09274430 -0.02318608       0.011
   0.08115127 -0.08115127 -0.01159304       0.011
   0.06955823 -0.06955823 -0.00000000       0.005
   0.00000000 -0.00000000  0.09274430       0.003
  -0.01159304  0.01159304  0.10433734       0.011
  -0.02318608  0.02318608  0.11593038       0.011
   0.11593038 -0.11593038 -0.02318608       0.011
   0.10433734 -0.10433734 -0.01159304       0.011
   0.09274430 -0.09274430  0.00000000       0.005
   0.00000000 -0.00000000  0.11593038       0.003
  -0.01159304  0.01159304  0.12752342       0.011
   0.12752342 -0.12752342 -0.01159304       0.011
   0.11593038 -0.11593038  0.00000000       0.005
  -0.00000000  0.00000000  0.13911646       0.003
   0.13911646 -0.13911646 -0.00000000       0.005
  -0.00000000  0.02318608  0.04637215       0.011
  -0.01159304  0.03477911  0.05796519       0.022
  -0.02318608  0.04637215  0.06955823       0.022
  -0.03477911  0.05796519  0.08115127       0.022
   0.10433734 -0.08115127 -0.05796519       0.022
   0.00000000  0.02318608  0.06955823       0.011
  -0.01159304  0.03477911  0.08115127       0.022
  -0.02318608  0.04637215  0.09274430       0.022
   0.11593038 -0.09274430 -0.04637215       0.022
   0.10433734 -0.08115127 -0.03477911       0.022
   0.09274430 -0.06955823 -0.02318608       0.022
   0.08115127 -0.05796519 -0.01159304       0.022
   0.06955823 -0.04637215 -0.00000000       0.011
  -0.00000000  0.02318608  0.09274430       0.011
  -0.01159304  0.03477911  0.10433734       0.022
   0.12752342 -0.10433734 -0.03477911       0.022
   0.11593038 -0.09274430 -0.02318608       0.022
   0.10433734 -0.08115127 -0.01159304       0.022
   0.09274430 -0.06955823 -0.00000000       0.011
   0.00000000  0.02318608  0.11593038       0.011
   0.13911646 -0.11593038 -0.02318608       0.022
   0.12752342 -0.10433734 -0.01159304       0.022
   0.11593038 -0.09274430  0.00000000       0.011
   0.15070950 -0.12752342 -0.01159304       0.011
   0.13911646 -0.11593038 -0.00000000       0.011
  -0.00000000  0.04637215  0.09274430       0.011
   0.13911646 -0.09274430 -0.04637215       0.022
   0.12752342 -0.08115127 -0.03477911       0.022
   0.15070950 -0.10433734 -0.03477911       0.011
   0.13911646 -0.09274430 -0.02318608       0.022
   0.12752342 -0.08115127 -0.01159304       0.022
   0.11593038 -0.06955823 -0.00000000       0.011
   0.15070950 -0.10433734 -0.01159304       0.011
   0.13911646 -0.09274430 -0.00000000       0.011
   0.15070950 -0.08115127 -0.01159304       0.011

 k-points in reciprocal lattice and weights: KPOINTS
   0.00000000  0.00000000  0.00000000       0.000
   0.07692308  0.00000000 -0.00000000       0.004
   0.15384615 -0.00000000  0.00000000       0.004
   0.23076923  0.00000000 -0.00000000       0.004
   0.30769231 -0.00000000  0.00000000       0.004
   0.38461538  0.00000000 -0.00000000       0.004
   0.46153846  0.00000000 -0.00000000       0.004
   0.07692308  0.07692308 -0.00000000       0.003
   0.15384615  0.07692308 -0.00000000       0.011
   0.23076923  0.07692308  0.00000000       0.011
   0.30769231  0.07692308  0.00000000       0.011
   0.38461538  0.07692308  0.00000000       0.011
   0.46153846  0.07692308 -0.00000000       0.011
  -0.46153846  0.07692308  0.00000000       0.011
  -0.38461538  0.07692308  0.00000000       0.011
  -0.30769231  0.07692308  0.00000000       0.011
  -0.23076923  0.07692308  0.00000000       0.011
  -0.15384615  0.07692308  0.00000000       0.011
  -0.07692308  0.07692308  0.00000000       0.005
   0.15384615  0.15384615 -0.00000000       0.003
   0.23076923  0.15384615 -0.00000000       0.011
   0.30769231  0.15384615 -0.00000000       0.011
   0.38461538  0.15384615 -0.00000000       0.011
   0.46153846  0.15384615 -0.00000000       0.011
  -0.46153846  0.15384615 -0.00000000       0.011
  -0.38461538  0.15384615  0.00000000       0.011
  -0.30769231  0.15384615  0.00000000       0.011
  -0.23076923  0.15384615  0.00000000       0.011
  -0.15384615  0.15384615 -0.00000000       0.005
   0.23076923  0.23076923 -0.00000000       0.003
   0.30769231  0.23076923 -0.00000000       0.011
   0.38461538  0.23076923 -0.00000000       0.011
   0.46153846  0.23076923 -0.00000000       0.011
  -0.46153846  0.23076923  0.00000000       0.011
  -0.38461538  0.23076923  0.00000000       0.011
  -0.30769231  0.23076923  0.00000000       0.011
  -0.23076923  0.23076923  0.00000000       0.005
   0.30769231  0.30769231 -0.00000000       0.003
   0.38461538  0.30769231 -0.00000000       0.011
   0.46153846  0.30769231 -0.00000000       0.011
  -0.46153846  0.30769231  0.00000000       0.011
  -0.38461538  0.30769231 -0.00000000       0.011
  -0.30769231  0.30769231 -0.00000000       0.005
   0.38461538  0.38461538 -0.00000000       0.003
   0.46153846  0.38461538 -0.00000000       0.011
  -0.46153846  0.38461538 -0.00000000       0.011
  -0.38461538  0.38461538  0.00000000       0.005
   0.46153846  0.46153846 -0.00000000       0.003
  -0.46153846  0.46153846  0.00000000       0.005
   0.23076923  0.15384615  0.07692308       0.011
   0.30769231  0.15384615  0.07692308       0.022
   0.38461538  0.15384615  0.07692308       0.022
   0.46153846  0.15384615  0.07692308       0.022
  -0.46153846  0.15384615  0.07692308       0.022
   0.30769231  0.23076923  0.07692308       0.011
   0.38461538  0.23076923  0.07692308       0.022
   0.46153846  0.23076923  0.07692308       0.022
  -0.46153846  0.23076923  0.07692308       0.022
  -0.38461538  0.23076923  0.07692308       0.022
  -0.30769231  0.23076923  0.07692308       0.022
  -0.23076923  0.23076923  0.07692308       0.022
  -0.15384615  0.23076923  0.07692308       0.011
   0.38461538  0.30769231  0.07692308       0.011
   0.46153846  0.30769231  0.07692308       0.022
  -0.46153846  0.30769231  0.07692308       0.022
  -0.38461538  0.30769231  0.07692308       0.022
  -0.30769231  0.30769231  0.07692308       0.022
  -0.23076923  0.30769231  0.07692308       0.011
   0.46153846  0.38461538  0.07692308       0.011
  -0.46153846  0.38461538  0.07692308       0.022
  -0.38461538  0.38461538  0.07692308       0.022
  -0.30769231  0.38461538  0.07692308       0.011
  -0.46153846  0.46153846  0.07692308       0.011
  -0.38461538  0.46153846  0.07692308       0.011
   0.46153846  0.30769231  0.15384615       0.011
  -0.46153846  0.30769231  0.15384615       0.022
  -0.38461538  0.30769231  0.15384615       0.022
  -0.46153846  0.38461538  0.15384615       0.011
  -0.38461538  0.38461538  0.15384615       0.022
  -0.30769231  0.38461538  0.15384615       0.022
  -0.23076923  0.38461538  0.15384615       0.011
  -0.38461538  0.46153846  0.15384615       0.011
  -0.30769231  0.46153846  0.15384615       0.011
  -0.30769231  0.46153846  0.23076923       0.011

 position of ions in fractional coordinates (direct lattice)
   0.25000000  0.25000000  0.25000000
   0.75000000  0.75000000  0.75000000
   0.00000000  0.00000000  0.00000000

 position of ions in cartesian coordinates  (Angst):
   1.53991254  1.53991254  1.53991254
   4.61973763  4.61973763  4.61973763
   0.00000000  0.00000000  0.00000000



--------------------------------------------------------------------------------------------------------


 k-point  1 :   0.0000 0.0000 0.0000  plane waves:    2445
 k-point  2 :   0.0769 0.0000-0.0000  plane waves:    2448
 k-point  3 :   0.1538-0.0000 0.0000  plane waves:    2481
 k-point  4 :   0.2308 0.0000-0.0000  plane waves:    2466
 k-point  5 :   0.3077-0.0000 0.0000  plane waves:    2460
 k-point  6 :   0.3846 0.0000-0.0000  plane waves:    2458
 k-point  7 :   0.4615 0.0000-0.0000  plane waves:    2470
 k-point  8 :   0.0769 0.0769-0.0000  plane waves:    2457
 k-point  9 :   0.1538 0.0769-0.0000  plane waves:    2472
 k-point 10 :   0.2308 0.0769 0.0000  plane waves:    2471
 k-point 11 :   0.3077 0.0769 0.0000  plane waves:    2466
 k-point 12 :   0.3846 0.0769 0.0000  plane waves:    2452
 k-point 13 :   0.4615 0.0769-0.0000  plane waves:    2455
 k-point 14 :  -0.4615 0.0769 0.0000  plane waves:    2454
 k-point 15 :  -0.3846 0.0769 0.0000  plane waves:    2460
 k-point 16 :  -0.3077 0.0769 0.0000  plane waves:    2463
 k-point 17 :  -0.2308 0.0769 0.0000  plane waves:    2482
 k-point 18 :  -0.1538 0.0769 0.0000  plane waves:    2473
 k-point 19 :  -0.0769 0.0769 0.0000  plane waves:    2477
 k-point 20 :   0.1538 0.1538-0.0000  plane waves:    2465
 k-point 21 :   0.2308 0.1538-0.0000  plane waves:    2472
 k-point 22 :   0.3077 0.1538-0.0000  plane waves:    2473
 k-point 23 :   0.3846 0.1538-0.0000  plane waves:    2461
 k-point 24 :   0.4615 0.1538-0.0000  plane waves:    2459
 k-point 25 :  -0.4615 0.1538-0.0000  plane waves:    2454
 k-point 26 :  -0.3846 0.1538 0.0000  plane waves:    2448
 k-point 27 :  -0.3077 0.1538 0.0000  plane waves:    2451
 k-point 28 :  -0.2308 0.1538 0.0000  plane waves:    2464
 k-point 29 :  -0.1538 0.1538-0.0000  plane waves:    2469
 k-point 30 :   0.2308 0.2308-0.0000  plane waves:    2477
 k-point 31 :   0.3077 0.2308-0.0000  plane waves:    2462
 k-point 32 :   0.3846 0.2308-0.0000  plane waves:    2458
 k-point 33 :   0.4615 0.2308-0.0000  plane waves:    2455
 k-point 34 :  -0.4615 0.2308 0.0000  plane waves:    2447
 k-point 35 :  -0.3846 0.2308 0.0000  plane waves:    2458
 k-point 36 :  -0.3077 0.2308 0.0000  plane waves:    2454
 k-point 37 :  -0.2308 0.2308 0.0000  plane waves:    2451
 k-point 38 :   0.3077 0.3077-0.0000  plane waves:    2457
 k-point 39 :   0.3846 0.3077-0.0000  plane waves:    2448
 k-point 40 :   0.4615 0.3077-0.0000  plane waves:    2450
 k-point 41 :  -0.4615 0.3077 0.0000  plane waves:    2446
 k-point 42 :  -0.3846 0.3077-0.0000  plane waves:    2455
 k-point 43 :  -0.3077 0.3077-0.0000  plane waves:    2456
 k-point 44 :   0.3846 0.3846-0.0000  plane waves:    2450
 k-point 45 :   0.4615 0.3846-0.0000  plane waves:    2451
 k-point 46 :  -0.4615 0.3846-0.0000  plane waves:    2450
 k-point 47 :  -0.3846 0.3846 0.0000  plane waves:    2450
 k-point 48 :   0.4615 0.4615-0.0000  plane waves:    2466
 k-point 49 :  -0.4615 0.4615 0.0000  plane waves:    2456
 k-point 50 :   0.2308 0.1538 0.0769  plane waves:    2476
 k-point 51 :   0.3077 0.1538 0.0769  plane waves:    2467
 k-point 52 :   0.3846 0.1538 0.0769  plane waves:    2461
 k-point 53 :   0.4615 0.1538 0.0769  plane waves:    2456
 k-point 54 :  -0.4615 0.1538 0.0769  plane waves:    2457
 k-point 55 :   0.3077 0.2308 0.0769  plane waves:    2476
 k-point 56 :   0.3846 0.2308 0.0769  plane waves:    2462
 k-point 57 :   0.4615 0.2308 0.0769  plane waves:    2453
 k-point 58 :  -0.4615 0.2308 0.0769  plane waves:    2452
 k-point 59 :  -0.3846 0.2308 0.0769  plane waves:    2448
 k-point 60 :  -0.3077 0.2308 0.0769  plane waves:    2448
 k-point 61 :  -0.2308 0.2308 0.0769  plane waves:    2462
 k-point 62 :  -0.1538 0.2308 0.0769  plane waves:    2458
 k-point 63 :   0.3846 0.3077 0.0769  plane waves:    2446
 k-point 64 :   0.4615 0.3077 0.0769  plane waves:    2450
 k-point 65 :  -0.4615 0.3077 0.0769  plane waves:    2450
 k-point 66 :  -0.3846 0.3077 0.0769  plane waves:    2452
 k-point 67 :  -0.3077 0.3077 0.0769  plane waves:    2462
 k-point 68 :  -0.2308 0.3077 0.0769  plane waves:    2454
 k-point 69 :   0.4615 0.3846 0.0769  plane waves:    2447
 k-point 70 :  -0.4615 0.3846 0.0769  plane waves:    2454
 k-point 71 :  -0.3846 0.3846 0.0769  plane waves:    2452
 k-point 72 :  -0.3077 0.3846 0.0769  plane waves:    2451
 k-point 73 :  -0.4615 0.4615 0.0769  plane waves:    2455
 k-point 74 :  -0.3846 0.4615 0.0769  plane waves:    2465
 k-point 75 :   0.4615 0.3077 0.1538  plane waves:    2451
 k-point 76 :  -0.4615 0.3077 0.1538  plane waves:    2446
 k-point 77 :  -0.3846 0.3077 0.1538  plane waves:    2462
 k-point 78 :  -0.4615 0.3846 0.1538  plane waves:    2453
 k-point 79 :  -0.3846 0.3846 0.1538  plane waves:    2450
 k-point 80 :  -0.3077 0.3846 0.1538  plane waves:    2452
 k-point 81 :  -0.2308 0.3846 0.1538  plane waves:    2454
 k-point 82 :  -0.3846 0.4615 0.1538  plane waves:    2447
 k-point 83 :  -0.3077 0.4615 0.1538  plane waves:    2454
 k-point 84 :  -0.3077 0.4615 0.2308  plane waves:    2456

 maximum and minimum number of plane-waves per node :       630      598

 maximum number of plane-waves:      2482
 maximum index in each direction:
   IXMAX=    9   IYMAX=    9   IZMAX=    9
   IXMIN=   -9   IYMIN=   -9   IZMIN=   -9


 parallel 3D FFT for wavefunctions:
    minimum data exchange during FFTs selected (reduces bandwidth)
 parallel 3D FFT for charge:
    minimum data exchange during FFTs selected (reduces bandwidth)


 total amount of memory used by VASP MPI-rank0    83268. kBytes
=======================================================================

   base      :      30000. kBytes
   nonl-proj :      40027. kBytes
   fftplans  :       5203. kBytes
   grid      :       2732. kBytes
   one-center:         49. kBytes
   wavefun   :       5257. kBytes

     INWAV:  cpu time    0.0003: real time    0.0054
 Broyden mixing: mesh for mixing (old mesh)
   NGX = 19   NGY = 19   NGZ = 19
  (NGX  = 80   NGY  = 80   NGZ  = 80)
  gives a total of   6859 points

 initial charge density was supplied:
 charge density of overlapping atoms calculated
 number of electron      39.0000000 magnetization
 keeping initial charge density in first step


--------------------------------------------------------------------------------------------------------


 Maximum index for augmentation-charges        32445 (set IRDMAX)


--------------------------------------------------------------------------------------------------------


 First call to EWALD:  gamma=   0.457
 Maximum number of real-space cells 3x 3x 3
 Maximum number of reciprocal cells 3x 3x 3

    FEWALD:  cpu time    0.0057: real time    0.0061


--------------------------------------- Iteration      1(   1)  ---------------------------------------


    POTLOK:  cpu time    0.0489: real time    0.1103
    SETDIJ:  cpu time    0.1065: real time    0.1068
     EDDAV:  cpu time    1.4024: real time    1.4729
       DOS:  cpu time    0.0041: real time    0.0048
    --------------------------------------------
      LOOP:  cpu time    1.5621: real time    1.6957

 eigenvalue-minimisations  :  4048
 total energy-change (2. order) : 0.4414878E+03  (-0.2293062E+04)
 number of electron      39.0000000 magnetization
 augmentation part       39.0000000 magnetization

 Free energy of the ion-electron system (eV)
  ---------------------------------------------------
  alpha Z        PSCENC =       269.13895144
  Ewald energy   TEWEN  =     -3870.77493527
  -Hartree energ DENC   =      -674.00318487
  -exchange      EXHF   =         0.00000000
  -V(xc)+E(xc)   XCENC  =        93.40461878
  PAW double counting   =      3513.29252893    -3436.88002192
  entropy T*S    EENTRO =        -0.00007657
  eigenvalues    EBANDS =       451.95785394
  atomic energy  EATOM  =      4095.35208632
  Solvation  Ediel_sol  =         0.00000000
  ---------------------------------------------------
  free energy    TOTEN  =       441.48782078 eV

  energy without entropy =      441.48789735  energy(sigma->0) =      441.48785907


--------------------------------------------------------------------------------------------------------




--------------------------------------- Iteration      1(   2)  ---------------------------------------


     EDDAV:  cpu time    1.4189: real time    1.4352
       DOS:  cpu time    0.0030: real time    0.0032
    --------------------------------------------
      LOOP:  cpu time    1.4219: real time    1.4394

 eigenvalue-minimisations  :  4176
 total energy-change (2. order) :-0.4071520E+03  (-0.3982018E+03)
 number of electron      39.0000000 magnetization
 augmentation part       39.0000000 magnetization

 Free energy of the ion-electron system (eV)
  ---------------------------------------------------
  alpha Z        PSCENC =       269.13895144
  Ewald energy   TEWEN  =     -3870.77493527
  -Hartree energ DENC   =      -674.00318487
  -exchange      EXHF   =         0.00000000
  -V(xc)+E(xc)   XCENC  =        93.40461878
  PAW double counting   =      3513.29252893    -3436.88002192
  entropy T*S    EENTRO =        -0.00024487
  eigenvalues    EBANDS =        44.80602907
  atomic energy  EATOM  =      4095.35208632
  Solvation  Ediel_sol  =         0.00000000
  ---------------------------------------------------
  free energy    TOTEN  =        34.33582762 eV

  energy without entropy =       34.33607248  energy(sigma->0) =       34.33595005


--------------------------------------------------------------------------------------------------------




--------------------------------------- Iteration      1(   3)  ---------------------------------------


     EDDAV:  cpu time    1.6130: real time    1.6311
       DOS:  cpu time    0.0031: real time    0.0034
    --------------------------------------------
      LOOP:  cpu time    1.6161: real time    1.6341

 eigenvalue-minimisations  :  4872
 total energy-change (2. order) :-0.5304565E+02  (-0.5196397E+02)
 number of electron      39.0000000 magnetization
 augmentation part       39.0000000 magnetization

 Free energy of the ion-electron system (eV)
  ---------------------------------------------------
  alpha Z        PSCENC =       269.13895144
  Ewald energy   TEWEN  =     -3870.77493527
  -Hartree energ DENC   =      -674.00318487
  -exchange      EXHF   =         0.00000000
  -V(xc)+E(xc)   XCENC  =        93.40461878
  PAW double counting   =      3513.29252893    -3436.88002192
  entropy T*S    EENTRO =        -0.00061574
  eigenvalues    EBANDS =        -8.23924915
  atomic energy  EATOM  =      4095.35208632
  Solvation  Ediel_sol  =         0.00000000
  ---------------------------------------------------
  free energy    TOTEN  =       -18.70982148 eV

  energy without entropy =      -18.70920574  energy(sigma->0) =      -18.70951361


--------------------------------------------------------------------------------------------------------




--------------------------------------- Iteration      1(   4)  ---------------------------------------


     EDDAV:  cpu time    2.2400: real time    2.2524
       DOS:  cpu time    0.0033: real time    0.0035
    --------------------------------------------
      LOOP:  cpu time    2.2432: real time    2.2552

 eigenvalue-minimisations  :  7416
 total energy-change (2. order) :-0.5853043E+01  (-0.5819553E+01)
 number of electron      39.0000000 magnetization
 augmentation part       39.0000000 magnetization

 Free energy of the ion-electron system (eV)
  ---------------------------------------------------
  alpha Z        PSCENC =       269.13895144
  Ewald energy   TEWEN  =     -3870.77493527
  -Hartree energ DENC   =      -674.00318487
  -exchange      EXHF   =         0.00000000
  -V(xc)+E(xc)   XCENC  =        93.40461878
  PAW double counting   =      3513.29252893    -3436.88002192
  entropy T*S    EENTRO =        -0.00079023
  eigenvalues    EBANDS =       -14.09211719
  atomic energy  EATOM  =      4095.35208632
  Solvation  Ediel_sol  =         0.00000000
  ---------------------------------------------------
  free energy    TOTEN  =       -24.56286401 eV

  energy without entropy =      -24.56207378  energy(sigma->0) =      -24.56246890


--------------------------------------------------------------------------------------------------------




--------------------------------------- Iteration      1(   5)  ---------------------------------------


     EDDAV:  cpu time    1.7341: real time    1.7543
       DOS:  cpu time    0.0031: real time    0.0033
    CHARGE:  cpu time    0.3514: real time    0.3520
    MIXING:  cpu time    0.0075: real time    0.0077
    --------------------------------------------
      LOOP:  cpu time    2.0961: real time    2.1195

 eigenvalue-minimisations  :  5360
 total energy-change (2. order) :-0.1563521E+00  (-0.1561081E+00)
 number of electron      39.0000000 magnetization
 augmentation part        8.5100898 magnetization

 Broyden mixing:
  rms(total) = 0.19419E+01    rms(broyden)= 0.19419E+01
  rms(prec ) = 0.45427E+01
  weight for this iteration     100.00

 Free energy of the ion-electron system (eV)
  ---------------------------------------------------
  alpha Z        PSCENC =       269.13895144
  Ewald energy   TEWEN  =     -3870.77493527
  -Hartree energ DENC   =      -674.00318487
  -exchange      EXHF   =         0.00000000
  -V(xc)+E(xc)   XCENC  =        93.40461878
  PAW double counting   =      3513.29252893    -3436.88002192
  entropy T*S    EENTRO =        -0.00075184
  eigenvalues    EBANDS =       -14.24850770
  atomic energy  EATOM  =      4095.35208632
  Solvation  Ediel_sol  =         0.00000000
  ---------------------------------------------------
  free energy    TOTEN  =       -24.71921613 eV

  energy without entropy =      -24.71846429  energy(sigma->0) =      -24.71884021


--------------------------------------------------------------------------------------------------------




--------------------------------------- Iteration      1(   6)  ---------------------------------------


    POTLOK:  cpu time    0.0424: real time    0.0619
    SETDIJ:  cpu time    0.1113: real time    0.1114
     EDDAV:  cpu time    1.8807: real time    1.8809
       DOS:  cpu time    0.0032: real time    0.0035
    CHARGE:  cpu time    0.3120: real time    0.3121
    MIXING:  cpu time    0.0071: real time    0.0072
    --------------------------------------------
      LOOP:  cpu time    2.3567: real time    2.3755

 eigenvalue-minimisations  :  6168
 total energy-change (2. order) :-0.3605196E+01  (-0.1424203E+02)
 number of electron      39.0000000 magnetization
 augmentation part        7.0840122 magnetization

 Broyden mixing:
  rms(total) = 0.24150E+01    rms(broyden)= 0.24150E+01
  rms(prec ) = 0.54368E+01
  weight for this iteration     100.00

 eigenvalues of (default mixing * dielectric matrix)
  average eigenvalue GAMMA=   0.3440
  0.3440

 Free energy of the ion-electron system (eV)
  ---------------------------------------------------
  alpha Z        PSCENC =       269.13895144
  Ewald energy   TEWEN  =     -3870.77493527
  -Hartree energ DENC   =      -674.78184528
  -exchange      EXHF   =         0.00000000
  -V(xc)+E(xc)   XCENC  =        93.71064392
  PAW double counting   =      4089.07754884    -4015.12452689
  entropy T*S    EENTRO =        -0.00026398
  eigenvalues    EBANDS =       -14.92207080
  atomic energy  EATOM  =      4095.35208632
  Solvation  Ediel_sol  =         0.00000000
  ---------------------------------------------------
  free energy    TOTEN  =       -28.32441171 eV

  energy without entropy =      -28.32414773  energy(sigma->0) =      -28.32427972


--------------------------------------------------------------------------------------------------------




--------------------------------------- Iteration      1(   7)  ---------------------------------------


    POTLOK:  cpu time    0.0448: real time    0.0652
    SETDIJ:  cpu time    0.1019: real time    0.1020
     EDDAV:  cpu time    1.7969: real time    1.7972
       DOS:  cpu time    0.0034: real time    0.0037
    CHARGE:  cpu time    0.2947: real time    0.2948
    MIXING:  cpu time    0.0043: real time    0.0045
    --------------------------------------------
      LOOP:  cpu time    2.2462: real time    2.2698

 eigenvalue-minimisations  :  5800
 total energy-change (2. order) : 0.5840667E+01  (-0.2296445E+01)
 number of electron      39.0000000 magnetization
 augmentation part        7.6303934 magnetization

 Broyden mixing:
  rms(total) = 0.97082E+00    rms(broyden)= 0.97082E+00
  rms(prec ) = 0.20276E+01
  weight for this iteration     100.00

 eigenvalues of (default mixing * dielectric matrix)
  average eigenvalue GAMMA=   0.9056
  1.1611  0.6501

 Free energy of the ion-electron system (eV)
  ---------------------------------------------------
  alpha Z        PSCENC =       269.13895144
  Ewald energy   TEWEN  =     -3870.77493527
  -Hartree energ DENC   =      -663.91645102
  -exchange      EXHF   =         0.00000000
  -V(xc)+E(xc)   XCENC  =        93.17018498
  PAW double counting   =      4296.75035933    -4227.16905611
  entropy T*S    EENTRO =        -0.00064778
  eigenvalues    EBANDS =       -15.03423639
  atomic energy  EATOM  =      4095.35208632
  Solvation  Ediel_sol  =         0.00000000
  ---------------------------------------------------
  free energy    TOTEN  =       -22.48374451 eV

  energy without entropy =      -22.48309673  energy(sigma->0) =      -22.48342062


--------------------------------------------------------------------------------------------------------




--------------------------------------- Iteration      1(   8)  ---------------------------------------


    POTLOK:  cpu time    0.0319: real time    0.0600
    SETDIJ:  cpu time    0.1018: real time    0.1019
     EDDAV:  cpu time    1.8510: real time    1.8513
       DOS:  cpu time    0.0033: real time    0.0042
    CHARGE:  cpu time    0.2932: real time    0.2935
    MIXING:  cpu time    0.0065: real time    0.0066
    --------------------------------------------
      LOOP:  cpu time    2.2877: real time    2.3158

 eigenvalue-minimisations  :  6008
 total energy-change (2. order) :-0.6963620E-01  (-0.1626067E+01)
 number of electron      39.0000000 magnetization
 augmentation part        8.3754243 magnetization

 Broyden mixing:
  rms(total) = 0.60298E+00    rms(broyden)= 0.60298E+00
  rms(prec ) = 0.20356E+01
  weight for this iteration     100.00

 eigenvalues of (default mixing * dielectric matrix)
  average eigenvalue GAMMA=   1.0839
  2.0423  0.6047  0.6047

 Free energy of the ion-electron system (eV)
  ---------------------------------------------------
  alpha Z        PSCENC =       269.13895144
  Ewald energy   TEWEN  =     -3870.77493527
  -Hartree energ DENC   =      -653.34517870
  -exchange      EXHF   =         0.00000000
  -V(xc)+E(xc)   XCENC  =        92.73922140
  PAW double counting   =      4644.91866851    -4580.30706004
  entropy T*S    EENTRO =        -0.00146670
  eigenvalues    EBANDS =       -20.27366766
  atomic energy  EATOM  =      4095.35208632
  Solvation  Ediel_sol  =         0.00000000
  ---------------------------------------------------
  free energy    TOTEN  =       -22.55338071 eV

  energy without entropy =      -22.55191400  energy(sigma->0) =      -22.55264736


--------------------------------------------------------------------------------------------------------




--------------------------------------- Iteration      1(   9)  ---------------------------------------


    POTLOK:  cpu time    0.0380: real time    0.0647
    SETDIJ:  cpu time    0.1025: real time    0.1026
     EDDAV:  cpu time    1.8980: real time    1.8982
       DOS:  cpu time    0.0033: real time    0.0039
    CHARGE:  cpu time    0.2936: real time    0.2937
    MIXING:  cpu time    0.0073: real time    0.0073
    --------------------------------------------
      LOOP:  cpu time    2.3428: real time    2.3697

 eigenvalue-minimisations  :  6264
 total energy-change (2. order) : 0.5234990E+00  (-0.4854353E+00)
 number of electron      39.0000000 magnetization
 augmentation part        7.8438284 magnetization

 Broyden mixing:
  rms(total) = 0.93774E-01    rms(broyden)= 0.93773E-01
  rms(prec ) = 0.14981E+00
  weight for this iteration     100.00

 eigenvalues of (default mixing * dielectric matrix)
  average eigenvalue GAMMA=   1.0408
  2.2679  0.6025  0.6025  0.6902

 Free energy of the ion-electron system (eV)
  ---------------------------------------------------
  alpha Z        PSCENC =       269.13895144
  Ewald energy   TEWEN  =     -3870.77493527
  -Hartree energ DENC   =      -654.71221191
  -exchange      EXHF   =         0.00000000
  -V(xc)+E(xc)   XCENC  =        92.84727259
  PAW double counting   =      4873.40324149    -4810.24187624
  entropy T*S    EENTRO =        -0.00115752
  eigenvalues    EBANDS =       -17.04125256
  atomic energy  EATOM  =      4095.35208632
  Solvation  Ediel_sol  =         0.00000000
  ---------------------------------------------------
  free energy    TOTEN  =       -22.02988166 eV

  energy without entropy =      -22.02872414  energy(sigma->0) =      -22.02930290


--------------------------------------------------------------------------------------------------------




--------------------------------------- Iteration      1(  10)  ---------------------------------------


    POTLOK:  cpu time    0.0751: real time    0.0985
    SETDIJ:  cpu time    0.1013: real time    0.1014
     EDDAV:  cpu time    1.7815: real time    1.7818
       DOS:  cpu time    0.0033: real time    0.0045
    CHARGE:  cpu time    0.2913: real time    0.2914
    MIXING:  cpu time    0.0082: real time    0.0083
    --------------------------------------------
      LOOP:  cpu time    2.2607: real time    2.2878

 eigenvalue-minimisations  :  5784
 total energy-change (2. order) :-0.6916028E-02  (-0.1348384E-01)
 number of electron      39.0000000 magnetization
 augmentation part        7.8524362 magnetization

 Broyden mixing:
  rms(total) = 0.37107E-01    rms(broyden)= 0.37107E-01
  rms(prec ) = 0.68484E-01
  weight for this iteration     100.00

 eigenvalues of (default mixing * dielectric matrix)
  average eigenvalue GAMMA=   1.0162
  2.0286  0.5972  0.5972  0.9290  0.9290

 Free energy of the ion-electron system (eV)
  ---------------------------------------------------
  alpha Z        PSCENC =       269.13895144
  Ewald energy   TEWEN  =     -3870.77493527
  -Hartree energ DENC   =      -653.80064792
  -exchange      EXHF   =         0.00000000
  -V(xc)+E(xc)   XCENC  =        92.81517074
  PAW double counting   =      4940.77209220    -4878.09398987
  entropy T*S    EENTRO =        -0.00121252
  eigenvalues    EBANDS =       -17.44431280
  atomic energy  EATOM  =      4095.35208632
  Solvation  Ediel_sol  =         0.00000000
  ---------------------------------------------------
  free energy    TOTEN  =       -22.03679769 eV

  energy without entropy =      -22.03558517  energy(sigma->0) =      -22.03619143


--------------------------------------------------------------------------------------------------------




--------------------------------------- Iteration      1(  11)  ---------------------------------------


    POTLOK:  cpu time    0.1081: real time    0.1346
    SETDIJ:  cpu time    0.0993: real time    0.0996
     EDDAV:  cpu time    2.1058: real time    2.1071
       DOS:  cpu time    0.0033: real time    0.0038
    CHARGE:  cpu time    0.2936: real time    0.2938
    MIXING:  cpu time    0.0076: real time    0.0077
    --------------------------------------------
      LOOP:  cpu time    2.6178: real time    2.6469

 eigenvalue-minimisations  :  6960
 total energy-change (2. order) :-0.7084346E-03  (-0.3087852E-02)
 number of electron      39.0000000 magnetization
 augmentation part        7.8835874 magnetization

 Broyden mixing:
  rms(total) = 0.39954E-01    rms(broyden)= 0.39954E-01
  rms(prec ) = 0.11137E+00
  weight for this iteration     100.00

 eigenvalues of (default mixing * dielectric matrix)
  average eigenvalue GAMMA=   1.2908
  2.6654  2.3020  0.5934  0.5934  0.8495  0.7413

 Free energy of the ion-electron system (eV)
  ---------------------------------------------------
  alpha Z        PSCENC =       269.13895144
  Ewald energy   TEWEN  =     -3870.77493527
  -Hartree energ DENC   =      -653.69537036
  -exchange      EXHF   =         0.00000000
  -V(xc)+E(xc)   XCENC  =        92.80261411
  PAW double counting   =      4943.55068139    -4880.86214636
  entropy T*S    EENTRO =        -0.00137743
  eigenvalues    EBANDS =       -17.54800996
  atomic energy  EATOM  =      4095.35208632
  Solvation  Ediel_sol  =         0.00000000
  ---------------------------------------------------
  free energy    TOTEN  =       -22.03750613 eV

  energy without entropy =      -22.03612870  energy(sigma->0) =      -22.03681741


--------------------------------------------------------------------------------------------------------




--------------------------------------- Iteration      1(  12)  ---------------------------------------


    POTLOK:  cpu time    0.0546: real time    0.0771
    SETDIJ:  cpu time    0.1020: real time    0.1021
     EDDAV:  cpu time    2.0401: real time    2.0404
       DOS:  cpu time    0.0033: real time    0.0036
    CHARGE:  cpu time    0.2905: real time    0.2907
    MIXING:  cpu time    0.0075: real time    0.0075
    --------------------------------------------
      LOOP:  cpu time    2.4980: real time    2.5210

 eigenvalue-minimisations  :  6736
 total energy-change (2. order) : 0.1207550E-02  (-0.5994006E-03)
 number of electron      39.0000000 magnetization
 augmentation part        7.8697546 magnetization

 Broyden mixing:
  rms(total) = 0.88235E-02    rms(broyden)= 0.88235E-02
  rms(prec ) = 0.28029E-01
  weight for this iteration     100.00

 eigenvalues of (default mixing * dielectric matrix)
  average eigenvalue GAMMA=   1.2216
  2.6637  2.0156  0.5969  0.5969  0.9766  0.9766  0.7248

 Free energy of the ion-electron system (eV)
  ---------------------------------------------------
  alpha Z        PSCENC =       269.13895144
  Ewald energy   TEWEN  =     -3870.77493527
  -Hartree energ DENC   =      -653.83960212
  -exchange      EXHF   =         0.00000000
  -V(xc)+E(xc)   XCENC  =        92.80389430
  PAW double counting   =      4968.85265842    -4906.10049419
  entropy T*S    EENTRO =        -0.00132840
  eigenvalues    EBANDS =       -17.46752906
  atomic energy  EATOM  =      4095.35208632
  Solvation  Ediel_sol  =         0.00000000
  ---------------------------------------------------
  free energy    TOTEN  =       -22.03629858 eV

  energy without entropy =      -22.03497018  energy(sigma->0) =      -22.03563438


--------------------------------------------------------------------------------------------------------




--------------------------------------- Iteration      1(  13)  ---------------------------------------


    POTLOK:  cpu time    0.0326: real time    0.0663
    SETDIJ:  cpu time    0.1015: real time    0.1018
     EDDAV:  cpu time    2.1030: real time    2.1034
       DOS:  cpu time    0.0032: real time    0.0040
    CHARGE:  cpu time    0.2938: real time    0.2939
    MIXING:  cpu time    0.0077: real time    0.0078
    --------------------------------------------
      LOOP:  cpu time    2.5419: real time    2.5762

 eigenvalue-minimisations  :  6952
 total energy-change (2. order) : 0.6156934E-04  (-0.2607316E-03)
 number of electron      39.0000000 magnetization
 augmentation part        7.8605082 magnetization

 Broyden mixing:
  rms(total) = 0.58707E-02    rms(broyden)= 0.58706E-02
  rms(prec ) = 0.18953E-01
  weight for this iteration     100.00

 eigenvalues of (default mixing * dielectric matrix)
  average eigenvalue GAMMA=   1.2045
  2.5912  1.8360  0.5975  0.5975  1.2068  1.2068  0.8003  0.8003

 Free energy of the ion-electron system (eV)
  ---------------------------------------------------
  alpha Z        PSCENC =       269.13895144
  Ewald energy   TEWEN  =     -3870.77493527
  -Hartree energ DENC   =      -653.85437256
  -exchange      EXHF   =         0.00000000
  -V(xc)+E(xc)   XCENC  =        92.80614368
  PAW double counting   =      4969.58353093    -4906.81824237
  entropy T*S    EENTRO =        -0.00128320
  eigenvalues    EBANDS =       -17.46811598
  atomic energy  EATOM  =      4095.35208632
  Solvation  Ediel_sol  =         0.00000000
  ---------------------------------------------------
  free energy    TOTEN  =       -22.03623701 eV

  energy without entropy =      -22.03495381  energy(sigma->0) =      -22.03559541


--------------------------------------------------------------------------------------------------------




--------------------------------------- Iteration      1(  14)  ---------------------------------------


    POTLOK:  cpu time    0.0519: real time    0.0767
    SETDIJ:  cpu time    0.1027: real time    0.1027
     EDDAV:  cpu time    1.7946: real time    1.7949
       DOS:  cpu time    0.0033: real time    0.0038
    CHARGE:  cpu time    0.2911: real time    0.2912
    MIXING:  cpu time    0.0079: real time    0.0080
    --------------------------------------------
      LOOP:  cpu time    2.2514: real time    2.2785

 eigenvalue-minimisations  :  5792
 total energy-change (2. order) : 0.4537235E-04  (-0.5773989E-04)
 number of electron      39.0000000 magnetization
 augmentation part        7.8650908 magnetization

 Broyden mixing:
  rms(total) = 0.11591E-02    rms(broyden)= 0.11591E-02
  rms(prec ) = 0.30109E-02
  weight for this iteration     100.00

 eigenvalues of (default mixing * dielectric matrix)
  average eigenvalue GAMMA=   1.3022
  2.6615  2.0955  1.5659  1.5659  0.5975  0.5975  0.9415  0.9415  0.7537

 Free energy of the ion-electron system (eV)
  ---------------------------------------------------
  alpha Z        PSCENC =       269.13895144
  Ewald energy   TEWEN  =     -3870.77493527
  -Hartree energ DENC   =      -653.80034802
  -exchange      EXHF   =         0.00000000
  -V(xc)+E(xc)   XCENC  =        92.80393392
  PAW double counting   =      4969.21585635    -4906.44955243
  entropy T*S    EENTRO =        -0.00130495
  eigenvalues    EBANDS =       -17.52087899
  atomic energy  EATOM  =      4095.35208632
  Solvation  Ediel_sol  =         0.00000000
  ---------------------------------------------------
  free energy    TOTEN  =       -22.03619164 eV

  energy without entropy =      -22.03488669  energy(sigma->0) =      -22.03553916


--------------------------------------------------------------------------------------------------------




--------------------------------------- Iteration      1(  15)  ---------------------------------------


    POTLOK:  cpu time    0.0686: real time    0.1081
    SETDIJ:  cpu time    0.1009: real time    0.1010
     EDDAV:  cpu time    2.0973: real time    2.0977
       DOS:  cpu time    0.0033: real time    0.0036
    CHARGE:  cpu time    0.2963: real time    0.2964
    MIXING:  cpu time    0.0063: real time    0.0064
    --------------------------------------------
      LOOP:  cpu time    2.5727: real time    2.6124

 eigenvalue-minimisations  :  6920
 total energy-change (2. order) :-0.5181610E-06  (-0.3459642E-05)
 number of electron      39.0000000 magnetization
 augmentation part        7.8641798 magnetization

 Broyden mixing:
  rms(total) = 0.58178E-03    rms(broyden)= 0.58174E-03
  rms(prec ) = 0.16494E-02
  weight for this iteration     100.00

 eigenvalues of (default mixing * dielectric matrix)
  average eigenvalue GAMMA=   1.3107
  2.6535  2.3280  1.8336  1.4350  0.5975  0.5975  0.9939  0.9939  0.9158  0.7585

 Free energy of the ion-electron system (eV)
  ---------------------------------------------------
  alpha Z        PSCENC =       269.13895144
  Ewald energy   TEWEN  =     -3870.77493527
  -Hartree energ DENC   =      -653.81265306
  -exchange      EXHF   =         0.00000000
  -V(xc)+E(xc)   XCENC  =        92.80447279
  PAW double counting   =      4969.27652228    -4906.50543930
  entropy T*S    EENTRO =        -0.00130071
  eigenvalues    EBANDS =       -17.51389662
  atomic energy  EATOM  =      4095.35208632
  Solvation  Ediel_sol  =         0.00000000
  ---------------------------------------------------
  free energy    TOTEN  =       -22.03619215 eV

  energy without entropy =      -22.03489144  energy(sigma->0) =      -22.03554180


--------------------------------------------------------------------------------------------------------




--------------------------------------- Iteration      1(  16)  ---------------------------------------


    POTLOK:  cpu time    0.0395: real time    0.0771
    SETDIJ:  cpu time    0.1019: real time    0.1020
     EDDAV:  cpu time    1.8300: real time    1.8302
       DOS:  cpu time    0.0031: real time    0.0034
    CHARGE:  cpu time    0.2927: real time    0.2929
    MIXING:  cpu time    0.0079: real time    0.0278
    --------------------------------------------
      LOOP:  cpu time    2.2752: real time    2.3343

 eigenvalue-minimisations  :  5880
 total energy-change (2. order) : 0.4607236E-06  (-0.2143405E-06)
 number of electron      39.0000000 magnetization
 augmentation part        7.8644662 magnetization

 Broyden mixing:
  rms(total) = 0.11055E-03    rms(broyden)= 0.11036E-03
  rms(prec ) = 0.35582E-03
  weight for this iteration     100.00

 eigenvalues of (default mixing * dielectric matrix)
  average eigenvalue GAMMA=   1.3407
  2.6832  2.3931  2.0335  1.4209  1.4209  0.5975  0.5975  0.7554  0.9302  0.9302
  0.9857

 Free energy of the ion-electron system (eV)
  ---------------------------------------------------
  alpha Z        PSCENC =       269.13895144
  Ewald energy   TEWEN  =     -3870.77493527
  -Hartree energ DENC   =      -653.80885982
  -exchange      EXHF   =         0.00000000
  -V(xc)+E(xc)   XCENC  =        92.80441256
  PAW double counting   =      4969.07417923    -4906.30288161
  entropy T*S    EENTRO =        -0.00130186
  eigenvalues    EBANDS =       -17.51784268
  atomic energy  EATOM  =      4095.35208632
  Solvation  Ediel_sol  =         0.00000000
  ---------------------------------------------------
  free energy    TOTEN  =       -22.03619169 eV

  energy without entropy =      -22.03488983  energy(sigma->0) =      -22.03554076


--------------------------------------------------------------------------------------------------------




--------------------------------------- Iteration      1(  17)  ---------------------------------------


    POTLOK:  cpu time    0.0568: real time    0.0799
    SETDIJ:  cpu time    0.1007: real time    0.1010
     EDDAV:  cpu time    1.3564: real time    1.3577
       DOS:  cpu time    0.0032: real time    0.0036
    --------------------------------------------
      LOOP:  cpu time    1.5171: real time    1.5400

 eigenvalue-minimisations  :  3736
 total energy-change (2. order) : 0.4691447E-07  (-0.1931250E-07)
 number of electron      39.0000000 magnetization
 augmentation part        7.8644662 magnetization

 Free energy of the ion-electron system (eV)
  ---------------------------------------------------
  alpha Z        PSCENC =       269.13895144
  Ewald energy   TEWEN  =     -3870.77493527
  -Hartree energ DENC   =      -653.80929163
  -exchange      EXHF   =         0.00000000
  -V(xc)+E(xc)   XCENC  =        92.80443675
  PAW double counting   =      4969.03974288    -4906.26865215
  entropy T*S    EENTRO =        -0.00130187
  eigenvalues    EBANDS =       -17.51722810
  atomic energy  EATOM  =      4095.35208632
  Solvation  Ediel_sol  =         0.00000000
  ---------------------------------------------------
  free energy    TOTEN  =       -22.03619165 eV

  energy without entropy =      -22.03488977  energy(sigma->0) =      -22.03554071


--------------------------------------------------------------------------------------------------------




 average (electrostatic) potential at core
  the test charge radii are     1.2087  1.0856  1.2059
  (the norm of the test charge is              1.0000)
       1 -79.8648       2 -97.6037       3 -61.9155



 E-fermi :  13.4747     XC(G=0): -12.7259     alpha+bet :-20.0543


 k-point     1 :       0.0000    0.0000    0.0000
  band No.  band energies     occupation
      1     -30.4569      2.00000
      2      -9.9230      2.00000
      3      -9.9230      2.00000
      4      -9.8743      2.00000
      5      -9.8743      2.00000
      6      -9.8743      2.00000
      7      -6.0690      2.00000
      8      -6.0690      2.00000
      9      -6.0690      2.00000
     10      -0.4742      2.00000
     11       7.7996      2.00000
     12       7.7996      2.00000
     13       7.8704      2.00000
     14       7.8704      2.00000
     15       7.8704      2.00000
     16      11.9182      2.00000
     17      11.9182      2.00000
     18      11.9182      2.00000
     19      12.3578      2.00000
     20      13.2369      2.00000
     21      13.2369      2.00000
     22      13.2369      2.00000
     23      13.8814      0.00000
     24      13.8815      0.00000

 k-point     2 :       0.0769    0.0000   -0.0000
  band No.  band energies     occupation
      1     -30.4558      2.00000
      2      -9.9283      2.00000
      3      -9.9283      2.00000
      4      -9.8753      2.00000
      5      -9.8737      2.00000
      6      -9.8737      2.00000
      7      -6.1123      2.00000
      8      -6.0565      2.00000
      9      -6.0565      2.00000
     10      -0.3465      2.00000
     11       7.5160      2.00000
     12       7.5160      2.00000
     13       7.7328      2.00000
     14       8.1355      2.00000
     15       8.1355      2.00000
     16      11.3215      2.00000
     17      11.8410      2.00000
     18      11.8410      2.00000
     19      12.5445      2.00000
     20      13.2677      2.00000
     21      13.2677      2.00000
     22      13.4230      2.00000
     23      13.8838      0.00000
     24      13.9556      0.00000

 k-point     3 :       0.1538   -0.0000    0.0000
  band No.  band energies     occupation
      1     -30.4529      2.00000
      2      -9.9427      2.00000
      3      -9.9427      2.00000
      4      -9.8785      2.00000
      5      -9.8723      2.00000
      6      -9.8723      2.00000
      7      -6.2220      2.00000
      8      -6.0221      2.00000
[...]
  212              fftbas_plan_mpi                       0.060537                     12   6
  213                dfftw_execute                         0.025789                   36   7
  214                map_backward                          0.004202                   12   7
  215                  map_gather                            0.000797                  6   8
  216                  m_alltoallv_z                         0.001991                  6   8
  217                  map_scatter                           0.001135                  6   8
  218                map_forward                           0.027550                   12   7
  219                  map_gather                            0.015499                  6   8
  220                  m_alltoallv_z                         0.005178                  6   8
  221                  map_scatter                           0.006564                  6   8
  222            M_sumb_d                              0.004055                        6   5
  223          M_sumb_d                              0.000023                          1   4
  224        setdij_                               1.657206                           20   3
  225          fft3d_mpi                             0.213960                         40   4
  226            fftbas_plan_mpi                       0.196510                       40   5
  227              dfftw_execute                         0.086269                    120   6
  228              map_backward                          0.013338                     40   6
  229                map_gather                            0.002728                   20   7
  230                m_alltoallv_z                         0.005867                   20   7
  231                map_scatter                           0.003742                   20   7
  232              map_forward                           0.086855                     40   6
  233                map_gather                            0.048637                   20   7
  234                m_alltoallv_z                         0.016724                   20   7
  235                map_scatter                           0.020520                   20   7
  236          M_sumb_d                              0.008520                         20   4
  237        set_dd_magatom                        0.000003                            1   3
  238        set_dd_paw                            0.017918                            1   3
  239          set_rsgf_all                          0.000004                          1   4
  240          M_sumb_d                              0.017768                          8   4
  241        strkin                                0.000593                            1   3
  242          M_sumb_d                              0.000098                          1   4
  243        strelo                                0.002840                            1   3
  244          M_sumb_d                              0.000432                          2   4
  245        strenl                                0.859466                            1   3
  246          spher                                 0.629991                         19   4
  247          phase                                 0.010378                        189   4
  248          proj1                                 0.197136                       1134   4
  249            crexp_mul_wave                        0.026902                     3402   5
  250            M_sumb_d                              0.059864                     1134   5
  251          M_sumb_d                              0.002130                          1   4
  252        M_sumb_d                              0.000263                            6   3
  253        fft3d_mpi                             0.015363                           11   3
  254          fftbas_plan_mpi                       0.014309                         11   4
  255            dfftw_execute                         0.005047                       33   5
  256            map_forward                           0.002951                       10   5
  257              map_gather                            0.000633                      5   6
  258              m_alltoallv_z                         0.001337                      5   6
  259              map_scatter                           0.000733                      5   6
  260            map_backward                          0.003666                       12   5
  261              map_gather                            0.000715                      6   6
  262              m_alltoallv_z                         0.001555                      6   6
  263              map_scatter                           0.001101                      6   6
  264        ggaall_grid                           0.001495                            1   3
  265        forhar                                0.006058                            2   3
  266          M_sumb_d                              0.000165                          2   4
  267        strehar                               0.002638                            1   3
  268          M_sumb_d                              0.000245                          1   4
  269        chggra                                0.005759                            1   3
  270          fft3d_mpi                             0.004037                          3   4
  271            fftbas_plan_mpi                       0.003765                        3   5
  272              dfftw_execute                         0.001334                      9   6
  273              map_backward                          0.000609                      2   6
  274                map_gather                            0.000123                    1   7
  275                m_alltoallv_z                         0.000249                    1   7
  276                map_scatter                           0.000185                    1   7
  277              map_forward                           0.001016                      4   6
  278                map_gather                            0.000238                    2   7
  279                m_alltoallv_z                         0.000437                    2   7
  280                map_scatter                           0.000246                    2   7
  281          M_sumb_d                              0.000188                          3   4
  282        brmix                                 0.015460                            1   3
  283          M_sumb_d                              0.000267                          6   4
  284          brpre                                 0.000054                          1   4
  285          setg0                                 0.001384                          1   4
  286          broyd                                 0.002613                          1   4
  287            M_sumb_d                              0.000756                       19   5
  288            brget                                 0.000325                       69   5
  289            brsav                                 0.000117                       17   5
  290          M_bcast_z                             0.010207                          1   4
  291          M_bcast_d                             0.000048                          1   4
  292        M_bcast_d                             0.000381                            2   3
  293      potlok                                0.027062                              1   2
  294        fft3d_mpi                             0.018968                           13   3
  295          fftbas_plan_mpi                       0.017796                         13   4
  296            dfftw_execute                         0.006190                       39   5
  297            map_forward                           0.003835                       14   5
  298              map_gather                            0.000838                      8   6
  299              m_alltoallv_z                         0.001689                      8   6
  300              map_scatter                           0.000959                      8   6
  301            map_backward                          0.004631                       12   5
  302              map_gather                            0.001003                      6   6
  303              m_alltoallv_z                         0.002149                      6   6
  304              map_scatter                           0.001171                      6   6
  305        ggaall_grid                           0.001502                            1   3
  306        M_sumb_d                              0.000327                            6   3
  307        M_bcast_d                             0.000108                            1   3
  308      potlok_metagga                        0.000003                              1   2
  309      set_dd_magatom                        0.000003                              1   2
  310      set_dd_paw                            0.000479                              1   2
  311        set_rsgf_all                          0.000004                            1   3
  312        M_sumb_d                              0.000289                            8   3
  313      densta                                0.002508                              1   2
  314        M_sumb_d                              0.000955                           42   3
  315      lprj_proall                           0.000008                              1   2

 Flat profile
 ============

             routine name                   CPU           calls
 ---------------------------------------------------------------
 total_time                             14.054643           1
 eddav                                   5.858106          17
 dfftw_execute                           5.392110       55107
 fftbas_plan_mpi                         3.745854       18371
 setdij_                                 3.086524          41
 M_sumb_d                                2.950622       50730
 set_charge                              2.449447          13
 m_alltoallv_z                           2.022321       18396
 pdssyex_zheevx                          1.582602         357
 elmin                                   1.530965           1
 M_alltoall_d                            1.254920       60956
 orth1                                   0.953804       12489
 proj1                                   0.870124        7430
 vhamil                                  0.838384        8312
 gemm                                    0.768795       24936
 spher                                   0.723680          20
 fftwav_mpi                              0.698827        9752
 map_forward                             0.690464       19798
 map_gather                              0.651380       18396
 map_scatter                             0.580003       18396
 vnlac0                                  0.546289        8312
 M_bcast_z                               0.519632        6709
 redis_pw                                0.506401       23550
 redis_proj                              0.452391       29741
 hamiltmu                                0.449059        4156
 w1_copy                                 0.333590       24936
 map_backward                            0.296788       16940
 fft3d_mpi                               0.290643       18369
 crpa_reader                             0.259687           1
 work_mul_crexp                          0.257437       24936
 fftext_mpi                              0.253056        8312
 M_bcast_d                               0.199497        4190
 crexp_mul_wave                          0.196474       22290
 eccp                                    0.191768        2142
 overl                                   0.163121       14503
 kinhamil                                0.159799        8312
 overl1                                  0.101770        8312
 potlok                                  0.094714          14
 pw_charge                               0.088041        1440
 apply_precond                           0.078520        6170
 setup_precond                           0.070383        2142
 w1_projall                              0.066550        3085
 lincom                                  0.058525         378
 force_and_stress                        0.051059           1
 fornl                                   0.038472           1
 soft_charge                             0.035706          13
 truncate_high_frequency_w1              0.035369       10454
 brmix                                   0.035176          13
 phase                                   0.032453         589
 broyd                                   0.029750          13
 densta                                  0.028299          18
 ggaall_grid                             0.023129          15
 strenl                                  0.019831           1
 setg0                                   0.015391          14
 forhar                                  0.005893           2
 depsum                                  0.005598          13
 set_dd_paw                              0.003210          15
 forloc                                  0.002934           1
 strelo                                  0.002408           1
 strehar                                 0.002393           1
 brget                                   0.002305         501
 orthch                                  0.002152           1
 choleski                                0.001600          21
 chggra                                  0.001534           1
 proj                                    0.001423          21
 brsav                                   0.001149         145
 brgrid                                  0.001119           1
 brpre                                   0.000809          13
 strkin                                  0.000495           1
 fordep                                  0.000114           1
 set_rsgf_all                            0.000072          15
 vectorpot                               0.000069          14
 set_dd_magatom                          0.000054          15
 potlok_metagga                          0.000054          14
 set_kineden                             0.000047          12
 rotate_active_occupied_orbital          0.000015           1
 lprj_proall                             0.000008           1
 redis_pw_over_bands                     0.000003           1
 ---------------------------------------------------------------
  summed up times    56.7177989482880

 Accumulative profile
 ====================

             routine name                   CPU           calls
 ---------------------------------------------------------------
 total_time                             56.717799           1
 elmin                                  37.880327           1
 eddav                                  30.935557          17
 fft3d_mpi                              13.587189       18369
 fftbas_plan_mpi                        13.378920       18371
 hamiltmu                                9.485844        4156
 fftwav_mpi                              7.615403        9752
 kinhamil                                6.000777        8312
 fftext_mpi                              5.840978        8312
 dfftw_execute                           5.392110       55107
 set_charge                              3.887404          13
 setdij_                                 3.597322          41
 force_and_stress                        3.498874           1
 M_sumb_d                                2.950622       50730
 map_forward                             2.474471       19798
 vnlac0                                  2.095855        8312
 m_alltoallv_z                           2.022321       18396
 map_backward                            1.766485       16940
 pdssyex_zheevx                          1.582602         357
 proj1                                   1.530604        7430
 w1_projall                              1.378227        3085
 M_alltoall_d                            1.254920       60956
 soft_charge                             1.220172          13
 redis_pw                                1.205497       23550
 redis_proj                              1.008214       29741
 orth1                                   0.953804       12489
 strenl                                  0.859466           1
 vhamil                                  0.838384        8312
 gemm                                    0.768795       24936
 spher                                   0.723680          20
 map_gather                              0.651380       18396
 map_scatter                             0.580003       18396
 M_bcast_z                               0.519632        6709
 fordep                                  0.505842           1
 potlok                                  0.370023          14
 w1_copy                                 0.333590       24936
 eccp                                    0.321944        2142
 crpa_reader                             0.259687           1
 work_mul_crexp                          0.257437       24936
 M_bcast_d                               0.199497        4190
 crexp_mul_wave                          0.196474       22290
 set_dd_paw                              0.185000          15
 overl                                   0.163121       14503
 setup_precond                           0.120896        2142
 brmix                                   0.118677          13
 overl1                                  0.101770        8312
 pw_charge                               0.088041        1440
 apply_precond                           0.078520        6170
 lincom                                  0.058525         378
 fornl                                   0.054047           1
 densta                                  0.043401          18
 broyd                                   0.038992          13
 truncate_high_frequency_w1              0.035369       10454
 phase                                   0.032453         589
 orthch                                  0.026778           1
 proj                                    0.023214          21
 ggaall_grid                             0.023129          15
 setg0                                   0.015391          14
 depsum                                  0.009535          13
 forhar                                  0.006058           2
 chggra                                  0.005759           1
 forloc                                  0.003846           1
 strelo                                  0.002840           1
 strehar                                 0.002638           1
 brget                                   0.002305         501
 choleski                                0.001600          21
 brsav                                   0.001149         145
 brgrid                                  0.001119           1
 brpre                                   0.000809          13
 strkin                                  0.000593           1
 set_rsgf_all                            0.000072          15
 vectorpot                               0.000069          14
 set_dd_magatom                          0.000054          15
 potlok_metagga                          0.000054          14
 set_kineden                             0.000047          12
 rotate_active_occupied_orbital          0.000015           1
 lprj_proall                             0.000008           1
 redis_pw_over_bands                     0.000003           1
 ---------------------------------------------------------------

Profiling took   1.438031  1.748722  0.006692  0.005148 seconds
Profiling took   1.397689 seconds
