 ----------------------------------------------------
    OOO  PPPP  EEEEE N   N M   M PPPP
   O   O P   P E     NN  N MM MM P   P
   O   O PPPP  EEEEE N N N M M M PPPP   -- VERSION
   O   O P     E     N  NN M   M P
    OOO  P     EEEEE N   N M   M P
 ----------------------------------------------------
 running   64 mpi-ranks, with    1 threads/rank
 distrk:  each k-point on   16 cores,    4 groups
 distr:  one band on    4 cores,    4 groups
 using from now: INCAR
 vasp.6.0.8 29Jun18 (build Jun 13 2019 12:54:44) complex

 POSCAR found type information on POSCAR  U  Bi Pt
 POSCAR found :  3 types and       3 ions
 scaLAPACK will be used
 WARNING: PSMAXN for non-local potential too small

 -----------------------------------------------------------------------------
|                                                                             |
|  ADVICE TO THIS USER RUNNING 'VASP/VAMP'   (HEAR YOUR MASTER'S VOICE ...):  |
|                                                                             |
|      You enforced a specific xc-type in the INCAR file,                     |
|      a different type was found on the POTCAR file                          |
|          I HOPE YOU KNOW, WHAT YOU ARE  DOING                               |
|                                                                             |
 -----------------------------------------------------------------------------

 LDA part: xc-table for Pade appr. of Perdew
 POSCAR, INCAR and KPOINTS ok, starting setup
 FFT: planning ...
 WAVECAR not read
 entering main loop
       N       E                     dE             d eps       ncg     rms          rms(c)
 ELPA: falling back to scaLAPACK
 ELPA: falling back to scaLAPACK
 ELPA: falling back to scaLAPACK
 ELPA: falling back to scaLAPACK
DAV:   1     0.441487820785E+03    0.44149E+03   -0.22931E+04  4048   0.248E+03
DAV:   2     0.343358276158E+02   -0.40715E+03   -0.39820E+03  4176   0.519E+02
DAV:   3    -0.187098214756E+02   -0.53046E+02   -0.51964E+02  4872   0.188E+02
DAV:   4    -0.245628640129E+02   -0.58530E+01   -0.58196E+01  7416   0.488E+01
DAV:   5    -0.247192161264E+02   -0.15635E+00   -0.15611E+00  5360   0.727E+00    0.194E+01
DAV:   6    -0.283244117113E+02   -0.36052E+01   -0.14242E+02  6168   0.897E+01    0.242E+01
DAV:   7    -0.224837445068E+02    0.58407E+01   -0.22964E+01  5800   0.297E+01    0.971E+00
DAV:   8    -0.225533807084E+02   -0.69636E-01   -0.16261E+01  6008   0.214E+01    0.603E+00
DAV:   9    -0.220298816642E+02    0.52350E+00   -0.48544E+00  6264   0.145E+01    0.938E-01
DAV:  10    -0.220367976927E+02   -0.69160E-02   -0.13484E-01  5784   0.218E+00    0.371E-01
DAV:  11    -0.220375061273E+02   -0.70843E-03   -0.30879E-02  6960   0.123E+00    0.400E-01
DAV:  12    -0.220362985776E+02    0.12075E-02   -0.59940E-03  6736   0.537E-01    0.882E-02
DAV:  13    -0.220362370083E+02    0.61569E-04   -0.26073E-03  6952   0.318E-01    0.587E-02
DAV:  14    -0.220361916359E+02    0.45372E-04   -0.57740E-04  5792   0.149E-01    0.116E-02
DAV:  15    -0.220361921541E+02   -0.51816E-06   -0.34596E-05  6920   0.405E-02    0.582E-03
DAV:  16    -0.220361916933E+02    0.46072E-06   -0.21434E-06  5880   0.104E-02    0.111E-03
DAV:  17    -0.220361916464E+02    0.46914E-07   -0.19313E-07  3736   0.271E-03
   1 F= -.22036192E+02 E0= -.22035541E+02  d E =-.130187E-02
