<?xml version="1.0" encoding="ISO-8859-1"?>
<modeling>
 <generator>
  <i name="program" type="string">vasp </i>
  <i name="version" type="string">6.0.8  </i>
  <i name="subversion" type="string">29Jun18 (build Jun 13 2019 12:54:44) complex                          parallel </i>
  <i name="platform" type="string">IFC18_CrayMPICH </i>
  <i name="date" type="string">2021 12 05 </i>
  <i name="time" type="string">14:21:49 </i>
 </generator>
 <incar>
  <i type="int" name="KPAR">     4</i>
  <i type="int" name="NPAR">     4</i>
  <i type="int" name="ISTART">     0</i>
  <i type="string" name="PREC"> ACC</i>
  <i type="string" name="ALGO"> Normal</i>
  <i type="logical" name="ADDGRID"> T  </i>
  <i type="int" name="ISPIN">     1</i>
  <i type="int" name="NELMIN">     5</i>
  <i type="int" name="IBRION">    -1</i>
  <i name="EDIFF">      0.00000010</i>
  <i type="int" name="NSW">     0</i>
  <i type="int" name="ISIF">     3</i>
  <i name="ENCUT">    700.00000000</i>
  <i type="logical" name="LREAL"> F  </i>
  <i type="int" name="ISMEAR">     0</i>
  <i name="SIGMA">      0.01000000</i>
  <i type="logical" name="LWAVE"> F  </i>
  <i type="logical" name="LCHARG"> F  </i>
  <i type="logical" name="LVTOT"> F  </i>
  <i type="string" name="ALGO"> Normal</i>
  <i type="string" name="GGA"> PS</i>
  <i name="EDIFF">      0.00000010</i>
  <i type="int" name="ISPIN">     1</i>
 </incar>
 <structure name="primitive_cell" >
  <crystal>
   <varray name="basis" >
    <v>       0.00000000       3.07982508       3.07982508 </v>
    <v>       3.07982508       0.00000000       3.07982508 </v>
    <v>       3.07982508       3.07982508       0.00000000 </v>
   </varray>
   <i name="volume">     58.42626862 </i>
   <varray name="rec_basis" >
    <v>      -0.16234688       0.16234688       0.16234688 </v>
    <v>       0.16234688      -0.16234688       0.16234688 </v>
    <v>       0.16234688       0.16234688      -0.16234688 </v>
   </varray>
  </crystal>
  <varray name="positions" >
   <v>       0.25000000       0.25000000       0.25000000 </v>
   <v>       0.75000000       0.75000000       0.75000000 </v>
   <v>       0.00000000       0.00000000       0.00000000 </v>
  </varray>
 </structure>
 <varray name="primitive_index" >
  <v type="int" >        1 </v>
  <v type="int" >        2 </v>
  <v type="int" >        3 </v>
 </varray>
 <kpoints>
  <generation param="Gamma">
   <v type="int" name="divisions">      13       13       13 </v>
   <v name="usershift">      0.00000000       0.00000000       0.00000000 </v>
   <v name="genvec1">      0.07692308      -0.00000000       0.00000000 </v>
   <v name="genvec2">     -0.00000000       0.07692308      -0.00000000 </v>
   <v name="genvec3">      0.00000000       0.00000000       0.07692308 </v>
   <v name="shift">      0.00000000       0.00000000       0.00000000 </v>
  </generation>
  <varray name="kpointlist" >
   <v>       0.00000000       0.00000000       0.00000000 </v>
   <v>       0.07692308       0.00000000      -0.00000000 </v>
   <v>       0.15384615      -0.00000000       0.00000000 </v>
   <v>       0.23076923       0.00000000      -0.00000000 </v>
   <v>       0.30769231      -0.00000000       0.00000000 </v>
   <v>       0.38461538       0.00000000      -0.00000000 </v>
   <v>       0.46153846       0.00000000      -0.00000000 </v>
   <v>       0.07692308       0.07692308      -0.00000000 </v>
   <v>       0.15384615       0.07692308      -0.00000000 </v>
   <v>       0.23076923       0.07692308       0.00000000 </v>
   <v>       0.30769231       0.07692308       0.00000000 </v>
   <v>       0.38461538       0.07692308       0.00000000 </v>
   <v>       0.46153846       0.07692308      -0.00000000 </v>
   <v>      -0.46153846       0.07692308       0.00000000 </v>
   <v>      -0.38461538       0.07692308       0.00000000 </v>
   <v>      -0.30769231       0.07692308       0.00000000 </v>
   <v>      -0.23076923       0.07692308       0.00000000 </v>
   <v>      -0.15384615       0.07692308       0.00000000 </v>
   <v>      -0.07692308       0.07692308       0.00000000 </v>
   <v>       0.15384615       0.15384615      -0.00000000 </v>
   <v>       0.23076923       0.15384615      -0.00000000 </v>
   <v>       0.30769231       0.15384615      -0.00000000 </v>
   <v>       0.38461538       0.15384615      -0.00000000 </v>
   <v>       0.46153846       0.15384615      -0.00000000 </v>
   <v>      -0.46153846       0.15384615      -0.00000000 </v>
   <v>      -0.38461538       0.15384615       0.00000000 </v>
   <v>      -0.30769231       0.15384615       0.00000000 </v>
   <v>      -0.23076923       0.15384615       0.00000000 </v>
   <v>      -0.15384615       0.15384615      -0.00000000 </v>
   <v>       0.23076923       0.23076923      -0.00000000 </v>
   <v>       0.30769231       0.23076923      -0.00000000 </v>
   <v>       0.38461538       0.23076923      -0.00000000 </v>
   <v>       0.46153846       0.23076923      -0.00000000 </v>
   <v>      -0.46153846       0.23076923       0.00000000 </v>
   <v>      -0.38461538       0.23076923       0.00000000 </v>
   <v>      -0.30769231       0.23076923       0.00000000 </v>
   <v>      -0.23076923       0.23076923       0.00000000 </v>
   <v>       0.30769231       0.30769231      -0.00000000 </v>
   <v>       0.38461538       0.30769231      -0.00000000 </v>
   <v>       0.46153846       0.30769231      -0.00000000 </v>
   <v>      -0.46153846       0.30769231       0.00000000 </v>
   <v>      -0.38461538       0.30769231      -0.00000000 </v>
   <v>      -0.30769231       0.30769231      -0.00000000 </v>
   <v>       0.38461538       0.38461538      -0.00000000 </v>
   <v>       0.46153846       0.38461538      -0.00000000 </v>
   <v>      -0.46153846       0.38461538      -0.00000000 </v>
   <v>      -0.38461538       0.38461538       0.00000000 </v>
   <v>       0.46153846       0.46153846      -0.00000000 </v>
   <v>      -0.46153846       0.46153846       0.00000000 </v>
   <v>       0.23076923       0.15384615       0.07692308 </v>
   <v>       0.30769231       0.15384615       0.07692308 </v>
   <v>       0.38461538       0.15384615       0.07692308 </v>
   <v>       0.46153846       0.15384615       0.07692308 </v>
   <v>      -0.46153846       0.15384615       0.07692308 </v>
   <v>       0.30769231       0.23076923       0.07692308 </v>
   <v>       0.38461538       0.23076923       0.07692308 </v>
   <v>       0.46153846       0.23076923       0.07692308 </v>
   <v>      -0.46153846       0.23076923       0.07692308 </v>
   <v>      -0.38461538       0.23076923       0.07692308 </v>
   <v>      -0.30769231       0.23076923       0.07692308 </v>
   <v>      -0.23076923       0.23076923       0.07692308 </v>
   <v>      -0.15384615       0.23076923       0.07692308 </v>
   <v>       0.38461538       0.30769231       0.07692308 </v>
   <v>       0.46153846       0.30769231       0.07692308 </v>
   <v>      -0.46153846       0.30769231       0.07692308 </v>
   <v>      -0.38461538       0.30769231       0.07692308 </v>
   <v>      -0.30769231       0.30769231       0.07692308 </v>
   <v>      -0.23076923       0.30769231       0.07692308 </v>
   <v>       0.46153846       0.38461538       0.07692308 </v>
   <v>      -0.46153846       0.38461538       0.07692308 </v>
   <v>      -0.38461538       0.38461538       0.07692308 </v>
   <v>      -0.30769231       0.38461538       0.07692308 </v>
   <v>      -0.46153846       0.46153846       0.07692308 </v>
   <v>      -0.38461538       0.46153846       0.07692308 </v>
   <v>       0.46153846       0.30769231       0.15384615 </v>
   <v>      -0.46153846       0.30769231       0.15384615 </v>
   <v>      -0.38461538       0.30769231       0.15384615 </v>
   <v>      -0.46153846       0.38461538       0.15384615 </v>
   <v>      -0.38461538       0.38461538       0.15384615 </v>
   <v>      -0.30769231       0.38461538       0.15384615 </v>
   <v>      -0.23076923       0.38461538       0.15384615 </v>
   <v>      -0.38461538       0.46153846       0.15384615 </v>
   <v>      -0.30769231       0.46153846       0.15384615 </v>
   <v>      -0.30769231       0.46153846       0.23076923 </v>
  </varray>
  <varray name="weights" >
   <v>       0.00045517 </v>
   <v>       0.00364133 </v>
   <v>       0.00364133 </v>
   <v>       0.00364133 </v>
   <v>       0.00364133 </v>
   <v>       0.00364133 </v>
   <v>       0.00364133 </v>
   <v>       0.00273100 </v>
   <v>       0.01092399 </v>
   <v>       0.01092399 </v>
   <v>       0.01092399 </v>
   <v>       0.01092399 </v>
   <v>       0.01092399 </v>
   <v>       0.01092399 </v>
   <v>       0.01092399 </v>
   <v>       0.01092399 </v>
   <v>       0.01092399 </v>
   <v>       0.01092399 </v>
   <v>       0.00546199 </v>
   <v>       0.00273100 </v>
   <v>       0.01092399 </v>
   <v>       0.01092399 </v>
   <v>       0.01092399 </v>
   <v>       0.01092399 </v>
   <v>       0.01092399 </v>
   <v>       0.01092399 </v>
   <v>       0.01092399 </v>
   <v>       0.01092399 </v>
   <v>       0.00546199 </v>
   <v>       0.00273100 </v>
   <v>       0.01092399 </v>
   <v>       0.01092399 </v>
   <v>       0.01092399 </v>
   <v>       0.01092399 </v>
   <v>       0.01092399 </v>
   <v>       0.01092399 </v>
   <v>       0.00546199 </v>
   <v>       0.00273100 </v>
   <v>       0.01092399 </v>
   <v>       0.01092399 </v>
   <v>       0.01092399 </v>
   <v>       0.01092399 </v>
   <v>       0.00546199 </v>
   <v>       0.00273100 </v>
   <v>       0.01092399 </v>
   <v>       0.01092399 </v>
   <v>       0.00546199 </v>
   <v>       0.00273100 </v>
   <v>       0.00546199 </v>
   <v>       0.01092399 </v>
   <v>       0.02184797 </v>
   <v>       0.02184797 </v>
   <v>       0.02184797 </v>
   <v>       0.02184797 </v>
   <v>       0.01092399 </v>
   <v>       0.02184797 </v>
   <v>       0.02184797 </v>
   <v>       0.02184797 </v>
   <v>       0.02184797 </v>
   <v>       0.02184797 </v>
   <v>       0.02184797 </v>
   <v>       0.01092399 </v>
   <v>       0.01092399 </v>
   <v>       0.02184797 </v>
   <v>       0.02184797 </v>
   <v>       0.02184797 </v>
   <v>       0.02184797 </v>
   <v>       0.01092399 </v>
   <v>       0.01092399 </v>
   <v>       0.02184797 </v>
   <v>       0.02184797 </v>
   <v>       0.01092399 </v>
   <v>       0.01092399 </v>
   <v>       0.01092399 </v>
   <v>       0.01092399 </v>
   <v>       0.02184797 </v>
   <v>       0.02184797 </v>
   <v>       0.01092399 </v>
   <v>       0.02184797 </v>
   <v>       0.02184797 </v>
   <v>       0.01092399 </v>
   <v>       0.01092399 </v>
   <v>       0.01092399 </v>
   <v>       0.01092399 </v>
  </varray>
 </kpoints>
 <parameters>
  <separator name="general" >
   <i type="string" name="SYSTEM">unknown system</i>
   <i type="logical" name="LCOMPAT"> F  </i>
  </separator>
  <separator name="electronic" >
   <i type="string" name="PREC">acc</i>
   <i name="ENMAX">    700.00000000</i>
   <i name="ENAUG">    526.41000000</i>
   <i name="EDIFF">      0.00000010</i>
   <i type="int" name="IALGO">    38</i>
   <i type="int" name="IWAVPR">    10</i>
   <i type="int" name="NBANDS">    24</i>
   <i type="int" name="NBANDSLOW">    -1</i>
   <i type="int" name="NBANDSHIGH">    -1</i>
   <i name="NELECT">     39.00000000</i>
   <i type="int" name="TURBO">     0</i>
   <i type="int" name="IRESTART">     0</i>
   <i type="int" name="NREBOOT">     0</i>
   <i type="int" name="NMIN">     0</i>
   <i name="EREF">      0.00000000</i>
   <separator name="electronic smearing" >
    <i type="int" name="ISMEAR">     0</i>
    <i name="SIGMA">      0.01000000</i>
    <i name="KSPACING">      0.50000000</i>
    <i type="logical" name="KGAMMA"> T  </i>
    <i type="logical" name="KBLOWUP"> T  </i>
   </separator>
   <separator name="electronic projectors" >
    <i type="logical" name="LREAL"> F  </i>
    <v name="ROPT">      0.00000000      0.00000000      0.00000000</v>
    <i type="int" name="LMAXPAW">  -100</i>
    <i type="int" name="LMAXMIX">     2</i>
    <i type="logical" name="NLSPLINE"> F  </i>
   </separator>
   <separator name="electronic startup" >
    <i type="int" name="ISTART">     0</i>
    <i type="int" name="ICHARG">     2</i>
    <i type="int" name="INIWAV">     1</i>
   </separator>
   <separator name="electronic spin" >
    <i type="int" name="ISPIN">     1</i>
    <i type="logical" name="LNONCOLLINEAR"> F  </i>
    <v name="MAGMOM">      1.00000000      1.00000000      1.00000000</v>
    <i name="NUPDOWN">     -1.00000000</i>
    <i type="logical" name="LSORBIT"> F  </i>
    <v name="SAXIS">      0.00000000      0.00000000      1.00000000</v>
    <i type="logical" name="LSPIRAL"> F  </i>
    <v name="QSPIRAL">      0.00000000      0.00000000      0.00000000</v>
    <i type="logical" name="LZEROZ"> F  </i>
   </separator>
   <separator name="electronic exchange-correlation" >
    <i type="logical" name="LASPH"> F  </i>
    <i type="logical" name="LMETAGGA"> F  </i>
   </separator>
   <separator name="electronic convergence" >
    <i type="int" name="NELM">    60</i>
    <i type="int" name="NELMDL">    -5</i>
    <i type="int" name="NELMIN">     5</i>
    <i name="ENINI">    700.00000000</i>
    <separator name="electronic convergence detail" >
     <i type="logical" name="LDIAG"> T  </i>
     <i type="logical" name="LSUBROT"> F  </i>
     <i name="WEIMIN">      0.00000000</i>
     <i name="EBREAK">      0.00000000</i>
     <i name="DEPER">      0.30000000</i>
     <i type="int" name="NRMM">     4</i>
     <i name="TIME">      0.40000000</i>
    </separator>
   </separator>
   <separator name="electronic mixer" >
    <i name="AMIX">      0.40000000</i>
    <i name="BMIX">      1.00000000</i>
    <i name="AMIN">      0.10000000</i>
    <i name="AMIX_MAG">      1.60000000</i>
    <i name="BMIX_MAG">      1.00000000</i>
    <separator name="electronic mixer details" >
     <i type="int" name="IMIX">     4</i>
     <i type="logical" name="MIXFIRST"> F  </i>
     <i type="int" name="MAXMIX">   -45</i>
     <i name="WC">    100.00000000</i>
     <i type="int" name="INIMIX">     1</i>
     <i type="int" name="MIXPRE">     1</i>
     <i type="int" name="MREMOVE">     5</i>
    </separator>
   </separator>
   <separator name="electronic dipolcorrection" >
    <i type="logical" name="LDIPOL"> F  </i>
    <i type="logical" name="LMONO"> F  </i>
    <i type="int" name="IDIPOL">     0</i>
    <i name="EPSILON">      1.00000000</i>
    <v name="DIPOL">   -100.00000000   -100.00000000   -100.00000000</v>
    <i name="EFIELD">      0.00000000</i>
   </separator>
  </separator>
  <separator name="grids" >
   <i type="int" name="NGX">    40</i>
   <i type="int" name="NGY">    40</i>
   <i type="int" name="NGZ">    40</i>
   <i type="int" name="NGXF">    80</i>
   <i type="int" name="NGYF">    80</i>
   <i type="int" name="NGZF">    80</i>
   <i type="logical" name="ADDGRID"> T  </i>
  </separator>
  <separator name="ionic" >
   <i type="int" name="NSW">     0</i>
   <i type="int" name="IBRION">    -1</i>
   <i type="int" name="MDALGO">     0</i>
   <i type="int" name="ISIF">     3</i>
   <i name="PSTRESS">      0.00000000</i>
   <i name="EDIFFG">      0.00000100</i>
   <i type="int" name="NFREE">     0</i>
   <i name="POTIM">      0.50000000</i>
   <i name="SMASS">     -3.00000000</i>
   <i name="SCALEE">      1.00000000</i>
  </separator>
  <separator name="ionic md" >
   <i name="TEBEG">      0.00010000</i>
   <i name="TEEND">      0.00010000</i>
   <i type="int" name="NBLOCK">     1</i>
   <i type="int" name="KBLOCK">     1</i>
   <i type="int" name="NPACO">   256</i>
   <i name="APACO">     16.00000000</i>
  </separator>
  <separator name="symmetry" >
   <i type="int" name="ISYM">     2</i>
   <i name="SYMPREC">      0.00001000</i>
  </separator>
  <separator name="dos" >
   <i type="int" name="LORBIT">     0</i>
   <v name="RWIGS">     -1.00000000     -1.00000000     -1.00000000</v>
   <i type="int" name="NEDOS">   301</i>
   <i name="EMIN">     10.00000000</i>
   <i name="EMAX">    -10.00000000</i>
   <i name="EFERMI">      0.00000000</i>
  </separator>
  <separator name="writing" >
   <i type="int" name="NWRITE">     2</i>
   <i type="logical" name="LWAVE"> F  </i>
   <i type="logical" name="LDOWNSAMPLE"> F  </i>
   <i type="logical" name="LCHARG"> F  </i>
   <i type="logical" name="LPARD"> F  </i>
   <i type="logical" name="LVTOT"> F  </i>
   <i type="logical" name="LVHAR"> F  </i>
   <i type="logical" name="LELF"> F  </i>
   <i type="logical" name="LOPTICS"> F  </i>
   <v name="STM">      0.00000000      0.00000000      0.00000000      0.00000000      0.00000000      0.00000000      0.00000000</v>
  </separator>
  <separator name="performance" >
   <i type="int" name="NPAR">     4</i>
   <i type="int" name="NSIM">     4</i>
   <i type="int" name="NBLK">    -1</i>
   <i type="logical" name="LPLANE"> T  </i>
   <i type="logical" name="LSCALAPACK"> T  </i>
   <i type="logical" name="LSCAAWARE"> F  </i>
   <i type="logical" name="LSCALU"> F  </i>
   <i type="logical" name="LASYNC"> F  </i>
   <i type="logical" name="LORBITALREAL"> F  </i>
  </separator>
  <separator name="miscellaneous" >
   <i type="int" name="IDIOT">     3</i>
   <i type="int" name="PHON_NSTRUCT">    -1</i>
   <i type="logical" name="LMUSIC"> F  </i>
   <v name="POMASS">    238.02900000    208.98000000    195.08000000</v>
   <v name="DARWINR">      0.00000000      0.00000000      0.00000000</v>
   <v name="DARWINV">      1.00000000      1.00000000      1.00000000</v>
   <i type="logical" name="LCORR"> T  </i>
  </separator>
  <i type="logical" name="GGA_COMPAT"> T  </i>
  <i type="logical" name="LBERRY"> F  </i>
  <i type="int" name="ICORELEVEL">     0</i>
  <i type="logical" name="LDAU"> F  </i>
  <i type="int" name="I_CONSTRAINED_M">     0</i>
  <separator name="electronic exchange-correlation" >
   <i type="string" name="GGA">PS</i>
   <i type="int" name="VOSKOWN">     0</i>
   <i type="logical" name="LHFCALC"> F  </i>
   <i type="string" name="PRECFOCK"></i>
   <i type="logical" name="LSYMGRAD"> F  </i>
   <i type="logical" name="LHFONE"> F  </i>
   <i type="logical" name="LRHFCALC"> F  </i>
   <i type="logical" name="LTHOMAS"> F  </i>
   <i type="logical" name="LMODELHF"> F  </i>
   <i type="logical" name="LFOCKACE"> F  </i>
   <i name="ENCUT4O">     -1.00000000</i>
   <i type="int" name="EXXOEP">     0</i>
   <i type="int" name="FOURORBIT">     0</i>
   <i name="AEXX">      0.00000000</i>
   <i name="HFALPHA">      0.00000000</i>
   <i name="MCALPHA">      0.00000000</i>
   <i name="ALDAX">      1.00000000</i>
   <i name="AGGAX">      1.00000000</i>
   <i name="ALDAC">      1.00000000</i>
   <i name="AGGAC">      1.00000000</i>
   <i type="int" name="NKREDX">     1</i>
   <i type="int" name="NKREDY">     1</i>
   <i type="int" name="NKREDZ">     1</i>
   <i type="logical" name="SHIFTRED"> F  </i>
   <i type="logical" name="ODDONLY"> F  </i>
   <i type="logical" name="EVENONLY"> F  </i>
   <i type="int" name="LMAXFOCK">     0</i>
   <i type="int" name="NMAXFOCKAE">     0</i>
   <i type="logical" name="LFOCKAEDFT"> F  </i>
   <i name="HFSCREEN">      0.00000000</i>
   <i name="HFSCREENC">      0.00000000</i>
   <i type="int" name="NBANDSGWLOW">     0</i>
  </separator>
  <separator name="vdW DFT" >
   <i type="logical" name="LUSE_VDW"> F  </i>
   <i name="Zab_VDW">     -0.84910000</i>
   <i name="PARAM1">      0.12340000</i>
   <i name="PARAM2">      1.00000000</i>
   <i name="PARAM3">      0.00000000</i>
  </separator>
  <separator name="model GW" >
   <i type="int" name="MODEL_GW">     0</i>
   <i name="MODEL_EPS0">     11.68525372</i>
   <i name="MODEL_ALPHA">      1.00000000</i>
  </separator>
  <separator name="linear response parameters" >
   <i type="logical" name="LEPSILON"> F  </i>
   <i type="logical" name="LRPA"> F  </i>
   <i type="logical" name="LNABLA"> F  </i>
   <i type="logical" name="LVEL"> F  </i>
   <i type="int" name="KINTER">     0</i>
   <i name="CSHIFT">      0.10000000</i>
   <i name="OMEGAMAX">     -1.00000000</i>
   <i name="DEG_THRESHOLD">      0.00200000</i>
   <i name="RTIME">     -0.10000000</i>
   <i name="WPLASMAI">      0.00000000</i>
   <v name="DFIELD">      0.00000000      0.00000000      0.00000000</v>
   <v name="WPLASMA">      0.00000000      0.00000000      0.00000000      0.00000000      0.00000000      0.00000000      0.00000000      0.00000000      0.00000000</v>
  </separator>
  <separator name="orbital magnetization" >
   <i type="logical" name="NUCIND"> F  </i>
   <v name="MAGPOS">      0.00000000      0.00000000      0.00000000</v>
   <i type="logical" name="LNICSALL"> T  </i>
   <i type="logical" name="ORBITALMAG"> F  </i>
   <i type="logical" name="LMAGBLOCH"> F  </i>
   <i type="logical" name="LCHIMAG"> F  </i>
   <i type="logical" name="LGAUGE"> T  </i>
   <i type="int" name="MAGATOM">     0</i>
   <v name="MAGDIPOL">      0.00000000      0.00000000      0.00000000</v>
   <v name="AVECCONST">      0.00000000      0.00000000      0.00000000</v>
  </separator>
  <separator name="response functions" >
   <i type="logical" name="LFINITE_TEMPERATURE"> F  </i>
   <i type="logical" name="LADDER"> F  </i>
   <i type="logical" name="LRPAFORCE"> F  </i>
   <i type="logical" name="LFXC"> F  </i>
   <i type="logical" name="LHARTREE"> T  </i>
   <i type="int" name="IBSE">     0</i>
   <v type="int" name="KPOINT">    -1     0     0     0</v>
   <i type="logical" name="LTCTC"> F  </i>
   <i type="logical" name="LTCTE"> F  </i>
   <i type="logical" name="LTETE"> F  </i>
   <i type="logical" name="LTRIPLET"> F  </i>
   <i type="logical" name="LFXCEPS"> F  </i>
   <i type="logical" name="LFXHEG"> F  </i>
   <i type="int" name="NATURALO">     2</i>
   <i type="logical" name="L2ORDER"> F  </i>
   <i type="logical" name="LDMP1"> F  </i>
   <i type="logical" name="LMP2LT"> F  </i>
   <i type="logical" name="LSMP2LT"> F  </i>
   <i type="logical" name="LUSEW"> F  </i>
   <i name="ENCUTGW">     -2.00000000</i>
   <i name="ENCUTGWSOFT">     -2.00000000</i>
   <i name="ENCUTLF">     -1.00000000</i>
   <i type="int" name="LMAXMP2">    -1</i>
   <i name="SCISSOR">      0.00000000</i>
   <i type="int" name="NOMEGA">     0</i>
   <i type="int" name="NOMEGAR">     0</i>
   <i type="int" name="NBANDSGW">    -1</i>
   <i type="int" name="NBANDSO">    -1</i>
   <i type="int" name="NBANDSV">    -1</i>
   <i type="int" name="NELM">     1</i>
   <i type="int" name="NELMHF">     1</i>
   <i type="int" name="DIM">     3</i>
   <i type="int" name="IESPILON">     4</i>
   <i type="int" name="ANTIRES">     0</i>
   <i name="OMEGAMAX">    -30.00000000</i>
   <i name="OMEGAMIN">    -30.00000000</i>
   <i name="OMEGATL">   -200.00000000</i>
   <i type="int" name="OMEGAGRID">   145</i>
   <i name="CSHIFT">     -0.10000000</i>
   <i type="logical" name="LSELFENERGY"> F  </i>
   <i type="logical" name="LSPECTRAL"> F  </i>
   <i type="logical" name="LSPECTRALGW"> F  </i>
   <i type="logical" name="LSINGLES"> F  </i>
   <i type="logical" name="LFERMIGW"> F  </i>
   <i type="logical" name="ODDONLYGW"> F  </i>
   <i type="logical" name="EVENONLYGW"> F  </i>
   <i type="int" name="NKREDLFX">     1</i>
   <i type="int" name="NKREDLFY">     1</i>
   <i type="int" name="NKREDLFZ">     1</i>
   <i type="int" name="MAXMEM">  2800</i>
   <i type="int" name="TELESCOPE">     0</i>
   <i type="int" name="NTAUPAR">     1</i>
   <i type="int" name="NOMEGAPAR">    -1</i>
   <i name="LAMBDA">      1.00000000</i>
  </separator>
  <separator name="External order field" >
   <i name="OFIELD_KAPPA">      0.00000000</i>
   <v name="OFIELD_K">      0.00000000      0.00000000      0.00000000</v>
   <i name="OFIELD_Q6_NEAR">      0.00000000</i>
   <i name="OFIELD_Q6_FAR">      0.00000000</i>
   <i name="OFIELD_A">      0.00000000</i>
  </separator>
 </parameters>
 <atominfo>
  <atoms>       3 </atoms>
  <types>       3 </types>
  <array name="atoms" >
   <dimension dim="1">ion</dimension>
   <field type="string">element</field>
   <field type="int">atomtype</field>
   <set>
    <rc><c>U </c><c>   1</c></rc>
    <rc><c>Bi</c><c>   2</c></rc>
    <rc><c>Pt</c><c>   3</c></rc>
   </set>
  </array>
  <array name="atomtypes" >
   <dimension dim="1">type</dimension>
   <field type="int">atomspertype</field>
   <field type="string">element</field>
   <field>mass</field>
   <field>valence</field>
   <field type="string">pseudopotential</field>
   <set>
    <rc><c>   1</c><c>U </c><c>    238.02900000</c><c>     14.00000000</c><c>  PAW_PBE U 06Sep2000                   </c></rc>
    <rc><c>   1</c><c>Bi</c><c>    208.98000000</c><c>     15.00000000</c><c>  PAW_PBE Bi_d 06Sep2000                </c></rc>
    <rc><c>   1</c><c>Pt</c><c>    195.08000000</c><c>     10.00000000</c><c>  PAW_PBE Pt 04Feb2005                  </c></rc>
   </set>
  </array>
 </atominfo>
 <structure name="initialpos" >
  <crystal>
   <varray name="basis" >
    <v>       0.00000000       3.07982508       3.07982508 </v>
    <v>       3.07982508       0.00000000       3.07982508 </v>
    <v>       3.07982508       3.07982508       0.00000000 </v>
   </varray>
   <i name="volume">     58.42626862 </i>
   <varray name="rec_basis" >
    <v>      -0.16234688       0.16234688       0.16234688 </v>
    <v>       0.16234688      -0.16234688       0.16234688 </v>
    <v>       0.16234688       0.16234688      -0.16234688 </v>
   </varray>
  </crystal>
  <varray name="positions" >
   <v>       0.25000000       0.25000000       0.25000000 </v>
   <v>       0.75000000       0.75000000       0.75000000 </v>
   <v>       0.00000000       0.00000000       0.00000000 </v>
  </varray>
 </structure>
 <calculation>
  <scstep>
   <time name="dav">    1.40    1.47</time>
   <time name="total">    1.56    1.70</time>
   <energy>
    <i name="alphaZ">    269.13895144 </i>
    <i name="ewald">  -3870.77493527 </i>
    <i name="hartreedc">   -674.00318487 </i>
    <i name="XCdc">     93.40461878 </i>
    <i name="pawpsdc">   3513.29252893 </i>
    <i name="pawaedc">  -3436.88002192 </i>
    <i name="eentropy">     -0.00007657 </i>
    <i name="bandstr">    451.95785394 </i>
    <i name="atom">   4095.35208632 </i>
    <i name="e_fr_energy">    441.48782078 </i>
    <i name="e_wo_entrp">    441.48789735 </i>
    <i name="e_0_energy">    441.48785907 </i>
   </energy>
  </scstep>
  <scstep>
   <time name="dav">    1.42    1.44</time>
   <time name="total">    1.42    1.44</time>
   <energy>
    <i name="e_fr_energy">     34.33582762 </i>
    <i name="e_wo_entrp">     34.33607248 </i>
    <i name="e_0_energy">     34.33595005 </i>
   </energy>
  </scstep>
  <scstep>
   <time name="dav">    1.61    1.63</time>
   <time name="total">    1.62    1.63</time>
   <energy>
    <i name="e_fr_energy">    -18.70982148 </i>
    <i name="e_wo_entrp">    -18.70920574 </i>
    <i name="e_0_energy">    -18.70951361 </i>
   </energy>
  </scstep>
  <scstep>
   <time name="dav">    2.24    2.25</time>
   <time name="total">    2.24    2.26</time>
   <energy>
    <i name="e_fr_energy">    -24.56286401 </i>
    <i name="e_wo_entrp">    -24.56207378 </i>
    <i name="e_0_energy">    -24.56246890 </i>
   </energy>
  </scstep>
  <scstep>
   <time name="dav">    1.73    1.75</time>
   <time name="total">    2.10    2.12</time>
   <energy>
    <i name="e_fr_energy">    -24.71921613 </i>
    <i name="e_wo_entrp">    -24.71846429 </i>
    <i name="e_0_energy">    -24.71884021 </i>
   </energy>
  </scstep>
  <scstep>
   <time name="dav">    1.88    1.88</time>
   <time name="total">    2.36    2.38</time>
   <energy>
    <i name="e_fr_energy">    -28.32441171 </i>
    <i name="e_wo_entrp">    -28.32414773 </i>
    <i name="e_0_energy">    -28.32427972 </i>
   </energy>
  </scstep>
  <scstep>
   <time name="dav">    1.80    1.80</time>
   <time name="total">    2.25    2.27</time>
   <energy>
    <i name="e_fr_energy">    -22.48374451 </i>
    <i name="e_wo_entrp">    -22.48309673 </i>
    <i name="e_0_energy">    -22.48342062 </i>
   </energy>
  </scstep>
  <scstep>
   <time name="dav">    1.85    1.85</time>
   <time name="total">    2.29    2.32</time>
   <energy>
    <i name="e_fr_energy">    -22.55338071 </i>
    <i name="e_wo_entrp">    -22.55191400 </i>
    <i name="e_0_energy">    -22.55264736 </i>
   </energy>
  </scstep>
  <scstep>
   <time name="dav">    1.90    1.90</time>
   <time name="total">    2.34    2.37</time>
   <energy>
    <i name="e_fr_energy">    -22.02988166 </i>
    <i name="e_wo_entrp">    -22.02872414 </i>
    <i name="e_0_energy">    -22.02930290 </i>
   </energy>
  </scstep>
  <scstep>
   <time name="dav">    1.78    1.78</time>
   <time name="total">    2.26    2.29</time>
   <energy>
    <i name="e_fr_energy">    -22.03679769 </i>
    <i name="e_wo_entrp">    -22.03558517 </i>
    <i name="e_0_energy">    -22.03619143 </i>
   </energy>
  </scstep>
  <scstep>
   <time name="dav">    2.11    2.11</time>
   <time name="total">    2.62    2.65</time>
   <energy>
    <i name="e_fr_energy">    -22.03750613 </i>
    <i name="e_wo_entrp">    -22.03612870 </i>
    <i name="e_0_energy">    -22.03681741 </i>
   </energy>
  </scstep>
  <scstep>
   <time name="dav">    2.04    2.04</time>
   <time name="total">    2.50    2.52</time>
   <energy>
    <i name="e_fr_energy">    -22.03629858 </i>
    <i name="e_wo_entrp">    -22.03497018 </i>
    <i name="e_0_energy">    -22.03563438 </i>
   </energy>
  </scstep>
  <scstep>
   <time name="dav">    2.10    2.10</time>
   <time name="total">    2.54    2.58</time>
   <energy>
    <i name="e_fr_energy">    -22.03623701 </i>
    <i name="e_wo_entrp">    -22.03495381 </i>
    <i name="e_0_energy">    -22.03559541 </i>
   </energy>
  </scstep>
  <scstep>
   <time name="dav">    1.79    1.79</time>
   <time name="total">    2.25    2.28</time>
   <energy>
    <i name="e_fr_energy">    -22.03619164 </i>
    <i name="e_wo_entrp">    -22.03488669 </i>
    <i name="e_0_energy">    -22.03553916 </i>
   </energy>
  </scstep>
  <scstep>
   <time name="dav">    2.10    2.10</time>
   <time name="total">    2.57    2.61</time>
   <energy>
    <i name="e_fr_energy">    -22.03619215 </i>
    <i name="e_wo_entrp">    -22.03489144 </i>
    <i name="e_0_energy">    -22.03554180 </i>
   </energy>
  </scstep>
  <scstep>
   <time name="dav">    1.83    1.83</time>
   <time name="total">    2.28    2.33</time>
   <energy>
    <i name="e_fr_energy">    -22.03619169 </i>
    <i name="e_wo_entrp">    -22.03488983 </i>
    <i name="e_0_energy">    -22.03554076 </i>
   </energy>
  </scstep>
  <scstep>
   <time name="dav">    1.36    1.36</time>
   <time name="total">    1.52    1.54</time>
   <energy>
    <i name="alphaZ">    269.13895144 </i>
    <i name="ewald">  -3870.77493527 </i>
    <i name="hartreedc">   -653.80929163 </i>
    <i name="XCdc">     92.80443675 </i>
    <i name="pawpsdc">   4969.03974288 </i>
    <i name="pawaedc">  -4906.26865215 </i>
    <i name="eentropy">     -0.00130187 </i>
    <i name="bandstr">    -17.51722810 </i>
    <i name="atom">   4095.35208632 </i>
    <i name="e_fr_energy">    -22.03619165 </i>
    <i name="e_wo_entrp">    -22.03488977 </i>
    <i name="e_0_energy">    -22.03554071 </i>
   </energy>
  </scstep>
  <structure>
   <crystal>
    <varray name="basis" >
     <v>       0.00000000       3.07982508       3.07982508 </v>
     <v>       3.07982508       0.00000000       3.07982508 </v>
     <v>       3.07982508       3.07982508       0.00000000 </v>
    </varray>
    <i name="volume">     58.42626862 </i>
    <varray name="rec_basis" >
     <v>      -0.16234688       0.16234688       0.16234688 </v>
     <v>       0.16234688      -0.16234688       0.16234688 </v>
     <v>       0.16234688       0.16234688      -0.16234688 </v>
    </varray>
   </crystal>
   <varray name="positions" >
    <v>       0.25000000       0.25000000       0.25000000 </v>
    <v>       0.75000000       0.75000000       0.75000000 </v>
    <v>       0.00000000       0.00000000       0.00000000 </v>
   </varray>
  </structure>
  <varray name="forces" >
   <v>      -0.00000000      -0.00000000      -0.00000000 </v>
   <v>      -0.00000000      -0.00000000      -0.00000000 </v>
   <v>       0.00000000       0.00000000       0.00000000 </v>
  </varray>
  <varray name="stress" >
   <v>     471.76344722       0.00000000      -0.00000000 </v>
   <v>       0.00000000     471.76344722       0.00000000 </v>
   <v>      -0.00000000       0.00000000     471.76344722 </v>
  </varray>
  <energy>
   <i name="e_fr_energy">    -22.03619165 </i>
   <i name="e_wo_entrp">    -22.03554071 </i>
   <i name="e_0_energy">     -0.00130187 </i>
  </energy>
  <time name="totalsc">   40.48   41.56</time>
  <eigenvalues>
   <array>
    <dimension dim="1">band</dimension>
    <dimension dim="2">kpoint</dimension>
    <dimension dim="3">spin</dimension>
    <field>eigene</field>
    <field>occ</field>
    <set>
     <set comment="spin 1">
      <set comment="kpoint 1">
       <r>  -30.4569    1.0000 </r>
       <r>   -9.9230    1.0000 </r>
       <r>   -9.9230    1.0000 </r>
       <r>   -9.8743    1.0000 </r>
       <r>   -9.8743    1.0000 </r>
       <r>   -9.8743    1.0000 </r>
       <r>   -6.0690    1.0000 </r>
       <r>   -6.0690    1.0000 </r>
       <r>   -6.0690    1.0000 </r>
       <r>   -0.4742    1.0000 </r>
       <r>    7.7996    1.0000 </r>
       <r>    7.7996    1.0000 </r>
       <r>    7.8704    1.0000 </r>
       <r>    7.8704    1.0000 </r>
       <r>    7.8704    1.0000 </r>
       <r>   11.9182    1.0000 </r>
       <r>   11.9182    1.0000 </r>
       <r>   11.9182    1.0000 </r>
       <r>   12.3578    1.0000 </r>
       <r>   13.2369    1.0000 </r>
       <r>   13.2369    1.0000 </r>
       <r>   13.2369    1.0000 </r>
       <r>   13.8814    0.0000 </r>
       <r>   13.8815    0.0000 </r>
      </set>
      <set comment="kpoint 2">
       <r>  -30.4558    1.0000 </r>
       <r>   -9.9283    1.0000 </r>
       <r>   -9.9283    1.0000 </r>
       <r>   -9.8753    1.0000 </r>
       <r>   -9.8737    1.0000 </r>
       <r>   -9.8737    1.0000 </r>
       <r>   -6.1123    1.0000 </r>
       <r>   -6.0565    1.0000 </r>
       <r>   -6.0565    1.0000 </r>
       <r>   -0.3465    1.0000 </r>
       <r>    7.5160    1.0000 </r>
       <r>    7.5160    1.0000 </r>
       <r>    7.7328    1.0000 </r>
       <r>    8.1355    1.0000 </r>
       <r>    8.1355    1.0000 </r>
       <r>   11.3215    1.0000 </r>
       <r>   11.8410    1.0000 </r>
       <r>   11.8410    1.0000 </r>
       <r>   12.5445    1.0000 </r>
       <r>   13.2677    1.0000 </r>
       <r>   13.2677    1.0000 </r>
       <r>   13.4230    1.0000 </r>
       <r>   13.8838    0.0000 </r>
       <r>   13.9556    0.0000 </r>
      </set>
      <set comment="kpoint 3">
       <r>  -30.4529    1.0000 </r>
       <r>   -9.9427    1.0000 </r>
       <r>   -9.9427    1.0000 </r>
       <r>   -9.8785    1.0000 </r>
       <r>   -9.8723    1.0000 </r>
       <r>   -9.8723    1.0000 </r>
       <r>   -6.2220    1.0000 </r>
       <r>   -6.0221    1.0000 </r>
       <r>   -6.0221    1.0000 </r>
       <r>    0.0013    1.0000 </r>
       <r>    7.2395    1.0000 </r>
       <r>    7.2395    1.0000 </r>
       <r>    7.3703    1.0000 </r>
       <r>    8.3374    1.0000 </r>
       <r>    8.3374    1.0000 </r>
       <r>   10.4986    1.0000 </r>
       <r>   11.6933    1.0000 </r>
       <r>   11.6933    1.0000 </r>
       <r>   12.5089    1.0000 </r>
       <r>   13.3286    1.0000 </r>
       <r>   13.3286    1.0000 </r>
       <r>   13.7743    0.0000 </r>
       <r>   14.0078    0.0000 </r>
       <r>   14.1310    0.0000 </r>
      </set>
      <set comment="kpoint 4">
       <r>  -30.4488    1.0000 </r>
       <r>   -9.9624    1.0000 </r>
       <r>   -9.9624    1.0000 </r>
       <r>   -9.8843    1.0000 </r>
       <r>   -9.8703    1.0000 </r>
       <r>   -9.8703    1.0000 </r>
       <r>   -6.3548    1.0000 </r>
       <r>   -5.9741    1.0000 </r>
       <r>   -5.9741    1.0000 </r>
       <r>    0.4800    1.0000 </r>
       <r>    6.9040    1.0000 </r>
       <r>    7.0389    1.0000 </r>
       <r>    7.0389    1.0000 </r>
       <r>    8.3753    1.0000 </r>
       <r>    8.3753    1.0000 </r>
       <r>    9.7748    1.0000 </r>
       <r>   11.6050    1.0000 </r>
       <r>   11.6050    1.0000 </r>
       <r>   12.4672    1.0000 </r>
       <r>   13.3964    1.0000 </r>
       <r>   13.3964    1.0000 </r>
       <r>   13.8994    0.0000 </r>
       <r>   13.9988    0.0000 </r>
       <r>   14.2789    0.0000 </r>
      </set>
      <set comment="kpoint 5">
       <r>  -30.4444    1.0000 </r>
       <r>   -9.9828    1.0000 </r>
       <r>   -9.9828    1.0000 </r>
       <r>   -9.8922    1.0000 </r>
       <r>   -9.8683    1.0000 </r>
       <r>   -9.8683    1.0000 </r>
       <r>   -6.4729    1.0000 </r>
       <r>   -5.9237    1.0000 </r>
       <r>   -5.9237    1.0000 </r>
       <r>    0.9741    1.0000 </r>
       <r>    6.4699    1.0000 </r>
       <r>    6.9319    1.0000 </r>
       <r>    6.9319    1.0000 </r>
       <r>    8.2478    1.0000 </r>
       <r>    8.2478    1.0000 </r>
       <r>    9.2196    1.0000 </r>
       <r>   11.6175    1.0000 </r>
       <r>   11.6175    1.0000 </r>
       <r>   12.5016    1.0000 </r>
       <r>   13.4754    0.4572 </r>
       <r>   13.4754    0.4572 </r>
       <r>   13.9091    0.0000 </r>
       <r>   14.1249    0.0000 </r>
       <r>   14.2853    0.0000 </r>
      </set>
      <set comment="kpoint 6">
       <r>  -30.4408    1.0000 </r>
       <r>   -9.9993    1.0000 </r>
       <r>   -9.9993    1.0000 </r>
       <r>   -9.9002    1.0000 </r>
       <r>   -9.8666    1.0000 </r>
       <r>   -9.8666    1.0000 </r>
       <r>   -6.5556    1.0000 </r>
       <r>   -5.8824    1.0000 </r>
       <r>   -5.8824    1.0000 </r>
       <r>    1.3685    1.0000 </r>
       <r>    6.1680    1.0000 </r>
       <r>    6.9122    1.0000 </r>
       <r>    6.9122    1.0000 </r>
       <r>    8.0402    1.0000 </r>
       <r>    8.0402    1.0000 </r>
       <r>    8.8456    1.0000 </r>
       <r>   11.6815    1.0000 </r>
       <r>   11.6815    1.0000 </r>
       <r>   12.6028    1.0000 </r>
       <r>   13.5678    0.0000 </r>
       <r>   13.5678    0.0000 </r>
       <r>   13.9172    0.0000 </r>
       <r>   14.1842    0.0000 </r>
       <r>   14.2060    0.0000 </r>
      </set>
      <set comment="kpoint 7">
       <r>  -30.4387    1.0000 </r>
       <r>  -10.0084    1.0000 </r>
       <r>  -10.0084    1.0000 </r>
       <r>   -9.9053    1.0000 </r>
       <r>   -9.8657    1.0000 </r>
       <r>   -9.8657    1.0000 </r>
       <r>   -6.5969    1.0000 </r>
       <r>   -5.8593    1.0000 </r>
       <r>   -5.8593    1.0000 </r>
       <r>    1.5813    1.0000 </r>
       <r>    6.0275    1.0000 </r>
       <r>    6.9370    1.0000 </r>
       <r>    6.9370    1.0000 </r>
       <r>    7.8787    1.0000 </r>
       <r>    7.8787    1.0000 </r>
       <r>    8.6558    1.0000 </r>
       <r>   11.7315    1.0000 </r>
       <r>   11.7315    1.0000 </r>
       <r>   12.7033    1.0000 </r>
       <r>   13.6499    0.0000 </r>
       <r>   13.6499    0.0000 </r>
       <r>   13.9219    0.0000 </r>
       <r>   14.0802    0.0000 </r>
       <r>   14.0802    0.0000 </r>
      </set>
      <set comment="kpoint 8">
       <r>  -30.4555    1.0000 </r>
       <r>   -9.9373    1.0000 </r>
       <r>   -9.9217    1.0000 </r>
       <r>   -9.8755    1.0000 </r>
       <r>   -9.8737    1.0000 </r>
       <r>   -9.8737    1.0000 </r>
       <r>   -6.0918    1.0000 </r>
       <r>   -6.0703    1.0000 </r>
       <r>   -6.0703    1.0000 </r>
       <r>   -0.3065    1.0000 </r>
       <r>    7.2019    1.0000 </r>
       <r>    7.8123    1.0000 </r>
       <r>    7.8786    1.0000 </r>
       <r>    7.8786    1.0000 </r>
       <r>    8.2095    1.0000 </r>
       <r>   11.3538    1.0000 </r>
       <r>   11.7110    1.0000 </r>
       <r>   11.7110    1.0000 </r>
       <r>   12.6214    1.0000 </r>
       <r>   13.3369    1.0000 </r>
       <r>   13.3369    1.0000 </r>
       <r>   13.3383    1.0000 </r>
       <r>   13.8977    0.0000 </r>
       <r>   13.9750    0.0000 </r>
      </set>
      <set comment="kpoint 9">
       <r>  -30.4532    1.0000 </r>
       <r>   -9.9531    1.0000 </r>
       <r>   -9.9260    1.0000 </r>
       <r>   -9.8780    1.0000 </r>
       <r>   -9.8726    1.0000 </r>
       <r>   -9.8724    1.0000 </r>
       <r>   -6.1758    1.0000 </r>
       <r>   -6.0591    1.0000 </r>
       <r>   -6.0335    1.0000 </r>
       <r>   -0.0405    1.0000 </r>
       <r>    6.8525    1.0000 </r>
       <r>    7.5757    1.0000 </r>
       <r>    7.6897    1.0000 </r>
       <r>    8.0967    1.0000 </r>
       <r>    8.3802    1.0000 </r>
       <r>   10.7673    1.0000 </r>
       <r>   11.5512    1.0000 </r>
       <r>   11.5744    1.0000 </r>
       <r>   12.6330    1.0000 </r>
       <r>   13.3043    1.0000 </r>
       <r>   13.3929    1.0000 </r>
       <r>   13.6643    0.0000 </r>
       <r>   13.9071    0.0000 </r>
       <r>   14.1063    0.0000 </r>
      </set>
      <set comment="kpoint 10">
       <r>  -30.4495    1.0000 </r>
       <r>   -9.9717    1.0000 </r>
       <r>   -9.9399    1.0000 </r>
       <r>   -9.8825    1.0000 </r>
       <r>   -9.8712    1.0000 </r>
       <r>   -9.8702    1.0000 </r>
       <r>   -6.3022    1.0000 </r>
       <r>   -6.0258    1.0000 </r>
       <r>   -5.9814    1.0000 </r>
       <r>    0.3777    1.0000 </r>
       <r>    6.5568    1.0000 </r>
       <r>    7.3255    1.0000 </r>
       <r>    7.3642    1.0000 </r>
       <r>    8.1871    1.0000 </r>
       <r>    8.4975    1.0000 </r>
       <r>   10.0770    1.0000 </r>
       <r>   11.4444    1.0000 </r>
       <r>   11.4773    1.0000 </r>
       <r>   12.6090    1.0000 </r>
       <r>   13.3537    1.0000 </r>
       <r>   13.4332    1.0000 </r>
       <r>   13.9134    0.0000 </r>
       <r>   13.9162    0.0000 </r>
       <r>   14.2445    0.0000 </r>
      </set>
      <set comment="kpoint 11">
       <r>  -30.4452    1.0000 </r>
       <r>   -9.9889    1.0000 </r>
       <r>   -9.9595    1.0000 </r>
       <r>   -9.8892    1.0000 </r>
       <r>   -9.8697    1.0000 </r>
       <r>   -9.8680    1.0000 </r>
       <r>   -6.4249    1.0000 </r>
       <r>   -5.9783    1.0000 </r>
       <r>   -5.9320    1.0000 </r>
       <r>    0.8394    1.0000 </r>
       <r>    6.3319    1.0000 </r>
       <r>    7.0000    1.0000 </r>
       <r>    7.2225    1.0000 </r>
       <r>    8.1067    1.0000 </r>
       <r>    8.4644    1.0000 </r>
       <r>    9.4781    1.0000 </r>
       <r>   11.4048    1.0000 </r>
       <r>   11.5175    1.0000 </r>
       <r>   12.6001    1.0000 </r>
       <r>   13.4456    1.0000 </r>
       <r>   13.4817    0.1606 </r>
       <r>   13.9193    0.0000 </r>
       <r>   14.0495    0.0000 </r>
       <r>   14.2812    0.0000 </r>
      </set>
      <set comment="kpoint 12">
       <r>  -30.4414    1.0000 </r>
       <r>  -10.0008    1.0000 </r>
       <r>   -9.9803    1.0000 </r>
       <r>   -9.8968    1.0000 </r>
       <r>   -9.8682    1.0000 </r>
       <r>   -9.8662    1.0000 </r>
       <r>   -6.5179    1.0000 </r>
       <r>   -5.9278    1.0000 </r>
       <r>   -5.8964    1.0000 </r>
       <r>    1.2311    1.0000 </r>
       <r>    6.1834    1.0000 </r>
       <r>    6.8342    1.0000 </r>
       <r>    7.1336    1.0000 </r>
       <r>    7.9480    1.0000 </r>
       <r>    8.3007    1.0000 </r>
       <r>    9.0300    1.0000 </r>
       <r>   11.4520    1.0000 </r>
       <r>   11.6081    1.0000 </r>
       <r>   12.6482    1.0000 </r>
       <r>   13.5472    0.0000 </r>
       <r>   13.5516    0.0000 </r>
       <r>   13.9220    0.0000 </r>
       <r>   14.0985    0.0000 </r>
       <r>   14.2473    0.0000 </r>
      </set>
      <set comment="kpoint 13">
       <r>  -30.4388    1.0000 </r>
       <r>  -10.0051    1.0000 </r>
       <r>   -9.9975    1.0000 </r>
       <r>   -9.9026    1.0000 </r>
       <r>   -9.8670    1.0000 </r>
       <r>   -9.8653    1.0000 </r>
       <r>   -6.5714    1.0000 </r>
       <r>   -5.8854    1.0000 </r>
       <r>   -5.8822    1.0000 </r>
       <r>    1.4725    1.0000 </r>
       <r>    6.1144    1.0000 </r>
       <r>    6.8408    1.0000 </r>
       <r>    7.0345    1.0000 </r>
       <r>    7.8645    1.0000 </r>
       <r>    8.0878    1.0000 </r>
       <r>    8.7609    1.0000 </r>
       <r>   11.5213    1.0000 </r>
       <r>   11.6727    1.0000 </r>
       <r>   12.7329    1.0000 </r>
       <r>   13.6320    0.0000 </r>
       <r>   13.6374    0.0000 </r>
       <r>   13.9152    0.0000 </r>
       <r>   14.0681    0.0000 </r>
       <r>   14.1677    0.0000 </r>
      </set>
      <set comment="kpoint 14">
       <r>  -30.4381    1.0000 </r>
       <r>  -10.0076    1.0000 </r>
       <r>  -10.0011    1.0000 </r>
       <r>   -9.9042    1.0000 </r>
       <r>   -9.8665    1.0000 </r>
       <r>   -9.8653    1.0000 </r>
       <r>   -6.5842    1.0000 </r>
       <r>   -5.8920    1.0000 </r>
       <r>   -5.8606    1.0000 </r>
       <r>    1.5364    1.0000 </r>
       <r>    6.1011    1.0000 </r>
       <r>    6.8894    1.0000 </r>
       <r>    6.9565    1.0000 </r>
       <r>    7.9242    1.0000 </r>
       <r>    7.9497    1.0000 </r>
       <r>    8.6934    1.0000 </r>
       <r>   11.5458    1.0000 </r>
       <r>   11.6793    1.0000 </r>
       <r>   12.7705    1.0000 </r>
       <r>   13.6456    0.0000 </r>
       <r>   13.6893    0.0000 </r>
       <r>   13.8998    0.0000 </r>
       <r>   14.0780    0.0000 </r>
       <r>   14.0960    0.0000 </r>
      </set>
      <set comment="kpoint 15">
       <r>  -30.4395    1.0000 </r>
       <r>  -10.0086    1.0000 </r>
       <r>   -9.9897    1.0000 </r>
       <r>   -9.9008    1.0000 </r>
       <r>   -9.8668    1.0000 </r>
       <r>   -9.8662    1.0000 </r>
       <r>   -6.5569    1.0000 </r>
       <r>   -5.9231    1.0000 </r>
       <r>   -5.8587    1.0000 </r>
       <r>    1.4195    1.0000 </r>
       <r>    6.1410    1.0000 </r>
       <r>    6.7592    1.0000 </r>
       <r>    7.0955    1.0000 </r>
       <r>    7.8942    1.0000 </r>
       <r>    8.1550    1.0000 </r>
       <r>    8.8340    1.0000 </r>
       <r>   11.4894    1.0000 </r>
       <r>   11.6405    1.0000 </r>
       <r>   12.7166    1.0000 </r>
       <r>   13.5857    0.0000 </r>
       <r>   13.6340    0.0000 </r>
       <r>   13.9086    0.0000 </r>
       <r>   14.1254    0.0000 </r>
       <r>   14.1492    0.0000 </r>
      </set>
      <set comment="kpoint 16">
       <r>  -30.4425    1.0000 </r>
       <r>  -10.0003    1.0000 </r>
       <r>   -9.9730    1.0000 </r>
       <r>   -9.8939    1.0000 </r>
       <r>   -9.8679    1.0000 </r>
       <r>   -9.8678    1.0000 </r>
       <r>   -6.4897    1.0000 </r>
       <r>   -5.9684    1.0000 </r>
       <r>   -5.8805    1.0000 </r>
       <r>    1.1248    1.0000 </r>
       <r>    6.2881    1.0000 </r>
       <r>    6.7075    1.0000 </r>
       <r>    7.2246    1.0000 </r>
       <r>    8.0009    1.0000 </r>
       <r>    8.3844    1.0000 </r>
       <r>    9.1639    1.0000 </r>
       <r>   11.3647    1.0000 </r>
       <r>   11.5996    1.0000 </r>
       <r>   12.6393    1.0000 </r>
       <r>   13.5145    0.0000 </r>
       <r>   13.5277    0.0000 </r>
       <r>   13.9146    0.0000 </r>
       <r>   14.1248    0.0000 </r>
       <r>   14.2064    0.0000 </r>
      </set>
      <set comment="kpoint 17">
       <r>  -30.4467    1.0000 </r>
       <r>   -9.9843    1.0000 </r>
       <r>   -9.9544    1.0000 </r>
       <r>   -9.8864    1.0000 </r>
       <r>   -9.8697    1.0000 </r>
       <r>   -9.8695    1.0000 </r>
       <r>   -6.3866    1.0000 </r>
       <r>   -6.0173    1.0000 </r>
       <r>   -5.9212    1.0000 </r>
       <r>    0.6965    1.0000 </r>
       <r>    6.5695    1.0000 </r>
       <r>    6.7632    1.0000 </r>
       <r>    7.3965    1.0000 </r>
       <r>    8.1223    1.0000 </r>
       <r>    8.5383    1.0000 </r>
       <r>    9.6624    1.0000 </r>
       <r>   11.2412    1.0000 </r>
       <r>   11.6145    1.0000 </r>
       <r>   12.6042    1.0000 </r>
       <r>   13.4189    1.0000 </r>
       <r>   13.4595    0.9838 </r>
       <r>   13.9107    0.0000 </r>
       <r>   14.0328    0.0000 </r>
       <r>   14.2488    0.0000 </r>
      </set>
      <set comment="kpoint 18">
       <r>  -30.4508    1.0000 </r>
       <r>   -9.9639    1.0000 </r>
       <r>   -9.9382    1.0000 </r>
       <r>   -9.8805    1.0000 </r>
       <r>   -9.8715    1.0000 </r>
       <r>   -9.8714    1.0000 </r>
       <r>   -6.2639    1.0000 </r>
       <r>   -6.0572    1.0000 </r>
       <r>   -5.9719    1.0000 </r>
       <r>    0.2329    1.0000 </r>
       <r>    6.9303    1.0000 </r>
       <r>    6.9311    1.0000 </r>
       <r>    7.6493    1.0000 </r>
       <r>    8.1208    1.0000 </r>
       <r>    8.5414    1.0000 </r>
       <r>   10.2962    1.0000 </r>
       <r>   11.2302    1.0000 </r>
       <r>   11.7129    1.0000 </r>
       <r>   12.6192    1.0000 </r>
       <r>   13.3207    1.0000 </r>
       <r>   13.4178    1.0000 </r>
       <r>   13.8725    0.0000 </r>
       <r>   13.9030    0.0000 </r>
       <r>   14.1793    0.0000 </r>
      </set>
      <set comment="kpoint 19">
       <r>  -30.4542    1.0000 </r>
       <r>   -9.9437    1.0000 </r>
       <r>   -9.9285    1.0000 </r>
       <r>   -9.8768    1.0000 </r>
       <r>   -9.8730    1.0000 </r>
       <r>   -9.8730    1.0000 </r>
       <r>   -6.1586    1.0000 </r>
       <r>   -6.0725    1.0000 </r>
       <r>   -6.0209    1.0000 </r>
       <r>   -0.1484    1.0000 </r>
       <r>    7.1930    1.0000 </r>
       <r>    7.2972    1.0000 </r>
       <r>    7.8863    1.0000 </r>
       <r>    7.9893    1.0000 </r>
       <r>    8.3886    1.0000 </r>
       <r>   10.9267    1.0000 </r>
       <r>   11.4614    1.0000 </r>
       <r>   11.8311    1.0000 </r>
       <r>   12.6245    1.0000 </r>
       <r>   13.2559    1.0000 </r>
       <r>   13.3651    1.0000 </r>
       <r>   13.6208    0.0000 </r>
       <r>   13.8933    0.0000 </r>
       <r>   14.0435    0.0000 </r>
      </set>
      <set comment="kpoint 20">
       <r>  -30.4517    1.0000 </r>
       <r>   -9.9664    1.0000 </r>
       <r>   -9.9183    1.0000 </r>
       <r>   -9.8799    1.0000 </r>
       <r>   -9.8716    1.0000 </r>
       <r>   -9.8716    1.0000 </r>
       <r>   -6.1521    1.0000 </r>
       <r>   -6.0742    1.0000 </r>
       <r>   -6.0742    1.0000 </r>
       <r>    0.1155    1.0000 </r>
       <r>    6.4695    1.0000 </r>
       <r>    7.8481    1.0000 </r>
       <r>    7.8740    1.0000 </r>
       <r>    7.8740    1.0000 </r>
       <r>    8.2917    1.0000 </r>
       <r>   10.7603    1.0000 </r>
       <r>   11.3963    1.0000 </r>
       <r>   11.3963    1.0000 </r>
       <r>   12.5832    1.0000 </r>
       <r>   13.4453    1.0000 </r>
       <r>   13.4453    1.0000 </r>
       <r>   13.6222    0.0000 </r>
       <r>   13.9475    0.0000 </r>
       <r>   14.1859    0.0000 </r>
      </set>
      <set comment="kpoint 21">
       <r>  -30.4487    1.0000 </r>
       <r>   -9.9794    1.0000 </r>
       <r>   -9.9219    1.0000 </r>
       <r>   -9.8835    1.0000 </r>
       <r>   -9.8704    1.0000 </r>
       <r>   -9.8697    1.0000 </r>
       <r>   -6.2445    1.0000 </r>
       <r>   -6.0642    1.0000 </r>
       <r>   -6.0363    1.0000 </r>
       <r>    0.4145    1.0000 </r>
       <r>    6.1906    1.0000 </r>
       <r>    7.6421    1.0000 </r>
       <r>    7.6634    1.0000 </r>
       <r>    8.0051    1.0000 </r>
       <r>    8.3747    1.0000 </r>
       <r>   10.3944    1.0000 </r>
       <r>   11.2382    1.0000 </r>
       <r>   11.3358    1.0000 </r>
       <r>   12.6343    1.0000 </r>
       <r>   13.4150    1.0000 </r>
       <r>   13.4762    0.4159 </r>
       <r>   13.8082    0.0000 </r>
       <r>   13.9677    0.0000 </r>
       <r>   14.2917    0.0000 </r>
      </set>
      <set comment="kpoint 22">
       <r>  -30.4449    1.0000 </r>
       <r>   -9.9890    1.0000 </r>
       <r>   -9.9357    1.0000 </r>
       <r>   -9.8882    1.0000 </r>
       <r>   -9.8696    1.0000 </r>
       <r>   -9.8672    1.0000 </r>
       <r>   -6.3614    1.0000 </r>
       <r>   -6.0316    1.0000 </r>
       <r>   -5.9879    1.0000 </r>
       <r>    0.7616    1.0000 </r>
       <r>    6.0650    1.0000 </r>
       <r>    7.2777    1.0000 </r>
       <r>    7.5083    1.0000 </r>
       <r>    7.9867    1.0000 </r>
       <r>    8.4593    1.0000 </r>
       <r>    9.8971    1.0000 </r>
       <r>   11.1042    1.0000 </r>
       <r>   11.3945    1.0000 </r>
       <r>   12.7169    1.0000 </r>
       <r>   13.4370    1.0000 </r>
       <r>   13.5081    0.0000 </r>
       <r>   13.9377    0.0000 </r>
       <r>   13.9704    0.0000 </r>
       <r>   14.3311    0.0000 </r>
      </set>
      <set comment="kpoint 23">
       <r>  -30.4412    1.0000 </r>
       <r>   -9.9931    1.0000 </r>
       <r>   -9.9556    1.0000 </r>
       <r>   -9.8935    1.0000 </r>
       <r>   -9.8693    1.0000 </r>
       <r>   -9.8652    1.0000 </r>
       <r>   -6.4570    1.0000 </r>
       <r>   -5.9842    1.0000 </r>
       <r>   -5.9573    1.0000 </r>
       <r>    1.0604    1.0000 </r>
       <r>    6.1086    1.0000 </r>
       <r>    6.9950    1.0000 </r>
       <r>    7.3575    1.0000 </r>
       <r>    7.9054    1.0000 </r>
       <r>    8.4305    1.0000 </r>
       <r>    9.4117    1.0000 </r>
       <r>   11.0758    1.0000 </r>
       <r>   11.5004    1.0000 </r>
       <r>   12.7557    1.0000 </r>
       <r>   13.5219    0.0000 </r>
       <r>   13.5595    0.0000 </r>
       <r>   13.9630    0.0000 </r>
       <r>   13.9950    0.0000 </r>
       <r>   14.3046    0.0000 </r>
      </set>
      <set comment="kpoint 24">
       <r>  -30.4384    1.0000 </r>
       <r>   -9.9912    1.0000 </r>
       <r>   -9.9770    1.0000 </r>
       <r>   -9.8982    1.0000 </r>
       <r>   -9.8692    1.0000 </r>
       <r>   -9.8641    1.0000 </r>
       <r>   -6.5163    1.0000 </r>
       <r>   -5.9518    1.0000 </r>
       <r>   -5.9329    1.0000 </r>
       <r>    1.2563    1.0000 </r>
       <r>    6.2623    1.0000 </r>
       <r>    6.8616    1.0000 </r>
       <r>    7.1476    1.0000 </r>
       <r>    7.9142    1.0000 </r>
       <r>    8.2978    1.0000 </r>
       <r>    9.0476    1.0000 </r>
       <r>   11.1088    1.0000 </r>
       <r>   11.5665    1.0000 </r>
       <r>   12.8071    1.0000 </r>
       <r>   13.5957    0.0000 </r>
       <r>   13.6356    0.0000 </r>
       <r>   13.9417    0.0000 </r>
       <r>   14.0243    0.0000 </r>
       <r>   14.2672    0.0000 </r>
      </set>
      <set comment="kpoint 25">
       <r>  -30.4372    1.0000 </r>
       <r>   -9.9952    1.0000 </r>
       <r>   -9.9843    1.0000 </r>
       <r>   -9.8999    1.0000 </r>
       <r>   -9.8691    1.0000 </r>
       <r>   -9.8641    1.0000 </r>
       <r>   -6.5363    1.0000 </r>
       <r>   -5.9711    1.0000 </r>
       <r>   -5.8890    1.0000 </r>
       <r>    1.3476    1.0000 </r>
       <r>    6.3695    1.0000 </r>
       <r>    6.8971    1.0000 </r>
       <r>    6.9051    1.0000 </r>
       <r>    8.0500    1.0000 </r>
       <r>    8.1223    1.0000 </r>
       <r>    8.8940    1.0000 </r>
       <r>   11.1251    1.0000 </r>
       <r>   11.5625    1.0000 </r>
       <r>   12.8615    1.0000 </r>
       <r>   13.6024    0.0000 </r>
       <r>   13.7181    0.0000 </r>
       <r>   13.8966    0.0000 </r>
       <r>   14.0770    0.0000 </r>
       <r>   14.1883    0.0000 </r>
      </set>
      <set comment="kpoint 26">
       <r>  -30.4378    1.0000 </r>
       <r>  -10.0064    1.0000 </r>
       <r>   -9.9741    1.0000 </r>
       <r>   -9.8975    1.0000 </r>
       <r>   -9.8693    1.0000 </r>
       <r>   -9.8650    1.0000 </r>
       <r>   -6.5197    1.0000 </r>
       <r>   -6.0087    1.0000 </r>
       <r>   -5.8623    1.0000 </r>
       <r>    1.3403    1.0000 </r>
       <r>    6.3306    1.0000 </r>
       <r>    6.7016    1.0000 </r>
       <r>    7.0691    1.0000 </r>
       <r>    7.9874    1.0000 </r>
       <r>    8.2636    1.0000 </r>
       <r>    8.9938    1.0000 </r>
       <r>   11.0584    1.0000 </r>
       <r>   11.5146    1.0000 </r>
       <r>   12.8639    1.0000 </r>
       <r>   13.5591    0.0000 </r>
       <r>   13.7293    0.0000 </r>
       <r>   13.8729    0.0000 </r>
       <r>   14.1256    0.0000 </r>
       <r>   14.1477    0.0000 </r>
      </set>
      <set comment="kpoint 27">
       <r>  -30.4401    1.0000 </r>
       <r>  -10.0084    1.0000 </r>
       <r>   -9.9621    1.0000 </r>
       <r>   -9.8924    1.0000 </r>
       <r>   -9.8695    1.0000 </r>
       <r>   -9.8666    1.0000 </r>
       <r>   -6.4703    1.0000 </r>
       <r>   -6.0526    1.0000 </r>
       <r>   -5.8588    1.0000 </r>
       <r>    1.2124    1.0000 </r>
       <r>    6.2627    1.0000 </r>
       <r>    6.5859    1.0000 </r>
       <r>    7.2988    1.0000 </r>
       <r>    7.9388    1.0000 </r>
       <r>    8.4861    1.0000 </r>
       <r>    9.2998    1.0000 </r>
       <r>   10.8969    1.0000 </r>
       <r>   11.4777    1.0000 </r>
       <r>   12.8204    1.0000 </r>
       <r>   13.5164    0.0000 </r>
       <r>   13.6324    0.0000 </r>
       <r>   13.9041    0.0000 </r>
       <r>   14.1082    0.0000 </r>
       <r>   14.1690    0.0000 </r>
      </set>
      <set comment="kpoint 28">
       <r>  -30.4436    1.0000 </r>
       <r>  -10.0007    1.0000 </r>
       <r>   -9.9501    1.0000 </r>
       <r>   -9.8871    1.0000 </r>
       <r>   -9.8699    1.0000 </r>
       <r>   -9.8685    1.0000 </r>
       <r>   -6.3965    1.0000 </r>
       <r>   -6.0870    1.0000 </r>
       <r>   -5.8796    1.0000 </r>
       <r>    0.9452    1.0000 </r>
       <r>    6.3267    1.0000 </r>
       <r>    6.5834    1.0000 </r>
       <r>    7.5465    1.0000 </r>
       <r>    7.9440    1.0000 </r>
       <r>    8.6371    1.0000 </r>
       <r>    9.7358    1.0000 </r>
       <r>   10.7089    1.0000 </r>
       <r>   11.5073    1.0000 </r>
       <r>   12.7696    1.0000 </r>
       <r>   13.4903    0.0134 </r>
       <r>   13.5123    0.0000 </r>
       <r>   13.9195    0.0000 </r>
       <r>   14.0549    0.0000 </r>
       <r>   14.2098    0.0000 </r>
      </set>
      <set comment="kpoint 29">
       <r>  -30.4475    1.0000 </r>
       <r>   -9.9848    1.0000 </r>
       <r>   -9.9411    1.0000 </r>
       <r>   -9.8832    1.0000 </r>
       <r>   -9.8706    1.0000 </r>
       <r>   -9.8702    1.0000 </r>
       <r>   -6.3193    1.0000 </r>
       <r>   -6.0916    1.0000 </r>
       <r>   -5.9204    1.0000 </r>
       <r>    0.5839    1.0000 </r>
       <r>    6.5701    1.0000 </r>
       <r>    6.7017    1.0000 </r>
       <r>    7.7883    1.0000 </r>
       <r>    7.9159    1.0000 </r>
       <r>    8.6562    1.0000 </r>
       <r>   10.1425    1.0000 </r>
       <r>   10.7288    1.0000 </r>
       <r>   11.6127    1.0000 </r>
       <r>   12.7175    1.0000 </r>
       <r>   13.3965    1.0000 </r>
       <r>   13.4678    0.8353 </r>
       <r>   13.9171    0.0000 </r>
       <r>   13.9741    0.0000 </r>
       <r>   14.2205    0.0000 </r>
      </set>
      <set comment="kpoint 30">
       <r>  -30.4464    1.0000 </r>
       <r>   -9.9832    1.0000 </r>
       <r>   -9.9134    1.0000 </r>
       <r>   -9.8869    1.0000 </r>
       <r>   -9.8683    1.0000 </r>
       <r>   -9.8683    1.0000 </r>
       <r>   -6.2352    1.0000 </r>
       <r>   -6.0804    1.0000 </r>
       <r>   -6.0804    1.0000 </r>
       <r>    0.5562    1.0000 </r>
       <r>    5.9758    1.0000 </r>
       <r>    7.7986    1.0000 </r>
       <r>    7.7986    1.0000 </r>
       <r>    7.8997    1.0000 </r>
       <r>    8.1303    1.0000 </r>
       <r>   10.3878    1.0000 </r>
       <r>   11.2874    1.0000 </r>
       <r>   11.2874    1.0000 </r>
       <r>   12.5494    1.0000 </r>
       <r>   13.5048    0.0000 </r>
       <r>   13.5048    0.0000 </r>
       <r>   13.7586    0.0000 </r>
       <r>   14.0326    0.0000 </r>
       <r>   14.3801    0.0000 </r>
      </set>
      <set comment="kpoint 31">
       <r>  -30.4434    1.0000 </r>
       <r>   -9.9823    1.0000 </r>
       <r>   -9.9169    1.0000 </r>
       <r>   -9.8907    1.0000 </r>
       <r>   -9.8670    1.0000 </r>
       <r>   -9.8660    1.0000 </r>
       <r>   -6.3142    1.0000 </r>
       <r>   -6.0710    1.0000 </r>
       <r>   -6.0581    1.0000 </r>
       <r>    0.7344    1.0000 </r>
       <r>    5.9645    1.0000 </r>
       <r>    7.5177    1.0000 </r>
       <r>    7.6724    1.0000 </r>
       <r>    7.9315    1.0000 </r>
       <r>    8.1917    1.0000 </r>
       <r>   10.1577    1.0000 </r>
       <r>   11.1707    1.0000 </r>
       <r>   11.3589    1.0000 </r>
       <r>   12.6872    1.0000 </r>
       <r>   13.4825    0.1353 </r>
       <r>   13.5304    0.0000 </r>
       <r>   13.8243    0.0000 </r>
       <r>   14.0621    0.0000 </r>
       <r>   14.4213    0.0000 </r>
      </set>
      <set comment="kpoint 32">
       <r>  -30.4402    1.0000 </r>
       <r>   -9.9769    1.0000 </r>
       <r>   -9.9309    1.0000 </r>
       <r>   -9.8941    1.0000 </r>
       <r>   -9.8672    1.0000 </r>
       <r>   -9.8637    1.0000 </r>
       <r>   -6.3996    1.0000 </r>
       <r>   -6.0385    1.0000 </r>
       <r>   -6.0356    1.0000 </r>
       <r>    0.8882    1.0000 </r>
       <r>    6.1548    1.0000 </r>
       <r>    7.1928    1.0000 </r>
       <r>    7.4912    1.0000 </r>
       <r>    7.9338    1.0000 </r>
       <r>    8.2940    1.0000 </r>
       <r>    9.8048    1.0000 </r>
       <r>   10.9740    1.0000 </r>
       <r>   11.4727    1.0000 </r>
       <r>   12.8428    1.0000 </r>
       <r>   13.4908    0.0113 </r>
       <r>   13.5693    0.0000 </r>
       <r>   13.8900    0.0000 </r>
       <r>   14.0543    0.0000 </r>
       <r>   14.3795    0.0000 </r>
      </set>
      <set comment="kpoint 33">
       <r>  -30.4375    1.0000 </r>
       <r>   -9.9687    1.0000 </r>
       <r>   -9.9515    1.0000 </r>
       <r>   -9.8962    1.0000 </r>
       <r>   -9.8688    1.0000 </r>
       <r>   -9.8624    1.0000 </r>
       <r>   -6.4539    1.0000 </r>
       <r>   -6.0397    1.0000 </r>
       <r>   -5.9905    1.0000 </r>
       <r>    0.9984    1.0000 </r>
       <r>    6.4542    1.0000 </r>
       <r>    7.0092    1.0000 </r>
       <r>    7.2452    1.0000 </r>
       <r>    7.9954    1.0000 </r>
       <r>    8.3119    1.0000 </r>
       <r>    9.4255    1.0000 </r>
       <r>   10.8406    1.0000 </r>
       <r>   11.5277    1.0000 </r>
       <r>   12.9043    1.0000 </r>
       <r>   13.5415    0.0000 </r>
       <r>   13.6302    0.0000 </r>
       <r>   13.9556    0.0000 </r>
       <r>   14.0202    0.0000 </r>
       <r>   14.3080    0.0000 </r>
      </set>
      <set comment="kpoint 34">
       <r>  -30.4361    1.0000 </r>
       <r>   -9.9739    1.0000 </r>
       <r>   -9.9605    1.0000 </r>
       <r>   -9.8957    1.0000 </r>
       <r>   -9.8711    1.0000 </r>
       <r>   -9.8623    1.0000 </r>
       <r>   -6.4698    1.0000 </r>
       <r>   -6.0706    1.0000 </r>
       <r>   -5.9378    1.0000 </r>
       <r>    1.0814    1.0000 </r>
       <r>    6.6828    1.0000 </r>
       <r>    6.9761    1.0000 </r>
       <r>    6.9822    1.0000 </r>
       <r>    8.1367    1.0000 </r>
       <r>    8.2292    1.0000 </r>
       <r>    9.1881    1.0000 </r>
       <r>   10.7439    1.0000 </r>
       <r>   11.4931    1.0000 </r>
       <r>   12.9504    1.0000 </r>
       <r>   13.5379    0.0000 </r>
       <r>   13.7054    0.0000 </r>
       <r>   13.9619    0.0000 </r>
       <r>   14.0560    0.0000 </r>
       <r>   14.2415    0.0000 </r>
      </set>
      <set comment="kpoint 35">
       <r>  -30.4361    1.0000 </r>
       <r>   -9.9933    1.0000 </r>
       <r>   -9.9549    1.0000 </r>
       <r>   -9.8919    1.0000 </r>
       <r>   -9.8732    1.0000 </r>
       <r>   -9.8633    1.0000 </r>
       <r>   -6.4532    1.0000 </r>
       <r>   -6.1162    1.0000 </r>
       <r>   -5.8920    1.0000 </r>
       <r>    1.1507    1.0000 </r>
       <r>    6.7324    1.0000 </r>
       <r>    6.7393    1.0000 </r>
       <r>    6.9903    1.0000 </r>
       <r>    8.1031    1.0000 </r>
       <r>    8.3284    1.0000 </r>
       <r>    9.2421    1.0000 </r>
       <r>   10.6253    1.0000 </r>
       <r>   11.4128    1.0000 </r>
       <r>   12.9878    1.0000 </r>
       <r>   13.4857    0.0594 </r>
       <r>   13.7687    0.0000 </r>
       <r>   13.8902    0.0000 </r>
       <r>   14.1217    0.0000 </r>
       <r>   14.2109    0.0000 </r>
      </set>
      <set comment="kpoint 36">
       <r>  -30.4377    1.0000 </r>
       <r>  -10.0056    1.0000 </r>
       <r>   -9.9515    1.0000 </r>
       <r>   -9.8879    1.0000 </r>
       <r>   -9.8737    1.0000 </r>
       <r>   -9.8649    1.0000 </r>
       <r>   -6.4208    1.0000 </r>
       <r>   -6.1519    1.0000 </r>
       <r>   -5.8635    1.0000 </r>
       <r>    1.1833    1.0000 </r>
       <r>    6.5101    1.0000 </r>
       <r>    6.5779    1.0000 </r>
       <r>    7.1431    1.0000 </r>
       <r>    8.0166    1.0000 </r>
       <r>    8.5159    1.0000 </r>
       <r>    9.5264    1.0000 </r>
       <r>   10.4534    1.0000 </r>
       <r>   11.3595    1.0000 </r>
       <r>   12.9713    1.0000 </r>
       <r>   13.4583    0.9898 </r>
       <r>   13.7399    0.0000 </r>
       <r>   13.8777    0.0000 </r>
       <r>   14.1058    0.0000 </r>
       <r>   14.1824    0.0000 </r>
      </set>
      <set comment="kpoint 37">
       <r>  -30.4404    1.0000 </r>
       <r>  -10.0083    1.0000 </r>
       <r>   -9.9497    1.0000 </r>
       <r>   -9.8868    1.0000 </r>
       <r>   -9.8718    1.0000 </r>
       <r>   -9.8668    1.0000 </r>
       <r>   -6.3997    1.0000 </r>
       <r>   -6.1442    1.0000 </r>
       <r>   -5.8589    1.0000 </r>
       <r>    1.1246    1.0000 </r>
       <r>    6.3080    1.0000 </r>
       <r>    6.5210    1.0000 </r>
       <r>    7.3726    1.0000 </r>
       <r>    7.9630    1.0000 </r>
       <r>    8.6328    1.0000 </r>
       <r>    9.8007    1.0000 </r>
       <r>   10.3599    1.0000 </r>
       <r>   11.3921    1.0000 </r>
       <r>   12.8898    1.0000 </r>
       <r>   13.4769    0.3776 </r>
       <r>   13.6325    0.0000 </r>
       <r>   13.9076    0.0000 </r>
       <r>   14.0800    0.0000 </r>
       <r>   14.1836    0.0000 </r>
      </set>
      <set comment="kpoint 38">
       <r>  -30.4411    1.0000 </r>
       <r>   -9.9701    1.0000 </r>
       <r>   -9.9082    1.0000 </r>
       <r>   -9.8945    1.0000 </r>
       <r>   -9.8643    1.0000 </r>
       <r>   -9.8643    1.0000 </r>
       <r>   -6.3288    1.0000 </r>
       <r>   -6.0877    1.0000 </r>
       <r>   -6.0877    1.0000 </r>
       <r>    0.7308    1.0000 </r>
       <r>    6.0831    1.0000 </r>
       <r>    7.6452    1.0000 </r>
       <r>    7.6452    1.0000 </r>
       <r>    7.8671    1.0000 </r>
       <r>    7.9562    1.0000 </r>
       <r>   10.0788    1.0000 </r>
       <r>   11.4475    1.0000 </r>
       <r>   11.4475    1.0000 </r>
       <r>   12.6574    1.0000 </r>
       <r>   13.5511    0.0000 </r>
       <r>   13.5511    0.0000 </r>
       <r>   13.7444    0.0000 </r>
       <r>   14.1535    0.0000 </r>
       <r>   14.5311    0.0000 </r>
      </set>
      <set comment="kpoint 39">
       <r>  -30.4386    1.0000 </r>
       <r>   -9.9552    1.0000 </r>
       <r>   -9.9120    1.0000 </r>
       <r>   -9.8976    1.0000 </r>
       <r>   -9.8633    1.0000 </r>
       <r>   -9.8621    1.0000 </r>
       <r>   -6.3848    1.0000 </r>
       <r>   -6.0854    1.0000 </r>
       <r>   -6.0782    1.0000 </r>
       <r>    0.7360    1.0000 </r>
       <r>    6.3913    1.0000 </r>
       <r>    7.3722    1.0000 </r>
       <r>    7.5193    1.0000 </r>
       <r>    7.9563    1.0000 </r>
       <r>    7.9828    1.0000 </r>
       <r>    9.8424    1.0000 </r>
       <r>   11.3733    1.0000 </r>
       <r>   11.5798    1.0000 </r>
       <r>   12.8567    1.0000 </r>
       <r>   13.5200    0.0000 </r>
       <r>   13.5810    0.0000 </r>
       <r>   13.7806    0.0000 </r>
       <r>   14.1864    0.0000 </r>
       <r>   14.4866    0.0000 </r>
      </set>
      <set comment="kpoint 40">
       <r>  -30.4365    1.0000 </r>
       <r>   -9.9417    1.0000 </r>
       <r>   -9.9267    1.0000 </r>
       <r>   -9.8987    1.0000 </r>
       <r>   -9.8649    1.0000 </r>
       <r>   -9.8607    1.0000 </r>
       <r>   -6.4234    1.0000 </r>
       <r>   -6.0997    1.0000 </r>
       <r>   -6.0449    1.0000 </r>
       <r>    0.7580    1.0000 </r>
       <r>    6.7241    1.0000 </r>
       <r>    7.2191    1.0000 </r>
       <r>    7.3212    1.0000 </r>
       <r>    8.0457    1.0000 </r>
       <r>    8.1014    1.0000 </r>
       <r>    9.5232    1.0000 </r>
       <r>   11.0872    1.0000 </r>
       <r>   11.6313    1.0000 </r>
       <r>   13.0158    1.0000 </r>
       <r>   13.4999    0.0002 </r>
       <r>   13.6272    0.0000 </r>
       <r>   13.8724    0.0000 </r>
       <r>   14.1523    0.0000 </r>
       <r>   14.3590    0.0000 </r>
      </set>
      <set comment="kpoint 41">
       <r>  -30.4351    1.0000 </r>
       <r>   -9.9483    1.0000 </r>
       <r>   -9.9344    1.0000 </r>
       <r>   -9.8958    1.0000 </r>
       <r>   -9.8690    1.0000 </r>
       <r>   -9.8604    1.0000 </r>
       <r>   -6.4226    1.0000 </r>
       <r>   -6.1440    1.0000 </r>
       <r>   -5.9954    1.0000 </r>
       <r>    0.8168    1.0000 </r>
       <r>    6.7922    1.0000 </r>
       <r>    7.0841    1.0000 </r>
       <r>    7.4037    1.0000 </r>
       <r>    8.1656    1.0000 </r>
       <r>    8.1832    1.0000 </r>
       <r>    9.2443    1.0000 </r>
       <r>   10.7671    1.0000 </r>
       <r>   11.5597    1.0000 </r>
       <r>   13.0556    1.0000 </r>
       <r>   13.4861    0.0536 </r>
       <r>   13.6849    0.0000 </r>
       <r>   14.0094    0.0000 </r>
       <r>   14.0707    0.0000 </r>
       <r>   14.2453    0.0000 </r>
      </set>
      <set comment="kpoint 42">
       <r>  -30.4349    1.0000 </r>
       <r>   -9.9720    1.0000 </r>
       <r>   -9.9355    1.0000 </r>
       <r>   -9.8885    1.0000 </r>
       <r>   -9.8749    1.0000 </r>
       <r>   -9.8613    1.0000 </r>
       <r>   -6.3873    1.0000 </r>
       <r>   -6.2061    1.0000 </r>
       <r>   -5.9408    1.0000 </r>
       <r>    0.9241    1.0000 </r>
       <r>    6.8213    1.0000 </r>
       <r>    6.8549    1.0000 </r>
       <r>    7.3988    1.0000 </r>
       <r>    8.1460    1.0000 </r>
       <r>    8.3178    1.0000 </r>
       <r>    9.2663    1.0000 </r>
       <r>   10.4825    1.0000 </r>
       <r>   11.4291    1.0000 </r>
       <r>   13.0830    1.0000 </r>
       <r>   13.4285    1.0000 </r>
       <r>   13.7405    0.0000 </r>
       <r>   13.9779    0.0000 </r>
       <r>   14.1174    0.0000 </r>
       <r>   14.2090    0.0000 </r>
      </set>
      <set comment="kpoint 43">
       <r>  -30.4358    1.0000 </r>
       <r>   -9.9925    1.0000 </r>
       <r>   -9.9423    1.0000 </r>
       <r>   -9.8819    1.0000 </r>
       <r>   -9.8799    1.0000 </r>
       <r>   -9.8630    1.0000 </r>
       <r>   -6.3700    1.0000 </r>
       <r>   -6.2269    1.0000 </r>
       <r>   -5.8932    1.0000 </r>
       <r>    1.0639    1.0000 </r>
       <r>    6.6751    1.0000 </r>
       <r>    6.8669    1.0000 </r>
       <r>    7.0660    1.0000 </r>
       <r>    8.0841    1.0000 </r>
       <r>    8.4525    1.0000 </r>
       <r>    9.5226    1.0000 </r>
       <r>   10.2973    1.0000 </r>
       <r>   11.3396    1.0000 </r>
       <r>   13.0746    1.0000 </r>
       <r>   13.3991    1.0000 </r>
       <r>   13.7778    0.0000 </r>
       <r>   13.8980    0.0000 </r>
       <r>   14.1161    0.0000 </r>
       <r>   14.2238    0.0000 </r>
      </set>
      <set comment="kpoint 44">
       <r>  -30.4369    1.0000 </r>
       <r>   -9.9333    1.0000 </r>
       <r>   -9.9039    1.0000 </r>
       <r>   -9.9008    1.0000 </r>
       <r>   -9.8605    1.0000 </r>
       <r>   -9.8605    1.0000 </r>
       <r>   -6.4167    1.0000 </r>
       <r>   -6.0945    1.0000 </r>
       <r>   -6.0945    1.0000 </r>
       <r>    0.6257    1.0000 </r>
       <r>    6.7808    1.0000 </r>
       <r>    7.4806    1.0000 </r>
       <r>    7.4806    1.0000 </r>
       <r>    7.6629    1.0000 </r>
       <r>    8.0044    1.0000 </r>
       <r>    9.6290    1.0000 </r>
       <r>   11.7519    1.0000 </r>
       <r>   11.7519    1.0000 </r>
       <r>   12.8999    1.0000 </r>
       <r>   13.6012    0.0000 </r>
       <r>   13.6012    0.0000 </r>
       <r>   13.6904    0.0000 </r>
       <r>   14.3010    0.0000 </r>
       <r>   14.5489    0.0000 </r>
      </set>
      <set comment="kpoint 45">
       <r>  -30.4354    1.0000 </r>
       <r>   -9.9169    1.0000 </r>
       <r>   -9.9085    1.0000 </r>
       <r>   -9.9023    1.0000 </r>
       <r>   -9.8605    1.0000 </r>
       <r>   -9.8592    1.0000 </r>
       <r>   -6.4447    1.0000 </r>
       <r>   -6.1057    1.0000 </r>
       <r>   -6.0838    1.0000 </r>
       <r>    0.5789    1.0000 </r>
       <r>    7.0397    1.0000 </r>
       <r>    7.3729    1.0000 </r>
       <r>    7.4791    1.0000 </r>
       <r>    7.7954    1.0000 </r>
       <r>    8.0428    1.0000 </r>
       <r>    9.2989    1.0000 </r>
       <r>   11.6582    1.0000 </r>
       <r>   11.8367    1.0000 </r>
       <r>   13.0883    1.0000 </r>
       <r>   13.5388    0.0000 </r>
       <r>   13.6328    0.0000 </r>
       <r>   13.7802    0.0000 </r>
       <r>   14.3287    0.0000 </r>
       <r>   14.3514    0.0000 </r>
      </set>
      <set comment="kpoint 46">
       <r>  -30.4344    1.0000 </r>
       <r>   -9.9242    1.0000 </r>
       <r>   -9.9126    1.0000 </r>
       <r>   -9.8989    1.0000 </r>
       <r>   -9.8639    1.0000 </r>
       <r>   -9.8589    1.0000 </r>
       <r>   -6.4363    1.0000 </r>
       <r>   -6.1447    1.0000 </r>
       <r>   -6.0487    1.0000 </r>
       <r>    0.6119    1.0000 </r>
       <r>    6.9068    1.0000 </r>
       <r>    7.2071    1.0000 </r>
       <r>    7.8624    1.0000 </r>
       <r>    8.0061    1.0000 </r>
       <r>    8.1284    1.0000 </r>
       <r>    8.9569    1.0000 </r>
       <r>   11.2554    1.0000 </r>
       <r>   11.7537    1.0000 </r>
       <r>   13.1606    1.0000 </r>
       <r>   13.4779    0.3255 </r>
       <r>   13.6704    0.0000 </r>
       <r>   13.9569    0.0000 </r>
       <r>   14.2013    0.0000 </r>
       <r>   14.2398    0.0000 </r>
      </set>
      <set comment="kpoint 47">
       <r>  -30.4343    1.0000 </r>
       <r>   -9.9471    1.0000 </r>
       <r>   -9.9203    1.0000 </r>
       <r>   -9.8924    1.0000 </r>
       <r>   -9.8700    1.0000 </r>
       <r>   -9.8597    1.0000 </r>
       <r>   -6.3950    1.0000 </r>
       <r>   -6.2018    1.0000 </r>
       <r>   -5.9972    1.0000 </r>
       <r>    0.7310    1.0000 </r>
       <r>    6.8216    1.0000 </r>
       <r>    7.0217    1.0000 </r>
       <r>    7.8867    1.0000 </r>
       <r>    8.1157    1.0000 </r>
       <r>    8.2366    1.0000 </r>
       <r>    8.9720    1.0000 </r>
       <r>   10.7807    1.0000 </r>
       <r>   11.5725    1.0000 </r>
       <r>   13.1375    1.0000 </r>
       <r>   13.4351    1.0000 </r>
       <r>   13.7066    0.0000 </r>
       <r>   14.0907    0.0000 </r>
       <r>   14.1059    0.0000 </r>
       <r>   14.1476    0.0000 </r>
      </set>
      <set comment="kpoint 48">
       <r>  -30.4346    1.0000 </r>
       <r>   -9.9045    1.0000 </r>
       <r>   -9.9015    1.0000 </r>
       <r>   -9.9012    1.0000 </r>
       <r>   -9.8582    1.0000 </r>
       <r>   -9.8582    1.0000 </r>
       <r>   -6.4728    1.0000 </r>
       <r>   -6.0985    1.0000 </r>
       <r>   -6.0985    1.0000 </r>
       <r>    0.4879    1.0000 </r>
       <r>    7.3330    1.0000 </r>
       <r>    7.3788    1.0000 </r>
       <r>    7.3788    1.0000 </r>
       <r>    7.9742    1.0000 </r>
       <r>    8.0322    1.0000 </r>
       <r>    8.9333    1.0000 </r>
       <r>   11.9876    1.0000 </r>
       <r>   11.9876    1.0000 </r>
       <r>   13.1631    1.0000 </r>
       <r>   13.6456    0.0000 </r>
       <r>   13.6456    0.0000 </r>
       <r>   13.6917    0.0000 </r>
       <r>   14.2124    0.0000 </r>
       <r>   14.4286    0.0000 </r>
      </set>
      <set comment="kpoint 49">
       <r>  -30.4343    1.0000 </r>
       <r>   -9.9073    1.0000 </r>
       <r>   -9.9046    1.0000 </r>
       <r>   -9.8982    1.0000 </r>
       <r>   -9.8595    1.0000 </r>
       <r>   -9.8580    1.0000 </r>
       <r>   -6.4694    1.0000 </r>
       <r>   -6.1130    1.0000 </r>
       <r>   -6.0859    1.0000 </r>
       <r>    0.4983    1.0000 </r>
       <r>    7.0936    1.0000 </r>
       <r>    7.3174    1.0000 </r>
       <r>    7.6654    1.0000 </r>
       <r>    8.0655    1.0000 </r>
       <r>    8.2730    1.0000 </r>
       <r>    8.6422    1.0000 </r>
       <r>   11.7916    1.0000 </r>
       <r>   11.9490    1.0000 </r>
       <r>   13.2139    1.0000 </r>
       <r>   13.5444    0.0000 </r>
       <r>   13.6590    0.0000 </r>
       <r>   13.8485    0.0000 </r>
       <r>   14.1341    0.0000 </r>
       <r>   14.4373    0.0000 </r>
      </set>
      <set comment="kpoint 50">
       <r>  -30.4505    1.0000 </r>
       <r>   -9.9700    1.0000 </r>
       <r>   -9.9284    1.0000 </r>
       <r>   -9.8808    1.0000 </r>
       <r>   -9.8713    1.0000 </r>
       <r>   -9.8712    1.0000 </r>
       <r>   -6.2341    1.0000 </r>
       <r>   -6.0787    1.0000 </r>
       <r>   -5.9940    1.0000 </r>
       <r>    0.2496    1.0000 </r>
       <r>    6.5154    1.0000 </r>
       <r>    7.3254    1.0000 </r>
       <r>    7.8765    1.0000 </r>
       <r>    7.9353    1.0000 </r>
       <r>    8.5002    1.0000 </r>
       <r>   10.4815    1.0000 </r>
       <r>   11.1060    1.0000 </r>
       <r>   11.5869    1.0000 </r>
       <r>   12.6735    1.0000 </r>
       <r>   13.3370    1.0000 </r>
       <r>   13.4481    0.9999 </r>
       <r>   13.8166    0.0000 </r>
       <r>   13.9256    0.0000 </r>
       <r>   14.1994    0.0000 </r>
      </set>
      <set comment="kpoint 51">
       <r>  -30.4468    1.0000 </r>
       <r>   -9.9864    1.0000 </r>
       <r>   -9.9390    1.0000 </r>
       <r>   -9.8850    1.0000 </r>
       <r>   -9.8703    1.0000 </r>
       <r>   -9.8692    1.0000 </r>
       <r>   -6.3348    1.0000 </r>
       <r>   -6.0674    1.0000 </r>
       <r>   -5.9430    1.0000 </r>
       <r>    0.6350    1.0000 </r>
       <r>    6.2770    1.0000 </r>
       <r>    7.0398    1.0000 </r>
       <r>    7.6426    1.0000 </r>
       <r>    7.9990    1.0000 </r>
       <r>    8.5716    1.0000 </r>
       <r>   10.0071    1.0000 </r>
       <r>   10.9468    1.0000 </r>
       <r>   11.5288    1.0000 </r>
       <r>   12.7086    1.0000 </r>
       <r>   13.4014    1.0000 </r>
       <r>   13.4822    0.1449 </r>
       <r>   13.9340    0.0000 </r>
       <r>   13.9594    0.0000 </r>
       <r>   14.2642    0.0000 </r>
      </set>
      <set comment="kpoint 52">
       <r>  -30.4428    1.0000 </r>
       <r>   -9.9983    1.0000 </r>
       <r>   -9.9551    1.0000 </r>
       <r>   -9.8905    1.0000 </r>
       <r>   -9.8695    1.0000 </r>
       <r>   -9.8670    1.0000 </r>
       <r>   -6.4356    1.0000 </r>
       <r>   -6.0305    1.0000 </r>
       <r>   -5.9027    1.0000 </r>
       <r>    1.0050    1.0000 </r>
       <r>    6.1724    1.0000 </r>
       <r>    6.8284    1.0000 </r>
       <r>    7.4256    1.0000 </r>
       <r>    7.9509    1.0000 </r>
       <r>    8.5162    1.0000 </r>
       <r>    9.4898    1.0000 </r>
       <r>   11.0187    1.0000 </r>
       <r>   11.5176    1.0000 </r>
       <r>   12.7325    1.0000 </r>
       <r>   13.4928    0.0052 </r>
[...]
       <r>   13.1278    1.0000 </r>
       <r>   13.4667    0.8693 </r>
       <r>   13.8313    0.0000 </r>
       <r>   13.9105    0.0000 </r>
       <r>   14.1198    0.0000 </r>
       <r>   14.2180    0.0000 </r>
      </set>
      <set comment="kpoint 81">
       <r>  -30.4352    1.0000 </r>
       <r>   -9.9801    1.0000 </r>
       <r>   -9.9281    1.0000 </r>
       <r>   -9.8885    1.0000 </r>
       <r>   -9.8776    1.0000 </r>
       <r>   -9.8596    1.0000 </r>
       <r>   -6.3675    1.0000 </r>
       <r>   -6.2091    1.0000 </r>
       <r>   -5.9536    1.0000 </r>
       <r>    0.9320    1.0000 </r>
       <r>    6.5714    1.0000 </r>
       <r>    7.2228    1.0000 </r>
       <r>    7.2802    1.0000 </r>
       <r>    8.0346    1.0000 </r>
       <r>    8.4348    1.0000 </r>
       <r>    9.5333    1.0000 </r>
       <r>    9.9162    1.0000 </r>
       <r>   11.7401    1.0000 </r>
       <r>   13.1072    1.0000 </r>
       <r>   13.4425    1.0000 </r>
       <r>   13.8146    0.0000 </r>
       <r>   13.8996    0.0000 </r>
       <r>   14.0739    0.0000 </r>
       <r>   14.2505    0.0000 </r>
      </set>
      <set comment="kpoint 82">
       <r>  -30.4342    1.0000 </r>
       <r>   -9.9484    1.0000 </r>
       <r>   -9.9032    1.0000 </r>
       <r>   -9.8982    1.0000 </r>
       <r>   -9.8712    1.0000 </r>
       <r>   -9.8569    1.0000 </r>
       <r>   -6.4003    1.0000 </r>
       <r>   -6.1631    1.0000 </r>
       <r>   -6.0462    1.0000 </r>
       <r>    0.6817    1.0000 </r>
       <r>    6.6718    1.0000 </r>
       <r>    7.3864    1.0000 </r>
       <r>    7.8850    1.0000 </r>
       <r>    7.9416    1.0000 </r>
       <r>    8.3450    1.0000 </r>
       <r>    9.0096    1.0000 </r>
       <r>   10.3789    1.0000 </r>
       <r>   12.0377    1.0000 </r>
       <r>   13.2012    1.0000 </r>
       <r>   13.4687    0.8012 </r>
       <r>   13.7314    0.0000 </r>
       <r>   14.0478    0.0000 </r>
       <r>   14.0993    0.0000 </r>
       <r>   14.2072    0.0000 </r>
      </set>
      <set comment="kpoint 83">
       <r>  -30.4340    1.0000 </r>
       <r>   -9.9618    1.0000 </r>
       <r>   -9.9051    1.0000 </r>
       <r>   -9.8919    1.0000 </r>
       <r>   -9.8778    1.0000 </r>
       <r>   -9.8567    1.0000 </r>
       <r>   -6.3637    1.0000 </r>
       <r>   -6.2041    1.0000 </r>
       <r>   -6.0262    1.0000 </r>
       <r>    0.7388    1.0000 </r>
       <r>    6.5905    1.0000 </r>
       <r>    7.3362    1.0000 </r>
       <r>    7.9304    1.0000 </r>
       <r>    8.0472    1.0000 </r>
       <r>    8.4469    1.0000 </r>
       <r>    9.0249    1.0000 </r>
       <r>    9.9500    1.0000 </r>
       <r>   12.0121    1.0000 </r>
       <r>   13.1838    1.0000 </r>
       <r>   13.4812    0.1787 </r>
       <r>   13.7848    0.0000 </r>
       <r>   14.0032    0.0000 </r>
       <r>   14.1342    0.0000 </r>
       <r>   14.1781    0.0000 </r>
      </set>
      <set comment="kpoint 84">
       <r>  -30.4340    1.0000 </r>
       <r>   -9.9693    1.0000 </r>
       <r>   -9.9044    1.0000 </r>
       <r>   -9.8903    1.0000 </r>
       <r>   -9.8818    1.0000 </r>
       <r>   -9.8565    1.0000 </r>
       <r>   -6.3429    1.0000 </r>
       <r>   -6.2188    1.0000 </r>
       <r>   -6.0216    1.0000 </r>
       <r>    0.7748    1.0000 </r>
       <r>    6.5419    1.0000 </r>
       <r>    7.3721    1.0000 </r>
       <r>    7.9237    1.0000 </r>
       <r>    7.9649    1.0000 </r>
       <r>    8.5091    1.0000 </r>
       <r>    9.2774    1.0000 </r>
       <r>    9.5613    1.0000 </r>
       <r>   12.0360    1.0000 </r>
       <r>   13.1736    1.0000 </r>
       <r>   13.5027    0.0000 </r>
       <r>   13.8468    0.0000 </r>
       <r>   13.9217    0.0000 </r>
       <r>   14.1214    0.0000 </r>
       <r>   14.2233    0.0000 </r>
      </set>
     </set>
    </set>
   </array>
  </eigenvalues>
  <separator name="orbital magnetization" >
   <v name="MAGDIPOLOUT">      0.00000000      0.00000000      0.00000000</v>
  </separator>
  <dos>
   <i name="efermi">     13.47467221 </i>
   <total>
    <array>
     <dimension dim="1">gridpoints</dimension>
     <dimension dim="2">spin</dimension>
     <field>energy</field>
     <field>total</field>
     <field>integrated</field>
     <set>
      <set comment="spin 1">
       <r>   -32.7072     0.0000     0.0000 </r>
       <r>   -32.5422     0.0000     0.0000 </r>
       <r>   -32.3772     0.0000     0.0000 </r>
       <r>   -32.2121     0.0000     0.0000 </r>
       <r>   -32.0471     0.0000     0.0000 </r>
       <r>   -31.8821     0.0000     0.0000 </r>
       <r>   -31.7171     0.0000     0.0000 </r>
       <r>   -31.5520     0.0000     0.0000 </r>
       <r>   -31.3870     0.0000     0.0000 </r>
       <r>   -31.2220     0.0000     0.0000 </r>
       <r>   -31.0570     0.0000     0.0000 </r>
       <r>   -30.8920     0.0000     0.0000 </r>
       <r>   -30.7269     0.0000     0.0000 </r>
       <r>   -30.5619     0.0000     0.0000 </r>
       <r>   -30.3969    12.1196     2.0000 </r>
       <r>   -30.2319     0.0000     2.0000 </r>
       <r>   -30.0669     0.0000     2.0000 </r>
       <r>   -29.9018     0.0000     2.0000 </r>
       <r>   -29.7368     0.0000     2.0000 </r>
       <r>   -29.5718     0.0000     2.0000 </r>
       <r>   -29.4068     0.0000     2.0000 </r>
       <r>   -29.2417     0.0000     2.0000 </r>
       <r>   -29.0767     0.0000     2.0000 </r>
       <r>   -28.9117     0.0000     2.0000 </r>
       <r>   -28.7467     0.0000     2.0000 </r>
       <r>   -28.5817     0.0000     2.0000 </r>
       <r>   -28.4166     0.0000     2.0000 </r>
       <r>   -28.2516     0.0000     2.0000 </r>
       <r>   -28.0866     0.0000     2.0000 </r>
       <r>   -27.9216     0.0000     2.0000 </r>
       <r>   -27.7566     0.0000     2.0000 </r>
       <r>   -27.5915     0.0000     2.0000 </r>
       <r>   -27.4265     0.0000     2.0000 </r>
       <r>   -27.2615     0.0000     2.0000 </r>
       <r>   -27.0965     0.0000     2.0000 </r>
       <r>   -26.9314     0.0000     2.0000 </r>
       <r>   -26.7664     0.0000     2.0000 </r>
       <r>   -26.6014     0.0000     2.0000 </r>
       <r>   -26.4364     0.0000     2.0000 </r>
       <r>   -26.2714     0.0000     2.0000 </r>
       <r>   -26.1063     0.0000     2.0000 </r>
       <r>   -25.9413     0.0000     2.0000 </r>
       <r>   -25.7763     0.0000     2.0000 </r>
       <r>   -25.6113     0.0000     2.0000 </r>
       <r>   -25.4463     0.0000     2.0000 </r>
       <r>   -25.2812     0.0000     2.0000 </r>
       <r>   -25.1162     0.0000     2.0000 </r>
       <r>   -24.9512     0.0000     2.0000 </r>
       <r>   -24.7862     0.0000     2.0000 </r>
       <r>   -24.6211     0.0000     2.0000 </r>
       <r>   -24.4561     0.0000     2.0000 </r>
       <r>   -24.2911     0.0000     2.0000 </r>
       <r>   -24.1261     0.0000     2.0000 </r>
       <r>   -23.9611     0.0000     2.0000 </r>
       <r>   -23.7960     0.0000     2.0000 </r>
       <r>   -23.6310     0.0000     2.0000 </r>
       <r>   -23.4660     0.0000     2.0000 </r>
       <r>   -23.3010     0.0000     2.0000 </r>
       <r>   -23.1360     0.0000     2.0000 </r>
       <r>   -22.9709     0.0000     2.0000 </r>
       <r>   -22.8059     0.0000     2.0000 </r>
       <r>   -22.6409     0.0000     2.0000 </r>
       <r>   -22.4759     0.0000     2.0000 </r>
       <r>   -22.3109     0.0000     2.0000 </r>
       <r>   -22.1458     0.0000     2.0000 </r>
       <r>   -21.9808     0.0000     2.0000 </r>
       <r>   -21.8158     0.0000     2.0000 </r>
       <r>   -21.6508     0.0000     2.0000 </r>
       <r>   -21.4857     0.0000     2.0000 </r>
       <r>   -21.3207     0.0000     2.0000 </r>
       <r>   -21.1557     0.0000     2.0000 </r>
       <r>   -20.9907     0.0000     2.0000 </r>
       <r>   -20.8257     0.0000     2.0000 </r>
       <r>   -20.6606     0.0000     2.0000 </r>
       <r>   -20.4956     0.0000     2.0000 </r>
       <r>   -20.3306     0.0000     2.0000 </r>
       <r>   -20.1656     0.0000     2.0000 </r>
       <r>   -20.0006     0.0000     2.0000 </r>
       <r>   -19.8355     0.0000     2.0000 </r>
       <r>   -19.6705     0.0000     2.0000 </r>
       <r>   -19.5055     0.0000     2.0000 </r>
       <r>   -19.3405     0.0000     2.0000 </r>
       <r>   -19.1754     0.0000     2.0000 </r>
       <r>   -19.0104     0.0000     2.0000 </r>
       <r>   -18.8454     0.0000     2.0000 </r>
       <r>   -18.6804     0.0000     2.0000 </r>
       <r>   -18.5154     0.0000     2.0000 </r>
       <r>   -18.3503     0.0000     2.0000 </r>
       <r>   -18.1853     0.0000     2.0000 </r>
       <r>   -18.0203     0.0000     2.0000 </r>
       <r>   -17.8553     0.0000     2.0000 </r>
       <r>   -17.6903     0.0000     2.0000 </r>
       <r>   -17.5252     0.0000     2.0000 </r>
       <r>   -17.3602     0.0000     2.0000 </r>
       <r>   -17.1952     0.0000     2.0000 </r>
       <r>   -17.0302     0.0000     2.0000 </r>
       <r>   -16.8651     0.0000     2.0000 </r>
       <r>   -16.7001     0.0000     2.0000 </r>
       <r>   -16.5351     0.0000     2.0000 </r>
       <r>   -16.3701     0.0000     2.0000 </r>
       <r>   -16.2051     0.0000     2.0000 </r>
       <r>   -16.0400     0.0000     2.0000 </r>
       <r>   -15.8750     0.0000     2.0000 </r>
       <r>   -15.7100     0.0000     2.0000 </r>
       <r>   -15.5450     0.0000     2.0000 </r>
       <r>   -15.3800     0.0000     2.0000 </r>
       <r>   -15.2149     0.0000     2.0000 </r>
       <r>   -15.0499     0.0000     2.0000 </r>
       <r>   -14.8849     0.0000     2.0000 </r>
       <r>   -14.7199     0.0000     2.0000 </r>
       <r>   -14.5548     0.0000     2.0000 </r>
       <r>   -14.3898     0.0000     2.0000 </r>
       <r>   -14.2248     0.0000     2.0000 </r>
       <r>   -14.0598     0.0000     2.0000 </r>
       <r>   -13.8948     0.0000     2.0000 </r>
       <r>   -13.7297     0.0000     2.0000 </r>
       <r>   -13.5647     0.0000     2.0000 </r>
       <r>   -13.3997     0.0000     2.0000 </r>
       <r>   -13.2347     0.0000     2.0000 </r>
       <r>   -13.0697     0.0000     2.0000 </r>
       <r>   -12.9046     0.0000     2.0000 </r>
       <r>   -12.7396     0.0000     2.0000 </r>
       <r>   -12.5746     0.0000     2.0000 </r>
       <r>   -12.4096     0.0000     2.0000 </r>
       <r>   -12.2445     0.0000     2.0000 </r>
       <r>   -12.0795     0.0000     2.0000 </r>
       <r>   -11.9145     0.0000     2.0000 </r>
       <r>   -11.7495     0.0000     2.0000 </r>
       <r>   -11.5845     0.0000     2.0000 </r>
       <r>   -11.4194     0.0000     2.0000 </r>
       <r>   -11.2544     0.0000     2.0000 </r>
       <r>   -11.0894     0.0000     2.0000 </r>
       <r>   -10.9244     0.0000     2.0000 </r>
       <r>   -10.7594     0.0000     2.0000 </r>
       <r>   -10.5943     0.0000     2.0000 </r>
       <r>   -10.4293     0.0000     2.0000 </r>
       <r>   -10.2643     0.0000     2.0000 </r>
       <r>   -10.0993     0.0000     2.0000 </r>
       <r>    -9.9342    18.5091     5.0544 </r>
       <r>    -9.7692     0.0000    12.0000 </r>
       <r>    -9.6042     0.0000    12.0000 </r>
       <r>    -9.4392     0.0000    12.0000 </r>
       <r>    -9.2742     0.0000    12.0000 </r>
       <r>    -9.1091     0.0000    12.0000 </r>
       <r>    -8.9441     0.0000    12.0000 </r>
       <r>    -8.7791     0.0000    12.0000 </r>
       <r>    -8.6141     0.0000    12.0000 </r>
       <r>    -8.4491     0.0000    12.0000 </r>
       <r>    -8.2840     0.0000    12.0000 </r>
       <r>    -8.1190     0.0000    12.0000 </r>
       <r>    -7.9540     0.0000    12.0000 </r>
       <r>    -7.7890     0.0000    12.0000 </r>
       <r>    -7.6239     0.0000    12.0000 </r>
       <r>    -7.4589     0.0000    12.0000 </r>
       <r>    -7.2939     0.0000    12.0000 </r>
       <r>    -7.1289     0.0000    12.0000 </r>
       <r>    -6.9639     0.0000    12.0000 </r>
       <r>    -6.7988     0.0000    12.0000 </r>
       <r>    -6.6338     0.0000    12.0000 </r>
       <r>    -6.4688     2.0475    12.4180 </r>
       <r>    -6.3038     2.4157    13.8406 </r>
       <r>    -6.1388     3.3327    14.5527 </r>
       <r>    -5.9737     6.2435    16.6088 </r>
       <r>    -5.8087     2.6258    18.0000 </r>
       <r>    -5.6437     0.0000    18.0000 </r>
       <r>    -5.4787     0.0000    18.0000 </r>
       <r>    -5.3136     0.0000    18.0000 </r>
       <r>    -5.1486     0.0000    18.0000 </r>
       <r>    -4.9836     0.0000    18.0000 </r>
       <r>    -4.8186     0.0000    18.0000 </r>
       <r>    -4.6536     0.0000    18.0000 </r>
       <r>    -4.4885     0.0000    18.0000 </r>
       <r>    -4.3235     0.0000    18.0000 </r>
       <r>    -4.1585     0.0000    18.0000 </r>
       <r>    -3.9935     0.0000    18.0000 </r>
       <r>    -3.8285     0.0000    18.0000 </r>
       <r>    -3.6634     0.0000    18.0000 </r>
       <r>    -3.4984     0.0000    18.0000 </r>
       <r>    -3.3334     0.0000    18.0000 </r>
       <r>    -3.1684     0.0000    18.0000 </r>
       <r>    -3.0033     0.0000    18.0000 </r>
       <r>    -2.8383     0.0000    18.0000 </r>
       <r>    -2.6733     0.0000    18.0000 </r>
       <r>    -2.5083     0.0000    18.0000 </r>
       <r>    -2.3433     0.0000    18.0000 </r>
       <r>    -2.1782     0.0000    18.0000 </r>
       <r>    -2.0132     0.0000    18.0000 </r>
       <r>    -1.8482     0.0000    18.0000 </r>
       <r>    -1.6832     0.0000    18.0000 </r>
       <r>    -1.5182     0.0000    18.0000 </r>
       <r>    -1.3531     0.0000    18.0000 </r>
       <r>    -1.1881     0.0000    18.0000 </r>
       <r>    -1.0231     0.0000    18.0000 </r>
       <r>    -0.8581     0.0000    18.0000 </r>
       <r>    -0.6930     0.0000    18.0000 </r>
       <r>    -0.5280     0.0000    18.0000 </r>
       <r>    -0.3630     0.0004    18.0010 </r>
       <r>    -0.1980     0.0000    18.0137 </r>
       <r>    -0.0330     0.1136    18.0433 </r>
       <r>     0.1321     0.0328    18.0591 </r>
       <r>     0.2971     0.2648    18.1029 </r>
       <r>     0.4621     0.1327    18.1466 </r>
       <r>     0.6271     0.6804    18.2825 </r>
       <r>     0.7921     1.1586    18.6454 </r>
       <r>     0.9572     1.3257    19.0827 </r>
       <r>     1.1222     1.2871    19.5205 </r>
       <r>     1.2872     0.6606    19.8323 </r>
       <r>     1.4522     0.3975    19.9491 </r>
       <r>     1.6173     0.0441    20.0000 </r>
       <r>     1.7823     0.0000    20.0000 </r>
       <r>     1.9473     0.0000    20.0000 </r>
       <r>     2.1123     0.0000    20.0000 </r>
       <r>     2.2773     0.0000    20.0000 </r>
       <r>     2.4424     0.0000    20.0000 </r>
       <r>     2.6074     0.0000    20.0000 </r>
       <r>     2.7724     0.0000    20.0000 </r>
       <r>     2.9374     0.0000    20.0000 </r>
       <r>     3.1024     0.0000    20.0000 </r>
       <r>     3.2675     0.0000    20.0000 </r>
       <r>     3.4325     0.0000    20.0000 </r>
       <r>     3.5975     0.0000    20.0000 </r>
       <r>     3.7625     0.0000    20.0000 </r>
       <r>     3.9276     0.0000    20.0000 </r>
       <r>     4.0926     0.0000    20.0000 </r>
       <r>     4.2576     0.0000    20.0000 </r>
       <r>     4.4226     0.0000    20.0000 </r>
       <r>     4.5876     0.0000    20.0000 </r>
       <r>     4.7527     0.0000    20.0000 </r>
       <r>     4.9177     0.0000    20.0000 </r>
       <r>     5.0827     0.0000    20.0000 </r>
       <r>     5.2477     0.0000    20.0000 </r>
       <r>     5.4127     0.0000    20.0000 </r>
       <r>     5.5778     0.0000    20.0000 </r>
       <r>     5.7428     0.0000    20.0000 </r>
       <r>     5.9078     0.0000    20.0000 </r>
       <r>     6.0728     0.5578    20.1194 </r>
       <r>     6.2379     1.0586    20.4551 </r>
       <r>     6.4029     0.6553    20.8000 </r>
       <r>     6.5679     1.2870    21.1573 </r>
       <r>     6.7329     2.4754    21.9215 </r>
       <r>     6.8979     1.9758    22.5873 </r>
       <r>     7.0630     2.1883    23.2851 </r>
       <r>     7.2280     2.0919    24.0375 </r>
       <r>     7.3930     2.7822    24.9143 </r>
       <r>     7.5580     1.5935    25.3754 </r>
       <r>     7.7230     0.7586    25.7219 </r>
       <r>     7.8881     0.9617    26.0103 </r>
       <r>     8.0531     4.3778    27.5800 </r>
       <r>     8.2181     1.6405    28.4027 </r>
       <r>     8.3831     2.2618    29.1206 </r>
       <r>     8.5482     1.3557    29.8523 </r>
       <r>     8.7132     0.4410    30.0400 </r>
       <r>     8.8782     0.4429    30.1568 </r>
       <r>     9.0432     0.6263    30.3309 </r>
       <r>     9.2082     0.5317    30.5666 </r>
       <r>     9.3733     0.7952    30.9888 </r>
       <r>     9.5383     1.1731    31.3133 </r>
       <r>     9.7033     0.6068    31.5148 </r>
       <r>     9.8683     0.5536    31.6717 </r>
       <r>    10.0333     0.5296    31.8971 </r>
       <r>    10.1984     0.2092    32.0027 </r>
       <r>    10.3634     0.7756    32.2381 </r>
       <r>    10.5284     0.8458    32.4955 </r>
       <r>    10.6934     0.3977    32.6692 </r>
       <r>    10.8585     1.0237    33.0292 </r>
       <r>    11.0235     0.7687    33.2493 </r>
       <r>    11.1885     0.6612    33.4937 </r>
       <r>    11.3535     0.3859    33.7105 </r>
       <r>    11.5185     3.0313    34.4656 </r>
       <r>    11.6836     2.3774    35.4611 </r>
       <r>    11.8486     0.7273    35.7532 </r>
       <r>    12.0136     0.4330    35.9404 </r>
       <r>    12.1786     0.0000    36.0000 </r>
       <r>    12.3436     0.0001    36.0000 </r>
       <r>    12.5087     0.1027    36.0179 </r>
       <r>    12.6737     1.3067    36.2566 </r>
       <r>    12.8387     1.5920    36.7661 </r>
       <r>    13.0037     1.5381    37.2761 </r>
       <r>    13.1688     1.5668    37.8817 </r>
       <r>    13.3338     0.5567    38.0946 </r>
       <r>    13.4988     7.4593    39.5559 </r>
       <r>    13.6638     3.7763    41.0711 </r>
       <r>    13.8288     2.8510    42.1564 </r>
       <r>    13.9939     6.9103    44.1463 </r>
       <r>    14.1589     5.0268    45.9747 </r>
       <r>    14.3239     3.7952    47.6559 </r>
       <r>    14.4889     0.5797    47.9810 </r>
       <r>    14.6539     0.0000    48.0000 </r>
       <r>    14.8190     0.0000    48.0000 </r>
       <r>    14.9840     0.0000    48.0000 </r>
       <r>    15.1490     0.0000    48.0000 </r>
       <r>    15.3140     0.0000    48.0000 </r>
       <r>    15.4791     0.0000    48.0000 </r>
       <r>    15.6441     0.0000    48.0000 </r>
       <r>    15.8091     0.0000    48.0000 </r>
       <r>    15.9741     0.0000    48.0000 </r>
       <r>    16.1391     0.0000    48.0000 </r>
       <r>    16.3042     0.0000    48.0000 </r>
       <r>    16.4692     0.0000    48.0000 </r>
       <r>    16.6342     0.0000    48.0000 </r>
       <r>    16.7992     0.0000    48.0000 </r>
      </set>
     </set>
    </array>
   </total>
  </dos>
 </calculation>
 <structure name="finalpos" >
  <crystal>
   <varray name="basis" >
    <v>       0.00000000       3.07982508       3.07982508 </v>
    <v>       3.07982508       0.00000000       3.07982508 </v>
    <v>       3.07982508       3.07982508       0.00000000 </v>
   </varray>
   <i name="volume">     58.42626862 </i>
   <varray name="rec_basis" >
    <v>      -0.16234688       0.16234688       0.16234688 </v>
    <v>       0.16234688      -0.16234688       0.16234688 </v>
    <v>       0.16234688       0.16234688      -0.16234688 </v>
   </varray>
  </crystal>
  <varray name="positions" >
   <v>       0.25000000       0.25000000       0.25000000 </v>
   <v>       0.75000000       0.75000000       0.75000000 </v>
   <v>       0.00000000       0.00000000       0.00000000 </v>
  </varray>
 </structure>
</modeling>
