    2    2    1    1
  0.1397695E+02  0.3406584E-09  0.3406584E-09  0.3406584E-09  0.0000000E+00
  1.000000000000000E-004
  CAR 
 unknown system                          
      8    364      8
 
  0.0000000E+00  0.0000000E+00  0.0000000E+00  0.8218953E-04
    1       -9.261068   1.000000
    2        5.899596   1.000000
    3        5.899596   1.000000
    4        5.899596   1.000000
    5        9.137430   0.000000
    6        9.137430   0.000000
    7        9.137430   0.000000
    8       10.290799   0.000000
 
  0.4347826E-01  0.0000000E+00  0.0000000E+00  0.6575162E-03
    1       -9.230644   1.000000
    2        5.573043   1.000000
    3        5.836981   1.000000
    4        5.836981   1.000000
    5        9.208466   0.000000
    6        9.219585   0.000000
    7        9.219585   0.000000
    8       10.476080   0.000000
 
  0.8695652E-01  0.0000000E+00  0.0000000E+00  0.6575162E-03
    1       -9.139580   1.000000
    2        4.796995   1.000000
    3        5.670145   1.000000
    4        5.670145   1.000000
    5        9.248072   0.000000
    6        9.439859   0.000000
    7        9.439859   0.000000
    8       11.008710   0.000000
 
  0.1304348E+00  0.0000000E+00  0.0000000E+00  0.6575162E-03
    1       -8.988776   1.000000
    2        3.834109   1.000000
    3        5.442784   1.000000
    4        5.442784   1.000000
    5        9.183769   0.000000
    6        9.739326   0.000000
    7        9.739326   0.000000
    8       11.718714   0.000000
 
  0.1739130E+00  0.0000000E+00  0.0000000E+00  0.6575162E-03
    1       -8.779792   1.000000
    2        2.812241   1.000000
    3        5.193813   1.000000
    4        5.193813   1.000000
    5        9.068051   0.000000
    6       10.054570   0.000000
    7       10.054570   0.000000
    8       12.454745   0.000000
 
  0.2173913E+00  0.0000000E+00  0.0000000E+00  0.6575162E-03
    1       -8.515370   1.000000
    2        1.789656   1.000000
    3        4.949323   1.000000
    4        4.949323   1.000000
    5        8.937098   0.000000
    6       10.330732   0.000000
    7       10.330732   0.000000
    8       13.149562   0.000000
 
  0.2608696E+00  0.0000000E+00  0.0000000E+00  0.6575162E-03
    1       -8.200063   1.000000
    2        0.798509   1.000000
    3        4.725030   1.000000
    4        4.725030   1.000000
    5        8.809860   0.000000
    6       10.530201   0.000000
    7       10.530201   0.000000
    8       13.761887   0.000000
 
  0.3043478E+00  0.0000000E+00  0.0000000E+00  0.6575162E-03
    1       -7.841665   1.000000
    2       -0.137803   1.000000
    3        4.530156   1.000000
    4        4.530156   1.000000
    5        8.696472   0.000000
    6       10.642004   0.000000
    7       10.642004   0.000000
    8       14.240892   0.000000
 
  0.3478261E+00  0.0000000E+00  0.0000000E+00  0.6575162E-03
    1       -7.454147   1.000000
    2       -0.995872   1.000000
    3        4.370186   1.000000
    4        4.370186   1.000000
    5        8.602478   0.000000
    6       10.681572   0.000000
    7       10.681572   0.000000
    8       14.538977   0.000000
 
  0.3913043E+00  0.0000000E+00  0.0000000E+00  0.6575162E-03
    1       -7.063585   1.000000
    2       -1.743601   1.000000
    3        4.248301   1.000000
    4        4.248301   1.000000
    5        8.530645   0.000000
    6       10.677748   0.000000
    7       10.677748   0.000000
    8       14.669496   0.000000
 
  0.4347826E+00  0.0000000E+00  0.0000000E+00  0.6575162E-03
    1       -6.719436   1.000000
    2       -2.327734   1.000000
    3        4.166270   1.000000
    4        4.166270   1.000000
    5        8.482349   0.000000
    6       10.658594   0.000000
    7       10.658594   0.000000
    8       14.703794   0.000000
 
  0.4782609E+00  0.0000000E+00  0.0000000E+00  0.6575162E-03
    1       -6.504612   1.000000
    2       -2.663078   1.000000
    3        4.125060   1.000000
    4        4.125060   1.000000
    5        8.458099   0.000000
    6       10.644067   0.000000
    7       10.644067   0.000000
    8       14.705686   0.000000
 
  0.4347826E-01  0.4347826E-01  0.0000000E+00  0.4931372E-03
    1       -9.220491   1.000000
    2        5.679278   1.000000
    3        5.707598   1.000000
    4        5.707598   1.000000
    5        9.014130   0.000000
    6        9.373659   0.000000
    7        9.373659   0.000000
    8       10.504409   0.000000
 
  0.8695652E-01  0.4347826E-01  0.0000000E+00  0.1972549E-02
    1       -9.149608   1.000000
    2        5.045839   1.000000
    3        5.494588   1.000000
    4        5.669454   1.000000
    5        8.998992   0.000000
    6        9.550017   0.000000
    7        9.647296   0.000000
    8       10.878125   0.000000
 
  0.1304348E+00  0.4347826E-01  0.0000000E+00  0.1972549E-02
    1       -9.018679   1.000000
    2        4.144627   1.000000
    3        5.241815   1.000000
    4        5.525988   1.000000
    5        9.104316   0.000000
    6        9.618478   0.000000
    7        9.982753   0.000000
    8       11.512018   0.000000
 
  0.1739130E+00  0.4347826E-01  0.0000000E+00  0.1972549E-02
    1       -8.828975   1.000000
    2        3.147363   1.000000
    3        4.982782   1.000000
    4        5.310808   1.000000
    5        9.161744   0.000000
    6        9.743478   0.000000
    7       10.322942   0.000000
    8       12.204380   0.000000
 
  0.2173913E+00  0.4347826E-01  0.0000000E+00  0.1972549E-02
    1       -8.582837   1.000000
    2        2.129787   1.000000
    3        4.739004   1.000000
    4        5.065814   1.000000
    5        9.103039   0.000000
    6        9.973842   0.000000
    7       10.616808   0.000000
    8       12.854211   0.000000
 
  0.2608696E+00  0.4347826E-01  0.0000000E+00  0.1972549E-02
    1       -8.284073   1.000000
    2        1.131646   1.000000
    3        4.523441   1.000000
    4        4.819066   1.000000
    5        8.998689   0.000000
    6       10.204159   0.000000
    7       10.825882   0.000000
    8       13.429062   0.000000
 
  0.3043478E+00  0.4347826E-01  0.0000000E+00  0.1972549E-02
    1       -7.939208   1.000000
    2        0.179161   1.000000
    3        4.343697   1.000000
    4        4.587559   1.000000
    5        8.890291   0.000000
    6       10.371856   0.000000
    7       10.935316   0.000000
    8       13.921241   0.000000
 
  0.3478261E+00  0.4347826E-01  0.0000000E+00  0.1972549E-02
    1       -7.559676   1.000000
    2       -0.704574   1.000000
    3        4.204191   1.000000
    4        4.381389   1.000000
    5        8.793821   0.000000
    6       10.467806   0.000000
    7       10.957505   0.000000
    8       14.313904   0.000000
 
  0.3913043E+00  0.4347826E-01  0.0000000E+00  0.1972549E-02
    1       -7.166579   1.000000
    2       -1.491106   1.000000
    3        4.107213   1.000000
    4        4.206798   1.000000
    5        8.716200   0.000000
    6       10.513296   0.000000
    7       10.921592   0.000000
    8       14.576699   0.000000
 
  0.4347826E+00  0.4347826E-01  0.0000000E+00  0.1972549E-02
    1       -6.800006   1.000000
    2       -2.135718   1.000000
    3        4.053768   1.000000
    4        4.067858   1.000000
    5        8.660619   0.000000
    6       10.537551   0.000000
    7       10.858590   0.000000
    8       14.712460   0.000000
 
  0.4782609E+00  0.4347826E-01  0.0000000E+00  0.1972549E-02
    1       -6.531674   1.000000
    2       -2.563807   1.000000
    3        3.967382   1.000000
    4        4.043856   1.000000
    5        8.628519   0.000000
    6       10.563964   0.000000
    7       10.792200   0.000000
    8       14.766687   0.000000
 
 -0.4782609E+00  0.4347826E-01  0.0000000E+00  0.1972549E-02
    1       -6.454405   1.000000
    2       -2.681066   1.000000
    3        3.907468   1.000000
    4        4.076859   1.000000
    5        8.620455   0.000000
    6       10.605908   0.000000
    7       10.736292   0.000000
    8       14.781454   0.000000
 
 -0.4347826E+00  0.4347826E-01  0.0000000E+00  0.1972549E-02
    1       -6.604479   1.000000
    2       -2.450841   1.000000
    3        3.889652   1.000000
    4        4.151579   1.000000
    5        8.636543   0.000000
    6       10.666502   0.000000
    7       10.694648   0.000000
    8       14.769163   0.000000
 
 -0.3913043E+00  0.4347826E-01  0.0000000E+00  0.1972549E-02
    1       -6.915753   1.000000
    2       -1.940031   1.000000
    3        3.914946   1.000000
    4        4.266297   1.000000
    5        8.676566   0.000000
    6       10.661215   0.000000
    7       10.738682   0.000000
    8       14.708883   0.000000
 
 -0.3478261E+00  0.4347826E-01  0.0000000E+00  0.1972549E-02
    1       -7.297364   1.000000
    2       -1.241420   1.000000
    3        3.983891   1.000000
    4        4.418610   1.000000
    5        8.739932   0.000000
    6       10.619968   0.000000
    7       10.804741   0.000000
    8       14.551723   0.000000
 
 -0.3043478E+00  0.4347826E-01  0.0000000E+00  0.1972549E-02
    1       -7.689174   1.000000
    2       -0.418586   1.000000
    3        4.096353   1.000000
    4        4.605244   1.000000
    5        8.825255   0.000000
    6       10.546454   0.000000
    7       10.835998   0.000000
    8       14.252620   0.000000
 
 -0.2608696E+00  0.4347826E-01  0.0000000E+00  0.1972549E-02
    1       -8.058872   1.000000
    2        0.490646   1.000000
    3        4.251236   1.000000
    4        4.821238   1.000000
    5        8.929710   0.000000
    6       10.414042   0.000000
    7       10.796453   0.000000
    8       13.815903   0.000000
 
 -0.2173913E+00  0.4347826E-01  0.0000000E+00  0.1972549E-02
    1       -8.389295   1.000000
    2        1.460414   1.000000
    3        4.446093   1.000000
    4        5.059013   1.000000
    5        9.047723   0.000000
    6       10.207520   0.000000
    7       10.656240   0.000000
    8       13.279921   0.000000
 
 -0.1739130E+00  0.4347826E-01  0.0000000E+00  0.1972549E-02
    1       -8.671063   1.000000
    2        2.466904   1.000000
    3        4.676420   1.000000
    4        5.306277   1.000000
    5        9.168584   0.000000
    6        9.937275   0.000000
    7       10.411976   0.000000
    8       12.671388   0.000000
 
 -0.1304348E+00  0.4347826E-01  0.0000000E+00  0.1972549E-02
    1       -8.898695   1.000000
    2        3.479166   1.000000
    3        4.934952   1.000000
    4        5.542862   1.000000
    5        9.271068   0.000000
    6        9.642510   0.000000
    7       10.097222   0.000000
    8       12.006836   0.000000
 
 -0.8695652E-01  0.4347826E-01  0.0000000E+00  0.1972549E-02
    1       -9.068986   1.000000
    2        4.441974   1.000000
    3        5.212273   1.000000
    4        5.737081   1.000000
    5        9.312366   0.000000
    6        9.382705   0.000000
    7        9.775341   0.000000
    8       11.329801   0.000000
 
 -0.4347826E-01  0.4347826E-01  0.0000000E+00  0.9862743E-03
    1       -9.179983   1.000000
    2        5.217006   1.000000
    3        5.519538   1.000000
    4        5.846811   1.000000
    5        9.224670   0.000000
    6        9.248567   0.000000
    7        9.498402   0.000000
    8       10.762243   0.000000
 
  0.8695652E-01  0.8695652E-01  0.0000000E+00  0.4931372E-03
    1       -9.098977   1.000000
    2        5.107227   1.000000
    3        5.251461   1.000000
    4        5.251461   1.000000
    5        8.742968   0.000000
    6        9.961315   0.000000
    7        9.961315   0.000000
    8       10.949980   0.000000
 
  0.1304348E+00  0.8695652E-01  0.0000000E+00  0.1972549E-02
    1       -8.988127   1.000000
    2        4.373062   1.000000
    3        4.981481   1.000000
    4        5.185208   1.000000
    5        8.695490   0.000000
    6       10.151746   0.000000
    7       10.328941   0.000000
    8       11.362994   0.000000
 
  0.1739130E+00  0.8695652E-01  0.0000000E+00  0.1972549E-02
    1       -8.818129   1.000000
    2        3.441985   1.000000
    3        4.714131   1.000000
    4        5.046500   1.000000
    5        8.814316   0.000000
    6       10.148522   0.000000
    7       10.698547   0.000000
    8       11.939342   0.000000
 
  0.2173913E+00  0.8695652E-01  0.0000000E+00  0.1972549E-02
    1       -8.590958   1.000000
    2        2.457441   1.000000
    3        4.468311   1.000000
    4        4.829887   1.000000
    5        8.987965   0.000000
    6       10.134432   0.000000
    7       11.021467   0.000000
    8       12.453020   0.000000
 
  0.2608696E+00  0.8695652E-01  0.0000000E+00  0.1972549E-02
    1       -8.309838   1.000000
    2        1.471987   1.000000
    3        4.255692   1.000000
    4        4.578482   1.000000
    5        9.102539   0.000000
    6       10.186433   0.000000
    7       11.256947   0.000000
    8       12.867053   0.000000
 
  0.3043478E+00  0.8695652E-01  0.0000000E+00  0.1972549E-02
    1       -7.980273   1.000000
    2        0.517970   1.000000
    3        4.083305   1.000000
    4        4.321974   1.000000
    5        9.120943   0.000000
    6       10.289624   0.000000
    7       11.383909   0.000000
    8       13.249594   0.000000
 
  0.3478261E+00  0.8695652E-01  0.0000000E+00  0.1972549E-02
    1       -7.611702   1.000000
    2       -0.379326   1.000000
    3        3.955291   1.000000
    4        4.078417   1.000000
    5        9.083123   0.000000
    6       10.380678   0.000000
    7       11.408744   0.000000
    8       13.666921   0.000000
 
  0.3913043E+00  0.8695652E-01  0.0000000E+00  0.1972549E-02
    1       -7.221307   1.000000
    2       -1.192970   1.000000
    3        3.858913   1.000000
    4        3.873777   1.000000
    5        9.031021   0.000000
    6       10.434979   0.000000
    7       11.358766   0.000000
    8       14.109748   0.000000
 
  0.4347826E+00  0.8695652E-01  0.0000000E+00  0.1972549E-02
    1       -6.841432   1.000000
    2       -1.884435   1.000000
    3        3.670648   1.000000
    4        3.839553   1.000000
    5        8.986800   0.000000
    6       10.467772   0.000000
    7       11.266894   0.000000
    8       14.505400   0.000000
 
  0.4782609E+00  0.8695652E-01  0.0000000E+00  0.1972549E-02
    1       -6.532032   1.000000
    2       -2.389897   1.000000
    3        3.518694   1.000000
    4        3.852328   1.000000
    5        8.960434   0.000000
    6       10.502514   0.000000
    7       11.160365   0.000000
    8       14.780999   0.000000
 
 -0.4782609E+00  0.8695652E-01  0.0000000E+00  0.1972549E-02
    1       -6.383362   1.000000
    2       -2.616982   1.000000
    3        3.406800   1.000000
    4        3.910937   1.000000
    5        8.955881   0.000000
    6       10.555921   0.000000
    7       11.056558   0.000000
    8       14.917913   0.000000
 
 -0.4347826E+00  0.8695652E-01  0.0000000E+00  0.1972549E-02
    1       -6.460686   1.000000
    2       -2.499555   1.000000
    3        3.338002   1.000000
    4        4.013467   1.000000
    5        8.974160   0.000000
    6       10.635347   0.000000
    7       10.962758   0.000000
    8       14.929846   0.000000
 
 -0.3913043E+00  0.8695652E-01  0.0000000E+00  0.1972549E-02
    1       -6.727851   1.000000
    2       -2.074298   1.000000
    3        3.314608   1.000000
    4        4.157133   1.000000
    5        9.014738   0.000000
    6       10.738429   0.000000
    7       10.876216   0.000000
    8       14.813262   0.000000
 
 -0.3478261E+00  0.8695652E-01  0.0000000E+00  0.1972549E-02
    1       -7.092781   1.000000
    2       -1.435047   1.000000
    3        3.338453   1.000000
    4        4.338210   1.000000
    5        9.076243   0.000000
    6       10.784458   0.000000
    7       10.851840   0.000000
    8       14.550399   0.000000
 
 -0.3043478E+00  0.8695652E-01  0.0000000E+00  0.1972549E-02
    1       -7.484282   1.000000
    2       -0.656589   1.000000
    3        3.410849   1.000000
    4        4.551589   1.000000
    5        9.156421   0.000000
    6       10.666528   0.000000
    7       10.948041   0.000000
    8       14.156143   0.000000
 
 -0.2608696E+00  0.8695652E-01  0.0000000E+00  0.1972549E-02
    1       -7.862409   1.000000
    2        0.215184   1.000000
    3        3.532763   1.000000
    4        4.790044   1.000000
    5        9.251328   0.000000
    6       10.499128   0.000000
    7       10.982499   0.000000
    8       13.694625   0.000000
 
 -0.2173913E+00  0.8695652E-01  0.0000000E+00  0.1972549E-02
    1       -8.206114   1.000000
    2        1.148963   1.000000
    3        3.705219   1.000000
    4        5.042989   1.000000
    5        9.353502   0.000000
    6       10.269973   0.000000
    7       10.901871   0.000000
    8       13.233976   0.000000
 
 -0.1739130E+00  0.8695652E-01  0.0000000E+00  0.1972549E-02
    1       -8.503925   1.000000
    2        2.114709   1.000000
    3        3.931053   1.000000
    4        5.294139   1.000000
    5        9.448004   0.000000
    6        9.992571   0.000000
    7       10.680802   0.000000
    8       12.791717   0.000000
 
 -0.1304348E+00  0.8695652E-01  0.0000000E+00  0.1972549E-02
    1       -8.749327   1.000000
    2        3.065750   1.000000
    3        4.222672   1.000000
    4        5.518263   1.000000
    5        9.502991   0.000000
    6        9.709997   0.000000
    7       10.363682   0.000000
    8       12.326498   0.000000
 
 -0.8695652E-01  0.8695652E-01  0.0000000E+00  0.9862743E-03
    1       -8.938450   1.000000
    2        3.893006   1.000000
    3        4.633682   1.000000
    4        5.679286   1.000000
    5        9.459130   0.000000
    6        9.485260   0.000000
    7       10.050398   0.000000
    8       11.814272   0.000000
 
  0.1304348E+00  0.1304348E+00  0.0000000E+00  0.4931372E-03
    1       -8.897383   1.000000
    2        4.333398   1.000000
    3        4.700101   1.000000
    4        4.700101   1.000000
    5        8.416816   0.000000
    6       10.728546   0.000000
    7       10.728546   0.000000
    8       11.321765   0.000000
 
  0.1739130E+00  0.1304348E+00  0.0000000E+00  0.1972549E-02
    1       -8.747331   1.000000
    2        3.621057   1.000000
    3        4.425193   1.000000
    4        4.567046   1.000000
    5        8.362408   0.000000
    6       10.855582   0.000000
    7       11.133518   0.000000
    8       11.662934   0.000000
 
  0.2173913E+00  0.1304348E+00  0.0000000E+00  0.1972549E-02
    1       -8.539599   1.000000
    2        2.721085   1.000000
    3        4.174720   1.000000
    4        4.402235   1.000000
    5        8.492057   0.000000
    6       10.775505   0.000000
    7       11.496617   0.000000
    8       12.051438   0.000000
 
  0.2608696E+00  0.1304348E+00  0.0000000E+00  0.1972549E-02
    1       -8.276970   1.000000
    2        1.781815   1.000000
    3        3.960021   1.000000
    4        4.164778   1.000000
    5        8.699720   0.000000
    6       10.722037   0.000000
    7       11.774524   0.000000
    8       12.294265   0.000000
 
  0.3043478E+00  0.1304348E+00  0.0000000E+00  0.1972549E-02
    1       -7.964109   1.000000
    2        0.850261   1.000000
    3        3.788139   1.000000
    4        3.894142   1.000000
    5        8.878746   0.000000
    6       10.732021   0.000000
    7       11.938733   0.000000
    8       12.497821   0.000000
 
  0.3478261E+00  0.1304348E+00  0.0000000E+00  0.1972549E-02
    1       -7.608914   1.000000
    2       -0.042188   1.000000
    3        3.620027   1.000000
    4        3.663375   1.000000
    5        8.978629   0.000000
    6       10.773939   0.000000
    7       11.987204   0.000000
    8       12.800458   0.000000
 
  0.3913043E+00  0.1304348E+00  0.0000000E+00  0.1972549E-02
    1       -7.225503   1.000000
    2       -0.867180   1.000000
    3        3.360915   1.000000
    4        3.588012   1.000000
    5        9.016130   0.000000
    6       10.798791   0.000000
    7       11.942832   0.000000
    8       13.257499   0.000000
 
  0.4347826E+00  0.1304348E+00  0.0000000E+00  0.1972549E-02
    1       -6.840060   1.000000
    2       -1.589515   1.000000
    3        3.128437   1.000000
    4        3.562954   1.000000
    5        9.029975   0.000000
    6       10.799517   0.000000
    7       11.839253   0.000000
    8       13.822158   0.000000
 
  0.4782609E+00  0.1304348E+00  0.0000000E+00  0.1972549E-02
    1       -6.501787   1.000000
    2       -2.154373   1.000000
    3        2.930472   1.000000
    4        3.587973   1.000000
    5        9.048360   0.000000
    6       10.796511   0.000000
    7       11.706987   0.000000
    8       14.390930   0.000000
 
 -0.4782609E+00  0.1304348E+00  0.0000000E+00  0.1972549E-02
    1       -6.292211   1.000000
    2       -2.476929   1.000000
    3        2.772695   1.000000
    4        3.661834   1.000000
    5        9.085266   0.000000
    6       10.809463   0.000000
    7       11.566989   0.000000
    8       14.833182   0.000000
 
 -0.4347826E+00  0.1304348E+00  0.0000000E+00  0.1972549E-02
    1       -6.294007   1.000000
    2       -2.473027   1.000000
    3        2.659519   1.000000
    4        3.782330   1.000000
    5        9.145014   0.000000
    6       10.850658   0.000000
    7       11.429579   0.000000
    8       15.027045   0.000000
 
 -0.3913043E+00  0.1304348E+00  0.0000000E+00  0.1972549E-02
    1       -6.506208   1.000000
    2       -2.143851   1.000000
    3        2.594553   1.000000
    4        3.946124   1.000000
    5        9.226045   0.000000
    6       10.924848   0.000000
    7       11.294648   0.000000
    8       14.922312   0.000000
 
 -0.3478261E+00  0.1304348E+00  0.0000000E+00  0.1972549E-02
    1       -6.845479   1.000000
    2       -1.574705   1.000000
    3        2.581010   1.000000
    4        4.148582   1.000000
    5        9.323537   0.000000
    6       11.027855   0.000000
    7       11.152164   0.000000
    8       14.562647   0.000000
 
 -0.3043478E+00  0.1304348E+00  0.0000000E+00  0.1972549E-02
    1       -7.230893   1.000000
    2       -0.851017   1.000000
    3        2.622212   1.000000
    4        4.383156   1.000000
    5        9.430894   0.000000
    6       10.983804   0.000000
    7       11.140934   0.000000
    8       14.054220   0.000000
 
 -0.2608696E+00  0.1304348E+00  0.0000000E+00  0.1972549E-02
    1       -7.613792   1.000000
    2       -0.029971   1.000000
    3        2.722699   1.000000
    4        4.640624   1.000000
    5        9.539682   0.000000
    6       10.769702   0.000000
    7       11.219421   0.000000
    8       13.518923   0.000000
 
 -0.2173913E+00  0.1304348E+00  0.0000000E+00  0.1972549E-02
    1       -7.968294   1.000000
    2        0.845453   1.000000
    3        2.891602   1.000000
    4        4.907473   1.000000
    5        9.636988   0.000000
    6       10.502456   0.000000
    7       11.182940   0.000000
    8       13.074880   0.000000
 
 -0.1739130E+00  0.1304348E+00  0.0000000E+00  0.1972549E-02
    1       -8.280413   1.000000
    2        1.722589   1.000000
    3        3.153564   1.000000
    4        5.163690   1.000000
    5        9.697916   0.000000
    6       10.201710   0.000000
    7       10.967531   0.000000
    8       12.789374   0.000000
 
 -0.1304348E+00  0.1304348E+00  0.0000000E+00  0.9862743E-03
    1       -8.542308   1.000000
    2        2.500519   1.000000
    3        3.576583   1.000000
    4        5.379978   1.000000
    5        9.671745   0.000000
    6        9.915972   0.000000
    7       10.647529   0.000000
    8       12.583342   0.000000
 
  0.1739130E+00  0.1739130E+00  0.0000000E+00  0.4931372E-03
    1       -8.617237   1.000000
    2        3.457103   1.000000
    3        4.143139   1.000000
    4        4.143139   1.000000
    5        8.081307   0.000000
    6       11.324610   0.000000
    7       11.581517   0.000000
    8       11.581517   0.000000
 
  0.2173913E+00  0.1739130E+00  0.0000000E+00  0.1972549E-02
    1       -8.429220   1.000000
    2        2.805745   1.000000
    3        3.886095   1.000000
    4        3.944493   1.000000
    5        8.035767   0.000000
    6       11.113694   0.000000
    7       11.996178   0.000000
    8       12.013603   0.000000
 
  0.2608696E+00  0.1739130E+00  0.0000000E+00  0.1972549E-02
    1       -8.185704   1.000000
    2        1.982473   1.000000
    3        3.665683   1.000000
    4        3.723063   1.000000
    5        8.180258   0.000000
    6       10.959329   0.000000
    7       12.228476   0.000000
    8       12.331971   0.000000
 
  0.3043478E+00  0.1739130E+00  0.0000000E+00  0.1972549E-02
    1       -7.890668   1.000000
    2        1.118429   1.000000
    3        3.442989   1.000000
    4        3.489295   1.000000
    5        8.401104   0.000000
    6       10.943947   0.000000
    7       12.286946   0.000000
    8       12.552818   0.000000
 
  0.3478261E+00  0.1739130E+00  0.0000000E+00  0.1972549E-02
    1       -7.550838   1.000000
    2        0.263485   1.000000
    3        3.138560   1.000000
    4        3.361573   1.000000
    5        8.588529   0.000000
    6       11.090663   0.000000
    7       12.323428   0.000000
    8       12.646196   0.000000
 
  0.3913043E+00  0.1739130E+00  0.0000000E+00  0.1972549E-02
    1       -7.177964   1.000000
    2       -0.547326   1.000000
    3        2.838160   1.000000
    4        3.285099   1.000000
    5        8.700944   0.000000
    6       11.304935   0.000000
    7       12.495361   0.000000
    8       12.627679   0.000000
 
  0.4347826E+00  0.1739130E+00  0.0000000E+00  0.1972549E-02
    1       -6.793458   1.000000
    2       -1.278167   1.000000
    3        2.559894   1.000000
    4        3.261043   1.000000
    5        8.764759   0.000000
    6       11.424713   0.000000
    7       12.529971   0.000000
    8       12.935022   0.000000
 
  0.4782609E+00  0.1739130E+00  0.0000000E+00  0.1972549E-02
    1       -6.437480   1.000000
    2       -1.879868   1.000000
    3        2.315275   1.000000
    4        3.289423   1.000000
    5        8.820155   0.000000
    6       11.446289   0.000000
    7       12.386433   0.000000
    8       13.580394   0.000000
 
 -0.4782609E+00  0.1739130E+00  0.0000000E+00  0.1972549E-02
    1       -6.180338   1.000000
    2       -2.276656   1.000000
    3        2.112208   1.000000
    4        3.369111   1.000000
    5        8.892838   0.000000
    6       11.438939   0.000000
    7       12.221762   0.000000
    8       14.274653   0.000000
 
 -0.4347826E+00  0.1739130E+00  0.0000000E+00  0.1972549E-02
    1       -6.110250   1.000000
    2       -2.377704   1.000000
    3        1.956630   1.000000
    4        3.497903   1.000000
    5        8.993896   0.000000
    6       11.440057   0.000000
    7       12.049182   0.000000
    8       14.820861   0.000000
 
 -0.3913043E+00  0.1739130E+00  0.0000000E+00  0.1972549E-02
    1       -6.259079   1.000000
    2       -2.150932   1.000000
    3        1.853644   1.000000
    4        3.672321   1.000000
    5        9.124461   0.000000
    6       11.465717   0.000000
    7       11.870537   0.000000
    8       14.935809   0.000000
 
 -0.3478261E+00  0.1739130E+00  0.0000000E+00  0.1972549E-02
    1       -6.562874   1.000000
    2       -1.663157   1.000000
    3        1.808509   1.000000
    4        3.887287   1.000000
    5        9.278602   0.000000
    6       11.521416   0.000000
    7       11.676994   0.000000
    8       14.568258   0.000000
 
 -0.3043478E+00  0.1739130E+00  0.0000000E+00  0.1972549E-02
    1       -6.935089   1.000000
    2       -1.008169   1.000000
    3        1.828362   1.000000
    4        4.135497   1.000000
    5        9.444495   0.000000
    6       11.451583   0.000000
    7       11.601221   0.000000
    8       13.974331   0.000000
 
 -0.2608696E+00  0.1739130E+00  0.0000000E+00  0.1972549E-02
    1       -7.317985   1.000000
    2       -0.260196   1.000000
    3        1.926438   1.000000
    4        4.406433   1.000000
    5        9.604368   0.000000
    6       11.177657   0.000000
    7       11.671386   0.000000
    8       13.356820   0.000000
 
 -0.2173913E+00  0.1739130E+00  0.0000000E+00  0.1972549E-02
    1       -7.679902   1.000000
    2        0.510775   1.000000
    3        2.134020   1.000000
    4        4.684651   1.000000
    5        9.732050   0.000000
    6       10.854576   0.000000
    7       11.623628   0.000000
    8       12.897862   0.000000
 
 -0.1739130E+00  0.1739130E+00  0.0000000E+00  0.9862743E-03
    1       -8.003894   1.000000
    2        1.203406   1.000000
    3        2.522400   1.000000
    4        4.947634   1.000000
    5        9.785023   0.000000
    6       10.510915   0.000000
    7       11.336371   0.000000
    8       12.754912   0.000000
 
  0.2173913E+00  0.2173913E+00  0.0000000E+00  0.4931372E-03
    1       -8.260982   1.000000
    2        2.530255   1.000000
    3        3.621375   1.000000
    4        3.621375   1.000000
    5        7.768130   0.000000
    6       10.870965   0.000000
    7       12.474115   0.000000
    8       12.474115   0.000000
 
  0.2608696E+00  0.2173913E+00  0.0000000E+00  0.1972549E-02
    1       -8.036964   1.000000
    2        1.937516   1.000000
    3        3.381072   1.000000
    4        3.392883   1.000000
    5        7.742300   0.000000
    6       10.592975   0.000000
    7       12.814975   0.000000
    8       12.883155   0.000000
 
  0.3043478E+00  0.2173913E+00  0.0000000E+00  0.1972549E-02
    1       -7.760631   1.000000
    2        1.214930   1.000000
    3        3.089464   1.000000
    4        3.208651   1.000000
    5        7.904971   0.000000
    6       10.443416   0.000000
    7       12.935783   0.000000
    8       13.180373   0.000000
 