       N       E                     dE             d eps       ncg     rms          rms(c)
DAV:   1     0.963304619623E+01    0.96330E+01   -0.38758E+03  5840   0.864E+02
DAV:   2    -0.117420375548E+02   -0.21375E+02   -0.20923E+02  9216   0.103E+02
DAV:   3    -0.119922778060E+02   -0.25024E+00   -0.25024E+00  6656   0.135E+01
DAV:   4    -0.119925509497E+02   -0.27314E-03   -0.27314E-03  8872   0.490E-01
DAV:   5    -0.119925510186E+02   -0.68831E-07   -0.68831E-07  6648   0.597E-03    0.388E+00
RMM:   6    -0.114364324631E+02    0.55612E+00   -0.61793E-01  5896   0.518E+00    0.165E+00
RMM:   7    -0.113808378784E+02    0.55595E-01   -0.10065E-01  6214   0.210E+00    0.730E-01
RMM:   8    -0.113744613753E+02    0.63765E-02   -0.21171E-02  6314   0.110E+00    0.829E-02
RMM:   9    -0.113747707057E+02   -0.30933E-03   -0.70338E-04  6766   0.202E-01    0.359E-02
RMM:  10    -0.113747889339E+02   -0.18228E-04   -0.76703E-05  6549   0.757E-02    0.125E-02
RMM:  11    -0.113747919019E+02   -0.29680E-05   -0.52185E-05  6400   0.451E-02    0.112E-02
RMM:  12    -0.113747849361E+02    0.69658E-05   -0.95789E-06  6492   0.204E-02    0.323E-04
RMM:  13    -0.113747849632E+02   -0.27057E-07   -0.14111E-07  7021   0.273E-03
   1 F= -.11374785E+02 E0= -.11374785E+02  d E =0.000000E+00
