   3   3   0   0
  0.2921313E+02  0.4985838E-09  0.4985838E-09  0.4985838E-09  0.5000000E-15
  1.000000000000000E-004
  CAR
 unknown system
     10.46696480    -38.72956601  301      7.77672164      1.00000000
    -38.730  0.0000E+00  0.0000E+00
    -38.566  0.0000E+00  0.0000E+00
    -38.402  0.0000E+00  0.0000E+00
    -38.238  0.0000E+00  0.0000E+00
    -38.074  0.0000E+00  0.0000E+00
    -37.910  0.0000E+00  0.0000E+00
    -37.746  0.0000E+00  0.0000E+00
    -37.582  0.0000E+00  0.0000E+00
    -37.418  0.0000E+00  0.0000E+00
    -37.254  0.0000E+00  0.0000E+00
    -37.090  0.0000E+00  0.0000E+00
    -36.926  0.0000E+00  0.0000E+00
    -36.762  0.0000E+00  0.0000E+00
    -36.598  0.0000E+00  0.0000E+00
    -36.434  0.1220E+02  0.2000E+01
    -36.270  0.0000E+00  0.2000E+01
    -36.106  0.0000E+00  0.2000E+01
    -35.942  0.0000E+00  0.2000E+01
    -35.778  0.0000E+00  0.2000E+01
    -35.614  0.0000E+00  0.2000E+01
    -35.450  0.0000E+00  0.2000E+01
    -35.286  0.0000E+00  0.2000E+01
    -35.122  0.0000E+00  0.2000E+01
    -34.958  0.0000E+00  0.2000E+01
    -34.794  0.0000E+00  0.2000E+01
    -34.630  0.0000E+00  0.2000E+01
    -34.466  0.0000E+00  0.2000E+01
    -34.302  0.0000E+00  0.2000E+01
    -34.138  0.0000E+00  0.2000E+01
    -33.974  0.0000E+00  0.2000E+01
    -33.810  0.0000E+00  0.2000E+01
    -33.646  0.0000E+00  0.2000E+01
    -33.482  0.0000E+00  0.2000E+01
    -33.318  0.0000E+00  0.2000E+01
    -33.154  0.0000E+00  0.2000E+01
    -32.990  0.0000E+00  0.2000E+01
    -32.826  0.0000E+00  0.2000E+01
    -32.662  0.0000E+00  0.2000E+01
    -32.498  0.0000E+00  0.2000E+01
    -32.334  0.0000E+00  0.2000E+01
    -32.170  0.0000E+00  0.2000E+01
    -32.006  0.0000E+00  0.2000E+01
    -31.842  0.0000E+00  0.2000E+01
    -31.678  0.0000E+00  0.2000E+01
    -31.514  0.0000E+00  0.2000E+01
    -31.350  0.0000E+00  0.2000E+01
    -31.186  0.0000E+00  0.2000E+01
    -31.022  0.0000E+00  0.2000E+01
    -30.858  0.0000E+00  0.2000E+01
    -30.694  0.0000E+00  0.2000E+01
    -30.530  0.0000E+00  0.2000E+01
    -30.366  0.0000E+00  0.2000E+01
    -30.202  0.0000E+00  0.2000E+01
    -30.038  0.0000E+00  0.2000E+01
    -29.874  0.0000E+00  0.2000E+01
    -29.710  0.0000E+00  0.2000E+01
    -29.546  0.0000E+00  0.2000E+01
    -29.382  0.0000E+00  0.2000E+01
    -29.218  0.0000E+00  0.2000E+01
    -29.054  0.0000E+00  0.2000E+01
    -28.890  0.0000E+00  0.2000E+01
    -28.726  0.0000E+00  0.2000E+01
    -28.562  0.0000E+00  0.2000E+01
    -28.398  0.0000E+00  0.2000E+01
    -28.234  0.0000E+00  0.2000E+01
    -28.070  0.0000E+00  0.2000E+01
    -27.906  0.0000E+00  0.2000E+01
    -27.742  0.0000E+00  0.2000E+01
    -27.578  0.0000E+00  0.2000E+01
    -27.414  0.0000E+00  0.2000E+01
    -27.250  0.0000E+00  0.2000E+01
    -27.086  0.0000E+00  0.2000E+01
    -26.922  0.0000E+00  0.2000E+01
    -26.758  0.0000E+00  0.2000E+01
    -26.594  0.0000E+00  0.2000E+01
    -26.430  0.0000E+00  0.2000E+01
    -26.266  0.0000E+00  0.2000E+01
    -26.102  0.0000E+00  0.2000E+01
    -25.938  0.0000E+00  0.2000E+01
    -25.774  0.0000E+00  0.2000E+01
    -25.610  0.0000E+00  0.2000E+01
    -25.447  0.0000E+00  0.2000E+01
    -25.283  0.0000E+00  0.2000E+01
    -25.119  0.0000E+00  0.2000E+01
    -24.955  0.0000E+00  0.2000E+01
    -24.791  0.0000E+00  0.2000E+01
    -24.627  0.0000E+00  0.2000E+01
    -24.463  0.0000E+00  0.2000E+01
    -24.299  0.0000E+00  0.2000E+01
    -24.135  0.0000E+00  0.2000E+01
    -23.971  0.0000E+00  0.2000E+01
    -23.807  0.0000E+00  0.2000E+01
    -23.643  0.0000E+00  0.2000E+01
    -23.479  0.0000E+00  0.2000E+01
    -23.315  0.0000E+00  0.2000E+01
    -23.151  0.0000E+00  0.2000E+01
    -22.987  0.0000E+00  0.2000E+01
    -22.823  0.0000E+00  0.2000E+01
    -22.659  0.0000E+00  0.2000E+01
    -22.495  0.0000E+00  0.2000E+01
    -22.331  0.0000E+00  0.2000E+01
    -22.167  0.0000E+00  0.2000E+01
    -22.003  0.0000E+00  0.2000E+01
    -21.839  0.0000E+00  0.2000E+01
    -21.675  0.0000E+00  0.2000E+01
    -21.511  0.0000E+00  0.2000E+01
    -21.347  0.0000E+00  0.2000E+01
    -21.183  0.0000E+00  0.2000E+01
    -21.019  0.0000E+00  0.2000E+01
    -20.855  0.0000E+00  0.2000E+01
    -20.691  0.0000E+00  0.2000E+01
    -20.527  0.0000E+00  0.2000E+01
    -20.363  0.0000E+00  0.2000E+01
    -20.199  0.0000E+00  0.2000E+01
    -20.035  0.0000E+00  0.2000E+01
    -19.871  0.0000E+00  0.2000E+01
    -19.707  0.0000E+00  0.2000E+01
    -19.543  0.0000E+00  0.2000E+01
    -19.379  0.0000E+00  0.2000E+01
    -19.215  0.0000E+00  0.2000E+01
    -19.051  0.0000E+00  0.2000E+01
    -18.887  0.0000E+00  0.2000E+01
    -18.723  0.0000E+00  0.2000E+01
    -18.559  0.0000E+00  0.2000E+01
    -18.395  0.0000E+00  0.2000E+01
    -18.231  0.0000E+00  0.2000E+01
    -18.067  0.0000E+00  0.2000E+01
    -17.903  0.0000E+00  0.2000E+01
    -17.739  0.0000E+00  0.2000E+01
    -17.575  0.0000E+00  0.2000E+01
    -17.411  0.0000E+00  0.2000E+01
    -17.247  0.0000E+00  0.2000E+01
    -17.083  0.0000E+00  0.2000E+01
    -16.919  0.0000E+00  0.2000E+01
    -16.755  0.0000E+00  0.2000E+01
    -16.591  0.0000E+00  0.2000E+01
    -16.427  0.0000E+00  0.2000E+01
    -16.263  0.0000E+00  0.2000E+01
    -16.099  0.0000E+00  0.2000E+01
    -15.935  0.0000E+00  0.2000E+01
    -15.771  0.0000E+00  0.2000E+01
    -15.607  0.0000E+00  0.2000E+01
    -15.443  0.0000E+00  0.2000E+01
    -15.279  0.0000E+00  0.2000E+01
    -15.115  0.0000E+00  0.2000E+01
    -14.951  0.1455E-13  0.2000E+01
    -14.787  0.2454E+02  0.1200E+02
    -14.623  0.0000E+00  0.1200E+02
    -14.459  0.0000E+00  0.1200E+02
    -14.295  0.0000E+00  0.1200E+02
    -14.131  0.0000E+00  0.1200E+02
    -13.967  0.0000E+00  0.1200E+02
    -13.803  0.0000E+00  0.1200E+02
    -13.639  0.0000E+00  0.1200E+02
    -13.475  0.0000E+00  0.1200E+02
    -13.311  0.0000E+00  0.1200E+02
    -13.147  0.0000E+00  0.1200E+02
    -12.983  0.0000E+00  0.1200E+02
    -12.819  0.0000E+00  0.1200E+02
    -12.655  0.0000E+00  0.1200E+02
    -12.491  0.0000E+00  0.1200E+02
    -12.327  0.0000E+00  0.1200E+02
    -12.163  0.0000E+00  0.1200E+02
    -11.999  0.0000E+00  0.1200E+02
    -11.835  0.0000E+00  0.1200E+02
    -11.671  0.2402E+02  0.1613E+02
    -11.507  0.0000E+00  0.1800E+02
    -11.343  0.0000E+00  0.1800E+02
    -11.180  0.0000E+00  0.1800E+02
    -11.016  0.0000E+00  0.1800E+02
    -10.852  0.0000E+00  0.1800E+02
    -10.688  0.0000E+00  0.1800E+02
    -10.524  0.0000E+00  0.1800E+02
    -10.360  0.0000E+00  0.1800E+02
    -10.196  0.0000E+00  0.1800E+02
    -10.032  0.0000E+00  0.1800E+02
     -9.868  0.0000E+00  0.1800E+02
     -9.704  0.0000E+00  0.1800E+02
     -9.540  0.0000E+00  0.1800E+02
     -9.376  0.0000E+00  0.1800E+02
     -9.212  0.0000E+00  0.1800E+02
     -9.048  0.0000E+00  0.1800E+02
     -8.884  0.0000E+00  0.1800E+02
     -8.720  0.0000E+00  0.1800E+02
     -8.556  0.0000E+00  0.1800E+02
     -8.392  0.0000E+00  0.1800E+02
     -8.228  0.0000E+00  0.1800E+02
     -8.064  0.0000E+00  0.1800E+02
     -7.900  0.0000E+00  0.1800E+02
     -7.736  0.0000E+00  0.1800E+02
     -7.572  0.0000E+00  0.1800E+02
     -7.408  0.0000E+00  0.1800E+02
     -7.244  0.0000E+00  0.1800E+02
     -7.080  0.0000E+00  0.1800E+02
     -6.916  0.0000E+00  0.1800E+02
     -6.752  0.0000E+00  0.1800E+02
     -6.588  0.0000E+00  0.1800E+02
     -6.424  0.0000E+00  0.1800E+02
     -6.260  0.0000E+00  0.1800E+02
     -6.096  0.0000E+00  0.1800E+02
     -5.932  0.0000E+00  0.1800E+02
     -5.768  0.0000E+00  0.1800E+02
     -5.604  0.0000E+00  0.1800E+02
     -5.440  0.0000E+00  0.1800E+02
     -5.276  0.0000E+00  0.1800E+02
     -5.112  0.0000E+00  0.1800E+02
     -4.948  0.0000E+00  0.1800E+02
     -4.784  0.0000E+00  0.1800E+02
     -4.620  0.0000E+00  0.1800E+02
     -4.456  0.0000E+00  0.1800E+02
     -4.292  0.0000E+00  0.1800E+02
     -4.128  0.0000E+00  0.1800E+02
     -3.964  0.0000E+00  0.1800E+02
     -3.800  0.4084E-02  0.1800E+02
     -3.636  0.2419E+00  0.1805E+02
     -3.472  0.3064E+00  0.1815E+02
     -3.308  0.4809E+00  0.1834E+02
     -3.144  0.4007E+01  0.1929E+02
     -2.980  0.1776E+00  0.2000E+02
     -2.816  0.0000E+00  0.2000E+02
     -2.652  0.0000E+00  0.2000E+02
     -2.488  0.0000E+00  0.2000E+02
     -2.324  0.0000E+00  0.2000E+02
     -2.160  0.0000E+00  0.2000E+02
     -1.996  0.0000E+00  0.2000E+02
     -1.832  0.0000E+00  0.2000E+02
     -1.668  0.0000E+00  0.2000E+02
     -1.504  0.0000E+00  0.2000E+02
     -1.340  0.0000E+00  0.2000E+02
     -1.176  0.0000E+00  0.2000E+02
     -1.012  0.0000E+00  0.2000E+02
     -0.848  0.0000E+00  0.2000E+02
     -0.684  0.0000E+00  0.2000E+02
     -0.520  0.0000E+00  0.2000E+02
     -0.356  0.0000E+00  0.2000E+02
     -0.192  0.0000E+00  0.2000E+02
     -0.028  0.0000E+00  0.2000E+02
      0.136  0.0000E+00  0.2000E+02
      0.300  0.0000E+00  0.2000E+02
      0.464  0.0000E+00  0.2000E+02
      0.628  0.0000E+00  0.2000E+02
      0.792  0.0000E+00  0.2000E+02
      0.956  0.0000E+00  0.2000E+02
      1.120  0.0000E+00  0.2000E+02
      1.284  0.0000E+00  0.2000E+02
      1.448  0.0000E+00  0.2000E+02
      1.612  0.0000E+00  0.2000E+02
      1.776  0.0000E+00  0.2000E+02
      1.940  0.0000E+00  0.2000E+02
      2.104  0.0000E+00  0.2000E+02
      2.268  0.0000E+00  0.2000E+02
      2.432  0.2129E+00  0.2003E+02
      2.596  0.8073E+00  0.2026E+02
      2.760  0.1652E+01  0.2100E+02
      2.923  0.2014E+01  0.2141E+02
      3.087  0.1047E+01  0.2166E+02
      3.251  0.7318E+00  0.2195E+02
      3.415  0.1332E+00  0.2197E+02
      3.579  0.4923E+01  0.2288E+02
      3.743  0.2865E+01  0.2402E+02
      3.907  0.3693E+01  0.2522E+02
      4.071  0.5197E+00  0.2601E+02
      4.235  0.3585E+00  0.2608E+02
      4.399  0.9444E+01  0.2805E+02
      4.563  0.6078E+01  0.3017E+02
      4.727  0.2818E+01  0.3112E+02
      4.891  0.1007E+01  0.3159E+02
      5.055  0.8622E+00  0.3183E+02
      5.219  0.7995E+00  0.3204E+02
      5.383  0.1387E+01  0.3235E+02
      5.547  0.5873E+00  0.3259E+02
      5.711  0.8515E+00  0.3287E+02
      5.875  0.2817E+00  0.3313E+02
      6.039  0.8235E+00  0.3339E+02
      6.203  0.3331E+00  0.3365E+02
      6.367  0.6732E+01  0.3495E+02
      6.531  0.1563E+01  0.3568E+02
      6.695  0.6883E+00  0.3593E+02
      6.859  0.1524E+00  0.3600E+02
      7.023  0.8434E-01  0.3601E+02
      7.187  0.1312E+00  0.3606E+02
      7.351  0.1206E+01  0.3646E+02
      7.515  0.2522E+01  0.3726E+02
      7.679  0.1309E+01  0.3797E+02
      7.843  0.1874E+02  0.4136E+02
      8.007  0.1844E+02  0.4562E+02
      8.171  0.2618E+01  0.4799E+02
      8.335  0.0000E+00  0.4800E+02
      8.499  0.0000E+00  0.4800E+02
      8.663  0.0000E+00  0.4800E+02
      8.827  0.0000E+00  0.4800E+02
      8.991  0.0000E+00  0.4800E+02
      9.155  0.0000E+00  0.4800E+02
      9.319  0.0000E+00  0.4800E+02
      9.483  0.0000E+00  0.4800E+02
      9.647  0.0000E+00  0.4800E+02
      9.811  0.0000E+00  0.4800E+02
      9.975  0.0000E+00  0.4800E+02
     10.139  0.0000E+00  0.4800E+02
     10.303  0.0000E+00  0.4800E+02
     10.467  0.0000E+00  0.4800E+02
