    3    3    1    1
  0.2921313E+02  0.4985838E-09  0.4985838E-09  0.4985838E-09  0.5000000E-15
  1.000000000000000E-004
  CAR
 unknown system
     39     84     24

  0.0000000E+00  0.0000000E+00  0.0000000E+00  0.4551661E-03
    1      -36.493360   1.000000
    2      -14.886553   1.000000
    3      -14.886553   1.000000
    4      -14.866990   1.000000
    5      -14.866990   1.000000
    6      -14.866990   1.000000
    7      -11.669577   1.000000
    8      -11.669577   1.000000
    9      -11.669577   1.000000
   10       -3.804486   1.000000
   11        3.925499   1.000000
   12        3.925499   1.000000
   13        3.925499   1.000000
   14        4.285744   1.000000
   15        4.285744   1.000000
   16        5.643459   1.000000
   17        6.892941   1.000000
   18        6.892941   1.000000
   19        6.892941   1.000000
   20        7.737867   1.000000
   21        7.905170   0.000000
   22        7.906856   0.000000
   23        7.925422   0.000000
   24        7.925422   0.000000

  0.7692308E-01 -0.3022156E-17  0.4179641E-17  0.3641329E-02
    1      -36.493280   1.000000
    2      -14.887159   1.000000
    3      -14.887159   1.000000
    4      -14.867087   1.000000
    5      -14.866903   1.000000
    6      -14.866903   1.000000
    7      -11.675612   1.000000
    8      -11.668470   1.000000
    9      -11.668470   1.000000
   10       -3.763210   1.000000
   11        3.786307   1.000000
   12        3.870235   1.000000
   13        3.870235   1.000000
   14        4.337899   1.000000
   15        4.337899   1.000000
   16        5.568798   1.000000
   17        6.846369   1.000000
   18        6.846369   1.000000
   19        6.951574   1.000000
   20        7.697613   1.000000
   21        7.824244   0.000000
   22        7.824244   0.000000
   23        7.926084   0.000000
   24        7.934717   0.000000

  0.1538462E+00 -0.4956090E-18  0.2810578E-17  0.3641329E-02
    1      -36.493052   1.000000
    2      -14.888806   1.000000
    3      -14.888806   1.000000
    4      -14.867360   1.000000
    5      -14.866630   1.000000
    6      -14.866630   1.000000
    7      -11.692043   1.000000
    8      -11.665400   1.000000
    9      -11.665400   1.000000
   10       -3.647538   1.000000
   11        3.459235   1.000000
   12        3.771280   1.000000
   13        3.771280   1.000000
   14        4.421509   1.000000
   15        4.421509   1.000000
   16        5.336012   1.000000
   17        6.736900   1.000000
   18        6.736900   1.000000
   19        7.014823   1.000000
   20        7.777211   0.472401
   21        7.777211   0.472401
   22        7.808556   0.000003
   23        7.927912   0.000000
   24        7.975194   0.000000

  0.2307692E+00 -0.4340858E-17  0.7813311E-17  0.3641329E-02
    1      -36.492730   1.000000
    2      -14.891153   1.000000
    3      -14.891153   1.000000
    4      -14.867778   1.000000
    5      -14.866216   1.000000
    6      -14.866216   1.000000
    7      -11.714530   1.000000
    8      -11.661085   1.000000
    9      -11.661085   1.000000
   10       -3.481058   1.000000
   11        3.083901   1.000000
   12        3.689375   1.000000
   13        3.689375   1.000000
   14        4.463876   1.000000
   15        4.463876   1.000000
   16        5.015419   1.000000
   17        6.623634   1.000000
   18        6.623634   1.000000
   19        7.038212   1.000000
   20        7.762203   0.979977
   21        7.762203   0.979977
   22        7.930492   0.000000
   23        7.961958   0.000000
   24        8.148500   0.000000

  0.3076923E+00 -0.9912180E-18  0.5621156E-17  0.3641329E-02
    1      -36.492391   1.000000
    2      -14.893657   1.000000
    3      -14.893657   1.000000
    4      -14.868287   1.000000
    5      -14.865755   1.000000
    6      -14.865754   1.000000
    7      -11.737566   1.000000
    8      -11.656528   1.000000
    9      -11.656528   1.000000
   10       -3.299533   1.000000
   11        2.747357   1.000000
   12        3.642591   1.000000
   13        3.642591   1.000000
   14        4.445363   1.000000
   15        4.445363   1.000000
   16        4.715566   1.000000
   17        6.546859   1.000000
   18        6.546859   1.000000
   19        7.081740   1.000000
   20        7.768251   0.884528
   21        7.768251   0.884528
   22        7.933230   0.000000
   23        8.002891   0.000000
   24        8.108651   0.000000

  0.3846154E+00 -0.3190282E-17  0.8977704E-17  0.3641329E-02
    1      -36.492111   1.000000
    2      -14.895731   1.000000
    3      -14.895731   1.000000
    4      -14.868756   1.000000
    5      -14.865361   1.000000
    6      -14.865361   1.000000
    7      -11.756031   1.000000
    8      -11.652763   1.000000
    9      -11.652763   1.000000
   10       -3.144899   1.000000
   11        2.498589   1.000000
   12        3.628869   1.000000
   13        3.628869   1.000000
   14        4.388044   1.000000
   15        4.388044   1.000000
   16        4.499422   1.000000
   17        6.511279   1.000000
   18        6.511279   1.000000
   19        7.143914   1.000000
   20        7.787940   0.056306
   21        7.787940   0.056306
   22        7.935504   0.000000
   23        8.038215   0.000000
   24        8.041564   0.000000

  0.4615385E+00  0.6744095E-17  0.2008113E-18  0.3641329E-02
    1      -36.491952   1.000000
    2      -14.896910   1.000000
    3      -14.896910   1.000000
    4      -14.869035   1.000000
    5      -14.865133   1.000000
    6      -14.865133   1.000000
    7      -11.766206   1.000000
    8      -11.650641   1.000000
    9      -11.650641   1.000000
   10       -3.055773   1.000000
   11        2.366869   1.000000
   12        3.631778   1.000000
   13        3.631778   1.000000
   14        4.339114   1.000000
   15        4.339114   1.000000
   16        4.389227   1.000000
   17        6.500567   1.000000
   18        6.500567   1.000000
   19        7.191646   1.000000
   20        7.809467   0.000002
   21        7.809467   0.000002
   22        7.992202   0.000000
   23        7.992283   0.000000
   24        8.064598   0.000000

  0.7692308E-01  0.7692308E-01  0.2498687E-17  0.2730997E-02
    1      -36.493253   1.000000
    2      -14.888188   1.000000
    3      -14.886405   1.000000
    4      -14.867191   1.000000
    5      -14.866836   1.000000
    6      -14.866836   1.000000
    7      -11.672882   1.000000
    8      -11.670533   1.000000
    9      -11.670533   1.000000
   10       -3.750367   1.000000
   11        3.627241   1.000000
   12        3.939774   1.000000
   13        3.939774   1.000000
   14        4.298415   1.000000
   15        4.356487   1.000000
   16        5.567555   1.000000
   17        6.773112   1.000000
   18        6.773112   1.000000
   19        7.086812   1.000000
   20        7.661824   1.000000
   21        7.816166   0.000000
   22        7.816166   0.000000
   23        7.933109   0.000000
   24        7.947628   0.000000

  0.1538462E+00  0.7692308E-01  0.9459060E-18  0.1092399E-01
    1      -36.493073   1.000000
    2      -14.890035   1.000000
    3      -14.886869   1.000000
    4      -14.867420   1.000000
    5      -14.866628   1.000000
    6      -14.866577   1.000000
    7      -11.685410   1.000000
    8      -11.670280   1.000000
    9      -11.666738   1.000000
   10       -3.662243   1.000000
   11        3.365036   1.000000
   12        3.862305   1.000000
   13        3.905215   1.000000
   14        4.348785   1.000000
   15        4.416389   1.000000
   16        5.426828   1.000000
   17        6.638161   1.000000
   18        6.653782   1.000000
   19        7.207366   1.000000
   20        7.711671   1.000000
   21        7.784360   0.140023
   22        7.791898   0.015925
   23        7.937212   0.000000
   24        7.971280   0.000000

  0.2307692E+00  0.7692308E-01  0.5125547E-17  0.1092399E-01
    1      -36.492785   1.000000
    2      -14.892263   1.000000
    3      -14.888461   1.000000
    4      -14.867738   1.000000
    5      -14.866334   1.000000
    6      -14.866169   1.000000
    7      -11.706007   1.000000
    8      -11.667780   1.000000
    9      -11.661786   1.000000
   10       -3.517172   1.000000
   11        3.074068   1.000000
   12        3.719806   1.000000
   13        3.834825   1.000000
   14        4.401370   1.000000
   15        4.482505   1.000000
   16        5.152645   1.000000
   17        6.488704   1.000000
   18        6.545886   1.000000
   19        7.218172   1.000000
   20        7.759531   0.992475
   21        7.766679   0.922235
   22        7.937124   0.000000
   23        7.938918   0.000000
   24        8.050495   0.000000

  0.3076923E+00  0.7692308E-01  0.4579576E-17  0.1092399E-01
    1      -36.492453   1.000000
    2      -14.894387   1.000000
    3      -14.890814   1.000000
    4      -14.868139   1.000000
    5      -14.865981   1.000000
    6      -14.865701   1.000000
    7      -11.728824   1.000000
    8      -11.663616   1.000000
    9      -11.657482   1.000000
   10       -3.346442   1.000000
   11        2.795403   1.000000
   12        3.618373   1.000000
   13        3.774911   1.000000
   14        4.401734   1.000000
   15        4.497899   1.000000
   16        4.842630   1.000000
   17        6.391857   1.000000
   18        6.482680   1.000000
   19        7.212647   1.000000
   20        7.765725   0.940054
   21        7.769203   0.856171
   22        7.940180   0.000000
   23        7.982914   0.000000
   24        8.093226   0.000000

  0.3846154E+00  0.7692308E-01  0.7936125E-17  0.1092399E-01
    1      -36.492153   1.000000
    2      -14.895924   1.000000
    3      -14.893373   1.000000
    4      -14.868545   1.000000
    5      -14.865624   1.000000
    6      -14.865293   1.000000
    7      -11.748658   1.000000
    8      -11.658748   1.000000
    9      -11.654776   1.000000
   10       -3.188800   1.000000
   11        2.572832   1.000000
   12        3.578813   1.000000
   13        3.728916   1.000000
   14        4.364906   1.000000
   15        4.456488   1.000000
   16        4.590064   1.000000
   17        6.346847   1.000000
   18        6.461746   1.000000
   19        7.233361   1.000000
   20        7.779791   0.332105
   21        7.790094   0.029303
   22        7.940271   0.000000
   23        8.001910   0.000000
   24        8.057124   0.000000

  0.4615385E+00  0.7692308E-01 -0.8407683E-18  0.1092399E-01
    1      -36.491955   1.000000
    2      -14.896513   1.000000
    3      -14.895529   1.000000
    4      -14.868836   1.000000
    5      -14.865347   1.000000
    6      -14.865053   1.000000
    7      -11.761416   1.000000
    8      -11.654284   1.000000
    9      -11.654241   1.000000
   10       -3.081963   1.000000
   11        2.435980   1.000000
   12        3.593201   1.000000
   13        3.681521   1.000000
   14        4.340870   1.000000
   15        4.387246   1.000000
   16        4.439152   1.000000
   17        6.330143   1.000000
   18        6.462359   1.000000
   19        7.266968   1.000000
   20        7.804628   0.000040
   21        7.810822   0.000001
   22        7.937172   0.000000
   23        7.985500   0.000000
   24        8.029989   0.000000

 -0.4615385E+00  0.7692308E-01  0.1992845E-16  0.1092399E-01
    1      -36.491901   1.000000
    2      -14.896801   1.000000
    3      -14.896030   1.000000
    4      -14.868904   1.000000
    5      -14.865237   1.000000
    6      -14.865044   1.000000
    7      -11.764693   1.000000
    8      -11.655952   1.000000
    9      -11.651231   1.000000
   10       -3.052669   1.000000
   11        2.400306   1.000000
   12        3.623438   1.000000
   13        3.641819   1.000000
   14        4.338083   1.000000
   15        4.366175   1.000000
   16        4.397448   1.000000
   17        6.316997   1.000000
   18        6.470844   1.000000
   19        7.280551   1.000000
   20        7.809798   0.000001
   21        7.824578   0.000000
   22        7.935258   0.000000
   23        7.989752   0.000000
   24        8.026910   0.000000

 -0.3846154E+00  0.7692308E-01 -0.1331165E-16  0.1092399E-01
    1      -36.492008   1.000000
    2      -14.896904   1.000000
    3      -14.894567   1.000000
    4      -14.868724   1.000000
    5      -14.865318   1.000000
    6      -14.865258   1.000000
    7      -11.757938   1.000000
    8      -11.659490   1.000000
    9      -11.650285   1.000000
   10       -3.108484   1.000000
   11        2.470939   1.000000
   12        3.569974   1.000000
   13        3.701978   1.000000
   14        4.330887   1.000000
   15        4.432374   1.000000
   16        4.474193   1.000000
   17        6.294065   1.000000
   18        6.490522   1.000000
   19        7.260094   1.000000
   20        7.788317   0.050523
   21        7.814203   0.000000
   22        7.934934   0.000000
   23        8.010163   0.000000
   24        8.021852   0.000000

 -0.3076923E+00  0.7692308E-01 -0.6662735E-17  0.1092399E-01
    1      -36.492246   1.000000
    2      -14.895815   1.000000
    3      -14.892448   1.000000
    4      -14.868354   1.000000
    5      -14.865640   1.000000
    6      -14.865586   1.000000
    7      -11.742430   1.000000
    8      -11.664005   1.000000
    9      -11.651665   1.000000
   10       -3.235286   1.000000
   11        2.644056   1.000000
   12        3.545656   1.000000
   13        3.763964   1.000000
   14        4.360731   1.000000
   15        4.501111   1.000000
   16        4.662561   1.000000
   17        6.269520   1.000000
   18        6.537141   1.000000
   19        7.226582   1.000000
   20        7.768539   0.876408
   21        7.788753   0.044429
   22        7.938280   0.000000
   23        8.007208   0.000000
   24        8.062080   0.000000

 -0.2307692E+00  0.7692308E-01 -0.8854890E-17  0.1092399E-01
    1      -36.492566   1.000000
    2      -14.893803   1.000000
    3      -14.890164   1.000000
    4      -14.867923   1.000000
    5      -14.866091   1.000000
    6      -14.865967   1.000000
    7      -11.721292   1.000000
    8      -11.668396   1.000000
    9      -11.655069   1.000000
   10       -3.401683   1.000000
   11        2.904941   1.000000
   12        3.566533   1.000000
   13        3.834879   1.000000
   14        4.383918   1.000000
   15        4.532297   1.000000
   16        4.940179   1.000000
   17        6.279430   1.000000
   18        6.623544   1.000000
   19        7.207344   1.000000
   20        7.760333   0.989767
   21        7.770035   0.827836
   22        7.937249   0.000000
   23        7.976566   0.000000
   24        8.113460   0.000000

 -0.1538462E+00  0.7692308E-01 -0.5498342E-17  0.1092399E-01
    1      -36.492891   1.000000
    2      -14.891322   1.000000
    3      -14.888255   1.000000
    4      -14.867534   1.000000
    5      -14.866501   1.000000
    6      -14.866360   1.000000
    7      -11.699272   1.000000
    8      -11.671453   1.000000
    9      -11.659722   1.000000
   10       -3.568359   1.000000
   11        3.223160   1.000000
   12        3.636546   1.000000
   13        3.914738   1.000000
   14        4.361649   1.000000
   15        4.505472   1.000000
   16        5.242262   1.000000
   17        6.382634   1.000000
   18        6.737127   1.000000
   19        7.198275   1.000000
   20        7.764824   0.953770
   21        7.767454   0.905011
   22        7.904000   0.000000
   23        7.934457   0.000000
   24        8.009691   0.000000

 -0.7692308E-01  0.7692308E-01 -0.6044313E-17  0.5461994E-02
    1      -36.493150   1.000000
    2      -14.888927   1.000000
    3      -14.887171   1.000000
    4      -14.867251   1.000000
    5      -14.866786   1.000000
    6      -14.866690   1.000000
    7      -11.682471   1.000000
    8      -11.671613   1.000000
    9      -11.664567   1.000000
   10       -3.698076   1.000000
   11        3.546445   1.000000
   12        3.746988   1.000000
   13        3.951943   1.000000
   14        4.323676   1.000000
   15        4.429176   1.000000
   16        5.465530   1.000000
   17        6.611700   1.000000
   18        6.830126   1.000000
   19        7.112700   1.000000
   20        7.713144   1.000000
   21        7.788462   0.048418
   22        7.797883   0.001383
   23        7.930438   0.000000
   24        7.958882   0.000000

  0.1538462E+00  0.1538462E+00  0.4997374E-17  0.2730997E-02
    1      -36.492952   1.000000
    2      -14.891633   1.000000
    3      -14.885974   1.000000
    4      -14.867738   1.000000
    5      -14.866350   1.000000
    6      -14.866350   1.000000
    7      -11.682888   1.000000
    8      -11.673240   1.000000
    9      -11.673240   1.000000
   10       -3.609571   1.000000
   11        3.124862   1.000000
   12        3.973792   1.000000
   13        3.973792   1.000000
   14        4.333975   1.000000
   15        4.365921   1.000000
   16        5.425748   1.000000
   17        6.534726   1.000000
   18        6.534726   1.000000
   19        7.326484   1.000000
   20        7.687870   1.000000
   21        7.778485   0.401541
   22        7.778485   0.401540
   23        7.955817   0.000000
   24        7.983933   0.000000

  0.2307692E+00  0.1538462E+00  0.3516869E-17  0.1092399E-01
    1      -36.492714   1.000000
    2      -14.893226   1.000000
    3      -14.886358   1.000000
    4      -14.868071   1.000000
    5      -14.866045   1.000000
    6      -14.865962   1.000000
    7      -11.698281   1.000000
    8      -11.673596   1.000000
    9      -11.669841   1.000000
   10       -3.501810   1.000000
   11        2.903132   1.000000
   12        3.894843   1.000000
   13        3.956166   1.000000
   14        4.370443   1.000000
   15        4.401082   1.000000
   16        5.275755   1.000000
   17        6.360573   1.000000
   18        6.434505   1.000000
   19        7.349623   1.000000
   20        7.753785   0.999410
   21        7.771233   0.781177
   22        7.886361   0.000000
   23        7.964958   0.000000
   24        8.035469   0.000000

  0.3076923E+00  0.1538462E+00  0.5794331E-17  0.1092399E-01
    1      -36.492417   1.000000
    2      -14.894465   1.000000
    3      -14.887946   1.000000
    4      -14.868344   1.000000
    5      -14.865808   1.000000
    6      -14.865492   1.000000
    7      -11.719197   1.000000
    8      -11.671291   1.000000
    9      -11.665772   1.000000
   10       -3.363709   1.000000
   11        2.732761   1.000000
   12        3.743851   1.000000
   13        3.905906   1.000000
   14        4.386250   1.000000
   15        4.459722   1.000000
   16        5.019907   1.000000
   17        6.171001   1.000000
   18        6.383055   1.000000
   19        7.358931   1.000000
   20        7.764312   0.960373
   21        7.771341   0.776635
   22        7.944645   0.000000
   23        7.966090   0.000000
   24        8.091332   0.000000

  0.3846154E+00  0.1538462E+00  0.9150880E-17  0.1092399E-01
    1      -36.492125   1.000000
    2      -14.895072   1.000000
    3      -14.890342   1.000000
    4      -14.868525   1.000000
    5      -14.865653   1.000000
    6      -14.865065   1.000000
    7      -11.738526   1.000000
    8      -11.666858   1.000000
    9      -11.664114   1.000000
   10       -3.227009   1.000000
   11        2.622988   1.000000
   12        3.630095   1.000000
   13        3.843123   1.000000
   14        4.372719   1.000000
   15        4.469515   1.000000
   16        4.750268   1.000000
   17        6.056113   1.000000
   18        6.373584   1.000000
   19        7.365331   1.000000
   20        7.782789   0.195426
   21        7.787488   0.063923
   22        7.956987   0.000000
   23        7.962626   0.000000
   24        8.076235   0.000000

  0.4615385E+00  0.1538462E+00  0.6958725E-17  0.1092399E-01
    1      -36.491909   1.000000
    2      -14.894927   1.000000
    3      -14.892978   1.000000
    4      -14.868593   1.000000
    5      -14.865575   1.000000
    6      -14.864809   1.000000
    7      -11.752077   1.000000
    8      -11.665271   1.000000
    9      -11.661309   1.000000
   10       -3.122686   1.000000
   11        2.565182   1.000000
   12        3.586689   1.000000
   13        3.759332   1.000000
   14        4.372708   1.000000
   15        4.419121   1.000000
   16        4.561169   1.000000
   17        6.000232   1.000000
   18        6.380941   1.000000
   19        7.382734   1.000000
   20        7.806677   0.000011
   21        7.808232   0.000004
   22        7.953179   0.000000
   23        7.964608   0.000000
   24        8.064402   0.000000

 -0.4615385E+00  0.1538462E+00 -0.2763588E-19  0.1092399E-01
    1      -36.491813   1.000000
    2      -14.895230   1.000000
    3      -14.894057   1.000000
    4      -14.868532   1.000000
    5      -14.865562   1.000000
    6      -14.864783   1.000000
    7      -11.757332   1.000000
    8      -11.668810   1.000000
    9      -11.655907   1.000000
   10       -3.073863   1.000000
   11        2.542144   1.000000
   12        3.616528   1.000000
   13        3.657781   1.000000
   14        4.350602   1.000000
   15        4.414377   1.000000
   16        4.487920   1.000000
   17        5.963934   1.000000
   18        6.391109   1.000000
   19        7.399599   1.000000
   20        7.807375   0.000007
   21        7.838556   0.000000
   22        7.932829   0.000000
   23        7.983121   0.000000
   24        8.027551   0.000000

 -0.3846154E+00  0.1538462E+00 -0.2668300E-16  0.1092399E-01
    1      -36.491865   1.000000
    2      -14.896614   1.000000
    3      -14.892664   1.000000
    4      -14.868356   1.000000
    5      -14.865618   1.000000
    6      -14.864989   1.000000
    7      -11.753591   1.000000
    8      -11.673666   1.000000
    9      -11.651881   1.000000
   10       -3.091506   1.000000
   11        2.549568   1.000000
   12        3.563418   1.000000
   13        3.703041   1.000000
   14        4.320009   1.000000
   15        4.485595   1.000000
   16        4.523430   1.000000
   17        5.916943   1.000000
   18        6.410972   1.000000
   19        7.398080   1.000000
   20        7.787757   0.059299
   21        7.852461   0.000000
   22        7.921175   0.000000
   23        8.005911   0.000000
   24        8.010520   0.000000

 -0.3076923E+00  0.1538462E+00  0.4429126E-17  0.1092399E-01
    1      -36.492050   1.000000
    2      -14.896825   1.000000
    3      -14.891039   1.000000
    4      -14.868119   1.000000
    5      -14.865729   1.000000
    6      -14.865360   1.000000
    7      -11.741998   1.000000
    8      -11.678295   1.000000
    9      -11.650145   1.000000
   10       -3.172541   1.000000
   11        2.606510   1.000000
   12        3.502547   1.000000
   13        3.817081   1.000000
   14        4.315590   1.000000
   15        4.553504   1.000000
   16        4.681632   1.000000
   17        5.859269   1.000000
   18        6.459220   1.000000
   19        7.379649   1.000000
   20        7.768963   0.863727
   21        7.825396   0.000000
   22        7.940639   0.000000
   23        8.000277   0.000000
   24        8.025565   0.000000

 -0.2307692E+00  0.1538462E+00 -0.4347766E-17  0.1092399E-01
    1      -36.492325   1.000000
    2      -14.895829   1.000000
    3      -14.889539   1.000000
    4      -14.867899   1.000000
    5      -14.865884   1.000000
    6      -14.865805   1.000000
    7      -11.725678   1.000000
    8      -11.680769   1.000000
    9      -11.651107   1.000000
   10       -3.299352   1.000000
   11        2.738292   1.000000
   12        3.491925   1.000000
   13        3.924975   1.000000
   14        4.320935   1.000000
   15        4.585897   1.000000
   16        4.918938   1.000000
   17        5.847012   1.000000
   18        6.547164   1.000000
   19        7.356273   1.000000
   20        7.759789   0.991680
   21        7.794582   0.005772
   22        7.947424   0.000000
   23        7.982272   0.000000
   24        8.079240   0.000000

 -0.1538462E+00  0.1538462E+00 -0.9912180E-18  0.5461994E-02
    1      -36.492629   1.000000
    2      -14.893845   1.000000
    3      -14.888520   1.000000
    4      -14.867717   1.000000
    5      -14.866212   1.000000
    6      -14.866091   1.000000
    7      -11.709878   1.000000
    8      -11.678674   1.000000
    9      -11.654564   1.000000
   10       -3.442562   1.000000
   11        2.952125   1.000000
   12        3.537908   1.000000
   13        3.982558   1.000000
   14        4.322695   1.000000
   15        4.567558   1.000000
   16        5.125937   1.000000
   17        6.008147   1.000000
   18        6.656856   1.000000
   19        7.318699   1.000000
   20        7.759243   0.993280
   21        7.773214   0.690062
   22        7.943184   0.000000
   23        7.961380   0.000000
   24        8.079366   0.000000

  0.2307692E+00  0.2307692E+00  0.7496062E-17  0.2730997E-02
    1      -36.492535   1.000000
    2      -14.893808   1.000000
    3      -14.885362   1.000000
    4      -14.868530   1.000000
    5      -14.865605   1.000000
    6      -14.865605   1.000000
    7      -11.699161   1.000000
    8      -11.677206   1.000000
    9      -11.677206   1.000000
   10       -3.440316   1.000000
   11        2.745007   1.000000
   12        4.005149   1.000000
   13        4.005149   1.000000
   14        4.292556   1.000000
   15        4.385262   1.000000
   16        5.254610   1.000000
   17        6.342344   1.000000
   18        6.342344   1.000000
   19        7.341442   1.000000
   20        7.773266   0.687496
   21        7.773266   0.687496
   22        7.858120   0.000000
   23        7.992043   0.000000
   24        8.091609   0.000000

  0.3076923E+00  0.2307692E+00  0.4752751E-17  0.1092399E-01
    1      -36.492288   1.000000
    2      -14.893846   1.000000
    3      -14.885729   1.000000
    4      -14.868870   1.000000
    5      -14.865259   1.000000
    6      -14.865145   1.000000
    7      -11.713902   1.000000
    8      -11.677786   1.000000
    9      -11.676402   1.000000
   10       -3.349257   1.000000
   11        2.658273   1.000000
   12        3.908265   1.000000
   13        3.990154   1.000000
   14        4.325990   1.000000
   15        4.407608   1.000000
   16        5.105533   1.000000
   17        6.172022   1.000000
   18        6.299281   1.000000
   19        7.397223   1.000000
   20        7.765119   0.949581
   21        7.777505   0.455874
   22        7.892059   0.000000
   23        8.004906   0.000000
   24        8.129227   0.000000

  0.3846154E+00  0.2307692E+00  0.6463116E-17  0.1092399E-01
    1      -36.492032   1.000000
    2      -14.893367   1.000000
    3      -14.887362   1.000000
    4      -14.868996   1.000000
    5      -14.865137   1.000000
    6      -14.864719   1.000000
    7      -11.730477   1.000000
    8      -11.676083   1.000000
    9      -11.675220   1.000000
   10       -3.250860   1.000000
   11        2.654007   1.000000
   12        3.752500   1.000000
   13        3.936036   1.000000
   14        4.396267   1.000000
   15        4.411999   1.000000
   16        4.893300   1.000000
   17        5.929127   1.000000
   18        6.296617   1.000000
   19        7.452876   1.000000
   20        7.776600   0.506848
   21        7.788696   0.045185
   22        7.909496   0.000000
   23        8.004101   0.000000
   24        8.105668   0.000000

  0.4615385E+00  0.2307692E+00  0.5917145E-17  0.1092399E-01
    1      -36.491824   1.000000
    2      -14.892482   1.000000
    3      -14.889834   1.000000
    4      -14.868860   1.000000
    5      -14.865264   1.000000
    6      -14.864447   1.000000
    7      -11.742390   1.000000
    8      -11.679121   1.000000
    9      -11.670101   1.000000
   10       -3.166557   1.000000
   11        2.707813   1.000000
   12        3.641239   1.000000
   13        3.844307   1.000000
   14        4.408749   1.000000
   15        4.425458   1.000000
   16        4.698445   1.000000
   17        5.743875   1.000000
   18        6.304591   1.000000
   19        7.476963   1.000000
   20        7.796998   0.002068
   21        7.809733   0.000002
   22        7.933216   0.000000
   23        7.992121   0.000000
   24        8.077473   0.000000

 -0.4615385E+00  0.2307692E+00 -0.7653953E-17  0.1092399E-01
    1      -36.491710   1.000000
    2      -14.892574   1.000000
    3      -14.891422   1.000000
    4      -14.868472   1.000000
    5      -14.865591   1.000000
    6      -14.864408   1.000000
    7      -11.747041   1.000000
    8      -11.684999   1.000000
    9      -11.663593   1.000000
   10       -3.112416   1.000000
   11        2.756988   1.000000
   12        3.603015   1.000000
   13        3.725427   1.000000
   14        4.348712   1.000000
   15        4.469278   1.000000
   16        4.615359   1.000000
   17        5.627726   1.000000
   18        6.308074   1.000000
   19        7.491072   1.000000
   20        7.799619   0.000602
   21        7.840359   0.000000
   22        7.964805   0.000000
   23        7.970801   0.000000
   24        8.058040   0.000000

 -0.3846154E+00  0.2307692E+00  0.2120184E-16  0.1092399E-01
    1      -36.491719   1.000000
    2      -14.894961   1.000000
    3      -14.890435   1.000000
    4      -14.867956   1.000000
    5      -14.865992   1.000000
    6      -14.864607   1.000000
    7      -11.744267   1.000000
    8      -11.691703   1.000000
    9      -11.657178   1.000000
   10       -3.098408   1.000000
   11        2.739860   1.000000
   12        3.607329   1.000000
   13        3.648817   1.000000
   14        4.308171   1.000000
   15        4.532114   1.000000
   16        4.638959   1.000000
   17        5.549640   1.000000
   18        6.318388   1.000000
   19        7.493132   1.000000
   20        7.784208   0.144852
   21        7.875650   0.000000
   22        7.923555   0.000000