       N       E                     dE             d eps       ncg     rms          rms(c)
DAV:   1     0.422858912735E+03    0.42286E+03   -0.22024E+04  4032   0.221E+03
DAV:   2     0.269959287055E+02   -0.39586E+03   -0.38901E+03  4744   0.486E+02
DAV:   3    -0.198994729451E+02   -0.46895E+02   -0.45815E+02  5000   0.171E+02
DAV:   4    -0.249969862256E+02   -0.50975E+01   -0.50654E+01  7776   0.431E+01
DAV:   5    -0.251847245492E+02   -0.18774E+00   -0.18736E+00  5608   0.720E+00    0.154E+01
DAV:   6    -0.375173826648E+02   -0.12333E+02   -0.28797E+02  6040   0.102E+02    0.224E+01
DAV:   7    -0.252962192636E+02    0.12221E+02   -0.28866E+01  5768   0.293E+01    0.138E+01
DAV:   8    -0.237534781827E+02    0.15427E+01   -0.48711E+01  6008   0.234E+01    0.875E+00
DAV:   9    -0.230159725019E+02    0.73751E+00   -0.74373E+00  5968   0.146E+01    0.259E+00
DAV:  10    -0.231423190383E+02   -0.12635E+00   -0.30352E+00  6144   0.667E+00    0.343E+00
DAV:  11    -0.230103897452E+02    0.13193E+00   -0.78843E-01  5904   0.364E+00    0.939E-01
DAV:  12    -0.230104252977E+02   -0.35552E-04   -0.26691E-01  7304   0.179E+00    0.705E-01
DAV:  13    -0.230197633740E+02   -0.93381E-02   -0.26889E-02  6488   0.617E-01    0.112E+00
DAV:  14    -0.230063765715E+02    0.13387E-01   -0.13629E-01  6128   0.154E+00    0.126E-01
DAV:  15    -0.230067974426E+02   -0.42087E-03   -0.66467E-03  7000   0.343E-01    0.610E-02
DAV:  16    -0.230069714436E+02   -0.17400E-03   -0.15254E-03  6088   0.722E-02    0.793E-02
DAV:  17    -0.230069282729E+02    0.43171E-04   -0.56769E-04  6000   0.959E-02    0.864E-03
DAV:  18    -0.230069331620E+02   -0.48891E-05   -0.45428E-05  7456   0.239E-02    0.157E-02
DAV:  19    -0.230069323460E+02    0.81595E-06   -0.38573E-06  6232   0.884E-03    0.116E-02
DAV:  20    -0.230069313976E+02    0.94848E-06   -0.22524E-05  6896   0.186E-02    0.494E-03
DAV:  21    -0.230069312030E+02    0.19452E-06   -0.16888E-06  5192   0.609E-03    0.170E-03
DAV:  22    -0.230069311880E+02    0.15088E-07   -0.34420E-07  3984   0.245E-03
   1 F= -.23006931E+02 E0= -.23005648E+02  d E =-.256547E-02
