 vasp.6.0.8 29Jun18 (build Jun 13 2019 12:54:44) complex

 executed on      IFC18_CrayMPICH date 2021.12.05  14:21:47
 running   64 mpi-ranks, with    1 threads/rank
 distrk:  each k-point on   16 cores,    4 groups
 distr:  one band on NCORES_PER_BAND=   4 cores,    4 groups


--------------------------------------------------------------------------------------------------------


 INCAR:
 POTCAR:    PAW_PBE U 06Sep2000
 POTCAR:    PAW_PBE Bi_d 06Sep2000
 POTCAR:    PAW_PBE Pt 04Feb2005
 POTCAR:    PAW_PBE U 06Sep2000
   VRHFIN =U:  [Xe,5d,4f]
   LEXCH  = PE
   EATOM  =  1405.3058 eV,  103.2871 Ry

   TITEL  = PAW_PBE U 06Sep2000
   LULTRA =        F    use ultrasoft PP ?
   IUNSCR =        1    unscreen: 0-lin 1-nonlin 2-no
   RPACOR =    2.200    partial core radius
   POMASS =  238.029; ZVAL   =   14.000    mass and valenz
   RCORE  =    2.800    outmost cutoff radius
   RWIGS  =    3.000; RWIGS  =    1.588    wigner-seitz radius (au A)
   ENMAX  =  252.502; ENMIN  =  189.376 eV
   RCLOC  =    1.811    cutoff for local pot
   LCOR   =        T    correct aug charges
   LPAW   =        T    paw PP
   EAUG   =  526.410
   DEXC   =    0.000
   RMAX   =    2.863    core radius for proj-oper
   RAUG   =    1.300    factor for augmentation sphere
   RDEP   =    2.950    radius for radial grids
   RDEPT  =    2.270    core radius for aug-charge

   Atomic configuration
   18 entries
     n  l   j            E        occ.
     1  0  0.50   -116038.1941   2.0000
     2  0  0.50    -21694.8835   2.0000
     2  1  1.50    -18009.1553   6.0000
     3  0  0.50     -5481.2929   2.0000
     3  1  1.50     -4458.9283   6.0000
     3  2  2.50     -3575.9978  10.0000
     4  0  0.50     -1400.5351   2.0000
     4  1  1.50     -1066.7807   6.0000
     4  2  2.50      -732.1336  10.0000
     4  3  3.50      -377.4393  14.0000
     5  0  0.50      -314.7366   2.0000
     5  1  1.50      -211.6057   6.0000
     5  2  2.50      -103.2045  10.0000
     6  0  0.50       -50.6026   2.0000
     7  0  0.50        -4.5896   2.0000
     6  1  1.50       -25.2884   6.0000
     6  2  1.50        -3.1039   2.0000
     5  3  2.50        -6.3670   2.0000
   Description
     l       E           TYP  RCUT    TYP  RCUT
     0    -50.6026097     23  2.600
     0     -4.5896371     23  2.600
     1    -25.2883770     23  2.500
     1     27.2116520     23  2.500
     2     -3.1038686     23  2.500
     2      0.8290654     23  2.500
     3     -6.3670133     23  2.800
     3     -7.7275959     23  2.800
  local pseudopotential read in
  partial core-charges read in
  partial kinetic energy density read in
  atomic valenz-charges read in
  non local Contribution for L=           0  read in
    real space projection operators read in
  non local Contribution for L=           0  read in
    real space projection operators read in
  non local Contribution for L=           1  read in
    real space projection operators read in
  non local Contribution for L=           1  read in
    real space projection operators read in
  non local Contribution for L=           2  read in
    real space projection operators read in
  non local Contribution for L=           2  read in
    real space projection operators read in
  non local Contribution for L=           3  read in
    real space projection operators read in
  non local Contribution for L=           3  read in
    real space projection operators read in
    PAW grid and wavefunctions read in

   number of l-projection  operators is LMAX  =           8
   number of lm-projection operators is LMMAX =          32

 POTCAR:    PAW_PBE Bi_d 06Sep2000
   VRHFIN =Bi:
   LEXCH  = PE
   EATOM  =  1959.2045 eV,  143.9975 Ry

   TITEL  = PAW_PBE Bi_d 06Sep2000
   LULTRA =        F    use ultrasoft PP ?
   IUNSCR =        1    unscreen: 0-lin 1-nonlin 2-no
   RPACOR =    2.200    partial core radius
   POMASS =  208.980; ZVAL   =   15.000    mass and valenz
   RCORE  =    2.500    outmost cutoff radius
   RWIGS  =    3.090; RWIGS  =    1.635    wigner-seitz radius (au A)
   ENMAX  =  242.839; ENMIN  =  182.129 eV
   ICORE  =        3    local potential
   LCOR   =        T    correct aug charges
   LPAW   =        T    paw PP
   EAUG   =  442.899
   DEXC   =    0.000
   RMAX   =    2.551    core radius for proj-oper
   RAUG   =    1.300    factor for augmentation sphere
   RDEP   =    2.650    radius for radial grids
   RDEPT  =    2.039    core radius for aug-charge

   Atomic configuration
   16 entries
     n  l   j            E        occ.
     1  0  0.50    -90639.6581   2.0000
     2  0  0.50    -16282.4666   2.0000
     2  1  1.50    -13922.8286   6.0000
     3  0  0.50     -3930.4763   2.0000
     3  1  1.50     -3256.7013   6.0000
     3  2  2.50     -2581.6168  10.0000
     4  0  0.50      -902.2614   2.0000
     4  1  1.50      -681.5915   6.0000
     4  2  2.50      -429.8249  10.0000
     4  3  3.50      -152.6004  14.0000
     5  0  0.50      -157.7156   2.0000
     5  1  1.50       -95.8054   6.0000
     5  2  2.50       -27.0806  10.0000
     6  0  0.50       -14.4732   2.0000
     6  1  1.50        -4.5702   3.0000
     5  3  2.50        -2.7212   0.0000
   Description
     l       E           TYP  RCUT    TYP  RCUT
     2    -27.0805982     23  2.500
     2     -1.3605826     23  2.500
     0    -14.4732271     23  2.500
     0      6.8029130     23  2.500
     1     -4.5701651     23  2.500
     1     13.6058260     23  2.500
     3     -1.3605826      7  2.500
  local pseudopotential read in
  partial core-charges read in
  partial kinetic energy density read in
  atomic valenz-charges read in
  non local Contribution for L=           2  read in
    real space projection operators read in
  non local Contribution for L=           2  read in
    real space projection operators read in
  non local Contribution for L=           0  read in
    real space projection operators read in
  non local Contribution for L=           0  read in
    real space projection operators read in
  non local Contribution for L=           1  read in
    real space projection operators read in
  non local Contribution for L=           1  read in
    real space projection operators read in
    PAW grid and wavefunctions read in

   number of l-projection  operators is LMAX  =           6
   number of lm-projection operators is LMMAX =          18

 POTCAR:    PAW_PBE Pt 04Feb2005
   VRHFIN =Pt: s1d9
   LEXCH  = PE
   EATOM  =   729.1176 eV,   53.5886 Ry

   TITEL  = PAW_PBE Pt 04Feb2005
   LULTRA =        F    use ultrasoft PP ?
   IUNSCR =        1    unscreen: 0-lin 1-nonlin 2-no
   RPACOR =    2.330    partial core radius
   POMASS =  195.080; ZVAL   =   10.000    mass and valenz
   RCORE  =    2.600    outmost cutoff radius
   RWIGS  =    2.750; RWIGS  =    1.455    wigner-seitz radius (au A)
   ENMAX  =  230.283; ENMIN  =  172.712 eV
   ICORE  =        3    local potential
   LCOR   =        T    correct aug charges
   LPAW   =        T    paw PP
   EAUG   =  358.966
   DEXC   =    0.000
   RMAX   =    2.658    core radius for proj-oper
   RAUG   =    1.300    factor for augmentation sphere
   RDEP   =    2.761    radius for radial grids
   RDEPT  =    2.203    core radius for aug-charge

   Atomic configuration
   16 entries
     n  l   j            E        occ.
     1  0  0.50    -78401.1885   2.0000
     2  0  0.50    -13770.7750   2.0000
     2  1  1.50    -11931.0468   6.0000
     3  0  0.50     -3234.7234   2.0000
     3  1  1.50     -2699.2216   6.0000
     3  2  2.50     -2119.5714  10.0000
     4  0  0.50      -695.1528   2.0000
     4  1  1.50      -519.6034   6.0000
     4  2  2.50      -306.6786  10.0000
     4  3  3.50       -70.1041  14.0000
     5  0  0.50      -101.7747   2.0000
     5  1  1.50       -55.9873   6.0000
     5  2  2.50        -6.1423   9.0000
     6  0  0.50        -5.6573   1.0000
     6  1  1.50        -6.8029   0.0000
     5  3  2.50        -1.3606   0.0000
   Description
     l       E           TYP  RCUT    TYP  RCUT
     2     -6.1423404     23  2.500
     2     -7.5029230     23  2.500
     0     -5.6573207     23  2.500
     0      0.7416693     23  2.500
     1     -2.7211652     23  2.600
     1     20.4087390     23  2.600
     3     -1.3605826     23  2.500
  local pseudopotential read in
  partial core-charges read in
  partial kinetic energy density read in
  atomic valenz-charges read in
  non local Contribution for L=           2  read in
    real space projection operators read in
  non local Contribution for L=           2  read in
    real space projection operators read in
  non local Contribution for L=           0  read in
    real space projection operators read in
  non local Contribution for L=           0  read in
    real space projection operators read in
  non local Contribution for L=           1  read in
    real space projection operators read in
  non local Contribution for L=           1  read in
    real space projection operators read in
    PAW grid and wavefunctions read in

   number of l-projection  operators is LMAX  =           6
   number of lm-projection operators is LMMAX =          18

 WARNING: PSMAXN for non-local potential too small
          PSMAXN should be >   13.5545592237991       NTYP=           1

 -----------------------------------------------------------------------------
|                                                                             |
|  ADVICE TO THIS USER RUNNING 'VASP/VAMP'   (HEAR YOUR MASTER'S VOICE ...):  |
|                                                                             |
|      You enforced a specific xc-type in the INCAR file,                     |
|      a different type was found on the POTCAR file                          |
|          I HOPE YOU KNOW, WHAT YOU ARE  DOING                               |
|                                                                             |
 -----------------------------------------------------------------------------

  PAW_PBE U 06Sep2000                   :
 energy of atom  1       EATOM=-1405.3058
 kinetic energy error for atom=    0.0006 (will be added to EATOM!!)
  PAW_PBE Bi_d 06Sep2000                :
 energy of atom  2       EATOM=-1959.2045
 kinetic energy error for atom=    0.0012 (will be added to EATOM!!)
  PAW_PBE Pt 04Feb2005                  :
 energy of atom  3       EATOM= -729.1176
 kinetic energy error for atom=    0.0010 (will be added to EATOM!!)


 POSCAR: U1 Bi1 Pt1
  positions in direct lattice
  No initial velocities read in
 exchange correlation table for  LEXCH =       14
   RHO(1)=    0.500       N(1)  =     2000
   RHO(2)=  100.500       N(2)  =     4000



--------------------------------------------------------------------------------------------------------


 ion  position               nearest neighbor table
   1  0.250  0.250  0.250-   3 3.05   3 3.05   3 3.05   3 3.05   2 3.53   2 3.53   2 3.53   2 3.53
                             2 3.53   2 3.53
   2  0.750  0.750  0.750-   3 3.05   3 3.05   3 3.05   3 3.05   1 3.53   1 3.53   1 3.53   1 3.53
                             1 3.53   1 3.53
   3  0.000  0.000  0.000-   2 3.05   2 3.05   2 3.05   1 3.05   2 3.05   1 3.05   1 3.05   1 3.05


  LATTYP: Found a face centered cubic cell.
 ALAT       =     7.0510392762

  Lattice vectors:

 A1 = (   0.0000000000,   3.5255196381,   3.5255196381)
 A2 = (   3.5255196381,   0.0000000000,   3.5255196381)
 A3 = (   3.5255196381,   3.5255196381,   0.0000000000)


Analysis of symmetry for initial positions (statically):
=====================================================================
 Subroutine PRICEL returns:
 Original cell was already a primitive cell.


 Routine SETGRP: Setting up the symmetry group for a
 face centered cubic supercell.


 Subroutine GETGRP returns: Found 24 space group operations
 (whereof 24 operations were pure point group operations)
 out of a pool of 48 trial point group operations.


The static configuration has the point symmetry T_d .


Analysis of symmetry for dynamics (positions and initial velocities):
=====================================================================
 Subroutine PRICEL returns:
 Original cell was already a primitive cell.


 Routine SETGRP: Setting up the symmetry group for a
 face centered cubic supercell.


 Subroutine GETGRP returns: Found 24 space group operations
 (whereof 24 operations were pure point group operations)
 out of a pool of 48 trial point group operations.


The dynamic configuration has the point symmetry T_d .


 Subroutine INISYM returns: Found 24 space group operations
 (whereof 24 operations are pure point group operations),
 and found     1 'primitive' translations


----------------------------------------------------------------------------------------

                                     Primitive cell

  volume of cell :      87.6394

  direct lattice vectors                    reciprocal lattice vectors
     0.000000000  3.525519638  3.525519638    -0.141823065  0.141823065  0.141823065
     3.525519638  0.000000000  3.525519638     0.141823065 -0.141823065  0.141823065
     3.525519638  3.525519638  0.000000000     0.141823065  0.141823065 -0.141823065

  length of vectors
     4.985837687  4.985837687  4.985837687     0.245644754  0.245644754  0.245644754

  position of ions in fractional coordinates (direct lattice)
     0.250000000  0.250000000  0.250000000
     0.750000000  0.750000000  0.750000000
     0.000000000  0.000000000  0.000000000

  ion indices of the primitive-cell ions
   primitive index   ion index
                 1           1
                 2           2
                 3           3

----------------------------------------------------------------------------------------



 KPOINTS: KPOINTS

Automatic generation of k-mesh.
Space group operators:
 irot       det(A)        alpha          n_x          n_y          n_z        tau_x        tau_y        tau_z
    1     1.000000     0.000000     1.000000     0.000000     0.000000     0.000000     0.000000     0.000000
    2     1.000000   120.000000    -0.577350    -0.577350    -0.577350     0.000000     0.000000     0.000000
    3     1.000000   120.000000     0.577350     0.577350     0.577350     0.000000     0.000000     0.000000
    4    -1.000000    90.000000    -0.000000    -0.000000    -1.000000     0.000000     0.000000     0.000000
    5    -1.000000   180.000000     0.000000     0.707107     0.707107     0.000000     0.000000     0.000000
    6    -1.000000    90.000000    -0.000000     1.000000     0.000000     0.000000     0.000000     0.000000
    7     1.000000   180.000000    -0.000000    -0.000000     1.000000     0.000000     0.000000     0.000000
    8     1.000000   120.000000    -0.577350     0.577350     0.577350     0.000000     0.000000     0.000000
    9     1.000000   120.000000    -0.577350     0.577350    -0.577350     0.000000     0.000000     0.000000
   10    -1.000000    90.000000     0.000000     0.000000     1.000000     0.000000     0.000000     0.000000
   11    -1.000000    90.000000    -1.000000     0.000000    -0.000000     0.000000     0.000000     0.000000
   12    -1.000000   180.000000     0.707107     0.000000     0.707107     0.000000     0.000000     0.000000
   13     1.000000   120.000000     0.577350    -0.577350     0.577350     0.000000     0.000000     0.000000
   14     1.000000   120.000000    -0.577350    -0.577350     0.577350     0.000000     0.000000     0.000000
   15     1.000000   180.000000     1.000000     0.000000     0.000000     0.000000     0.000000     0.000000
   16    -1.000000    90.000000     0.000000    -1.000000     0.000000     0.000000     0.000000     0.000000
   17    -1.000000   180.000000     0.707107     0.707107    -0.000000     0.000000     0.000000     0.000000
   18    -1.000000    90.000000     1.000000     0.000000     0.000000     0.000000     0.000000     0.000000
   19     1.000000   120.000000     0.577350    -0.577350    -0.577350     0.000000     0.000000     0.000000
   20     1.000000   180.000000     0.000000     1.000000     0.000000     0.000000     0.000000     0.000000
   21     1.000000   120.000000     0.577350     0.577350    -0.577350     0.000000     0.000000     0.000000
   22    -1.000000   180.000000     0.000000    -0.707107     0.707107     0.000000     0.000000     0.000000
   23    -1.000000   180.000000     0.707107    -0.707107     0.000000     0.000000     0.000000     0.000000
   24    -1.000000   180.000000    -0.707107     0.000000     0.707107     0.000000     0.000000     0.000000

 Subroutine IBZKPT returns following result:
 ===========================================

 Found     84 irreducible k-points:

 Following reciprocal coordinates:
            Coordinates               Weight
  0.000000  0.000000  0.000000      1.000000
  0.076923 -0.000000  0.000000      8.000000
  0.153846 -0.000000  0.000000      8.000000
  0.230769 -0.000000  0.000000      8.000000
  0.307692 -0.000000  0.000000      8.000000
  0.384615 -0.000000  0.000000      8.000000
  0.461538  0.000000  0.000000      8.000000
  0.076923  0.076923  0.000000      6.000000
  0.153846  0.076923  0.000000     24.000000
  0.230769  0.076923  0.000000     24.000000
  0.307692  0.076923  0.000000     24.000000
  0.384615  0.076923  0.000000     24.000000
  0.461538  0.076923 -0.000000     24.000000
 -0.461538  0.076923  0.000000     24.000000
 -0.384615  0.076923 -0.000000     24.000000
 -0.307692  0.076923 -0.000000     24.000000
 -0.230769  0.076923 -0.000000     24.000000
 -0.153846  0.076923 -0.000000     24.000000
 -0.076923  0.076923 -0.000000     12.000000
  0.153846  0.153846  0.000000      6.000000
  0.230769  0.153846  0.000000     24.000000
  0.307692  0.153846  0.000000     24.000000
  0.384615  0.153846  0.000000     24.000000
  0.461538  0.153846  0.000000     24.000000
 -0.461538  0.153846 -0.000000     24.000000
 -0.384615  0.153846 -0.000000     24.000000
 -0.307692  0.153846  0.000000     24.000000
 -0.230769  0.153846 -0.000000     24.000000
 -0.153846  0.153846 -0.000000     12.000000
  0.230769  0.230769  0.000000      6.000000
  0.307692  0.230769  0.000000     24.000000
  0.384615  0.230769  0.000000     24.000000
  0.461538  0.230769  0.000000     24.000000
 -0.461538  0.230769 -0.000000     24.000000
 -0.384615  0.230769  0.000000     24.000000
 -0.307692  0.230769  0.000000     24.000000
 -0.230769  0.230769 -0.000000     12.000000
  0.307692  0.307692  0.000000      6.000000
  0.384615  0.307692  0.000000     24.000000
  0.461538  0.307692  0.000000     24.000000
 -0.461538  0.307692 -0.000000     24.000000
 -0.384615  0.307692 -0.000000     24.000000
 -0.307692  0.307692 -0.000000     12.000000
  0.384615  0.384615  0.000000      6.000000
  0.461538  0.384615  0.000000     24.000000
 -0.461538  0.384615 -0.000000     24.000000
 -0.384615  0.384615 -0.000000     12.000000
  0.461538  0.461538  0.000000      6.000000
 -0.461538  0.461538  0.000000     12.000000
  0.230769  0.153846  0.076923     24.000000
  0.307692  0.153846  0.076923     48.000000
  0.384615  0.153846  0.076923     48.000000
  0.461538  0.153846  0.076923     48.000000
 -0.461538  0.153846  0.076923     48.000000
  0.307692  0.230769  0.076923     24.000000
  0.384615  0.230769  0.076923     48.000000
  0.461538  0.230769  0.076923     48.000000
 -0.461538  0.230769  0.076923     48.000000
 -0.384615  0.230769  0.076923     48.000000
 -0.307692  0.230769  0.076923     48.000000
 -0.230769  0.230769  0.076923     48.000000
 -0.153846  0.230769  0.076923     24.000000
  0.384615  0.307692  0.076923     24.000000
  0.461538  0.307692  0.076923     48.000000
 -0.461538  0.307692  0.076923     48.000000
 -0.384615  0.307692  0.076923     48.000000
 -0.307692  0.307692  0.076923     48.000000
 -0.230769  0.307692  0.076923     24.000000
  0.461538  0.384615  0.076923     24.000000
 -0.461538  0.384615  0.076923     48.000000
 -0.384615  0.384615  0.076923     48.000000
 -0.307692  0.384615  0.076923     24.000000
 -0.461538  0.461538  0.076923     24.000000
 -0.384615  0.461538  0.076923     24.000000
  0.461538  0.307692  0.153846     24.000000
 -0.461538  0.307692  0.153846     48.000000
 -0.384615  0.307692  0.153846     48.000000
 -0.461538  0.384615  0.153846     24.000000
 -0.384615  0.384615  0.153846     48.000000
 -0.307692  0.384615  0.153846     48.000000
 -0.230769  0.384615  0.153846     24.000000
 -0.384615  0.461538  0.153846     24.000000
 -0.307692  0.461538  0.153846     24.000000
 -0.307692  0.461538  0.230769     24.000000

 Following cartesian coordinates:
            Coordinates               Weight
  0.000000  0.000000  0.000000      1.000000
 -0.011593  0.011593  0.011593      8.000000
 -0.023186  0.023186  0.023186      8.000000
 -0.034779  0.034779  0.034779      8.000000
 -0.046372  0.046372  0.046372      8.000000
 -0.057965  0.057965  0.057965      8.000000
 -0.069558  0.069558  0.069558      8.000000
  0.000000 -0.000000  0.023186      6.000000
 -0.011593  0.011593  0.034779     24.000000
 -0.023186  0.023186  0.046372     24.000000
 -0.034779  0.034779  0.057965     24.000000
 -0.046372  0.046372  0.069558     24.000000
 -0.057965  0.057965  0.081151     24.000000
  0.081151 -0.081151 -0.057965     24.000000
  0.069558 -0.069558 -0.046372     24.000000
  0.057965 -0.057965 -0.034779     24.000000
  0.046372 -0.046372 -0.023186     24.000000
  0.034779 -0.034779 -0.011593     24.000000
  0.023186 -0.023186  0.000000     12.000000
  0.000000  0.000000  0.046372      6.000000
 -0.011593  0.011593  0.057965     24.000000
 -0.023186  0.023186  0.069558     24.000000
 -0.034779  0.034779  0.081151     24.000000
 -0.046372  0.046372  0.092744     24.000000
  0.092744 -0.092744 -0.046372     24.000000
  0.081151 -0.081151 -0.034779     24.000000
  0.069558 -0.069558 -0.023186     24.000000
  0.057965 -0.057965 -0.011593     24.000000
  0.046372 -0.046372 -0.000000     12.000000
 -0.000000  0.000000  0.069558      6.000000
 -0.011593  0.011593  0.081151     24.000000
 -0.023186  0.023186  0.092744     24.000000
 -0.034779  0.034779  0.104337     24.000000
  0.104337 -0.104337 -0.034779     24.000000
  0.092744 -0.092744 -0.023186     24.000000
  0.081151 -0.081151 -0.011593     24.000000
  0.069558 -0.069558  0.000000     12.000000
  0.000000  0.000000  0.092744      6.000000
 -0.011593  0.011593  0.104337     24.000000
 -0.023186  0.023186  0.115930     24.000000
  0.115930 -0.115930 -0.023186     24.000000
  0.104337 -0.104337 -0.011593     24.000000
  0.092744 -0.092744 -0.000000     12.000000
  0.000000  0.000000  0.115930      6.000000
 -0.011593  0.011593  0.127523     24.000000
  0.127523 -0.127523 -0.011593     24.000000
  0.115930 -0.115930 -0.000000     12.000000
  0.000000 -0.000000  0.139116      6.000000
  0.139116 -0.139116 -0.000000     12.000000
 -0.000000  0.023186  0.046372     24.000000
 -0.011593  0.034779  0.057965     48.000000
 -0.023186  0.046372  0.069558     48.000000
 -0.034779  0.057965  0.081151     48.000000
  0.104337 -0.081151 -0.057965     48.000000
  0.000000  0.023186  0.069558     24.000000
 -0.011593  0.034779  0.081151     48.000000
 -0.023186  0.046372  0.092744     48.000000
  0.115930 -0.092744 -0.046372     48.000000
  0.104337 -0.081151 -0.034779     48.000000
  0.092744 -0.069558 -0.023186     48.000000
  0.081151 -0.057965 -0.011593     48.000000
  0.069558 -0.046372  0.000000     24.000000
  0.000000  0.023186  0.092744     24.000000
 -0.011593  0.034779  0.104337     48.000000
  0.127523 -0.104337 -0.034779     48.000000
  0.115930 -0.092744 -0.023186     48.000000
  0.104337 -0.081151 -0.011593     48.000000
  0.092744 -0.069558 -0.000000     24.000000
  0.000000  0.023186  0.115930     24.000000
  0.139116 -0.115930 -0.023186     48.000000
  0.127523 -0.104337 -0.011593     48.000000
  0.115930 -0.092744 -0.000000     24.000000
  0.150709 -0.127523 -0.011593     24.000000
  0.139116 -0.115930 -0.000000     24.000000
  0.000000  0.046372  0.092744     24.000000
  0.139116 -0.092744 -0.046372     48.000000
  0.127523 -0.081151 -0.034779     48.000000
  0.150709 -0.104337 -0.034779     24.000000
  0.139116 -0.092744 -0.023186     48.000000
  0.127523 -0.081151 -0.011593     48.000000
  0.115930 -0.069558  0.000000     24.000000
  0.150709 -0.104337 -0.011593     24.000000
  0.139116 -0.092744 -0.000000     24.000000
  0.150709 -0.081151 -0.011593     24.000000



--------------------------------------------------------------------------------------------------------




 Dimension of arrays:
   k-points           NKPTS =     84   k-points in BZ     NKDIM =     84   number of bands    NBANDS=     24
   number of dos      NEDOS =    301   number of ions     NIONS =      3
   non local maximal  LDIM  =      8   non local SUM 2l+1 LMDIM =     32
   total plane-waves  NPLWV = 110592
   max r-space proj   IRMAX =      1   max aug-charges    IRDMAX= 615851
   dimension x,y,z NGX =    48 NGY =   48 NGZ =   48
   dimension x,y,z NGXF=    96 NGYF=   96 NGZF=   96
   support grid    NGXF=   192 NGYF=  192 NGZF=  192
   ions per type =               1   1   1
   NGX,Y,Z   is equivalent  to a cutoff of  16.00, 16.00, 16.00 a.u.
   NGXF,Y,Z  is equivalent  to a cutoff of  32.01, 32.01, 32.01 a.u.

 SYSTEM =  unknown system
 POSCAR =  U1 Bi1 Pt1

 Startparameter for this run:
   NWRITE =      2    write-flag & timer
   PREC   = acc       normal or accurate (medium, high low for compatibility)
   ISTART =      0    job   : 0-new  1-cont  2-samecut
   ICHARG =      2    charge: 1-file 2-atom 10-const
   ISPIN  =      1    spin polarized calculation?
   LNONCOLLINEAR =      F non collinear calculations
   LSORBIT =      F    spin-orbit coupling
   INIWAV =      1    electr: 0-lowe 1-rand  2-diag
   LASPH  =      F    aspherical Exc in radial PAW
   METAGGA=      F    non-selfconsistent MetaGGA calc.

 Electronic Relaxation 1
   ENCUT  =  700.0 eV  51.45 Ry    7.17 a.u.  10.76 10.76 10.76*2*pi/ulx,y,z
   ENINI  =  700.0     initial cutoff
   ENAUG  =  526.4 eV  augmentation charge cutoff
   NELM   =     60;   NELMIN=  5; NELMDL= -5     # of ELM steps
   EDIFF  = 0.1E-06   stopping-criterion for ELM
   LREAL  =      F    real-space projection
   NLSPLINE    = F    spline interpolate recip. space projectors
   LCOMPAT=      F    compatible to vasp.4.4
   GGA_COMPAT  = T    GGA compatible to vasp.4.4-vasp.4.6
   LMAXPAW     = -100 max onsite density
   LMAXMIX     =    2 max onsite mixed and CHGCAR
   VOSKOWN=      0    Vosko Wilk Nusair interpolation
   ROPT   =    0.00000   0.00000   0.00000
 Ionic relaxation
   EDIFFG = 0.1E-05   stopping-criterion for IOM
   NSW    =      0    number of steps for IOM
   NBLOCK =      1;   KBLOCK =      1    inner block; outer block
   IBRION =     -1    ionic relax: 0-MD 1-quasi-New 2-CG
   NFREE  =      0    steps in history (QN), initial steepest desc. (CG)
   ISIF   =      3    stress and relaxation
   IWAVPR =     10    prediction:  0-non 1-charg 2-wave 3-comb
   ISYM   =      2    0-nonsym 1-usesym 2-fastsym
   LCORR  =      T    Harris-Foulkes like correction to forces

   POTIM  = 0.5000    time-step for ionic-motion
   TEIN   =    0.0    initial temperature
   TEBEG  =    0.0;   TEEND  =   0.0 temperature during run
   SMASS  =  -3.00    Nose mass-parameter (am)
   estimated Nose-frequenzy (Omega)   =  0.10E-29 period in steps = 0.13E+47 mass=  -0.568E-27a.u.
   SCALEE = 1.0000    scale energy and forces
   NPACO  =    256;   APACO  = 16.0  distance and # of slots for P.C.
   PSTRESS=    0.0 pullay stress

  Mass of Ions in am
   POMASS = 238.03208.98195.08
  Ionic Valenz
   ZVAL   =  14.00 15.00 10.00
  Atomic Wigner-Seitz radii
   RWIGS  =  -1.00 -1.00 -1.00
  virtual crystal weights
   VCA    =   1.00  1.00  1.00
   NELECT =      39.0000    total number of electrons
   NUPDOWN=      -1.0000    fix difference up-down

 DOS related values:
   EMIN   =  10.00;   EMAX   =-10.00  energy-range for DOS
   EFERMI =   0.00
   ISMEAR =     0;   SIGMA  =   0.01  broadening in eV -4-tet -1-fermi 0-gaus

 Electronic relaxation 2 (details)
   IALGO  =     38    algorithm
   LDIAG  =      T    sub-space diagonalisation (order eigenvalues)
   LSUBROT=      F    optimize rotation matrix (better conditioning)
   TURBO    =      0    0=normal 1=particle mesh
   IRESTART =      0    0=no restart 2=restart with 2 vectors
   NREBOOT  =      0    no. of reboots
   NMIN     =      0    reboot dimension
   EREF     =   0.00    reference energy to select bands
   IMIX   =      4    mixing-type and parameters
     AMIX     =   0.40;   BMIX     =  1.00
     AMIX_MAG =   1.60;   BMIX_MAG =  1.00
     AMIN     =   0.10
     WC   =   100.;   INIMIX=   1;  MIXPRE=   1;  MAXMIX= -45

 Intra band minimization:
   WEIMIN = 0.0000     energy-eigenvalue tresh-hold
   EBREAK =  0.10E-08  absolut break condition
   DEPER  =   0.30     relativ break condition

   TIME   =   0.40     timestep for ELM

  volume/ion in A,a.u.               =      29.21       197.14
  Fermi-wavevector in a.u.,A,eV,Ry     =   1.249865  2.361903 21.254523  1.562163
  Thomas-Fermi vector in A             =   2.383886

 Write flags
   LWAVE        =      F    write WAVECAR
   LDOWNSAMPLE  =      F    k-point downsampling of WAVECAR
   LCHARG       =      F    write CHGCAR
   LVTOT        =      F    write LOCPOT, total local potential
   LVHAR        =      F    write LOCPOT, Hartree potential only
   LELF         =      F    write electronic localiz. function (ELF)
   LORBIT       =      0    0 simple, 1 ext, 2 COOP (PROOUT), +10 PAW based schemes


 Dipole corrections
   LMONO  =      F    monopole corrections only (constant potential shift)
   LDIPOL =      F    correct potential (dipole corrections)
   IDIPOL =      0    1-x, 2-y, 3-z, 4-all directions
   EPSILON=  1.0000000 bulk dielectric constant

 Exchange correlation treatment:
   GGA     =    PS    GGA type
   LEXCH   =    14    internal setting for exchange type
   VOSKOWN=      0    Vosko Wilk Nusair interpolation
   LHFCALC =     F    Hartree Fock is set to
   LHFONE  =     F    Hartree Fock one center treatment
   AEXX    =    0.0000 exact exchange contribution

 Linear response parameters
   LEPSILON=     F    determine dielectric tensor
   LRPA    =     F    only Hartree local field effects (RPA)
   LNABLA  =     F    use nabla operator in PAW spheres
   LVEL    =     F    velocity operator in full k-point grid
   LINTERFAST=   F  fast interpolation
   KINTER  =     0    interpolate to denser k-point grid
   CSHIFT  =0.1000    complex shift for real part using Kramers Kronig
   OMEGAMAX=  -1.0    maximum frequency
   DEG_THRESHOLD= 0.2000000E-02 threshold for treating states as degnerate
   RTIME   =   -0.100 relaxation time in fs
  (WPLASMAI=    0.000 imaginary part of plasma frequency in eV, 0.658/RTIME)
   DFIELD  = 0.0000000 0.0000000 0.0000000 field for delta impulse in time

 Orbital magnetization related:
   ORBITALMAG=     F  switch on orbital magnetization
   LCHIMAG   =     F  perturbation theory with respect to B field
   DQ        =  0.001000  dq finite difference perturbation B field
   LLRAUG    =     F  two centre corrections for induced B field



--------------------------------------------------------------------------------------------------------


 Static calculation
 charge density and potential will be updated during run
 non-spin polarized calculation
 Variant of blocked Davidson
 Davidson routine will perform the subspace rotation
 perform sub-space diagonalisation
    after iterative eigenvector-optimisation
 modified Broyden-mixing scheme, WC =      100.0
 initial mixing is a Kerker type mixing with AMIX =  0.4000 and BMIX =      1.0000
 Hartree-type preconditioning will be used
 using additional bands            4
 reciprocal scheme for non local part
 use partial core corrections
 calculate Harris-corrections to forces
   (improved forces if not selfconsistent)
 use gradient corrections
 use of overlap-Matrix (Vanderbilt PP)
 Gauss-broadening in eV      SIGMA  =   0.01


--------------------------------------------------------------------------------------------------------


  energy-cutoff  :      700.00
  volume of cell :       87.64
      direct lattice vectors                 reciprocal lattice vectors
     0.000000000  3.525519638  3.525519638    -0.141823065  0.141823065  0.141823065
     3.525519638  0.000000000  3.525519638     0.141823065 -0.141823065  0.141823065
     3.525519638  3.525519638  0.000000000     0.141823065  0.141823065 -0.141823065

  length of vectors
     4.985837687  4.985837687  4.985837687     0.245644754  0.245644754  0.245644754



 k-points in units of 2pi/SCALE and weight: KPOINTS
   0.00000000  0.00000000  0.00000000       0.000
  -0.01159304  0.01159304  0.01159304       0.004
  -0.02318608  0.02318608  0.02318608       0.004
  -0.03477911  0.03477911  0.03477911       0.004
  -0.04637215  0.04637215  0.04637215       0.004
  -0.05796519  0.05796519  0.05796519       0.004
  -0.06955823  0.06955823  0.06955823       0.004
   0.00000000 -0.00000000  0.02318608       0.003
  -0.01159304  0.01159304  0.03477911       0.011
  -0.02318608  0.02318608  0.04637215       0.011
  -0.03477911  0.03477911  0.05796519       0.011
  -0.04637215  0.04637215  0.06955823       0.011
  -0.05796519  0.05796519  0.08115127       0.011
   0.08115127 -0.08115127 -0.05796519       0.011
   0.06955823 -0.06955823 -0.04637215       0.011
   0.05796519 -0.05796519 -0.03477911       0.011
   0.04637215 -0.04637215 -0.02318608       0.011
   0.03477911 -0.03477911 -0.01159304       0.011
   0.02318608 -0.02318608  0.00000000       0.005
   0.00000000  0.00000000  0.04637215       0.003
  -0.01159304  0.01159304  0.05796519       0.011
  -0.02318608  0.02318608  0.06955823       0.011
  -0.03477911  0.03477911  0.08115127       0.011
  -0.04637215  0.04637215  0.09274430       0.011
   0.09274430 -0.09274430 -0.04637215       0.011
   0.08115127 -0.08115127 -0.03477911       0.011
   0.06955823 -0.06955823 -0.02318608       0.011
   0.05796519 -0.05796519 -0.01159304       0.011
   0.04637215 -0.04637215 -0.00000000       0.005
  -0.00000000  0.00000000  0.06955823       0.003
  -0.01159304  0.01159304  0.08115127       0.011
  -0.02318608  0.02318608  0.09274430       0.011
  -0.03477911  0.03477911  0.10433734       0.011
   0.10433734 -0.10433734 -0.03477911       0.011
   0.09274430 -0.09274430 -0.02318608       0.011
   0.08115127 -0.08115127 -0.01159304       0.011
   0.06955823 -0.06955823  0.00000000       0.005
   0.00000000  0.00000000  0.09274430       0.003
  -0.01159304  0.01159304  0.10433734       0.011
  -0.02318608  0.02318608  0.11593038       0.011
   0.11593038 -0.11593038 -0.02318608       0.011
   0.10433734 -0.10433734 -0.01159304       0.011
   0.09274430 -0.09274430 -0.00000000       0.005
   0.00000000  0.00000000  0.11593038       0.003
  -0.01159304  0.01159304  0.12752342       0.011
   0.12752342 -0.12752342 -0.01159304       0.011
   0.11593038 -0.11593038 -0.00000000       0.005
   0.00000000 -0.00000000  0.13911646       0.003
   0.13911646 -0.13911646 -0.00000000       0.005
  -0.00000000  0.02318608  0.04637215       0.011
  -0.01159304  0.03477911  0.05796519       0.022
  -0.02318608  0.04637215  0.06955823       0.022
  -0.03477911  0.05796519  0.08115127       0.022
   0.10433734 -0.08115127 -0.05796519       0.022
   0.00000000  0.02318608  0.06955823       0.011
  -0.01159304  0.03477911  0.08115127       0.022
  -0.02318608  0.04637215  0.09274430       0.022
   0.11593038 -0.09274430 -0.04637215       0.022
   0.10433734 -0.08115127 -0.03477911       0.022
   0.09274430 -0.06955823 -0.02318608       0.022
   0.08115127 -0.05796519 -0.01159304       0.022
   0.06955823 -0.04637215  0.00000000       0.011
   0.00000000  0.02318608  0.09274430       0.011
  -0.01159304  0.03477911  0.10433734       0.022
   0.12752342 -0.10433734 -0.03477911       0.022
   0.11593038 -0.09274430 -0.02318608       0.022
   0.10433734 -0.08115127 -0.01159304       0.022
   0.09274430 -0.06955823 -0.00000000       0.011
   0.00000000  0.02318608  0.11593038       0.011
   0.13911646 -0.11593038 -0.02318608       0.022
   0.12752342 -0.10433734 -0.01159304       0.022
   0.11593038 -0.09274430 -0.00000000       0.011
   0.15070950 -0.12752342 -0.01159304       0.011
   0.13911646 -0.11593038 -0.00000000       0.011
   0.00000000  0.04637215  0.09274430       0.011
   0.13911646 -0.09274430 -0.04637215       0.022
   0.12752342 -0.08115127 -0.03477911       0.022
   0.15070950 -0.10433734 -0.03477911       0.011
   0.13911646 -0.09274430 -0.02318608       0.022
   0.12752342 -0.08115127 -0.01159304       0.022
   0.11593038 -0.06955823  0.00000000       0.011
   0.15070950 -0.10433734 -0.01159304       0.011
   0.13911646 -0.09274430 -0.00000000       0.011
   0.15070950 -0.08115127 -0.01159304       0.011

 k-points in reciprocal lattice and weights: KPOINTS
   0.00000000  0.00000000  0.00000000       0.000
   0.07692308 -0.00000000  0.00000000       0.004
   0.15384615 -0.00000000  0.00000000       0.004
   0.23076923 -0.00000000  0.00000000       0.004
   0.30769231 -0.00000000  0.00000000       0.004
   0.38461538 -0.00000000  0.00000000       0.004
   0.46153846  0.00000000  0.00000000       0.004
   0.07692308  0.07692308  0.00000000       0.003
   0.15384615  0.07692308  0.00000000       0.011
   0.23076923  0.07692308  0.00000000       0.011
   0.30769231  0.07692308  0.00000000       0.011
   0.38461538  0.07692308  0.00000000       0.011
   0.46153846  0.07692308 -0.00000000       0.011
  -0.46153846  0.07692308  0.00000000       0.011
  -0.38461538  0.07692308 -0.00000000       0.011
  -0.30769231  0.07692308 -0.00000000       0.011
  -0.23076923  0.07692308 -0.00000000       0.011
  -0.15384615  0.07692308 -0.00000000       0.011
  -0.07692308  0.07692308 -0.00000000       0.005
   0.15384615  0.15384615  0.00000000       0.003
   0.23076923  0.15384615  0.00000000       0.011
   0.30769231  0.15384615  0.00000000       0.011
   0.38461538  0.15384615  0.00000000       0.011
   0.46153846  0.15384615  0.00000000       0.011
  -0.46153846  0.15384615 -0.00000000       0.011
  -0.38461538  0.15384615 -0.00000000       0.011
  -0.30769231  0.15384615  0.00000000       0.011
  -0.23076923  0.15384615 -0.00000000       0.011
  -0.15384615  0.15384615 -0.00000000       0.005
   0.23076923  0.23076923  0.00000000       0.003
   0.30769231  0.23076923  0.00000000       0.011
   0.38461538  0.23076923  0.00000000       0.011
   0.46153846  0.23076923  0.00000000       0.011
  -0.46153846  0.23076923 -0.00000000       0.011
  -0.38461538  0.23076923  0.00000000       0.011
  -0.30769231  0.23076923  0.00000000       0.011
  -0.23076923  0.23076923 -0.00000000       0.005
   0.30769231  0.30769231  0.00000000       0.003
   0.38461538  0.30769231  0.00000000       0.011
   0.46153846  0.30769231  0.00000000       0.011
  -0.46153846  0.30769231 -0.00000000       0.011
  -0.38461538  0.30769231 -0.00000000       0.011
  -0.30769231  0.30769231 -0.00000000       0.005
   0.38461538  0.38461538  0.00000000       0.003
   0.46153846  0.38461538  0.00000000       0.011
  -0.46153846  0.38461538 -0.00000000       0.011
  -0.38461538  0.38461538 -0.00000000       0.005
   0.46153846  0.46153846  0.00000000       0.003
  -0.46153846  0.46153846  0.00000000       0.005
   0.23076923  0.15384615  0.07692308       0.011
   0.30769231  0.15384615  0.07692308       0.022
   0.38461538  0.15384615  0.07692308       0.022
   0.46153846  0.15384615  0.07692308       0.022
  -0.46153846  0.15384615  0.07692308       0.022
   0.30769231  0.23076923  0.07692308       0.011
   0.38461538  0.23076923  0.07692308       0.022
   0.46153846  0.23076923  0.07692308       0.022
  -0.46153846  0.23076923  0.07692308       0.022
  -0.38461538  0.23076923  0.07692308       0.022
  -0.30769231  0.23076923  0.07692308       0.022
  -0.23076923  0.23076923  0.07692308       0.022
  -0.15384615  0.23076923  0.07692308       0.011
   0.38461538  0.30769231  0.07692308       0.011
   0.46153846  0.30769231  0.07692308       0.022
  -0.46153846  0.30769231  0.07692308       0.022
  -0.38461538  0.30769231  0.07692308       0.022
  -0.30769231  0.30769231  0.07692308       0.022
  -0.23076923  0.30769231  0.07692308       0.011
   0.46153846  0.38461538  0.07692308       0.011
  -0.46153846  0.38461538  0.07692308       0.022
  -0.38461538  0.38461538  0.07692308       0.022
  -0.30769231  0.38461538  0.07692308       0.011
  -0.46153846  0.46153846  0.07692308       0.011
  -0.38461538  0.46153846  0.07692308       0.011
   0.46153846  0.30769231  0.15384615       0.011
  -0.46153846  0.30769231  0.15384615       0.022
  -0.38461538  0.30769231  0.15384615       0.022
  -0.46153846  0.38461538  0.15384615       0.011
  -0.38461538  0.38461538  0.15384615       0.022
  -0.30769231  0.38461538  0.15384615       0.022
  -0.23076923  0.38461538  0.15384615       0.011
  -0.38461538  0.46153846  0.15384615       0.011
  -0.30769231  0.46153846  0.15384615       0.011
  -0.30769231  0.46153846  0.23076923       0.011

 position of ions in fractional coordinates (direct lattice)
   0.25000000  0.25000000  0.25000000
   0.75000000  0.75000000  0.75000000
   0.00000000  0.00000000  0.00000000

 position of ions in cartesian coordinates  (Angst):
   1.76275982  1.76275982  1.76275982
   5.28827946  5.28827946  5.28827946
   0.00000000  0.00000000  0.00000000



--------------------------------------------------------------------------------------------------------


 k-point  1 :   0.0000 0.0000 0.0000  plane waves:    3695
 k-point  2 :   0.0769-0.0000 0.0000  plane waves:    3701
 k-point  3 :   0.1538-0.0000 0.0000  plane waves:    3689
 k-point  4 :   0.2308-0.0000 0.0000  plane waves:    3684
 k-point  5 :   0.3077-0.0000 0.0000  plane waves:    3687
 k-point  6 :   0.3846-0.0000 0.0000  plane waves:    3687
 k-point  7 :   0.4615 0.0000 0.0000  plane waves:    3690
 k-point  8 :   0.0769 0.0769 0.0000  plane waves:    3703
 k-point  9 :   0.1538 0.0769 0.0000  plane waves:    3681
 k-point 10 :   0.2308 0.0769 0.0000  plane waves:    3681
 k-point 11 :   0.3077 0.0769 0.0000  plane waves:    3689
 k-point 12 :   0.3846 0.0769 0.0000  plane waves:    3688
 k-point 13 :   0.4615 0.0769-0.0000  plane waves:    3693
 k-point 14 :  -0.4615 0.0769 0.0000  plane waves:    3691
 k-point 15 :  -0.3846 0.0769-0.0000  plane waves:    3691
 k-point 16 :  -0.3077 0.0769-0.0000  plane waves:    3690
 k-point 17 :  -0.2308 0.0769-0.0000  plane waves:    3686
 k-point 18 :  -0.1538 0.0769-0.0000  plane waves:    3686
 k-point 19 :  -0.0769 0.0769-0.0000  plane waves:    3707
 k-point 20 :   0.1538 0.1538 0.0000  plane waves:    3667
 k-point 21 :   0.2308 0.1538 0.0000  plane waves:    3675
 k-point 22 :   0.3077 0.1538 0.0000  plane waves:    3691
 k-point 23 :   0.3846 0.1538 0.0000  plane waves:    3684
 k-point 24 :   0.4615 0.1538 0.0000  plane waves:    3700
 k-point 25 :  -0.4615 0.1538-0.0000  plane waves:    3683
 k-point 26 :  -0.3846 0.1538-0.0000  plane waves:    3679
 k-point 27 :  -0.3077 0.1538 0.0000  plane waves:    3687
 k-point 28 :  -0.2308 0.1538-0.0000  plane waves:    3687
 k-point 29 :  -0.1538 0.1538-0.0000  plane waves:    3689
 k-point 30 :   0.2308 0.2308 0.0000  plane waves:    3667
 k-point 31 :   0.3077 0.2308 0.0000  plane waves:    3668
 k-point 32 :   0.3846 0.2308 0.0000  plane waves:    3679
 k-point 33 :   0.4615 0.2308 0.0000  plane waves:    3685
 k-point 34 :  -0.4615 0.2308-0.0000  plane waves:    3680
 k-point 35 :  -0.3846 0.2308 0.0000  plane waves:    3682
 k-point 36 :  -0.3077 0.2308 0.0000  plane waves:    3694
 k-point 37 :  -0.2308 0.2308-0.0000  plane waves:    3685
 k-point 38 :   0.3077 0.3077 0.0000  plane waves:    3671
 k-point 39 :   0.3846 0.3077 0.0000  plane waves:    3691
 k-point 40 :   0.4615 0.3077 0.0000  plane waves:    3687
 k-point 41 :  -0.4615 0.3077-0.0000  plane waves:    3690
 k-point 42 :  -0.3846 0.3077-0.0000  plane waves:    3688
 k-point 43 :  -0.3077 0.3077-0.0000  plane waves:    3679
 k-point 44 :   0.3846 0.3846 0.0000  plane waves:    3679
 k-point 45 :   0.4615 0.3846 0.0000  plane waves:    3682
 k-point 46 :  -0.4615 0.3846-0.0000  plane waves:    3689
 k-point 47 :  -0.3846 0.3846-0.0000  plane waves:    3702
 k-point 48 :   0.4615 0.4615 0.0000  plane waves:    3676
 k-point 49 :  -0.4615 0.4615 0.0000  plane waves:    3686
 k-point 50 :   0.2308 0.1538 0.0769  plane waves:    3682
 k-point 51 :   0.3077 0.1538 0.0769  plane waves:    3688
 k-point 52 :   0.3846 0.1538 0.0769  plane waves:    3685
 k-point 53 :   0.4615 0.1538 0.0769  plane waves:    3701
 k-point 54 :  -0.4615 0.1538 0.0769  plane waves:    3693
 k-point 55 :   0.3077 0.2308 0.0769  plane waves:    3675
 k-point 56 :   0.3846 0.2308 0.0769  plane waves:    3680
 k-point 57 :   0.4615 0.2308 0.0769  plane waves:    3683
 k-point 58 :  -0.4615 0.2308 0.0769  plane waves:    3673
 k-point 59 :  -0.3846 0.2308 0.0769  plane waves:    3686
 k-point 60 :  -0.3077 0.2308 0.0769  plane waves:    3682
 k-point 61 :  -0.2308 0.2308 0.0769  plane waves:    3685
 k-point 62 :  -0.1538 0.2308 0.0769  plane waves:    3681
 k-point 63 :   0.3846 0.3077 0.0769  plane waves:    3667
 k-point 64 :   0.4615 0.3077 0.0769  plane waves:    3683
 k-point 65 :  -0.4615 0.3077 0.0769  plane waves:    3671
 k-point 66 :  -0.3846 0.3077 0.0769  plane waves:    3683
 k-point 67 :  -0.3077 0.3077 0.0769  plane waves:    3682
 k-point 68 :  -0.2308 0.3077 0.0769  plane waves:    3692
 k-point 69 :   0.4615 0.3846 0.0769  plane waves:    3688
 k-point 70 :  -0.4615 0.3846 0.0769  plane waves:    3685
 k-point 71 :  -0.3846 0.3846 0.0769  plane waves:    3694
 k-point 72 :  -0.3077 0.3846 0.0769  plane waves:    3696
 k-point 73 :  -0.4615 0.4615 0.0769  plane waves:    3702
 k-point 74 :  -0.3846 0.4615 0.0769  plane waves:    3687
 k-point 75 :   0.4615 0.3077 0.1538  plane waves:    3686
 k-point 76 :  -0.4615 0.3077 0.1538  plane waves:    3676
 k-point 77 :  -0.3846 0.3077 0.1538  plane waves:    3676
 k-point 78 :  -0.4615 0.3846 0.1538  plane waves:    3695
 k-point 79 :  -0.3846 0.3846 0.1538  plane waves:    3690
 k-point 80 :  -0.3077 0.3846 0.1538  plane waves:    3689
 k-point 81 :  -0.2308 0.3846 0.1538  plane waves:    3681
 k-point 82 :  -0.3846 0.4615 0.1538  plane waves:    3694
 k-point 83 :  -0.3077 0.4615 0.1538  plane waves:    3693
 k-point 84 :  -0.3077 0.4615 0.2308  plane waves:    3687

 maximum and minimum number of plane-waves per node :       942      903

 maximum number of plane-waves:      3707
 maximum index in each direction:
   IXMAX=   11   IYMAX=   10   IZMAX=   10
   IXMIN=  -11   IYMIN=  -11   IZMIN=  -10


 parallel 3D FFT for wavefunctions:
    minimum data exchange during FFTs selected (reduces bandwidth)
 parallel 3D FFT for charge:
    minimum data exchange during FFTs selected (reduces bandwidth)


 total amount of memory used by VASP MPI-rank0   111652. kBytes
=======================================================================

   base      :      30000. kBytes
   nonl-proj :      60169. kBytes
   fftplans  :       8952. kBytes
   grid      :       4709. kBytes
   one-center:         49. kBytes
   wavefun   :       7773. kBytes

     INWAV:  cpu time    0.0002: real time    0.0005
 Broyden mixing: mesh for mixing (old mesh)
   NGX = 21   NGY = 21   NGZ = 21
  (NGX  = 96   NGY  = 96   NGZ  = 96)
  gives a total of   9261 points

 initial charge density was supplied:
 charge density of overlapping atoms calculated
 number of electron      39.0000000 magnetization
 keeping initial charge density in first step


--------------------------------------------------------------------------------------------------------


 Maximum index for augmentation-charges        37647 (set IRDMAX)


--------------------------------------------------------------------------------------------------------


 First call to EWALD:  gamma=   0.399
 Maximum number of real-space cells 3x 3x 3
 Maximum number of reciprocal cells 3x 3x 3

    FEWALD:  cpu time    0.0056: real time    0.0060


--------------------------------------- Iteration      1(   1)  ---------------------------------------


    POTLOK:  cpu time    0.0574: real time    0.1356
    SETDIJ:  cpu time    0.1341: real time    0.1347
     EDDAV:  cpu time    1.6930: real time    1.7050
       DOS:  cpu time    0.0043: real time    0.0052
    --------------------------------------------
      LOOP:  cpu time    1.8891: real time    1.9812

 eigenvalue-minimisations  :  4032
 total energy-change (2. order) : 0.4228589E+03  (-0.2202373E+04)
 number of electron      39.0000000 magnetization
 augmentation part       39.0000000 magnetization

 Free energy of the ion-electron system (eV)
  ---------------------------------------------------
  alpha Z        PSCENC =       179.42596762
  Ewald energy   TEWEN  =     -3381.43336684
  -Hartree energ DENC   =      -878.26834848
  -exchange      EXHF   =         0.00000000
  -V(xc)+E(xc)   XCENC  =        88.34728056
  PAW double counting   =      3513.29252893    -3436.88002192
  entropy T*S    EENTRO =        -0.00006497
  eigenvalues    EBANDS =       243.02285152
  atomic energy  EATOM  =      4095.35208632
  Solvation  Ediel_sol  =         0.00000000
  ---------------------------------------------------
  free energy    TOTEN  =       422.85891273 eV

  energy without entropy =      422.85897771  energy(sigma->0) =      422.85894522


--------------------------------------------------------------------------------------------------------




--------------------------------------- Iteration      1(   2)  ---------------------------------------


     EDDAV:  cpu time    1.8920: real time    1.9177
       DOS:  cpu time    0.0032: real time    0.0037
    --------------------------------------------
      LOOP:  cpu time    1.8952: real time    1.9215

 eigenvalue-minimisations  :  4744
 total energy-change (2. order) :-0.3958630E+03  (-0.3890122E+03)
 number of electron      39.0000000 magnetization
 augmentation part       39.0000000 magnetization

 Free energy of the ion-electron system (eV)
  ---------------------------------------------------
  alpha Z        PSCENC =       179.42596762
  Ewald energy   TEWEN  =     -3381.43336684
  -Hartree energ DENC   =      -878.26834848
  -exchange      EXHF   =         0.00000000
  -V(xc)+E(xc)   XCENC  =        88.34728056
  PAW double counting   =      3513.29252893    -3436.88002192
  entropy T*S    EENTRO =        -0.00047336
  eigenvalues    EBANDS =      -152.83972412
  atomic energy  EATOM  =      4095.35208632
  Solvation  Ediel_sol  =         0.00000000
  ---------------------------------------------------
  free energy    TOTEN  =        26.99592871 eV

  energy without entropy =       26.99640206  energy(sigma->0) =       26.99616538


--------------------------------------------------------------------------------------------------------




--------------------------------------- Iteration      1(   3)  ---------------------------------------


     EDDAV:  cpu time    1.9436: real time    1.9773
       DOS:  cpu time    0.0032: real time    0.0035
    --------------------------------------------
      LOOP:  cpu time    1.9468: real time    1.9819

 eigenvalue-minimisations  :  5000
 total energy-change (2. order) :-0.4689540E+02  (-0.4581532E+02)
 number of electron      39.0000000 magnetization
 augmentation part       39.0000000 magnetization

 Free energy of the ion-electron system (eV)
  ---------------------------------------------------
  alpha Z        PSCENC =       179.42596762
  Ewald energy   TEWEN  =     -3381.43336684
  -Hartree energ DENC   =      -878.26834848
  -exchange      EXHF   =         0.00000000
  -V(xc)+E(xc)   XCENC  =        88.34728056
  PAW double counting   =      3513.29252893    -3436.88002192
  entropy T*S    EENTRO =        -0.00130568
  eigenvalues    EBANDS =      -199.73429345
  atomic energy  EATOM  =      4095.35208632
  Solvation  Ediel_sol  =         0.00000000
  ---------------------------------------------------
  free energy    TOTEN  =       -19.89947295 eV

  energy without entropy =      -19.89816726  energy(sigma->0) =      -19.89882010


--------------------------------------------------------------------------------------------------------




--------------------------------------- Iteration      1(   4)  ---------------------------------------


     EDDAV:  cpu time    2.7830: real time    2.8023
       DOS:  cpu time    0.0030: real time    0.0033
    --------------------------------------------
      LOOP:  cpu time    2.7861: real time    2.8046

 eigenvalue-minimisations  :  7776
 total energy-change (2. order) :-0.5097513E+01  (-0.5065436E+01)
 number of electron      39.0000000 magnetization
 augmentation part       39.0000000 magnetization

 Free energy of the ion-electron system (eV)
  ---------------------------------------------------
  alpha Z        PSCENC =       179.42596762
  Ewald energy   TEWEN  =     -3381.43336684
  -Hartree energ DENC   =      -878.26834848
  -exchange      EXHF   =         0.00000000
  -V(xc)+E(xc)   XCENC  =        88.34728056
  PAW double counting   =      3513.29252893    -3436.88002192
  entropy T*S    EENTRO =        -0.00135491
  eigenvalues    EBANDS =      -204.83175750
  atomic energy  EATOM  =      4095.35208632
  Solvation  Ediel_sol  =         0.00000000
  ---------------------------------------------------
  free energy    TOTEN  =       -24.99698623 eV

  energy without entropy =      -24.99563132  energy(sigma->0) =      -24.99630877


--------------------------------------------------------------------------------------------------------




--------------------------------------- Iteration      1(   5)  ---------------------------------------


     EDDAV:  cpu time    2.1179: real time    2.1453
       DOS:  cpu time    0.0030: real time    0.0033
    CHARGE:  cpu time    0.4965: real time    0.4975
    MIXING:  cpu time    0.0076: real time    0.0080
    --------------------------------------------
      LOOP:  cpu time    2.6250: real time    2.6557

 eigenvalue-minimisations  :  5608
 total energy-change (2. order) :-0.1877383E+00  (-0.1873595E+00)
 number of electron      39.0000001 magnetization
 augmentation part        9.2892178 magnetization

 Broyden mixing:
  rms(total) = 0.15372E+01    rms(broyden)= 0.15372E+01
  rms(prec ) = 0.47318E+01
  weight for this iteration     100.00

 Free energy of the ion-electron system (eV)
  ---------------------------------------------------
  alpha Z        PSCENC =       179.42596762
  Ewald energy   TEWEN  =     -3381.43336684
  -Hartree energ DENC   =      -878.26834848
  -exchange      EXHF   =         0.00000000
  -V(xc)+E(xc)   XCENC  =        88.34728056
  PAW double counting   =      3513.29252893    -3436.88002192
  entropy T*S    EENTRO =        -0.00132989
  eigenvalues    EBANDS =      -205.01952085
  atomic energy  EATOM  =      4095.35208632
  Solvation  Ediel_sol  =         0.00000000
  ---------------------------------------------------
  free energy    TOTEN  =       -25.18472455 eV

  energy without entropy =      -25.18339466  energy(sigma->0) =      -25.18405960


--------------------------------------------------------------------------------------------------------




--------------------------------------- Iteration      1(   6)  ---------------------------------------


    POTLOK:  cpu time    0.0488: real time    0.0814
    SETDIJ:  cpu time    0.1257: real time    0.1258
     EDDAV:  cpu time    2.2851: real time    2.2867
       DOS:  cpu time    0.0029: real time    0.0033
    CHARGE:  cpu time    0.4219: real time    0.4250
    MIXING:  cpu time    0.0075: real time    0.0076
    --------------------------------------------
      LOOP:  cpu time    2.8919: real time    2.9303

 eigenvalue-minimisations  :  6040
 total energy-change (2. order) :-0.1233266E+02  (-0.2879723E+02)
 number of electron      39.0000000 magnetization
 augmentation part        7.0502275 magnetization

 Broyden mixing:
  rms(total) = 0.22370E+01    rms(broyden)= 0.22370E+01
  rms(prec ) = 0.64724E+01
  weight for this iteration     100.00

 eigenvalues of (default mixing * dielectric matrix)
  average eigenvalue GAMMA=   0.3876
  0.3876

 Free energy of the ion-electron system (eV)
  ---------------------------------------------------
  alpha Z        PSCENC =       179.42596762
  Ewald energy   TEWEN  =     -3381.43336684
  -Hartree energ DENC   =      -896.34895036
  -exchange      EXHF   =         0.00000000
  -V(xc)+E(xc)   XCENC  =        89.25736395
  PAW double counting   =      3699.38558724    -3621.29027258
  entropy T*S    EENTRO =        -0.00013649
  eigenvalues    EBANDS =      -201.86566153
  atomic energy  EATOM  =      4095.35208632
  Solvation  Ediel_sol  =         0.00000000
  ---------------------------------------------------
  free energy    TOTEN  =       -37.51738266 eV

  energy without entropy =      -37.51724617  energy(sigma->0) =      -37.51731442


--------------------------------------------------------------------------------------------------------




--------------------------------------- Iteration      1(   7)  ---------------------------------------


    POTLOK:  cpu time    0.0469: real time    0.0794
    SETDIJ:  cpu time    0.1209: real time    0.1211
     EDDAV:  cpu time    2.1867: real time    2.1870
       DOS:  cpu time    0.0032: real time    0.0037
    CHARGE:  cpu time    0.3948: real time    0.3950
    MIXING:  cpu time    0.0050: real time    0.0052
    --------------------------------------------
      LOOP:  cpu time    2.7575: real time    2.7910

 eigenvalue-minimisations  :  5768
 total energy-change (2. order) : 0.1222116E+02  (-0.2886642E+01)
 number of electron      39.0000000 magnetization
 augmentation part        7.2431303 magnetization

 Broyden mixing:
  rms(total) = 0.13803E+01    rms(broyden)= 0.13803E+01
  rms(prec ) = 0.41743E+01
  weight for this iteration     100.00

 eigenvalues of (default mixing * dielectric matrix)
  average eigenvalue GAMMA=   0.6912
  0.6912  0.6912

 Free energy of the ion-electron system (eV)
  ---------------------------------------------------
  alpha Z        PSCENC =       179.42596762
  Ewald energy   TEWEN  =     -3381.43336684
  -Hartree energ DENC   =      -879.88705711
  -exchange      EXHF   =         0.00000000
  -V(xc)+E(xc)   XCENC  =        88.50019144
  PAW double counting   =      3757.80102265    -3684.36606631
  entropy T*S    EENTRO =        -0.00030580
  eigenvalues    EBANDS =      -200.68869123
  atomic energy  EATOM  =      4095.35208632
  Solvation  Ediel_sol  =         0.00000000
  ---------------------------------------------------
  free energy    TOTEN  =       -25.29621926 eV

  energy without entropy =      -25.29591346  energy(sigma->0) =      -25.29606636


--------------------------------------------------------------------------------------------------------




--------------------------------------- Iteration      1(   8)  ---------------------------------------


    POTLOK:  cpu time    0.0490: real time    0.0797
    SETDIJ:  cpu time    0.1205: real time    0.1207
     EDDAV:  cpu time    2.2680: real time    2.2683
       DOS:  cpu time    0.0031: real time    0.0034
    CHARGE:  cpu time    0.4039: real time    0.4040
    MIXING:  cpu time    0.0069: real time    0.0075
    --------------------------------------------
      LOOP:  cpu time    2.8515: real time    2.8845

 eigenvalue-minimisations  :  6008
 total energy-change (2. order) : 0.1542741E+01  (-0.4871088E+01)
 number of electron      39.0000001 magnetization
 augmentation part        9.2606154 magnetization

 Broyden mixing:
  rms(total) = 0.87516E+00    rms(broyden)= 0.87516E+00
  rms(prec ) = 0.27104E+01
  weight for this iteration     100.00

 eigenvalues of (default mixing * dielectric matrix)
  average eigenvalue GAMMA=   0.7871
  1.3275  0.5169  0.5169

 Free energy of the ion-electron system (eV)
  ---------------------------------------------------
  alpha Z        PSCENC =       179.42596762
  Ewald energy   TEWEN  =     -3381.43336684
  -Hartree energ DENC   =      -866.01804540
  -exchange      EXHF   =         0.00000000
  -V(xc)+E(xc)   XCENC  =        87.90690664
  PAW double counting   =      3746.72356299    -3676.08316569
  entropy T*S    EENTRO =        -0.00199897
  eigenvalues    EBANDS =      -209.62542485
  atomic energy  EATOM  =      4095.35208632
  Solvation  Ediel_sol  =         0.00000000
  ---------------------------------------------------
  free energy    TOTEN  =       -23.75347818 eV

  energy without entropy =      -23.75147922  energy(sigma->0) =      -23.75247870


--------------------------------------------------------------------------------------------------------




--------------------------------------- Iteration      1(   9)  ---------------------------------------


    POTLOK:  cpu time    0.0468: real time    0.0784
    SETDIJ:  cpu time    0.1209: real time    0.1211
     EDDAV:  cpu time    2.2375: real time    2.2378
       DOS:  cpu time    0.0037: real time    0.0039
    CHARGE:  cpu time    0.4081: real time    0.4082
    MIXING:  cpu time    0.0053: real time    0.0054
    --------------------------------------------
      LOOP:  cpu time    2.8222: real time    2.8531

 eigenvalue-minimisations  :  5968
 total energy-change (2. order) : 0.7375057E+00  (-0.7437260E+00)
 number of electron      39.0000000 magnetization
 augmentation part        8.4016620 magnetization

 Broyden mixing:
  rms(total) = 0.25876E+00    rms(broyden)= 0.25876E+00
  rms(prec ) = 0.64949E+00
  weight for this iteration     100.00

 eigenvalues of (default mixing * dielectric matrix)
  average eigenvalue GAMMA=   0.8268
  1.7123  0.5751  0.5751  0.4448

 Free energy of the ion-electron system (eV)
  ---------------------------------------------------
  alpha Z        PSCENC =       179.42596762
  Ewald energy   TEWEN  =     -3381.43336684
  -Hartree energ DENC   =      -871.13628629
  -exchange      EXHF   =         0.00000000
  -V(xc)+E(xc)   XCENC  =        88.14413860
  PAW double counting   =      3808.86419074    -3738.52709358
  entropy T*S    EENTRO =        -0.00220991
  eigenvalues    EBANDS =      -203.70339916
  atomic energy  EATOM  =      4095.35208632
  Solvation  Ediel_sol  =         0.00000000
  ---------------------------------------------------
  free energy    TOTEN  =       -23.01597250 eV

  energy without entropy =      -23.01376259  energy(sigma->0) =      -23.01486755


--------------------------------------------------------------------------------------------------------




--------------------------------------- Iteration      1(  10)  ---------------------------------------


    POTLOK:  cpu time    0.0551: real time    0.0771
    SETDIJ:  cpu time    0.1207: real time    0.1208
     EDDAV:  cpu time    2.2785: real time    2.2789
       DOS:  cpu time    0.0029: real time    0.0032
    CHARGE:  cpu time    0.4023: real time    0.4025
    MIXING:  cpu time    0.0089: real time    0.0090
    --------------------------------------------
      LOOP:  cpu time    2.8684: real time    2.8910

 eigenvalue-minimisations  :  6144
 total energy-change (2. order) :-0.1263465E+00  (-0.3035239E+00)
 number of electron      39.0000000 magnetization
 augmentation part        7.9011817 magnetization

 Broyden mixing:
  rms(total) = 0.34334E+00    rms(broyden)= 0.34334E+00
  rms(prec ) = 0.10843E+01
  weight for this iteration     100.00

 eigenvalues of (default mixing * dielectric matrix)
  average eigenvalue GAMMA=   0.9388
  1.9009  1.1744  0.5073  0.5073  0.6041

 Free energy of the ion-electron system (eV)
  ---------------------------------------------------
  alpha Z        PSCENC =       179.42596762
  Ewald energy   TEWEN  =     -3381.43336684
  -Hartree energ DENC   =      -872.20656926
  -exchange      EXHF   =         0.00000000
  -V(xc)+E(xc)   XCENC  =        88.21160865
  PAW double counting   =      3874.45834781    -3804.80745127
  entropy T*S    EENTRO =        -0.00150780
  eigenvalues    EBANDS =      -202.14143426
  atomic energy  EATOM  =      4095.35208632
  Solvation  Ediel_sol  =         0.00000000
  ---------------------------------------------------
  free energy    TOTEN  =       -23.14231904 eV

  energy without entropy =      -23.14081124  energy(sigma->0) =      -23.14156514


--------------------------------------------------------------------------------------------------------




--------------------------------------- Iteration      1(  11)  ---------------------------------------


    POTLOK:  cpu time    0.0534: real time    0.0731
    SETDIJ:  cpu time    0.1225: real time    0.1227
     EDDAV:  cpu time    2.2086: real time    2.2089
       DOS:  cpu time    0.0032: real time    0.0038
    CHARGE:  cpu time    0.4073: real time    0.4077
    MIXING:  cpu time    0.0057: real time    0.0057
    --------------------------------------------
      LOOP:  cpu time    2.8007: real time    2.8241

 eigenvalue-minimisations  :  5904
 total energy-change (2. order) : 0.1319293E+00  (-0.7884316E-01)
 number of electron      39.0000000 magnetization
 augmentation part        8.1619150 magnetization

 Broyden mixing:
  rms(total) = 0.93883E-01    rms(broyden)= 0.93883E-01
  rms(prec ) = 0.29388E+00
  weight for this iteration     100.00

 eigenvalues of (default mixing * dielectric matrix)
  average eigenvalue GAMMA=   0.9929
  1.8005  1.8005  0.5160  0.5160  0.6621  0.6621

 Free energy of the ion-electron system (eV)
  ---------------------------------------------------
  alpha Z        PSCENC =       179.42596762
  Ewald energy   TEWEN  =     -3381.43336684
  -Hartree energ DENC   =      -870.23808229
  -exchange      EXHF   =         0.00000000
  -V(xc)+E(xc)   XCENC  =        88.13062766
  PAW double counting   =      3869.17425877    -3799.83408734
  entropy T*S    EENTRO =        -0.00234505
  eigenvalues    EBANDS =      -203.58544859
  atomic energy  EATOM  =      4095.35208632
  Solvation  Ediel_sol  =         0.00000000
  ---------------------------------------------------
  free energy    TOTEN  =       -23.01038975 eV

  energy without entropy =      -23.00804469  energy(sigma->0) =      -23.00921722


--------------------------------------------------------------------------------------------------------




--------------------------------------- Iteration      1(  12)  ---------------------------------------


    POTLOK:  cpu time    0.0547: real time    0.0776
    SETDIJ:  cpu time    0.1219: real time    0.1220
     EDDAV:  cpu time    2.6214: real time    2.6218
       DOS:  cpu time    0.0031: real time    0.0035
    CHARGE:  cpu time    0.4094: real time    0.4095
    MIXING:  cpu time    0.0078: real time    0.0079
    --------------------------------------------
      LOOP:  cpu time    3.2183: real time    3.2416

 eigenvalue-minimisations  :  7304
 total energy-change (2. order) :-0.3555248E-04  (-0.2669124E-01)
 number of electron      39.0000000 magnetization
 augmentation part        8.3060437 magnetization

 Broyden mixing:
  rms(total) = 0.70517E-01    rms(broyden)= 0.70517E-01
  rms(prec ) = 0.20314E+00
  weight for this iteration     100.00

 eigenvalues of (default mixing * dielectric matrix)
  average eigenvalue GAMMA=   1.1648
  2.3243  2.3243  0.9395  0.9395  0.5146  0.5146  0.5966

 Free energy of the ion-electron system (eV)
  ---------------------------------------------------
  alpha Z        PSCENC =       179.42596762
  Ewald energy   TEWEN  =     -3381.43336684
  -Hartree energ DENC   =      -869.51463560
  -exchange      EXHF   =         0.00000000
  -V(xc)+E(xc)   XCENC  =        88.09828468
  PAW double counting   =      3866.18392577    -3796.96382856
  entropy T*S    EENTRO =        -0.00266603
  eigenvalues    EBANDS =      -204.15619266
  atomic energy  EATOM  =      4095.35208632
  Solvation  Ediel_sol  =         0.00000000
  ---------------------------------------------------
  free energy    TOTEN  =       -23.01042530 eV

  energy without entropy =      -23.00775927  energy(sigma->0) =      -23.00909228


--------------------------------------------------------------------------------------------------------




--------------------------------------- Iteration      1(  13)  ---------------------------------------


    POTLOK:  cpu time    0.0557: real time    0.0900
    SETDIJ:  cpu time    0.1211: real time    0.1212
     EDDAV:  cpu time    2.4021: real time    2.4024
       DOS:  cpu time    0.0033: real time    0.0036
    CHARGE:  cpu time    0.4112: real time    0.4113
    MIXING:  cpu time    0.0058: real time    0.0064
    --------------------------------------------
      LOOP:  cpu time    2.9992: real time    3.0343

 eigenvalue-minimisations  :  6488
 total energy-change (2. order) :-0.9338076E-02  (-0.2688859E-02)
 number of electron      39.0000000 magnetization
 augmentation part        8.3450021 magnetization

 Broyden mixing:
  rms(total) = 0.11234E+00    rms(broyden)= 0.11234E+00
  rms(prec ) = 0.34535E+00
  weight for this iteration     100.00

 eigenvalues of (default mixing * dielectric matrix)
  average eigenvalue GAMMA=   1.1876
  2.2105  2.2105  1.6605  0.5161  0.5161  0.5967  0.8951  0.8951

 Free energy of the ion-electron system (eV)
  ---------------------------------------------------
  alpha Z        PSCENC =       179.42596762
  Ewald energy   TEWEN  =     -3381.43336684
  -Hartree energ DENC   =      -869.60933070
  -exchange      EXHF   =         0.00000000
  -V(xc)+E(xc)   XCENC  =        88.09511932
  PAW double counting   =      3864.29727800    -3795.04192423
  entropy T*S    EENTRO =        -0.00278371
  eigenvalues    EBANDS =      -204.10280916
  atomic energy  EATOM  =      4095.35208632
  Solvation  Ediel_sol  =         0.00000000
  ---------------------------------------------------
  free energy    TOTEN  =       -23.01976337 eV

  energy without entropy =      -23.01697967  energy(sigma->0) =      -23.01837152


--------------------------------------------------------------------------------------------------------




--------------------------------------- Iteration      1(  14)  ---------------------------------------


    POTLOK:  cpu time    0.0498: real time    0.0826
    SETDIJ:  cpu time    0.1207: real time    0.1208
     EDDAV:  cpu time    2.2891: real time    2.2895
       DOS:  cpu time    0.0034: real time    0.0041
    CHARGE:  cpu time    0.4107: real time    0.4109
    MIXING:  cpu time    0.0061: real time    0.0061
    --------------------------------------------
      LOOP:  cpu time    2.8798: real time    2.9127

 eigenvalue-minimisations  :  6128
 total energy-change (2. order) : 0.1338680E-01  (-0.1362901E-01)
 number of electron      39.0000000 magnetization
 augmentation part        8.2333370 magnetization

 Broyden mixing:
  rms(total) = 0.12622E-01    rms(broyden)= 0.12621E-01
  rms(prec ) = 0.39828E-01
  weight for this iteration     100.00

 eigenvalues of (default mixing * dielectric matrix)
  average eigenvalue GAMMA=   1.1576
  2.3742  2.3742  1.2564  1.2564  0.5161  0.5161  0.5896  0.7679  0.7679

 Free energy of the ion-electron system (eV)
  ---------------------------------------------------
  alpha Z        PSCENC =       179.42596762
  Ewald energy   TEWEN  =     -3381.43336684
  -Hartree energ DENC   =      -870.44179931
  -exchange      EXHF   =         0.00000000
  -V(xc)+E(xc)   XCENC  =        88.12713665
  PAW double counting   =      3870.64964422    -3801.26233173
  entropy T*S    EENTRO =        -0.00249393
  eigenvalues    EBANDS =      -203.42121957
  atomic energy  EATOM  =      4095.35208632
  Solvation  Ediel_sol  =         0.00000000
  ---------------------------------------------------
  free energy    TOTEN  =       -23.00637657 eV

  energy without entropy =      -23.00388264  energy(sigma->0) =      -23.00512961


--------------------------------------------------------------------------------------------------------




--------------------------------------- Iteration      1(  15)  ---------------------------------------


    POTLOK:  cpu time    0.0550: real time    0.0790
    SETDIJ:  cpu time    0.1199: real time    0.1200
     EDDAV:  cpu time    2.5522: real time    2.5526
       DOS:  cpu time    0.0033: real time    0.0036
    CHARGE:  cpu time    0.4077: real time    0.4078
    MIXING:  cpu time    0.0063: real time    0.0064
    --------------------------------------------
      LOOP:  cpu time    3.1445: real time    3.1717

 eigenvalue-minimisations  :  7000
 total energy-change (2. order) :-0.4208712E-03  (-0.6646658E-03)
 number of electron      39.0000000 magnetization
 augmentation part        8.2408236 magnetization

 Broyden mixing:
  rms(total) = 0.61020E-02    rms(broyden)= 0.61020E-02
  rms(prec ) = 0.15559E-01
  weight for this iteration     100.00

 eigenvalues of (default mixing * dielectric matrix)
  average eigenvalue GAMMA=   1.1482
  2.8057  2.1053  1.2186  1.2186  0.5160  0.5160  0.9329  0.9329  0.5879  0.6482

 Free energy of the ion-electron system (eV)
  ---------------------------------------------------
  alpha Z        PSCENC =       179.42596762
  Ewald energy   TEWEN  =     -3381.43336684
  -Hartree energ DENC   =      -870.39832768
  -exchange      EXHF   =         0.00000000
  -V(xc)+E(xc)   XCENC  =        88.12524429
  PAW double counting   =      3868.99054942    -3799.56132307
  entropy T*S    EENTRO =        -0.00255873
  eigenvalues    EBANDS =      -203.50506877
  atomic energy  EATOM  =      4095.35208632
  Solvation  Ediel_sol  =         0.00000000
  ---------------------------------------------------
  free energy    TOTEN  =       -23.00679744 eV

  energy without entropy =      -23.00423871  energy(sigma->0) =      -23.00551808


--------------------------------------------------------------------------------------------------------




--------------------------------------- Iteration      1(  16)  ---------------------------------------


    POTLOK:  cpu time    0.0462: real time    0.0794
    SETDIJ:  cpu time    0.1220: real time    0.1221
     EDDAV:  cpu time    2.2773: real time    2.2776
       DOS:  cpu time    0.0033: real time    0.0036
    CHARGE:  cpu time    0.4019: real time    0.4021
    MIXING:  cpu time    0.0144: real time    0.0211
    --------------------------------------------
      LOOP:  cpu time    2.8650: real time    2.9046

 eigenvalue-minimisations  :  6088
 total energy-change (2. order) :-0.1740010E-03  (-0.1525371E-03)
 number of electron      39.0000000 magnetization
 augmentation part        8.2378404 magnetization

 Broyden mixing:
  rms(total) = 0.79323E-02    rms(broyden)= 0.79323E-02
  rms(prec ) = 0.22013E-01
  weight for this iteration     100.00

 eigenvalues of (default mixing * dielectric matrix)
  average eigenvalue GAMMA=   1.1815
  2.6885  2.1255  1.4362  1.4362  0.5160  0.5160  1.0857  1.0857  0.5915  0.7574
  0.7574

 Free energy of the ion-electron system (eV)
  ---------------------------------------------------
  alpha Z        PSCENC =       179.42596762
  Ewald energy   TEWEN  =     -3381.43336684
  -Hartree energ DENC   =      -870.41873148
  -exchange      EXHF   =         0.00000000
  -V(xc)+E(xc)   XCENC  =        88.12633481
  PAW double counting   =      3869.30141304    -3799.87029752
  entropy T*S    EENTRO =        -0.00254776
  eigenvalues    EBANDS =      -203.48782964
  atomic energy  EATOM  =      4095.35208632
  Solvation  Ediel_sol  =         0.00000000
  ---------------------------------------------------
  free energy    TOTEN  =       -23.00697144 eV

  energy without entropy =      -23.00442369  energy(sigma->0) =      -23.00569757


--------------------------------------------------------------------------------------------------------




--------------------------------------- Iteration      1(  17)  ---------------------------------------


    POTLOK:  cpu time    0.0543: real time    0.0759
    SETDIJ:  cpu time    0.1201: real time    0.1209
     EDDAV:  cpu time    2.2406: real time    2.2408
       DOS:  cpu time    0.0034: real time    0.0036
    CHARGE:  cpu time    0.4079: real time    0.4082
    MIXING:  cpu time    0.0067: real time    0.0068
    --------------------------------------------
      LOOP:  cpu time    2.8330: real time    2.8582

 eigenvalue-minimisations  :  6000
 total energy-change (2. order) : 0.4317076E-04  (-0.5676930E-04)
 number of electron      39.0000000 magnetization
 augmentation part        8.2438462 magnetization

 Broyden mixing:
  rms(total) = 0.86425E-03    rms(broyden)= 0.86413E-03
  rms(prec ) = 0.15416E-02
  weight for this iteration     100.00

 eigenvalues of (default mixing * dielectric matrix)
  average eigenvalue GAMMA=   1.2393
  2.7838  2.0972  1.9457  1.5489  1.5489  0.5160  0.5160  0.9796  0.5906  0.8021
  0.8021  0.7411

 Free energy of the ion-electron system (eV)
  ---------------------------------------------------
  alpha Z        PSCENC =       179.42596762
  Ewald energy   TEWEN  =     -3381.43336684
  -Hartree energ DENC   =      -870.33138650
  -exchange      EXHF   =         0.00000000
  -V(xc)+E(xc)   XCENC  =        88.12395953
  PAW double counting   =      3868.72878346    -3799.31589059
  entropy T*S    EENTRO =        -0.00256688
  eigenvalues    EBANDS =      -203.55451439
  atomic energy  EATOM  =      4095.35208632
  Solvation  Ediel_sol  =         0.00000000
  ---------------------------------------------------
  free energy    TOTEN  =       -23.00692827 eV

  energy without entropy =      -23.00436139  energy(sigma->0) =      -23.00564483


--------------------------------------------------------------------------------------------------------




--------------------------------------- Iteration      1(  18)  ---------------------------------------


    POTLOK:  cpu time    0.0464: real time    0.0744
    SETDIJ:  cpu time    0.1212: real time    0.1214
     EDDAV:  cpu time    2.7179: real time    2.7183
       DOS:  cpu time    0.0033: real time    0.0043
    CHARGE:  cpu time    0.4102: real time    0.4104
    MIXING:  cpu time    0.0072: real time    0.0073
    --------------------------------------------
      LOOP:  cpu time    3.3063: real time    3.3347

 eigenvalue-minimisations  :  7456
 total energy-change (2. order) :-0.4889112E-05  (-0.4542751E-05)
 number of electron      39.0000000 magnetization
 augmentation part        8.2444137 magnetization

 Broyden mixing:
  rms(total) = 0.15684E-02    rms(broyden)= 0.15684E-02
  rms(prec ) = 0.44409E-02
  weight for this iteration     100.00

 eigenvalues of (default mixing * dielectric matrix)
  average eigenvalue GAMMA=   1.2701
  2.5775  2.5775  1.5681  1.5681  1.8027  0.5160  0.5160  1.1649  1.1649  0.5910
  0.7778  0.7778  0.9096

 Free energy of the ion-electron system (eV)
  ---------------------------------------------------
  alpha Z        PSCENC =       179.42596762
  Ewald energy   TEWEN  =     -3381.43336684
  -Hartree energ DENC   =      -870.31390619
  -exchange      EXHF   =         0.00000000
  -V(xc)+E(xc)   XCENC  =        88.12356411
  PAW double counting   =      3868.76831112    -3799.35970873
  entropy T*S    EENTRO =        -0.00256549
  eigenvalues    EBANDS =      -203.56731508
  atomic energy  EATOM  =      4095.35208632
  Solvation  Ediel_sol  =         0.00000000
  ---------------------------------------------------
  free energy    TOTEN  =       -23.00693316 eV

  energy without entropy =      -23.00436768  energy(sigma->0) =      -23.00565042


--------------------------------------------------------------------------------------------------------




[...]
  212              fftbas_plan_mpi                       0.098915                     12   6
  213                dfftw_execute                         0.039714                   36   7
  214                map_backward                          0.007098                   12   7
  215                  map_gather                            0.001624                  6   8
  216                  m_alltoallv_z                         0.002801                  6   8
  217                  map_scatter                           0.002320                  6   8
  218                map_forward                           0.048737                   12   7
  219                  map_gather                            0.028867                  6   8
  220                  m_alltoallv_z                         0.008267                  6   8
  221                  map_scatter                           0.011298                  6   8
  222            M_sumb_d                              0.001448                        6   5
  223          M_sumb_d                              0.000031                          1   4
  224        setdij_                               2.043916                           20   3
  225          fft3d_mpi                             0.354251                         40   4
  226            fftbas_plan_mpi                       0.325348                       40   5
  227              dfftw_execute                         0.136070                    120   6
  228              map_backward                          0.022478                     40   6
  229                map_gather                            0.005638                   20   7
  230                m_alltoallv_z                         0.008489                   20   7
  231                map_scatter                           0.007342                   20   7
  232              map_forward                           0.155507                     40   6
  233                map_gather                            0.088456                   20   7
  234                m_alltoallv_z                         0.027669                   20   7
  235                map_scatter                           0.038317                   20   7
  236          M_sumb_d                              0.010712                         20   4
  237        set_dd_magatom                        0.000003                            1   3
  238        set_dd_paw                            0.010725                            1   3
  239          set_rsgf_all                          0.000004                          1   4
  240          M_sumb_d                              0.010573                          8   4
  241        strkin                                0.001466                            1   3
  242          M_sumb_d                              0.000746                          1   4
  243        strelo                                0.003759                            1   3
  244          M_sumb_d                              0.000356                          2   4
  245        strenl                                1.267477                            1   3
  246          spher                                 0.948526                         19   4
  247          phase                                 0.014683                        189   4
  248          proj1                                 0.277071                       1134   4
  249            crexp_mul_wave                        0.035765                     3402   5
  250            M_sumb_d                              0.075204                     1134   5
  251          M_sumb_d                              0.003857                          1   4
  252        M_sumb_d                              0.000227                            6   3
  253        fft3d_mpi                             0.022684                           11   3
  254          fftbas_plan_mpi                       0.020959                         11   4
  255            dfftw_execute                         0.007599                       33   5
  256            map_forward                           0.004409                       10   5
  257              map_gather                            0.001632                      5   6
  258              m_alltoallv_z                         0.001454                      5   6
  259              map_scatter                           0.001078                      5   6
  260            map_backward                          0.006258                       12   5
  261              map_gather                            0.001653                      6   6
  262              m_alltoallv_z                         0.001841                      6   6
  263              map_scatter                           0.002471                      6   6
  264        ggaall_grid                           0.002668                            1   3
  265        forhar                                0.010553                            2   3
  266          M_sumb_d                              0.000469                          2   4
  267        strehar                               0.004104                            1   3
  268          M_sumb_d                              0.000061                          1   4
  269        chggra                                0.009487                            1   3
  270          fft3d_mpi                             0.006089                          3   4
  271            fftbas_plan_mpi                       0.005607                        3   5
  272              dfftw_execute                         0.002110                      9   6
  273              map_backward                          0.001099                      2   6
  274                map_gather                            0.000263                    1   7
  275                m_alltoallv_z                         0.000309                    1   7
  276                map_scatter                           0.000473                    1   7
  277              map_forward                           0.001663                      4   6
  278                map_gather                            0.000608                    2   7
  279                m_alltoallv_z                         0.000538                    2   7
  280                map_scatter                           0.000413                    2   7
  281          M_sumb_d                              0.000120                          3   4
  282        brmix                                 0.012620                            1   3
  283          M_sumb_d                              0.000269                          6   4
  284          brpre                                 0.000054                          1   4
  285          setg0                                 0.002542                          1   4
  286          broyd                                 0.003456                          1   4
  287            M_sumb_d                              0.000864                       24   5
  288            brget                                 0.000475                       94   5
  289            brsav                                 0.000108                       22   5
  290          M_bcast_z                             0.004816                          1   4
  291          M_bcast_d                             0.000058                          1   4
  292        M_bcast_d                             0.000041                            2   3
  293      potlok                                0.040679                              1   2
  294        fft3d_mpi                             0.027086                           13   3
  295          fftbas_plan_mpi                       0.024990                         13   4
  296            dfftw_execute                         0.008871                       39   5
  297            map_forward                           0.006677                       14   5
  298              map_gather                            0.002289                      8   6
  299              m_alltoallv_z                         0.002306                      8   6
  300              map_scatter                           0.001707                      8   6
  301            map_backward                          0.006486                       12   5
  302              map_gather                            0.001691                      6   6
  303              m_alltoallv_z                         0.001910                      6   6
  304              map_scatter                           0.002593                      6   6
  305        ggaall_grid                           0.002699                            1   3
  306        M_sumb_d                              0.000230                            6   3
  307        M_bcast_d                             0.000127                            1   3
  308      potlok_metagga                        0.000003                              1   2
  309      set_dd_magatom                        0.000003                              1   2
  310      set_dd_paw                            0.000467                              1   2
  311        set_rsgf_all                          0.000003                            1   3
  312        M_sumb_d                              0.000256                            8   3
  313      densta                                0.002607                              1   2
  314        M_sumb_d                              0.000941                           44   3
  315      lprj_proall                           0.000008                              1   2

 Flat profile
 ============

             routine name                   CPU           calls
 ---------------------------------------------------------------
 total_time                             13.740414           1
 dfftw_execute                          10.975206       73698
 eddav                                   8.014495          22
 fftbas_plan_mpi                         5.341822       24568
 set_charge                              4.307103          18
 setdij_                                 4.077108          46
 M_sumb_d                                4.039280       66355
 m_alltoallv_z                           3.078403       24603
 pdssyex_zheevx                          2.058327         462
 vhamil                                  1.876815       11020
 M_alltoall_d                            1.799114       80542
 fftwav_mpi                              1.574465       13156
 map_forward                             1.548824       26686
 proj1                                   1.542649        9508
 gemm                                    1.458618       33060
 elmin                                   1.444628           1
 orth1                                   1.420013       16551
 map_gather                              1.291119       24603
 map_scatter                             1.248064       24603
 spher                                   1.053521          20
 vnlac0                                  0.748925       11020
 redis_pw                                0.695426       31254
 M_bcast_z                               0.680050        8073
 hamiltmu                                0.627856        5510
 redis_proj                              0.605893       39523
 w1_copy                                 0.525151       33060
 fft3d_mpi                               0.457823       24566
 eccp                                    0.420784        2772
 work_mul_crexp                          0.414816       33060
 map_backward                            0.408911       22446
 fftext_mpi                              0.392946       11020
 crexp_mul_wave                          0.321434       28524
 pw_charge                               0.310692        2136
 crpa_reader                             0.258202           1
 kinhamil                                0.232071       11020
 overl                                   0.220400       19289
 potlok                                  0.189975          19
 M_bcast_d                               0.182058        5554
 overl1                                  0.134473       11020
 apply_precond                           0.124576        8248
 setup_precond                           0.101687        2772
 w1_projall                              0.092539        4124
 lincom                                  0.087125         483
 soft_charge                             0.063914          18
 force_and_stress                        0.055554           1
 fornl                                   0.054632           1
 ggaall_grid                             0.052995          20
 phase                                   0.052936         694
 truncate_high_frequency_w1              0.047566       13792
 densta                                  0.038409          23
 brmix                                   0.038133          18
 setg0                                   0.035609          19
 broyd                                   0.025954          18
 strenl                                  0.023340           1
 forhar                                  0.010084           2
 depsum                                  0.007733          18
 brgrid                                  0.007432           1
 forloc                                  0.004793           1
 set_dd_paw                              0.004645          20
 brget                                   0.004450         921
 strehar                                 0.004043           1
 strelo                                  0.003403           1
 chggra                                  0.003278           1
 orthch                                  0.002115           1
 choleski                                0.001893          21
 proj                                    0.001633          21
 brsav                                   0.001618         246
 brpre                                   0.001174          18
 strkin                                  0.000720           1
 fordep                                  0.000136           1
 vectorpot                               0.000097          19
 set_rsgf_all                            0.000087          20
 potlok_metagga                          0.000074          19
 set_dd_magatom                          0.000067          20
 set_kineden                             0.000062          17
 rotate_active_occupied_orbital          0.000016           1
 lprj_proall                             0.000008           1
 redis_pw_over_bands                     0.000003           1
 ---------------------------------------------------------------
  summed up times    80.6724069118500

 Accumulative profile
 ====================

             routine name                   CPU           calls
 ---------------------------------------------------------------
 total_time                             80.672407           1
 elmin                                  61.063113           1
 eddav                                  49.514973          22
 fft3d_mpi                              24.278441       24566
 fftbas_plan_mpi                        23.892348       24568
 hamiltmu                               16.256983        5510
 fftwav_mpi                             14.456384       13156
 dfftw_execute                          10.975206       73698
 kinhamil                               10.283633       11020
 fftext_mpi                             10.051561       11020
 set_charge                              7.419307          18
 setdij_                                 4.983179          46
 map_forward                             4.698588       26686
 force_and_stress                        4.559940           1
 M_sumb_d                                4.039280       66355
 vnlac0                                  3.334206       11020
 m_alltoallv_z                           3.078403       24603
 map_backward                            2.876733       22446
 soft_charge                             2.741268          18
 proj1                                   2.525270        9508
 w1_projall                              2.309699        4124
 pdssyex_zheevx                          2.058327         462
 vhamil                                  1.876815       11020
 M_alltoall_d                            1.799114       80542
 redis_pw                                1.741716       31254
 gemm                                    1.458618       33060
 orth1                                   1.420013       16551
 redis_proj                              1.358717       39523
 map_gather                              1.291119       24603
 strenl                                  1.267477           1
 map_scatter                             1.248064       24603
 spher                                   1.053521          20
 potlok                                  0.750126          19
 M_bcast_z                               0.680050        8073
 fordep                                  0.630751           1
 eccp                                    0.591622        2772
 w1_copy                                 0.525151       33060
 work_mul_crexp                          0.414816       33060
 crexp_mul_wave                          0.321434       28524
 pw_charge                               0.310692        2136
 crpa_reader                             0.258202           1
 set_dd_paw                              0.225029          20
 overl                                   0.220400       19289
 M_bcast_d                               0.182058        5554
 setup_precond                           0.166366        2772
 brmix                                   0.141533          18
 overl1                                  0.134473       11020
 apply_precond                           0.124576        8248
 lincom                                  0.087125         483
 fornl                                   0.071802           1
 densta                                  0.056564          23
 ggaall_grid                             0.052995          20
 phase                                   0.052936         694
 truncate_high_frequency_w1              0.047566       13792
 broyd                                   0.042356          18
 setg0                                   0.035609          19
 orthch                                  0.035068           1
 proj                                    0.032673          21
 depsum                                  0.014753          18
 forhar                                  0.010553           2
 chggra                                  0.009487           1
 brgrid                                  0.007432           1
 forloc                                  0.004848           1
 brget                                   0.004450         921
 strehar                                 0.004104           1
 strelo                                  0.003759           1
 choleski                                0.001893          21
 brsav                                   0.001618         246
 strkin                                  0.001466           1
 brpre                                   0.001174          18
 vectorpot                               0.000097          19
 set_rsgf_all                            0.000087          20
 potlok_metagga                          0.000074          19
 set_dd_magatom                          0.000067          20
 set_kineden                             0.000062          17
 rotate_active_occupied_orbital          0.000016           1
 lprj_proall                             0.000008           1
 redis_pw_over_bands                     0.000003           1
 ---------------------------------------------------------------

Profiling took   2.009044  2.355622  0.006624  0.005170 seconds
Profiling took   1.996830 seconds
