<?xml version="1.0" encoding="ISO-8859-1"?>
<modeling>
 <generator>
  <i name="program" type="string">vasp </i>
  <i name="version" type="string">6.0.8  </i>
  <i name="subversion" type="string">29Jun18 (build Jun 13 2019 12:54:44) complex                          parallel </i>
  <i name="platform" type="string">IFC18_CrayMPICH </i>
  <i name="date" type="string">2021 12 05 </i>
  <i name="time" type="string">14:21:47 </i>
 </generator>
 <incar>
  <i type="int" name="KPAR">     4</i>
  <i type="int" name="NPAR">     4</i>
  <i type="int" name="ISTART">     0</i>
  <i type="string" name="PREC"> ACC</i>
  <i type="string" name="ALGO"> Normal</i>
  <i type="logical" name="ADDGRID"> T  </i>
  <i type="int" name="ISPIN">     1</i>
  <i type="int" name="NELMIN">     5</i>
  <i type="int" name="IBRION">    -1</i>
  <i name="EDIFF">      0.00000010</i>
  <i type="int" name="NSW">     0</i>
  <i type="int" name="ISIF">     3</i>
  <i name="ENCUT">    700.00000000</i>
  <i type="logical" name="LREAL"> F  </i>
  <i type="int" name="ISMEAR">     0</i>
  <i name="SIGMA">      0.01000000</i>
  <i type="logical" name="LWAVE"> F  </i>
  <i type="logical" name="LCHARG"> F  </i>
  <i type="logical" name="LVTOT"> F  </i>
  <i type="string" name="ALGO"> Normal</i>
  <i type="string" name="GGA"> PS</i>
  <i name="EDIFF">      0.00000010</i>
  <i type="int" name="ISPIN">     1</i>
 </incar>
 <structure name="primitive_cell" >
  <crystal>
   <varray name="basis" >
    <v>       0.00000000       3.52551964       3.52551964 </v>
    <v>       3.52551964       0.00000000       3.52551964 </v>
    <v>       3.52551964       3.52551964       0.00000000 </v>
   </varray>
   <i name="volume">     87.63940293 </i>
   <varray name="rec_basis" >
    <v>      -0.14182306       0.14182306       0.14182306 </v>
    <v>       0.14182306      -0.14182306       0.14182306 </v>
    <v>       0.14182306       0.14182306      -0.14182306 </v>
   </varray>
  </crystal>
  <varray name="positions" >
   <v>       0.25000000       0.25000000       0.25000000 </v>
   <v>       0.75000000       0.75000000       0.75000000 </v>
   <v>       0.00000000       0.00000000       0.00000000 </v>
  </varray>
 </structure>
 <varray name="primitive_index" >
  <v type="int" >        1 </v>
  <v type="int" >        2 </v>
  <v type="int" >        3 </v>
 </varray>
 <kpoints>
  <generation param="Gamma">
   <v type="int" name="divisions">      13       13       13 </v>
   <v name="usershift">      0.00000000       0.00000000       0.00000000 </v>
   <v name="genvec1">      0.07692308      -0.00000000       0.00000000 </v>
   <v name="genvec2">     -0.00000000       0.07692308      -0.00000000 </v>
   <v name="genvec3">      0.00000000       0.00000000       0.07692308 </v>
   <v name="shift">      0.00000000       0.00000000       0.00000000 </v>
  </generation>
  <varray name="kpointlist" >
   <v>       0.00000000       0.00000000       0.00000000 </v>
   <v>       0.07692308      -0.00000000       0.00000000 </v>
   <v>       0.15384615      -0.00000000       0.00000000 </v>
   <v>       0.23076923      -0.00000000       0.00000000 </v>
   <v>       0.30769231      -0.00000000       0.00000000 </v>
   <v>       0.38461538      -0.00000000       0.00000000 </v>
   <v>       0.46153846       0.00000000       0.00000000 </v>
   <v>       0.07692308       0.07692308       0.00000000 </v>
   <v>       0.15384615       0.07692308       0.00000000 </v>
   <v>       0.23076923       0.07692308       0.00000000 </v>
   <v>       0.30769231       0.07692308       0.00000000 </v>
   <v>       0.38461538       0.07692308       0.00000000 </v>
   <v>       0.46153846       0.07692308      -0.00000000 </v>
   <v>      -0.46153846       0.07692308       0.00000000 </v>
   <v>      -0.38461538       0.07692308      -0.00000000 </v>
   <v>      -0.30769231       0.07692308      -0.00000000 </v>
   <v>      -0.23076923       0.07692308      -0.00000000 </v>
   <v>      -0.15384615       0.07692308      -0.00000000 </v>
   <v>      -0.07692308       0.07692308      -0.00000000 </v>
   <v>       0.15384615       0.15384615       0.00000000 </v>
   <v>       0.23076923       0.15384615       0.00000000 </v>
   <v>       0.30769231       0.15384615       0.00000000 </v>
   <v>       0.38461538       0.15384615       0.00000000 </v>
   <v>       0.46153846       0.15384615       0.00000000 </v>
   <v>      -0.46153846       0.15384615      -0.00000000 </v>
   <v>      -0.38461538       0.15384615      -0.00000000 </v>
   <v>      -0.30769231       0.15384615       0.00000000 </v>
   <v>      -0.23076923       0.15384615      -0.00000000 </v>
   <v>      -0.15384615       0.15384615      -0.00000000 </v>
   <v>       0.23076923       0.23076923       0.00000000 </v>
   <v>       0.30769231       0.23076923       0.00000000 </v>
   <v>       0.38461538       0.23076923       0.00000000 </v>
   <v>       0.46153846       0.23076923       0.00000000 </v>
   <v>      -0.46153846       0.23076923      -0.00000000 </v>
   <v>      -0.38461538       0.23076923       0.00000000 </v>
   <v>      -0.30769231       0.23076923       0.00000000 </v>
   <v>      -0.23076923       0.23076923      -0.00000000 </v>
   <v>       0.30769231       0.30769231       0.00000000 </v>
   <v>       0.38461538       0.30769231       0.00000000 </v>
   <v>       0.46153846       0.30769231       0.00000000 </v>
   <v>      -0.46153846       0.30769231      -0.00000000 </v>
   <v>      -0.38461538       0.30769231      -0.00000000 </v>
   <v>      -0.30769231       0.30769231      -0.00000000 </v>
   <v>       0.38461538       0.38461538       0.00000000 </v>
   <v>       0.46153846       0.38461538       0.00000000 </v>
   <v>      -0.46153846       0.38461538      -0.00000000 </v>
   <v>      -0.38461538       0.38461538      -0.00000000 </v>
   <v>       0.46153846       0.46153846       0.00000000 </v>
   <v>      -0.46153846       0.46153846       0.00000000 </v>
   <v>       0.23076923       0.15384615       0.07692308 </v>
   <v>       0.30769231       0.15384615       0.07692308 </v>
   <v>       0.38461538       0.15384615       0.07692308 </v>
   <v>       0.46153846       0.15384615       0.07692308 </v>
   <v>      -0.46153846       0.15384615       0.07692308 </v>
   <v>       0.30769231       0.23076923       0.07692308 </v>
   <v>       0.38461538       0.23076923       0.07692308 </v>
   <v>       0.46153846       0.23076923       0.07692308 </v>
   <v>      -0.46153846       0.23076923       0.07692308 </v>
   <v>      -0.38461538       0.23076923       0.07692308 </v>
   <v>      -0.30769231       0.23076923       0.07692308 </v>
   <v>      -0.23076923       0.23076923       0.07692308 </v>
   <v>      -0.15384615       0.23076923       0.07692308 </v>
   <v>       0.38461538       0.30769231       0.07692308 </v>
   <v>       0.46153846       0.30769231       0.07692308 </v>
   <v>      -0.46153846       0.30769231       0.07692308 </v>
   <v>      -0.38461538       0.30769231       0.07692308 </v>
   <v>      -0.30769231       0.30769231       0.07692308 </v>
   <v>      -0.23076923       0.30769231       0.07692308 </v>
   <v>       0.46153846       0.38461538       0.07692308 </v>
   <v>      -0.46153846       0.38461538       0.07692308 </v>
   <v>      -0.38461538       0.38461538       0.07692308 </v>
   <v>      -0.30769231       0.38461538       0.07692308 </v>
   <v>      -0.46153846       0.46153846       0.07692308 </v>
   <v>      -0.38461538       0.46153846       0.07692308 </v>
   <v>       0.46153846       0.30769231       0.15384615 </v>
   <v>      -0.46153846       0.30769231       0.15384615 </v>
   <v>      -0.38461538       0.30769231       0.15384615 </v>
   <v>      -0.46153846       0.38461538       0.15384615 </v>
   <v>      -0.38461538       0.38461538       0.15384615 </v>
   <v>      -0.30769231       0.38461538       0.15384615 </v>
   <v>      -0.23076923       0.38461538       0.15384615 </v>
   <v>      -0.38461538       0.46153846       0.15384615 </v>
   <v>      -0.30769231       0.46153846       0.15384615 </v>
   <v>      -0.30769231       0.46153846       0.23076923 </v>
  </varray>
  <varray name="weights" >
   <v>       0.00045517 </v>
   <v>       0.00364133 </v>
   <v>       0.00364133 </v>
   <v>       0.00364133 </v>
   <v>       0.00364133 </v>
   <v>       0.00364133 </v>
   <v>       0.00364133 </v>
   <v>       0.00273100 </v>
   <v>       0.01092399 </v>
   <v>       0.01092399 </v>
   <v>       0.01092399 </v>
   <v>       0.01092399 </v>
   <v>       0.01092399 </v>
   <v>       0.01092399 </v>
   <v>       0.01092399 </v>
   <v>       0.01092399 </v>
   <v>       0.01092399 </v>
   <v>       0.01092399 </v>
   <v>       0.00546199 </v>
   <v>       0.00273100 </v>
   <v>       0.01092399 </v>
   <v>       0.01092399 </v>
   <v>       0.01092399 </v>
   <v>       0.01092399 </v>
   <v>       0.01092399 </v>
   <v>       0.01092399 </v>
   <v>       0.01092399 </v>
   <v>       0.01092399 </v>
   <v>       0.00546199 </v>
   <v>       0.00273100 </v>
   <v>       0.01092399 </v>
   <v>       0.01092399 </v>
   <v>       0.01092399 </v>
   <v>       0.01092399 </v>
   <v>       0.01092399 </v>
   <v>       0.01092399 </v>
   <v>       0.00546199 </v>
   <v>       0.00273100 </v>
   <v>       0.01092399 </v>
   <v>       0.01092399 </v>
   <v>       0.01092399 </v>
   <v>       0.01092399 </v>
   <v>       0.00546199 </v>
   <v>       0.00273100 </v>
   <v>       0.01092399 </v>
   <v>       0.01092399 </v>
   <v>       0.00546199 </v>
   <v>       0.00273100 </v>
   <v>       0.00546199 </v>
   <v>       0.01092399 </v>
   <v>       0.02184797 </v>
   <v>       0.02184797 </v>
   <v>       0.02184797 </v>
   <v>       0.02184797 </v>
   <v>       0.01092399 </v>
   <v>       0.02184797 </v>
   <v>       0.02184797 </v>
   <v>       0.02184797 </v>
   <v>       0.02184797 </v>
   <v>       0.02184797 </v>
   <v>       0.02184797 </v>
   <v>       0.01092399 </v>
   <v>       0.01092399 </v>
   <v>       0.02184797 </v>
   <v>       0.02184797 </v>
   <v>       0.02184797 </v>
   <v>       0.02184797 </v>
   <v>       0.01092399 </v>
   <v>       0.01092399 </v>
   <v>       0.02184797 </v>
   <v>       0.02184797 </v>
   <v>       0.01092399 </v>
   <v>       0.01092399 </v>
   <v>       0.01092399 </v>
   <v>       0.01092399 </v>
   <v>       0.02184797 </v>
   <v>       0.02184797 </v>
   <v>       0.01092399 </v>
   <v>       0.02184797 </v>
   <v>       0.02184797 </v>
   <v>       0.01092399 </v>
   <v>       0.01092399 </v>
   <v>       0.01092399 </v>
   <v>       0.01092399 </v>
  </varray>
 </kpoints>
 <parameters>
  <separator name="general" >
   <i type="string" name="SYSTEM">unknown system</i>
   <i type="logical" name="LCOMPAT"> F  </i>
  </separator>
  <separator name="electronic" >
   <i type="string" name="PREC">acc</i>
   <i name="ENMAX">    700.00000000</i>
   <i name="ENAUG">    526.41000000</i>
   <i name="EDIFF">      0.00000010</i>
   <i type="int" name="IALGO">    38</i>
   <i type="int" name="IWAVPR">    10</i>
   <i type="int" name="NBANDS">    24</i>
   <i type="int" name="NBANDSLOW">    -1</i>
   <i type="int" name="NBANDSHIGH">    -1</i>
   <i name="NELECT">     39.00000000</i>
   <i type="int" name="TURBO">     0</i>
   <i type="int" name="IRESTART">     0</i>
   <i type="int" name="NREBOOT">     0</i>
   <i type="int" name="NMIN">     0</i>
   <i name="EREF">      0.00000000</i>
   <separator name="electronic smearing" >
    <i type="int" name="ISMEAR">     0</i>
    <i name="SIGMA">      0.01000000</i>
    <i name="KSPACING">      0.50000000</i>
    <i type="logical" name="KGAMMA"> T  </i>
    <i type="logical" name="KBLOWUP"> T  </i>
   </separator>
   <separator name="electronic projectors" >
    <i type="logical" name="LREAL"> F  </i>
    <v name="ROPT">      0.00000000      0.00000000      0.00000000</v>
    <i type="int" name="LMAXPAW">  -100</i>
    <i type="int" name="LMAXMIX">     2</i>
    <i type="logical" name="NLSPLINE"> F  </i>
   </separator>
   <separator name="electronic startup" >
    <i type="int" name="ISTART">     0</i>
    <i type="int" name="ICHARG">     2</i>
    <i type="int" name="INIWAV">     1</i>
   </separator>
   <separator name="electronic spin" >
    <i type="int" name="ISPIN">     1</i>
    <i type="logical" name="LNONCOLLINEAR"> F  </i>
    <v name="MAGMOM">      1.00000000      1.00000000      1.00000000</v>
    <i name="NUPDOWN">     -1.00000000</i>
    <i type="logical" name="LSORBIT"> F  </i>
    <v name="SAXIS">      0.00000000      0.00000000      1.00000000</v>
    <i type="logical" name="LSPIRAL"> F  </i>
    <v name="QSPIRAL">      0.00000000      0.00000000      0.00000000</v>
    <i type="logical" name="LZEROZ"> F  </i>
   </separator>
   <separator name="electronic exchange-correlation" >
    <i type="logical" name="LASPH"> F  </i>
    <i type="logical" name="LMETAGGA"> F  </i>
   </separator>
   <separator name="electronic convergence" >
    <i type="int" name="NELM">    60</i>
    <i type="int" name="NELMDL">    -5</i>
    <i type="int" name="NELMIN">     5</i>
    <i name="ENINI">    700.00000000</i>
    <separator name="electronic convergence detail" >
     <i type="logical" name="LDIAG"> T  </i>
     <i type="logical" name="LSUBROT"> F  </i>
     <i name="WEIMIN">      0.00000000</i>
     <i name="EBREAK">      0.00000000</i>
     <i name="DEPER">      0.30000000</i>
     <i type="int" name="NRMM">     4</i>
     <i name="TIME">      0.40000000</i>
    </separator>
   </separator>
   <separator name="electronic mixer" >
    <i name="AMIX">      0.40000000</i>
    <i name="BMIX">      1.00000000</i>
    <i name="AMIN">      0.10000000</i>
    <i name="AMIX_MAG">      1.60000000</i>
    <i name="BMIX_MAG">      1.00000000</i>
    <separator name="electronic mixer details" >
     <i type="int" name="IMIX">     4</i>
     <i type="logical" name="MIXFIRST"> F  </i>
     <i type="int" name="MAXMIX">   -45</i>
     <i name="WC">    100.00000000</i>
     <i type="int" name="INIMIX">     1</i>
     <i type="int" name="MIXPRE">     1</i>
     <i type="int" name="MREMOVE">     5</i>
    </separator>
   </separator>
   <separator name="electronic dipolcorrection" >
    <i type="logical" name="LDIPOL"> F  </i>
    <i type="logical" name="LMONO"> F  </i>
    <i type="int" name="IDIPOL">     0</i>
    <i name="EPSILON">      1.00000000</i>
    <v name="DIPOL">   -100.00000000   -100.00000000   -100.00000000</v>
    <i name="EFIELD">      0.00000000</i>
   </separator>
  </separator>
  <separator name="grids" >
   <i type="int" name="NGX">    48</i>
   <i type="int" name="NGY">    48</i>
   <i type="int" name="NGZ">    48</i>
   <i type="int" name="NGXF">    96</i>
   <i type="int" name="NGYF">    96</i>
   <i type="int" name="NGZF">    96</i>
   <i type="logical" name="ADDGRID"> T  </i>
  </separator>
  <separator name="ionic" >
   <i type="int" name="NSW">     0</i>
   <i type="int" name="IBRION">    -1</i>
   <i type="int" name="MDALGO">     0</i>
   <i type="int" name="ISIF">     3</i>
   <i name="PSTRESS">      0.00000000</i>
   <i name="EDIFFG">      0.00000100</i>
   <i type="int" name="NFREE">     0</i>
   <i name="POTIM">      0.50000000</i>
   <i name="SMASS">     -3.00000000</i>
   <i name="SCALEE">      1.00000000</i>
  </separator>
  <separator name="ionic md" >
   <i name="TEBEG">      0.00010000</i>
   <i name="TEEND">      0.00010000</i>
   <i type="int" name="NBLOCK">     1</i>
   <i type="int" name="KBLOCK">     1</i>
   <i type="int" name="NPACO">   256</i>
   <i name="APACO">     16.00000000</i>
  </separator>
  <separator name="symmetry" >
   <i type="int" name="ISYM">     2</i>
   <i name="SYMPREC">      0.00001000</i>
  </separator>
  <separator name="dos" >
   <i type="int" name="LORBIT">     0</i>
   <v name="RWIGS">     -1.00000000     -1.00000000     -1.00000000</v>
   <i type="int" name="NEDOS">   301</i>
   <i name="EMIN">     10.00000000</i>
   <i name="EMAX">    -10.00000000</i>
   <i name="EFERMI">      0.00000000</i>
  </separator>
  <separator name="writing" >
   <i type="int" name="NWRITE">     2</i>
   <i type="logical" name="LWAVE"> F  </i>
   <i type="logical" name="LDOWNSAMPLE"> F  </i>
   <i type="logical" name="LCHARG"> F  </i>
   <i type="logical" name="LPARD"> F  </i>
   <i type="logical" name="LVTOT"> F  </i>
   <i type="logical" name="LVHAR"> F  </i>
   <i type="logical" name="LELF"> F  </i>
   <i type="logical" name="LOPTICS"> F  </i>
   <v name="STM">      0.00000000      0.00000000      0.00000000      0.00000000      0.00000000      0.00000000      0.00000000</v>
  </separator>
  <separator name="performance" >
   <i type="int" name="NPAR">     4</i>
   <i type="int" name="NSIM">     4</i>
   <i type="int" name="NBLK">    -1</i>
   <i type="logical" name="LPLANE"> T  </i>
   <i type="logical" name="LSCALAPACK"> T  </i>
   <i type="logical" name="LSCAAWARE"> F  </i>
   <i type="logical" name="LSCALU"> F  </i>
   <i type="logical" name="LASYNC"> F  </i>
   <i type="logical" name="LORBITALREAL"> F  </i>
  </separator>
  <separator name="miscellaneous" >
   <i type="int" name="IDIOT">     3</i>
   <i type="int" name="PHON_NSTRUCT">    -1</i>
   <i type="logical" name="LMUSIC"> F  </i>
   <v name="POMASS">    238.02900000    208.98000000    195.08000000</v>
   <v name="DARWINR">      0.00000000      0.00000000      0.00000000</v>
   <v name="DARWINV">      1.00000000      1.00000000      1.00000000</v>
   <i type="logical" name="LCORR"> T  </i>
  </separator>
  <i type="logical" name="GGA_COMPAT"> T  </i>
  <i type="logical" name="LBERRY"> F  </i>
  <i type="int" name="ICORELEVEL">     0</i>
  <i type="logical" name="LDAU"> F  </i>
  <i type="int" name="I_CONSTRAINED_M">     0</i>
  <separator name="electronic exchange-correlation" >
   <i type="string" name="GGA">PS</i>
   <i type="int" name="VOSKOWN">     0</i>
   <i type="logical" name="LHFCALC"> F  </i>
   <i type="string" name="PRECFOCK"></i>
   <i type="logical" name="LSYMGRAD"> F  </i>
   <i type="logical" name="LHFONE"> F  </i>
   <i type="logical" name="LRHFCALC"> F  </i>
   <i type="logical" name="LTHOMAS"> F  </i>
   <i type="logical" name="LMODELHF"> F  </i>
   <i type="logical" name="LFOCKACE"> F  </i>
   <i name="ENCUT4O">     -1.00000000</i>
   <i type="int" name="EXXOEP">     0</i>
   <i type="int" name="FOURORBIT">     0</i>
   <i name="AEXX">      0.00000000</i>
   <i name="HFALPHA">      0.00000000</i>
   <i name="MCALPHA">      0.00000000</i>
   <i name="ALDAX">      1.00000000</i>
   <i name="AGGAX">      1.00000000</i>
   <i name="ALDAC">      1.00000000</i>
   <i name="AGGAC">      1.00000000</i>
   <i type="int" name="NKREDX">     1</i>
   <i type="int" name="NKREDY">     1</i>
   <i type="int" name="NKREDZ">     1</i>
   <i type="logical" name="SHIFTRED"> F  </i>
   <i type="logical" name="ODDONLY"> F  </i>
   <i type="logical" name="EVENONLY"> F  </i>
   <i type="int" name="LMAXFOCK">     0</i>
   <i type="int" name="NMAXFOCKAE">     0</i>
   <i type="logical" name="LFOCKAEDFT"> F  </i>
   <i name="HFSCREEN">      0.00000000</i>
   <i name="HFSCREENC">      0.00000000</i>
   <i type="int" name="NBANDSGWLOW">     0</i>
  </separator>
  <separator name="vdW DFT" >
   <i type="logical" name="LUSE_VDW"> F  </i>
   <i name="Zab_VDW">     -0.84910000</i>
   <i name="PARAM1">      0.12340000</i>
   <i name="PARAM2">      1.00000000</i>
   <i name="PARAM3">      0.00000000</i>
  </separator>
  <separator name="model GW" >
   <i type="int" name="MODEL_GW">     0</i>
   <i name="MODEL_EPS0">     17.52788059</i>
   <i name="MODEL_ALPHA">      1.00000000</i>
  </separator>
  <separator name="linear response parameters" >
   <i type="logical" name="LEPSILON"> F  </i>
   <i type="logical" name="LRPA"> F  </i>
   <i type="logical" name="LNABLA"> F  </i>
   <i type="logical" name="LVEL"> F  </i>
   <i type="int" name="KINTER">     0</i>
   <i name="CSHIFT">      0.10000000</i>
   <i name="OMEGAMAX">     -1.00000000</i>
   <i name="DEG_THRESHOLD">      0.00200000</i>
   <i name="RTIME">     -0.10000000</i>
   <i name="WPLASMAI">      0.00000000</i>
   <v name="DFIELD">      0.00000000      0.00000000      0.00000000</v>
   <v name="WPLASMA">      0.00000000      0.00000000      0.00000000      0.00000000      0.00000000      0.00000000      0.00000000      0.00000000      0.00000000</v>
  </separator>
  <separator name="orbital magnetization" >
   <i type="logical" name="NUCIND"> F  </i>
   <v name="MAGPOS">      0.00000000      0.00000000      0.00000000</v>
   <i type="logical" name="LNICSALL"> T  </i>
   <i type="logical" name="ORBITALMAG"> F  </i>
   <i type="logical" name="LMAGBLOCH"> F  </i>
   <i type="logical" name="LCHIMAG"> F  </i>
   <i type="logical" name="LGAUGE"> T  </i>
   <i type="int" name="MAGATOM">     0</i>
   <v name="MAGDIPOL">      0.00000000      0.00000000      0.00000000</v>
   <v name="AVECCONST">      0.00000000      0.00000000      0.00000000</v>
  </separator>
  <separator name="response functions" >
   <i type="logical" name="LFINITE_TEMPERATURE"> F  </i>
   <i type="logical" name="LADDER"> F  </i>
   <i type="logical" name="LRPAFORCE"> F  </i>
   <i type="logical" name="LFXC"> F  </i>
   <i type="logical" name="LHARTREE"> T  </i>
   <i type="int" name="IBSE">     0</i>
   <v type="int" name="KPOINT">    -1     0     0     0</v>
   <i type="logical" name="LTCTC"> F  </i>
   <i type="logical" name="LTCTE"> F  </i>
   <i type="logical" name="LTETE"> F  </i>
   <i type="logical" name="LTRIPLET"> F  </i>
   <i type="logical" name="LFXCEPS"> F  </i>
   <i type="logical" name="LFXHEG"> F  </i>
   <i type="int" name="NATURALO">     2</i>
   <i type="logical" name="L2ORDER"> F  </i>
   <i type="logical" name="LDMP1"> F  </i>
   <i type="logical" name="LMP2LT"> F  </i>
   <i type="logical" name="LSMP2LT"> F  </i>
   <i type="logical" name="LUSEW"> F  </i>
   <i name="ENCUTGW">     -2.00000000</i>
   <i name="ENCUTGWSOFT">     -2.00000000</i>
   <i name="ENCUTLF">     -1.00000000</i>
   <i type="int" name="LMAXMP2">    -1</i>
   <i name="SCISSOR">      0.00000000</i>
   <i type="int" name="NOMEGA">     0</i>
   <i type="int" name="NOMEGAR">     0</i>
   <i type="int" name="NBANDSGW">    -1</i>
   <i type="int" name="NBANDSO">    -1</i>
   <i type="int" name="NBANDSV">    -1</i>
   <i type="int" name="NELM">     1</i>
   <i type="int" name="NELMHF">     1</i>
   <i type="int" name="DIM">     3</i>
   <i type="int" name="IESPILON">     4</i>
   <i type="int" name="ANTIRES">     0</i>
   <i name="OMEGAMAX">    -30.00000000</i>
   <i name="OMEGAMIN">    -30.00000000</i>
   <i name="OMEGATL">   -200.00000000</i>
   <i type="int" name="OMEGAGRID">   145</i>
   <i name="CSHIFT">     -0.10000000</i>
   <i type="logical" name="LSELFENERGY"> F  </i>
   <i type="logical" name="LSPECTRAL"> F  </i>
   <i type="logical" name="LSPECTRALGW"> F  </i>
   <i type="logical" name="LSINGLES"> F  </i>
   <i type="logical" name="LFERMIGW"> F  </i>
   <i type="logical" name="ODDONLYGW"> F  </i>
   <i type="logical" name="EVENONLYGW"> F  </i>
   <i type="int" name="NKREDLFX">     1</i>
   <i type="int" name="NKREDLFY">     1</i>
   <i type="int" name="NKREDLFZ">     1</i>
   <i type="int" name="MAXMEM">  2800</i>
   <i type="int" name="TELESCOPE">     0</i>
   <i type="int" name="NTAUPAR">     1</i>
   <i type="int" name="NOMEGAPAR">    -1</i>
   <i name="LAMBDA">      1.00000000</i>
  </separator>
  <separator name="External order field" >
   <i name="OFIELD_KAPPA">      0.00000000</i>
   <v name="OFIELD_K">      0.00000000      0.00000000      0.00000000</v>
   <i name="OFIELD_Q6_NEAR">      0.00000000</i>
   <i name="OFIELD_Q6_FAR">      0.00000000</i>
   <i name="OFIELD_A">      0.00000000</i>
  </separator>
 </parameters>
 <atominfo>
  <atoms>       3 </atoms>
  <types>       3 </types>
  <array name="atoms" >
   <dimension dim="1">ion</dimension>
   <field type="string">element</field>
   <field type="int">atomtype</field>
   <set>
    <rc><c>U </c><c>   1</c></rc>
    <rc><c>Bi</c><c>   2</c></rc>
    <rc><c>Pt</c><c>   3</c></rc>
   </set>
  </array>
  <array name="atomtypes" >
   <dimension dim="1">type</dimension>
   <field type="int">atomspertype</field>
   <field type="string">element</field>
   <field>mass</field>
   <field>valence</field>
   <field type="string">pseudopotential</field>
   <set>
    <rc><c>   1</c><c>U </c><c>    238.02900000</c><c>     14.00000000</c><c>  PAW_PBE U 06Sep2000                   </c></rc>
    <rc><c>   1</c><c>Bi</c><c>    208.98000000</c><c>     15.00000000</c><c>  PAW_PBE Bi_d 06Sep2000                </c></rc>
    <rc><c>   1</c><c>Pt</c><c>    195.08000000</c><c>     10.00000000</c><c>  PAW_PBE Pt 04Feb2005                  </c></rc>
   </set>
  </array>
 </atominfo>
 <structure name="initialpos" >
  <crystal>
   <varray name="basis" >
    <v>       0.00000000       3.52551964       3.52551964 </v>
    <v>       3.52551964       0.00000000       3.52551964 </v>
    <v>       3.52551964       3.52551964       0.00000000 </v>
   </varray>
   <i name="volume">     87.63940293 </i>
   <varray name="rec_basis" >
    <v>      -0.14182306       0.14182306       0.14182306 </v>
    <v>       0.14182306      -0.14182306       0.14182306 </v>
    <v>       0.14182306       0.14182306      -0.14182306 </v>
   </varray>
  </crystal>
  <varray name="positions" >
   <v>       0.25000000       0.25000000       0.25000000 </v>
   <v>       0.75000000       0.75000000       0.75000000 </v>
   <v>       0.00000000       0.00000000       0.00000000 </v>
  </varray>
 </structure>
 <calculation>
  <scstep>
   <time name="dav">    1.69    1.70</time>
   <time name="total">    1.89    1.98</time>
   <energy>
    <i name="alphaZ">    179.42596762 </i>
    <i name="ewald">  -3381.43336684 </i>
    <i name="hartreedc">   -878.26834848 </i>
    <i name="XCdc">     88.34728056 </i>
    <i name="pawpsdc">   3513.29252893 </i>
    <i name="pawaedc">  -3436.88002192 </i>
    <i name="eentropy">     -0.00006497 </i>
    <i name="bandstr">    243.02285152 </i>
    <i name="atom">   4095.35208632 </i>
    <i name="e_fr_energy">    422.85891273 </i>
    <i name="e_wo_entrp">    422.85897771 </i>
    <i name="e_0_energy">    422.85894522 </i>
   </energy>
  </scstep>
  <scstep>
   <time name="dav">    1.89    1.92</time>
   <time name="total">    1.90    1.92</time>
   <energy>
    <i name="e_fr_energy">     26.99592871 </i>
    <i name="e_wo_entrp">     26.99640206 </i>
    <i name="e_0_energy">     26.99616538 </i>
   </energy>
  </scstep>
  <scstep>
   <time name="dav">    1.94    1.98</time>
   <time name="total">    1.95    1.98</time>
   <energy>
    <i name="e_fr_energy">    -19.89947295 </i>
    <i name="e_wo_entrp">    -19.89816726 </i>
    <i name="e_0_energy">    -19.89882010 </i>
   </energy>
  </scstep>
  <scstep>
   <time name="dav">    2.78    2.80</time>
   <time name="total">    2.79    2.80</time>
   <energy>
    <i name="e_fr_energy">    -24.99698623 </i>
    <i name="e_wo_entrp">    -24.99563132 </i>
    <i name="e_0_energy">    -24.99630877 </i>
   </energy>
  </scstep>
  <scstep>
   <time name="dav">    2.12    2.15</time>
   <time name="total">    2.63    2.66</time>
   <energy>
    <i name="e_fr_energy">    -25.18472455 </i>
    <i name="e_wo_entrp">    -25.18339466 </i>
    <i name="e_0_energy">    -25.18405960 </i>
   </energy>
  </scstep>
  <scstep>
   <time name="dav">    2.29    2.29</time>
   <time name="total">    2.89    2.93</time>
   <energy>
    <i name="e_fr_energy">    -37.51738266 </i>
    <i name="e_wo_entrp">    -37.51724617 </i>
    <i name="e_0_energy">    -37.51731442 </i>
   </energy>
  </scstep>
  <scstep>
   <time name="dav">    2.19    2.19</time>
   <time name="total">    2.76    2.79</time>
   <energy>
    <i name="e_fr_energy">    -25.29621926 </i>
    <i name="e_wo_entrp">    -25.29591346 </i>
    <i name="e_0_energy">    -25.29606636 </i>
   </energy>
  </scstep>
  <scstep>
   <time name="dav">    2.27    2.27</time>
   <time name="total">    2.85    2.88</time>
   <energy>
    <i name="e_fr_energy">    -23.75347818 </i>
    <i name="e_wo_entrp">    -23.75147922 </i>
    <i name="e_0_energy">    -23.75247870 </i>
   </energy>
  </scstep>
  <scstep>
   <time name="dav">    2.24    2.24</time>
   <time name="total">    2.82    2.85</time>
   <energy>
    <i name="e_fr_energy">    -23.01597250 </i>
    <i name="e_wo_entrp">    -23.01376259 </i>
    <i name="e_0_energy">    -23.01486755 </i>
   </energy>
  </scstep>
  <scstep>
   <time name="dav">    2.28    2.28</time>
   <time name="total">    2.87    2.89</time>
   <energy>
    <i name="e_fr_energy">    -23.14231904 </i>
    <i name="e_wo_entrp">    -23.14081124 </i>
    <i name="e_0_energy">    -23.14156514 </i>
   </energy>
  </scstep>
  <scstep>
   <time name="dav">    2.21    2.21</time>
   <time name="total">    2.80    2.82</time>
   <energy>
    <i name="e_fr_energy">    -23.01038975 </i>
    <i name="e_wo_entrp">    -23.00804469 </i>
    <i name="e_0_energy">    -23.00921722 </i>
   </energy>
  </scstep>
  <scstep>
   <time name="dav">    2.62    2.62</time>
   <time name="total">    3.22    3.24</time>
   <energy>
    <i name="e_fr_energy">    -23.01042530 </i>
    <i name="e_wo_entrp">    -23.00775927 </i>
    <i name="e_0_energy">    -23.00909228 </i>
   </energy>
  </scstep>
  <scstep>
   <time name="dav">    2.40    2.40</time>
   <time name="total">    3.00    3.03</time>
   <energy>
    <i name="e_fr_energy">    -23.01976337 </i>
    <i name="e_wo_entrp">    -23.01697967 </i>
    <i name="e_0_energy">    -23.01837152 </i>
   </energy>
  </scstep>
  <scstep>
   <time name="dav">    2.29    2.29</time>
   <time name="total">    2.88    2.91</time>
   <energy>
    <i name="e_fr_energy">    -23.00637657 </i>
    <i name="e_wo_entrp">    -23.00388264 </i>
    <i name="e_0_energy">    -23.00512961 </i>
   </energy>
  </scstep>
  <scstep>
   <time name="dav">    2.55    2.55</time>
   <time name="total">    3.14    3.17</time>
   <energy>
    <i name="e_fr_energy">    -23.00679744 </i>
    <i name="e_wo_entrp">    -23.00423871 </i>
    <i name="e_0_energy">    -23.00551808 </i>
   </energy>
  </scstep>
  <scstep>
   <time name="dav">    2.28    2.28</time>
   <time name="total">    2.87    2.90</time>
   <energy>
    <i name="e_fr_energy">    -23.00697144 </i>
    <i name="e_wo_entrp">    -23.00442369 </i>
    <i name="e_0_energy">    -23.00569757 </i>
   </energy>
  </scstep>
  <scstep>
   <time name="dav">    2.24    2.24</time>
   <time name="total">    2.83    2.86</time>
   <energy>
    <i name="e_fr_energy">    -23.00692827 </i>
    <i name="e_wo_entrp">    -23.00436139 </i>
    <i name="e_0_energy">    -23.00564483 </i>
   </energy>
  </scstep>
  <scstep>
   <time name="dav">    2.72    2.72</time>
   <time name="total">    3.31    3.33</time>
   <energy>
    <i name="e_fr_energy">    -23.00693316 </i>
    <i name="e_wo_entrp">    -23.00436768 </i>
    <i name="e_0_energy">    -23.00565042 </i>
   </energy>
  </scstep>
  <scstep>
   <time name="dav">    2.30    2.30</time>
   <time name="total">    2.89    2.92</time>
   <energy>
    <i name="e_fr_energy">    -23.00693235 </i>
    <i name="e_wo_entrp">    -23.00436564 </i>
    <i name="e_0_energy">    -23.00564900 </i>
   </energy>
  </scstep>
  <scstep>
   <time name="dav">    2.52    2.52</time>
   <time name="total">    3.11    3.15</time>
   <energy>
    <i name="e_fr_energy">    -23.00693140 </i>
    <i name="e_wo_entrp">    -23.00436739 </i>
    <i name="e_0_energy">    -23.00564940 </i>
   </energy>
  </scstep>
  <scstep>
   <time name="dav">    2.04    2.04</time>
   <time name="total">    2.63    2.65</time>
   <energy>
    <i name="e_fr_energy">    -23.00693120 </i>
    <i name="e_wo_entrp">    -23.00436546 </i>
    <i name="e_0_energy">    -23.00564833 </i>
   </energy>
  </scstep>
  <scstep>
   <time name="dav">    1.69    1.69</time>
   <time name="total">    1.86    1.89</time>
   <energy>
    <i name="alphaZ">    179.42596762 </i>
    <i name="ewald">  -3381.43336684 </i>
    <i name="hartreedc">   -870.32857450 </i>
    <i name="XCdc">     88.12394851 </i>
    <i name="pawpsdc">   3869.04721173 </i>
    <i name="pawaedc">  -3799.63329490 </i>
    <i name="eentropy">     -0.00256547 </i>
    <i name="bandstr">   -203.55834366 </i>
    <i name="atom">   4095.35208632 </i>
    <i name="e_fr_energy">    -23.00693119 </i>
    <i name="e_wo_entrp">    -23.00436572 </i>
    <i name="e_0_energy">    -23.00564845 </i>
   </energy>
  </scstep>
  <structure>
   <crystal>
    <varray name="basis" >
     <v>       0.00000000       3.52551964       3.52551964 </v>
     <v>       3.52551964       0.00000000       3.52551964 </v>
     <v>       3.52551964       3.52551964       0.00000000 </v>
    </varray>
    <i name="volume">     87.63940293 </i>
    <varray name="rec_basis" >
     <v>      -0.14182306       0.14182306       0.14182306 </v>
     <v>       0.14182306      -0.14182306       0.14182306 </v>
     <v>       0.14182306       0.14182306      -0.14182306 </v>
    </varray>
   </crystal>
   <varray name="positions" >
    <v>       0.25000000       0.25000000       0.25000000 </v>
    <v>       0.75000000       0.75000000       0.75000000 </v>
    <v>       0.00000000       0.00000000       0.00000000 </v>
   </varray>
  </structure>
  <varray name="forces" >
   <v>       0.00000000       0.00000000       0.00000000 </v>
   <v>       0.00000000       0.00000000       0.00000000 </v>
   <v>      -0.00000000      -0.00000000      -0.00000000 </v>
  </varray>
  <varray name="stress" >
   <v>    -139.89531449       0.00000000      -0.00000000 </v>
   <v>       0.00000000    -139.89531449       0.00000000 </v>
   <v>      -0.00000000       0.00000000    -139.89531449 </v>
  </varray>
  <energy>
   <i name="e_fr_energy">    -23.00693119 </i>
   <i name="e_wo_entrp">    -23.00564845 </i>
   <i name="e_0_energy">     -0.00256547 </i>
  </energy>
  <time name="totalsc">   64.75   65.86</time>
  <eigenvalues>
   <array>
    <dimension dim="1">band</dimension>
    <dimension dim="2">kpoint</dimension>
    <dimension dim="3">spin</dimension>
    <field>eigene</field>
    <field>occ</field>
    <set>
     <set comment="spin 1">
      <set comment="kpoint 1">
       <r>  -36.4934    1.0000 </r>
       <r>  -14.8866    1.0000 </r>
       <r>  -14.8866    1.0000 </r>
       <r>  -14.8670    1.0000 </r>
       <r>  -14.8670    1.0000 </r>
       <r>  -14.8670    1.0000 </r>
       <r>  -11.6696    1.0000 </r>
       <r>  -11.6696    1.0000 </r>
       <r>  -11.6696    1.0000 </r>
       <r>   -3.8045    1.0000 </r>
       <r>    3.9255    1.0000 </r>
       <r>    3.9255    1.0000 </r>
       <r>    3.9255    1.0000 </r>
       <r>    4.2857    1.0000 </r>
       <r>    4.2857    1.0000 </r>
       <r>    5.6435    1.0000 </r>
       <r>    6.8929    1.0000 </r>
       <r>    6.8929    1.0000 </r>
       <r>    6.8929    1.0000 </r>
       <r>    7.7379    1.0000 </r>
       <r>    7.9052    0.0000 </r>
       <r>    7.9069    0.0000 </r>
       <r>    7.9254    0.0000 </r>
       <r>    7.9254    0.0000 </r>
      </set>
      <set comment="kpoint 2">
       <r>  -36.4933    1.0000 </r>
       <r>  -14.8872    1.0000 </r>
       <r>  -14.8872    1.0000 </r>
       <r>  -14.8671    1.0000 </r>
       <r>  -14.8669    1.0000 </r>
       <r>  -14.8669    1.0000 </r>
       <r>  -11.6756    1.0000 </r>
       <r>  -11.6685    1.0000 </r>
       <r>  -11.6685    1.0000 </r>
       <r>   -3.7632    1.0000 </r>
       <r>    3.7863    1.0000 </r>
       <r>    3.8702    1.0000 </r>
       <r>    3.8702    1.0000 </r>
       <r>    4.3379    1.0000 </r>
       <r>    4.3379    1.0000 </r>
       <r>    5.5688    1.0000 </r>
       <r>    6.8464    1.0000 </r>
       <r>    6.8464    1.0000 </r>
       <r>    6.9516    1.0000 </r>
       <r>    7.6976    1.0000 </r>
       <r>    7.8242    0.0000 </r>
       <r>    7.8242    0.0000 </r>
       <r>    7.9261    0.0000 </r>
       <r>    7.9347    0.0000 </r>
      </set>
      <set comment="kpoint 3">
       <r>  -36.4931    1.0000 </r>
       <r>  -14.8888    1.0000 </r>
       <r>  -14.8888    1.0000 </r>
       <r>  -14.8674    1.0000 </r>
       <r>  -14.8666    1.0000 </r>
       <r>  -14.8666    1.0000 </r>
       <r>  -11.6920    1.0000 </r>
       <r>  -11.6654    1.0000 </r>
       <r>  -11.6654    1.0000 </r>
       <r>   -3.6475    1.0000 </r>
       <r>    3.4592    1.0000 </r>
       <r>    3.7713    1.0000 </r>
       <r>    3.7713    1.0000 </r>
       <r>    4.4215    1.0000 </r>
       <r>    4.4215    1.0000 </r>
       <r>    5.3360    1.0000 </r>
       <r>    6.7369    1.0000 </r>
       <r>    6.7369    1.0000 </r>
       <r>    7.0148    1.0000 </r>
       <r>    7.7772    0.4724 </r>
       <r>    7.7772    0.4724 </r>
       <r>    7.8086    0.0000 </r>
       <r>    7.9279    0.0000 </r>
       <r>    7.9752    0.0000 </r>
      </set>
      <set comment="kpoint 4">
       <r>  -36.4927    1.0000 </r>
       <r>  -14.8912    1.0000 </r>
       <r>  -14.8912    1.0000 </r>
       <r>  -14.8678    1.0000 </r>
       <r>  -14.8662    1.0000 </r>
       <r>  -14.8662    1.0000 </r>
       <r>  -11.7145    1.0000 </r>
       <r>  -11.6611    1.0000 </r>
       <r>  -11.6611    1.0000 </r>
       <r>   -3.4811    1.0000 </r>
       <r>    3.0839    1.0000 </r>
       <r>    3.6894    1.0000 </r>
       <r>    3.6894    1.0000 </r>
       <r>    4.4639    1.0000 </r>
       <r>    4.4639    1.0000 </r>
       <r>    5.0154    1.0000 </r>
       <r>    6.6236    1.0000 </r>
       <r>    6.6236    1.0000 </r>
       <r>    7.0382    1.0000 </r>
       <r>    7.7622    0.9800 </r>
       <r>    7.7622    0.9800 </r>
       <r>    7.9305    0.0000 </r>
       <r>    7.9620    0.0000 </r>
       <r>    8.1485    0.0000 </r>
      </set>
      <set comment="kpoint 5">
       <r>  -36.4924    1.0000 </r>
       <r>  -14.8937    1.0000 </r>
       <r>  -14.8937    1.0000 </r>
       <r>  -14.8683    1.0000 </r>
       <r>  -14.8658    1.0000 </r>
       <r>  -14.8658    1.0000 </r>
       <r>  -11.7376    1.0000 </r>
       <r>  -11.6565    1.0000 </r>
       <r>  -11.6565    1.0000 </r>
       <r>   -3.2995    1.0000 </r>
       <r>    2.7474    1.0000 </r>
       <r>    3.6426    1.0000 </r>
       <r>    3.6426    1.0000 </r>
       <r>    4.4454    1.0000 </r>
       <r>    4.4454    1.0000 </r>
       <r>    4.7156    1.0000 </r>
       <r>    6.5469    1.0000 </r>
       <r>    6.5469    1.0000 </r>
       <r>    7.0817    1.0000 </r>
       <r>    7.7683    0.8845 </r>
       <r>    7.7683    0.8845 </r>
       <r>    7.9332    0.0000 </r>
       <r>    8.0029    0.0000 </r>
       <r>    8.1087    0.0000 </r>
      </set>
      <set comment="kpoint 6">
       <r>  -36.4921    1.0000 </r>
       <r>  -14.8957    1.0000 </r>
       <r>  -14.8957    1.0000 </r>
       <r>  -14.8688    1.0000 </r>
       <r>  -14.8654    1.0000 </r>
       <r>  -14.8654    1.0000 </r>
       <r>  -11.7560    1.0000 </r>
       <r>  -11.6528    1.0000 </r>
       <r>  -11.6528    1.0000 </r>
       <r>   -3.1449    1.0000 </r>
       <r>    2.4986    1.0000 </r>
       <r>    3.6289    1.0000 </r>
       <r>    3.6289    1.0000 </r>
       <r>    4.3880    1.0000 </r>
       <r>    4.3880    1.0000 </r>
       <r>    4.4994    1.0000 </r>
       <r>    6.5113    1.0000 </r>
       <r>    6.5113    1.0000 </r>
       <r>    7.1439    1.0000 </r>
       <r>    7.7879    0.0563 </r>
       <r>    7.7879    0.0563 </r>
       <r>    7.9355    0.0000 </r>
       <r>    8.0382    0.0000 </r>
       <r>    8.0416    0.0000 </r>
      </set>
      <set comment="kpoint 7">
       <r>  -36.4920    1.0000 </r>
       <r>  -14.8969    1.0000 </r>
       <r>  -14.8969    1.0000 </r>
       <r>  -14.8690    1.0000 </r>
       <r>  -14.8651    1.0000 </r>
       <r>  -14.8651    1.0000 </r>
       <r>  -11.7662    1.0000 </r>
       <r>  -11.6506    1.0000 </r>
       <r>  -11.6506    1.0000 </r>
       <r>   -3.0558    1.0000 </r>
       <r>    2.3669    1.0000 </r>
       <r>    3.6318    1.0000 </r>
       <r>    3.6318    1.0000 </r>
       <r>    4.3391    1.0000 </r>
       <r>    4.3391    1.0000 </r>
       <r>    4.3892    1.0000 </r>
       <r>    6.5006    1.0000 </r>
       <r>    6.5006    1.0000 </r>
       <r>    7.1916    1.0000 </r>
       <r>    7.8095    0.0000 </r>
       <r>    7.8095    0.0000 </r>
       <r>    7.9922    0.0000 </r>
       <r>    7.9923    0.0000 </r>
       <r>    8.0646    0.0000 </r>
      </set>
      <set comment="kpoint 8">
       <r>  -36.4933    1.0000 </r>
       <r>  -14.8882    1.0000 </r>
       <r>  -14.8864    1.0000 </r>
       <r>  -14.8672    1.0000 </r>
       <r>  -14.8668    1.0000 </r>
       <r>  -14.8668    1.0000 </r>
       <r>  -11.6729    1.0000 </r>
       <r>  -11.6705    1.0000 </r>
       <r>  -11.6705    1.0000 </r>
       <r>   -3.7504    1.0000 </r>
       <r>    3.6272    1.0000 </r>
       <r>    3.9398    1.0000 </r>
       <r>    3.9398    1.0000 </r>
       <r>    4.2984    1.0000 </r>
       <r>    4.3565    1.0000 </r>
       <r>    5.5676    1.0000 </r>
       <r>    6.7731    1.0000 </r>
       <r>    6.7731    1.0000 </r>
       <r>    7.0868    1.0000 </r>
       <r>    7.6618    1.0000 </r>
       <r>    7.8162    0.0000 </r>
       <r>    7.8162    0.0000 </r>
       <r>    7.9331    0.0000 </r>
       <r>    7.9476    0.0000 </r>
      </set>
      <set comment="kpoint 9">
       <r>  -36.4931    1.0000 </r>
       <r>  -14.8900    1.0000 </r>
       <r>  -14.8869    1.0000 </r>
       <r>  -14.8674    1.0000 </r>
       <r>  -14.8666    1.0000 </r>
       <r>  -14.8666    1.0000 </r>
       <r>  -11.6854    1.0000 </r>
       <r>  -11.6703    1.0000 </r>
       <r>  -11.6667    1.0000 </r>
       <r>   -3.6622    1.0000 </r>
       <r>    3.3650    1.0000 </r>
       <r>    3.8623    1.0000 </r>
       <r>    3.9052    1.0000 </r>
       <r>    4.3488    1.0000 </r>
       <r>    4.4164    1.0000 </r>
       <r>    5.4268    1.0000 </r>
       <r>    6.6382    1.0000 </r>
       <r>    6.6538    1.0000 </r>
       <r>    7.2074    1.0000 </r>
       <r>    7.7117    1.0000 </r>
       <r>    7.7844    0.1400 </r>
       <r>    7.7919    0.0159 </r>
       <r>    7.9372    0.0000 </r>
       <r>    7.9713    0.0000 </r>
      </set>
      <set comment="kpoint 10">
       <r>  -36.4928    1.0000 </r>
       <r>  -14.8923    1.0000 </r>
       <r>  -14.8885    1.0000 </r>
       <r>  -14.8677    1.0000 </r>
       <r>  -14.8663    1.0000 </r>
       <r>  -14.8662    1.0000 </r>
       <r>  -11.7060    1.0000 </r>
       <r>  -11.6678    1.0000 </r>
       <r>  -11.6618    1.0000 </r>
       <r>   -3.5172    1.0000 </r>
       <r>    3.0741    1.0000 </r>
       <r>    3.7198    1.0000 </r>
       <r>    3.8348    1.0000 </r>
       <r>    4.4014    1.0000 </r>
       <r>    4.4825    1.0000 </r>
       <r>    5.1526    1.0000 </r>
       <r>    6.4887    1.0000 </r>
       <r>    6.5459    1.0000 </r>
       <r>    7.2182    1.0000 </r>
       <r>    7.7595    0.9925 </r>
       <r>    7.7667    0.9222 </r>
       <r>    7.9371    0.0000 </r>
       <r>    7.9389    0.0000 </r>
       <r>    8.0505    0.0000 </r>
      </set>
      <set comment="kpoint 11">
       <r>  -36.4925    1.0000 </r>
       <r>  -14.8944    1.0000 </r>
       <r>  -14.8908    1.0000 </r>
       <r>  -14.8681    1.0000 </r>
       <r>  -14.8660    1.0000 </r>
       <r>  -14.8657    1.0000 </r>
       <r>  -11.7288    1.0000 </r>
       <r>  -11.6636    1.0000 </r>
       <r>  -11.6575    1.0000 </r>
       <r>   -3.3464    1.0000 </r>
       <r>    2.7954    1.0000 </r>
       <r>    3.6184    1.0000 </r>
       <r>    3.7749    1.0000 </r>
       <r>    4.4017    1.0000 </r>
       <r>    4.4979    1.0000 </r>
       <r>    4.8426    1.0000 </r>
       <r>    6.3919    1.0000 </r>
       <r>    6.4827    1.0000 </r>
       <r>    7.2126    1.0000 </r>
       <r>    7.7657    0.9401 </r>
       <r>    7.7692    0.8562 </r>
       <r>    7.9402    0.0000 </r>
       <r>    7.9829    0.0000 </r>
       <r>    8.0932    0.0000 </r>
      </set>
      <set comment="kpoint 12">
       <r>  -36.4922    1.0000 </r>
       <r>  -14.8959    1.0000 </r>
       <r>  -14.8934    1.0000 </r>
       <r>  -14.8685    1.0000 </r>
       <r>  -14.8656    1.0000 </r>
       <r>  -14.8653    1.0000 </r>
       <r>  -11.7487    1.0000 </r>
       <r>  -11.6587    1.0000 </r>
       <r>  -11.6548    1.0000 </r>
       <r>   -3.1888    1.0000 </r>
       <r>    2.5728    1.0000 </r>
       <r>    3.5788    1.0000 </r>
       <r>    3.7289    1.0000 </r>
       <r>    4.3649    1.0000 </r>
       <r>    4.4565    1.0000 </r>
       <r>    4.5901    1.0000 </r>
       <r>    6.3468    1.0000 </r>
       <r>    6.4617    1.0000 </r>
       <r>    7.2334    1.0000 </r>
       <r>    7.7798    0.3321 </r>
       <r>    7.7901    0.0293 </r>
       <r>    7.9403    0.0000 </r>
       <r>    8.0019    0.0000 </r>
       <r>    8.0571    0.0000 </r>
      </set>
      <set comment="kpoint 13">
       <r>  -36.4920    1.0000 </r>
       <r>  -14.8965    1.0000 </r>
       <r>  -14.8955    1.0000 </r>
       <r>  -14.8688    1.0000 </r>
       <r>  -14.8653    1.0000 </r>
       <r>  -14.8651    1.0000 </r>
       <r>  -11.7614    1.0000 </r>
       <r>  -11.6543    1.0000 </r>
       <r>  -11.6542    1.0000 </r>
       <r>   -3.0820    1.0000 </r>
       <r>    2.4360    1.0000 </r>
       <r>    3.5932    1.0000 </r>
       <r>    3.6815    1.0000 </r>
       <r>    4.3409    1.0000 </r>
       <r>    4.3872    1.0000 </r>
       <r>    4.4392    1.0000 </r>
       <r>    6.3301    1.0000 </r>
       <r>    6.4624    1.0000 </r>
       <r>    7.2670    1.0000 </r>
       <r>    7.8046    0.0000 </r>
       <r>    7.8108    0.0000 </r>
       <r>    7.9372    0.0000 </r>
       <r>    7.9855    0.0000 </r>
       <r>    8.0300    0.0000 </r>
      </set>
      <set comment="kpoint 14">
       <r>  -36.4919    1.0000 </r>
       <r>  -14.8968    1.0000 </r>
       <r>  -14.8960    1.0000 </r>
       <r>  -14.8689    1.0000 </r>
       <r>  -14.8652    1.0000 </r>
       <r>  -14.8650    1.0000 </r>
       <r>  -11.7647    1.0000 </r>
       <r>  -11.6560    1.0000 </r>
       <r>  -11.6512    1.0000 </r>
       <r>   -3.0527    1.0000 </r>
       <r>    2.4003    1.0000 </r>
       <r>    3.6234    1.0000 </r>
       <r>    3.6418    1.0000 </r>
       <r>    4.3381    1.0000 </r>
       <r>    4.3662    1.0000 </r>
       <r>    4.3974    1.0000 </r>
       <r>    6.3170    1.0000 </r>
       <r>    6.4708    1.0000 </r>
       <r>    7.2806    1.0000 </r>
       <r>    7.8098    0.0000 </r>
       <r>    7.8246    0.0000 </r>
       <r>    7.9353    0.0000 </r>
       <r>    7.9898    0.0000 </r>
       <r>    8.0269    0.0000 </r>
      </set>
      <set comment="kpoint 15">
       <r>  -36.4920    1.0000 </r>
       <r>  -14.8969    1.0000 </r>
       <r>  -14.8946    1.0000 </r>
       <r>  -14.8687    1.0000 </r>
       <r>  -14.8653    1.0000 </r>
       <r>  -14.8653    1.0000 </r>
       <r>  -11.7579    1.0000 </r>
       <r>  -11.6595    1.0000 </r>
       <r>  -11.6503    1.0000 </r>
       <r>   -3.1085    1.0000 </r>
       <r>    2.4709    1.0000 </r>
       <r>    3.5700    1.0000 </r>
       <r>    3.7020    1.0000 </r>
       <r>    4.3309    1.0000 </r>
       <r>    4.4324    1.0000 </r>
       <r>    4.4742    1.0000 </r>
       <r>    6.2941    1.0000 </r>
       <r>    6.4905    1.0000 </r>
       <r>    7.2601    1.0000 </r>
       <r>    7.7883    0.0505 </r>
       <r>    7.8142    0.0000 </r>
       <r>    7.9349    0.0000 </r>
       <r>    8.0102    0.0000 </r>
       <r>    8.0219    0.0000 </r>
      </set>
      <set comment="kpoint 16">
       <r>  -36.4922    1.0000 </r>
       <r>  -14.8958    1.0000 </r>
       <r>  -14.8924    1.0000 </r>
       <r>  -14.8684    1.0000 </r>
       <r>  -14.8656    1.0000 </r>
       <r>  -14.8656    1.0000 </r>
       <r>  -11.7424    1.0000 </r>
       <r>  -11.6640    1.0000 </r>
       <r>  -11.6517    1.0000 </r>
       <r>   -3.2353    1.0000 </r>
       <r>    2.6441    1.0000 </r>
       <r>    3.5457    1.0000 </r>
       <r>    3.7640    1.0000 </r>
       <r>    4.3607    1.0000 </r>
       <r>    4.5011    1.0000 </r>
       <r>    4.6626    1.0000 </r>
       <r>    6.2695    1.0000 </r>
       <r>    6.5371    1.0000 </r>
       <r>    7.2266    1.0000 </r>
       <r>    7.7685    0.8764 </r>
       <r>    7.7888    0.0444 </r>
       <r>    7.9383    0.0000 </r>
       <r>    8.0072    0.0000 </r>
       <r>    8.0621    0.0000 </r>
      </set>
      <set comment="kpoint 17">
       <r>  -36.4926    1.0000 </r>
       <r>  -14.8938    1.0000 </r>
       <r>  -14.8902    1.0000 </r>
       <r>  -14.8679    1.0000 </r>
       <r>  -14.8661    1.0000 </r>
       <r>  -14.8660    1.0000 </r>
       <r>  -11.7213    1.0000 </r>
       <r>  -11.6684    1.0000 </r>
       <r>  -11.6551    1.0000 </r>
       <r>   -3.4017    1.0000 </r>
       <r>    2.9049    1.0000 </r>
       <r>    3.5665    1.0000 </r>
       <r>    3.8349    1.0000 </r>
       <r>    4.3839    1.0000 </r>
       <r>    4.5323    1.0000 </r>
       <r>    4.9402    1.0000 </r>
       <r>    6.2794    1.0000 </r>
       <r>    6.6235    1.0000 </r>
       <r>    7.2073    1.0000 </r>
       <r>    7.7603    0.9898 </r>
       <r>    7.7700    0.8278 </r>
       <r>    7.9372    0.0000 </r>
       <r>    7.9766    0.0000 </r>
       <r>    8.1135    0.0000 </r>
      </set>
      <set comment="kpoint 18">
       <r>  -36.4929    1.0000 </r>
       <r>  -14.8913    1.0000 </r>
       <r>  -14.8883    1.0000 </r>
       <r>  -14.8675    1.0000 </r>
       <r>  -14.8665    1.0000 </r>
       <r>  -14.8664    1.0000 </r>
       <r>  -11.6993    1.0000 </r>
       <r>  -11.6715    1.0000 </r>
       <r>  -11.6597    1.0000 </r>
       <r>   -3.5684    1.0000 </r>
       <r>    3.2232    1.0000 </r>
       <r>    3.6365    1.0000 </r>
       <r>    3.9147    1.0000 </r>
       <r>    4.3616    1.0000 </r>
       <r>    4.5055    1.0000 </r>
       <r>    5.2423    1.0000 </r>
       <r>    6.3826    1.0000 </r>
       <r>    6.7371    1.0000 </r>
       <r>    7.1983    1.0000 </r>
       <r>    7.7648    0.9538 </r>
       <r>    7.7675    0.9050 </r>
       <r>    7.9040    0.0000 </r>
       <r>    7.9345    0.0000 </r>
       <r>    8.0097    0.0000 </r>
      </set>
      <set comment="kpoint 19">
       <r>  -36.4932    1.0000 </r>
       <r>  -14.8889    1.0000 </r>
       <r>  -14.8872    1.0000 </r>
       <r>  -14.8673    1.0000 </r>
       <r>  -14.8668    1.0000 </r>
       <r>  -14.8667    1.0000 </r>
       <r>  -11.6825    1.0000 </r>
       <r>  -11.6716    1.0000 </r>
       <r>  -11.6646    1.0000 </r>
       <r>   -3.6981    1.0000 </r>
       <r>    3.5464    1.0000 </r>
       <r>    3.7470    1.0000 </r>
       <r>    3.9519    1.0000 </r>
       <r>    4.3237    1.0000 </r>
       <r>    4.4292    1.0000 </r>
       <r>    5.4655    1.0000 </r>
       <r>    6.6117    1.0000 </r>
       <r>    6.8301    1.0000 </r>
       <r>    7.1127    1.0000 </r>
       <r>    7.7131    1.0000 </r>
       <r>    7.7885    0.0484 </r>
       <r>    7.7979    0.0014 </r>
       <r>    7.9304    0.0000 </r>
       <r>    7.9589    0.0000 </r>
      </set>
      <set comment="kpoint 20">
       <r>  -36.4930    1.0000 </r>
       <r>  -14.8916    1.0000 </r>
       <r>  -14.8860    1.0000 </r>
       <r>  -14.8677    1.0000 </r>
       <r>  -14.8663    1.0000 </r>
       <r>  -14.8663    1.0000 </r>
       <r>  -11.6829    1.0000 </r>
       <r>  -11.6732    1.0000 </r>
       <r>  -11.6732    1.0000 </r>
       <r>   -3.6096    1.0000 </r>
       <r>    3.1249    1.0000 </r>
       <r>    3.9738    1.0000 </r>
       <r>    3.9738    1.0000 </r>
       <r>    4.3340    1.0000 </r>
       <r>    4.3659    1.0000 </r>
       <r>    5.4257    1.0000 </r>
       <r>    6.5347    1.0000 </r>
       <r>    6.5347    1.0000 </r>
       <r>    7.3265    1.0000 </r>
       <r>    7.6879    1.0000 </r>
       <r>    7.7785    0.4015 </r>
       <r>    7.7785    0.4015 </r>
       <r>    7.9558    0.0000 </r>
       <r>    7.9839    0.0000 </r>
      </set>
      <set comment="kpoint 21">
       <r>  -36.4927    1.0000 </r>
       <r>  -14.8932    1.0000 </r>
       <r>  -14.8864    1.0000 </r>
       <r>  -14.8681    1.0000 </r>
       <r>  -14.8660    1.0000 </r>
       <r>  -14.8660    1.0000 </r>
       <r>  -11.6983    1.0000 </r>
       <r>  -11.6736    1.0000 </r>
       <r>  -11.6698    1.0000 </r>
       <r>   -3.5018    1.0000 </r>
       <r>    2.9031    1.0000 </r>
       <r>    3.8948    1.0000 </r>
       <r>    3.9562    1.0000 </r>
       <r>    4.3704    1.0000 </r>
       <r>    4.4011    1.0000 </r>
       <r>    5.2758    1.0000 </r>
       <r>    6.3606    1.0000 </r>
       <r>    6.4345    1.0000 </r>
       <r>    7.3496    1.0000 </r>
       <r>    7.7538    0.9994 </r>
       <r>    7.7712    0.7812 </r>
       <r>    7.8864    0.0000 </r>
       <r>    7.9650    0.0000 </r>
       <r>    8.0355    0.0000 </r>
      </set>
      <set comment="kpoint 22">
       <r>  -36.4924    1.0000 </r>
       <r>  -14.8945    1.0000 </r>
       <r>  -14.8879    1.0000 </r>
       <r>  -14.8683    1.0000 </r>
       <r>  -14.8658    1.0000 </r>
       <r>  -14.8655    1.0000 </r>
       <r>  -11.7192    1.0000 </r>
       <r>  -11.6713    1.0000 </r>
       <r>  -11.6658    1.0000 </r>
       <r>   -3.3637    1.0000 </r>
       <r>    2.7328    1.0000 </r>
       <r>    3.7439    1.0000 </r>
       <r>    3.9059    1.0000 </r>
       <r>    4.3863    1.0000 </r>
       <r>    4.4597    1.0000 </r>
       <r>    5.0199    1.0000 </r>
       <r>    6.1710    1.0000 </r>
       <r>    6.3831    1.0000 </r>
       <r>    7.3589    1.0000 </r>
       <r>    7.7643    0.9604 </r>
       <r>    7.7713    0.7766 </r>
       <r>    7.9446    0.0000 </r>
       <r>    7.9661    0.0000 </r>
       <r>    8.0913    0.0000 </r>
      </set>
      <set comment="kpoint 23">
       <r>  -36.4921    1.0000 </r>
       <r>  -14.8951    1.0000 </r>
       <r>  -14.8903    1.0000 </r>
       <r>  -14.8685    1.0000 </r>
       <r>  -14.8657    1.0000 </r>
       <r>  -14.8651    1.0000 </r>
       <r>  -11.7385    1.0000 </r>
       <r>  -11.6669    1.0000 </r>
       <r>  -11.6641    1.0000 </r>
       <r>   -3.2270    1.0000 </r>
       <r>    2.6230    1.0000 </r>
       <r>    3.6301    1.0000 </r>
       <r>    3.8431    1.0000 </r>
       <r>    4.3727    1.0000 </r>
       <r>    4.4695    1.0000 </r>
       <r>    4.7503    1.0000 </r>
       <r>    6.0561    1.0000 </r>
       <r>    6.3736    1.0000 </r>
       <r>    7.3653    1.0000 </r>
       <r>    7.7828    0.1954 </r>
       <r>    7.7875    0.0639 </r>
       <r>    7.9570    0.0000 </r>
       <r>    7.9626    0.0000 </r>
       <r>    8.0762    0.0000 </r>
      </set>
      <set comment="kpoint 24">
       <r>  -36.4919    1.0000 </r>
       <r>  -14.8949    1.0000 </r>
       <r>  -14.8930    1.0000 </r>
       <r>  -14.8686    1.0000 </r>
       <r>  -14.8656    1.0000 </r>
       <r>  -14.8648    1.0000 </r>
       <r>  -11.7521    1.0000 </r>
       <r>  -11.6653    1.0000 </r>
       <r>  -11.6613    1.0000 </r>
       <r>   -3.1227    1.0000 </r>
       <r>    2.5652    1.0000 </r>
       <r>    3.5867    1.0000 </r>
       <r>    3.7593    1.0000 </r>
       <r>    4.3727    1.0000 </r>
       <r>    4.4191    1.0000 </r>
       <r>    4.5612    1.0000 </r>
       <r>    6.0002    1.0000 </r>
       <r>    6.3809    1.0000 </r>
       <r>    7.3827    1.0000 </r>
       <r>    7.8067    0.0000 </r>
       <r>    7.8082    0.0000 </r>
       <r>    7.9532    0.0000 </r>
       <r>    7.9646    0.0000 </r>
       <r>    8.0644    0.0000 </r>
      </set>
      <set comment="kpoint 25">
       <r>  -36.4918    1.0000 </r>
       <r>  -14.8952    1.0000 </r>
       <r>  -14.8941    1.0000 </r>
       <r>  -14.8685    1.0000 </r>
       <r>  -14.8656    1.0000 </r>
       <r>  -14.8648    1.0000 </r>
       <r>  -11.7573    1.0000 </r>
       <r>  -11.6688    1.0000 </r>
       <r>  -11.6559    1.0000 </r>
       <r>   -3.0739    1.0000 </r>
       <r>    2.5421    1.0000 </r>
       <r>    3.6165    1.0000 </r>
       <r>    3.6578    1.0000 </r>
       <r>    4.3506    1.0000 </r>
       <r>    4.4144    1.0000 </r>
       <r>    4.4879    1.0000 </r>
       <r>    5.9639    1.0000 </r>
       <r>    6.3911    1.0000 </r>
       <r>    7.3996    1.0000 </r>
       <r>    7.8074    0.0000 </r>
       <r>    7.8386    0.0000 </r>
       <r>    7.9328    0.0000 </r>
       <r>    7.9831    0.0000 </r>
       <r>    8.0276    0.0000 </r>
      </set>
      <set comment="kpoint 26">
       <r>  -36.4919    1.0000 </r>
       <r>  -14.8966    1.0000 </r>
       <r>  -14.8927    1.0000 </r>
       <r>  -14.8684    1.0000 </r>
       <r>  -14.8656    1.0000 </r>
       <r>  -14.8650    1.0000 </r>
       <r>  -11.7536    1.0000 </r>
       <r>  -11.6737    1.0000 </r>
       <r>  -11.6519    1.0000 </r>
       <r>   -3.0915    1.0000 </r>
       <r>    2.5496    1.0000 </r>
       <r>    3.5634    1.0000 </r>
       <r>    3.7030    1.0000 </r>
       <r>    4.3200    1.0000 </r>
       <r>    4.4856    1.0000 </r>
       <r>    4.5234    1.0000 </r>
       <r>    5.9169    1.0000 </r>
       <r>    6.4110    1.0000 </r>
       <r>    7.3981    1.0000 </r>
       <r>    7.7878    0.0593 </r>
       <r>    7.8525    0.0000 </r>
       <r>    7.9212    0.0000 </r>
       <r>    8.0059    0.0000 </r>
       <r>    8.0105    0.0000 </r>
      </set>
      <set comment="kpoint 27">
       <r>  -36.4920    1.0000 </r>
       <r>  -14.8968    1.0000 </r>
       <r>  -14.8910    1.0000 </r>
       <r>  -14.8681    1.0000 </r>
       <r>  -14.8657    1.0000 </r>
       <r>  -14.8654    1.0000 </r>
       <r>  -11.7420    1.0000 </r>
       <r>  -11.6783    1.0000 </r>
       <r>  -11.6501    1.0000 </r>
       <r>   -3.1725    1.0000 </r>
       <r>    2.6065    1.0000 </r>
       <r>    3.5025    1.0000 </r>
       <r>    3.8171    1.0000 </r>
       <r>    4.3156    1.0000 </r>
       <r>    4.5535    1.0000 </r>
       <r>    4.6816    1.0000 </r>
       <r>    5.8593    1.0000 </r>
       <r>    6.4592    1.0000 </r>
       <r>    7.3796    1.0000 </r>
       <r>    7.7690    0.8637 </r>
       <r>    7.8254    0.0000 </r>
       <r>    7.9406    0.0000 </r>
       <r>    8.0003    0.0000 </r>
       <r>    8.0256    0.0000 </r>
      </set>
      <set comment="kpoint 28">
       <r>  -36.4923    1.0000 </r>
       <r>  -14.8958    1.0000 </r>
       <r>  -14.8895    1.0000 </r>
       <r>  -14.8679    1.0000 </r>
       <r>  -14.8659    1.0000 </r>
       <r>  -14.8658    1.0000 </r>
       <r>  -11.7257    1.0000 </r>
       <r>  -11.6808    1.0000 </r>
       <r>  -11.6511    1.0000 </r>
       <r>   -3.2994    1.0000 </r>
       <r>    2.7383    1.0000 </r>
       <r>    3.4919    1.0000 </r>
       <r>    3.9250    1.0000 </r>
       <r>    4.3209    1.0000 </r>
       <r>    4.5859    1.0000 </r>
       <r>    4.9189    1.0000 </r>
       <r>    5.8470    1.0000 </r>
       <r>    6.5472    1.0000 </r>
       <r>    7.3563    1.0000 </r>
       <r>    7.7598    0.9917 </r>
       <r>    7.7946    0.0058 </r>
       <r>    7.9474    0.0000 </r>
       <r>    7.9823    0.0000 </r>
       <r>    8.0792    0.0000 </r>
      </set>
      <set comment="kpoint 29">
       <r>  -36.4926    1.0000 </r>
       <r>  -14.8938    1.0000 </r>
       <r>  -14.8885    1.0000 </r>
       <r>  -14.8677    1.0000 </r>
       <r>  -14.8662    1.0000 </r>
       <r>  -14.8661    1.0000 </r>
       <r>  -11.7099    1.0000 </r>
       <r>  -11.6787    1.0000 </r>
       <r>  -11.6546    1.0000 </r>
       <r>   -3.4426    1.0000 </r>
       <r>    2.9521    1.0000 </r>
       <r>    3.5379    1.0000 </r>
       <r>    3.9826    1.0000 </r>
       <r>    4.3227    1.0000 </r>
       <r>    4.5676    1.0000 </r>
       <r>    5.1259    1.0000 </r>
       <r>    6.0081    1.0000 </r>
       <r>    6.6569    1.0000 </r>
       <r>    7.3187    1.0000 </r>
       <r>    7.7592    0.9933 </r>
       <r>    7.7732    0.6901 </r>
       <r>    7.9432    0.0000 </r>
       <r>    7.9614    0.0000 </r>
       <r>    8.0794    0.0000 </r>
      </set>
      <set comment="kpoint 30">
       <r>  -36.4925    1.0000 </r>
       <r>  -14.8938    1.0000 </r>
       <r>  -14.8854    1.0000 </r>
       <r>  -14.8685    1.0000 </r>
       <r>  -14.8656    1.0000 </r>
       <r>  -14.8656    1.0000 </r>
       <r>  -11.6992    1.0000 </r>
       <r>  -11.6772    1.0000 </r>
       <r>  -11.6772    1.0000 </r>
       <r>   -3.4403    1.0000 </r>
       <r>    2.7450    1.0000 </r>
       <r>    4.0051    1.0000 </r>
       <r>    4.0051    1.0000 </r>
       <r>    4.2926    1.0000 </r>
       <r>    4.3853    1.0000 </r>
       <r>    5.2546    1.0000 </r>
       <r>    6.3423    1.0000 </r>
       <r>    6.3423    1.0000 </r>
       <r>    7.3414    1.0000 </r>
       <r>    7.7733    0.6875 </r>
       <r>    7.7733    0.6875 </r>
       <r>    7.8581    0.0000 </r>
       <r>    7.9920    0.0000 </r>
       <r>    8.0916    0.0000 </r>
      </set>
      <set comment="kpoint 31">
       <r>  -36.4923    1.0000 </r>
       <r>  -14.8938    1.0000 </r>
       <r>  -14.8857    1.0000 </r>
       <r>  -14.8689    1.0000 </r>
       <r>  -14.8653    1.0000 </r>
       <r>  -14.8651    1.0000 </r>
       <r>  -11.7139    1.0000 </r>
       <r>  -11.6778    1.0000 </r>
       <r>  -11.6764    1.0000 </r>
       <r>   -3.3493    1.0000 </r>
       <r>    2.6583    1.0000 </r>
       <r>    3.9083    1.0000 </r>
       <r>    3.9902    1.0000 </r>
       <r>    4.3260    1.0000 </r>
       <r>    4.4076    1.0000 </r>
       <r>    5.1055    1.0000 </r>
       <r>    6.1720    1.0000 </r>
       <r>    6.2993    1.0000 </r>
       <r>    7.3972    1.0000 </r>
       <r>    7.7651    0.9496 </r>
       <r>    7.7775    0.4559 </r>
       <r>    7.8921    0.0000 </r>
       <r>    8.0049    0.0000 </r>
       <r>    8.1292    0.0000 </r>
      </set>
      <set comment="kpoint 32">
       <r>  -36.4920    1.0000 </r>
       <r>  -14.8934    1.0000 </r>
       <r>  -14.8874    1.0000 </r>
       <r>  -14.8690    1.0000 </r>
       <r>  -14.8651    1.0000 </r>
       <r>  -14.8647    1.0000 </r>
       <r>  -11.7305    1.0000 </r>
       <r>  -11.6761    1.0000 </r>
       <r>  -11.6752    1.0000 </r>
       <r>   -3.2509    1.0000 </r>
       <r>    2.6540    1.0000 </r>
       <r>    3.7525    1.0000 </r>
       <r>    3.9360    1.0000 </r>
       <r>    4.3963    1.0000 </r>
       <r>    4.4120    1.0000 </r>
       <r>    4.8933    1.0000 </r>
       <r>    5.9291    1.0000 </r>
       <r>    6.2966    1.0000 </r>
       <r>    7.4529    1.0000 </r>
       <r>    7.7766    0.5068 </r>
       <r>    7.7887    0.0452 </r>
       <r>    7.9095    0.0000 </r>
       <r>    8.0041    0.0000 </r>
       <r>    8.1057    0.0000 </r>
      </set>
      <set comment="kpoint 33">
       <r>  -36.4918    1.0000 </r>
       <r>  -14.8925    1.0000 </r>
       <r>  -14.8898    1.0000 </r>
       <r>  -14.8689    1.0000 </r>
       <r>  -14.8653    1.0000 </r>
       <r>  -14.8644    1.0000 </r>
       <r>  -11.7424    1.0000 </r>
       <r>  -11.6791    1.0000 </r>
       <r>  -11.6701    1.0000 </r>
       <r>   -3.1666    1.0000 </r>
       <r>    2.7078    1.0000 </r>
       <r>    3.6412    1.0000 </r>
       <r>    3.8443    1.0000 </r>
       <r>    4.4087    1.0000 </r>
       <r>    4.4255    1.0000 </r>
       <r>    4.6984    1.0000 </r>
       <r>    5.7439    1.0000 </r>
       <r>    6.3046    1.0000 </r>
       <r>    7.4770    1.0000 </r>
       <r>    7.7970    0.0021 </r>
       <r>    7.8097    0.0000 </r>
       <r>    7.9332    0.0000 </r>
       <r>    7.9921    0.0000 </r>
       <r>    8.0775    0.0000 </r>
      </set>
      <set comment="kpoint 34">
       <r>  -36.4917    1.0000 </r>
       <r>  -14.8926    1.0000 </r>
       <r>  -14.8914    1.0000 </r>
       <r>  -14.8685    1.0000 </r>
       <r>  -14.8656    1.0000 </r>
       <r>  -14.8644    1.0000 </r>
       <r>  -11.7470    1.0000 </r>
       <r>  -11.6850    1.0000 </r>
       <r>  -11.6636    1.0000 </r>
       <r>   -3.1124    1.0000 </r>
       <r>    2.7570    1.0000 </r>
       <r>    3.6030    1.0000 </r>
       <r>    3.7254    1.0000 </r>
       <r>    4.3487    1.0000 </r>
       <r>    4.4693    1.0000 </r>
       <r>    4.6154    1.0000 </r>
       <r>    5.6277    1.0000 </r>
       <r>    6.3081    1.0000 </r>
       <r>    7.4911    1.0000 </r>
       <r>    7.7996    0.0006 </r>
       <r>    7.8404    0.0000 </r>
       <r>    7.9648    0.0000 </r>
       <r>    7.9708    0.0000 </r>
       <r>    8.0580    0.0000 </r>
      </set>
      <set comment="kpoint 35">
       <r>  -36.4917    1.0000 </r>
       <r>  -14.8950    1.0000 </r>
       <r>  -14.8904    1.0000 </r>
       <r>  -14.8680    1.0000 </r>
       <r>  -14.8660    1.0000 </r>
       <r>  -14.8646    1.0000 </r>
       <r>  -11.7443    1.0000 </r>
       <r>  -11.6917    1.0000 </r>
       <r>  -11.6572    1.0000 </r>
       <r>   -3.0984    1.0000 </r>
       <r>    2.7399    1.0000 </r>
       <r>    3.6073    1.0000 </r>
       <r>    3.6488    1.0000 </r>
       <r>    4.3082    1.0000 </r>
       <r>    4.5321    1.0000 </r>
       <r>    4.6390    1.0000 </r>
       <r>    5.5496    1.0000 </r>
       <r>    6.3184    1.0000 </r>
       <r>    7.4931    1.0000 </r>
       <r>    7.7842    0.1449 </r>
       <r>    7.8757    0.0000 </r>
       <r>    7.9236    0.0000 </r>
       <r>    7.9948    0.0000 </r>
       <r>    8.0333    0.0000 </r>
      </set>
      <set comment="kpoint 36">
       <r>  -36.4918    1.0000 </r>
       <r>  -14.8965    1.0000 </r>
       <r>  -14.8897    1.0000 </r>
       <r>  -14.8676    1.0000 </r>
       <r>  -14.8662    1.0000 </r>
       <r>  -14.8650    1.0000 </r>
       <r>  -11.7367    1.0000 </r>
       <r>  -11.6957    1.0000 </r>
       <r>  -11.6523    1.0000 </r>
       <r>   -3.1289    1.0000 </r>
       <r>    2.6811    1.0000 </r>
       <r>    3.5177    1.0000 </r>
       <r>    3.7558    1.0000 </r>
       <r>    4.3056    1.0000 </r>
       <r>    4.5863    1.0000 </r>
       <r>    4.7564    1.0000 </r>
       <r>    5.4983    1.0000 </r>
       <r>    6.3591    1.0000 </r>
       <r>    7.4744    1.0000 </r>
       <r>    7.7675    0.9041 </r>
       <r>    7.8691    0.0000 </r>
       <r>    7.9233    0.0000 </r>
       <r>    7.9932    0.0000 </r>
       <r>    8.0203    0.0000 </r>
      </set>
      <set comment="kpoint 37">
       <r>  -36.4921    1.0000 </r>
       <r>  -14.8968    1.0000 </r>
       <r>  -14.8894    1.0000 </r>
       <r>  -14.8677    1.0000 </r>
       <r>  -14.8660    1.0000 </r>
       <r>  -14.8654    1.0000 </r>
       <r>  -11.7296    1.0000 </r>
       <r>  -11.6922    1.0000 </r>
       <r>  -11.6501    1.0000 </r>
       <r>   -3.2005    1.0000 </r>
       <r>    2.6630    1.0000 </r>
       <r>    3.4759    1.0000 </r>
       <r>    3.8731    1.0000 </r>
       <r>    4.3080    1.0000 </r>
       <r>    4.6070    1.0000 </r>
       <r>    4.8855    1.0000 </r>
       <r>    5.5576    1.0000 </r>
       <r>    6.4421    1.0000 </r>
       <r>    7.4319    1.0000 </r>
       <r>    7.7605    0.9891 </r>
       <r>    7.8296    0.0000 </r>
       <r>    7.9473    0.0000 </r>
       <r>    7.9867    0.0000 </r>
       <r>    8.0328    0.0000 </r>
      </set>
      <set comment="kpoint 38">
       <r>  -36.4921    1.0000 </r>
       <r>  -14.8927    1.0000 </r>
       <r>  -14.8847    1.0000 </r>
       <r>  -14.8694    1.0000 </r>
       <r>  -14.8647    1.0000 </r>
       <r>  -14.8647    1.0000 </r>
       <r>  -11.7193    1.0000 </r>
       <r>  -11.6816    1.0000 </r>
       <r>  -11.6816    1.0000 </r>
       <r>   -3.3100    1.0000 </r>
       <r>    2.6467    1.0000 </r>
       <r>    4.0133    1.0000 </r>
       <r>    4.0133    1.0000 </r>
       <r>    4.1780    1.0000 </r>
       <r>    4.4413    1.0000 </r>
       <r>    5.0230    1.0000 </r>
       <r>    6.2633    1.0000 </r>
       <r>    6.2633    1.0000 </r>
       <r>    7.3971    1.0000 </r>
       <r>    7.7845    0.1351 </r>
       <r>    7.7845    0.1351 </r>
       <r>    7.8489    0.0000 </r>
       <r>    8.0375    0.0000 </r>
       <r>    8.2308    0.0000 </r>
      </set>
      <set comment="kpoint 39">
       <r>  -36.4919    1.0000 </r>
       <r>  -14.8912    1.0000 </r>
       <r>  -14.8851    1.0000 </r>
       <r>  -14.8696    1.0000 </r>
       <r>  -14.8644    1.0000 </r>
       <r>  -14.8643    1.0000 </r>
       <r>  -11.7307    1.0000 </r>
       <r>  -11.6835    1.0000 </r>
       <r>  -11.6819    1.0000 </r>
       <r>   -3.2576    1.0000 </r>
       <r>    2.7188    1.0000 </r>
       <r>    3.8882    1.0000 </r>
       <r>    3.9881    1.0000 </r>
       <r>    4.2387    1.0000 </r>
       <r>    4.4596    1.0000 </r>
       <r>    4.8594    1.0000 </r>
       <r>    6.1043    1.0000 </r>
       <r>    6.2665    1.0000 </r>
       <r>    7.4944    1.0000 </r>
       <r>    7.7763    0.5226 </r>
       <r>    7.7955    0.0039 </r>
       <r>    7.8600    0.0000 </r>
       <r>    8.0513    0.0000 </r>
       <r>    8.1557    0.0000 </r>
      </set>
      <set comment="kpoint 40">
       <r>  -36.4917    1.0000 </r>
       <r>  -14.8897    1.0000 </r>
       <r>  -14.8868    1.0000 </r>
       <r>  -14.8695    1.0000 </r>
       <r>  -14.8645    1.0000 </r>
       <r>  -14.8640    1.0000 </r>
       <r>  -11.7391    1.0000 </r>
       <r>  -11.6880    1.0000 </r>
       <r>  -11.6786    1.0000 </r>
       <r>   -3.2037    1.0000 </r>
       <r>    2.8540    1.0000 </r>
       <r>    3.7369    1.0000 </r>
       <r>    3.9179    1.0000 </r>
       <r>    4.3256    1.0000 </r>
       <r>    4.4766    1.0000 </r>
       <r>    4.6939    1.0000 </r>
       <r>    5.7947    1.0000 </r>
       <r>    6.2737    1.0000 </r>
       <r>    7.5617    1.0000 </r>
       <r>    7.7824    0.2098 </r>
       <r>    7.8129    0.0000 </r>
       <r>    7.8966    0.0000 </r>
       <r>    8.0473    0.0000 </r>
       <r>    8.1000    0.0000 </r>
      </set>
      <set comment="kpoint 41">
       <r>  -36.4916    1.0000 </r>
       <r>  -14.8894    1.0000 </r>
       <r>  -14.8887    1.0000 </r>
       <r>  -14.8691    1.0000 </r>
       <r>  -14.8650    1.0000 </r>
       <r>  -14.8640    1.0000 </r>
       <r>  -11.7405    1.0000 </r>
       <r>  -11.6965    1.0000 </r>
       <r>  -11.6725    1.0000 </r>
       <r>   -3.1570    1.0000 </r>
       <r>    2.9829    1.0000 </r>
       <r>    3.6348    1.0000 </r>
       <r>    3.8104    1.0000 </r>
       <r>    4.3164    1.0000 </r>
       <r>    4.5113    1.0000 </r>
       <r>    4.6435    1.0000 </r>
       <r>    5.5086    1.0000 </r>
       <r>    6.2659    1.0000 </r>
       <r>    7.5711    1.0000 </r>
       <r>    7.7918    0.0163 </r>
       <r>    7.8367    0.0000 </r>
       <r>    7.9520    0.0000 </r>
       <r>    8.0223    0.0000 </r>
       <r>    8.0570    0.0000 </r>
      </set>
      <set comment="kpoint 42">
       <r>  -36.4916    1.0000 </r>
       <r>  -14.8923    1.0000 </r>
       <r>  -14.8884    1.0000 </r>
       <r>  -14.8683    1.0000 </r>
       <r>  -14.8657    1.0000 </r>
       <r>  -14.8642    1.0000 </r>
       <r>  -11.7350    1.0000 </r>
       <r>  -11.7067    1.0000 </r>
       <r>  -11.6649    1.0000 </r>
       <r>   -3.1246    1.0000 </r>
       <r>    2.9874    1.0000 </r>
       <r>    3.6050    1.0000 </r>
       <r>    3.6902    1.0000 </r>
       <r>    4.2772    1.0000 </r>
       <r>    4.5558    1.0000 </r>
       <r>    4.7126    1.0000 </r>
       <r>    5.3239    1.0000 </r>
       <r>    6.2596    1.0000 </r>
       <r>    7.5604    1.0000 </r>
       <r>    7.7846    0.1325 </r>
       <r>    7.8646    0.0000 </r>
       <r>    7.9708    0.0000 </r>
       <r>    7.9877    0.0000 </r>
       <r>    8.0543    0.0000 </r>
      </set>
      <set comment="kpoint 43">
       <r>  -36.4917    1.0000 </r>
       <r>  -14.8948    1.0000 </r>
       <r>  -14.8887    1.0000 </r>
       <r>  -14.8675    1.0000 </r>
       <r>  -14.8663    1.0000 </r>
       <r>  -14.8645    1.0000 </r>
       <r>  -11.7305    1.0000 </r>
       <r>  -11.7095    1.0000 </r>
       <r>  -11.6577    1.0000 </r>
       <r>   -3.1131    1.0000 </r>
       <r>    2.8422    1.0000 </r>
       <r>    3.5852    1.0000 </r>
       <r>    3.6616    1.0000 </r>
       <r>    4.2887    1.0000 </r>
       <r>    4.5868    1.0000 </r>
       <r>    4.7868    1.0000 </r>
       <r>    5.2954    1.0000 </r>
       <r>    6.2857    1.0000 </r>
       <r>    7.5315    1.0000 </r>
       <r>    7.7715    0.7701 </r>
       <r>    7.8940    0.0000 </r>
       <r>    7.9172    0.0000 </r>
       <r>    7.9903    0.0000 </r>
       <r>    8.0388    0.0000 </r>
      </set>
      <set comment="kpoint 44">
       <r>  -36.4917    1.0000 </r>
       <r>  -14.8890    1.0000 </r>
       <r>  -14.8842    1.0000 </r>
       <r>  -14.8701    1.0000 </r>
       <r>  -14.8639    1.0000 </r>
       <r>  -14.8639    1.0000 </r>
       <r>  -11.7383    1.0000 </r>
       <r>  -11.6854    1.0000 </r>
       <r>  -11.6854    1.0000 </r>
       <r>   -3.2488    1.0000 </r>
       <r>    2.8441    1.0000 </r>
       <r>    3.9993    1.0000 </r>
       <r>    3.9993    1.0000 </r>
       <r>    4.0696    1.0000 </r>
       <r>    4.4890    1.0000 </r>
       <r>    4.7010    1.0000 </r>
       <r>    6.2784    1.0000 </r>
       <r>    6.2784    1.0000 </r>
       <r>    7.5432    1.0000 </r>
       <r>    7.8046    0.0000 </r>
       <r>    7.8046    0.0000 </r>
       <r>    7.8133    0.0000 </r>
       <r>    8.0828    0.0000 </r>
       <r>    8.2272    0.0000 </r>
      </set>
      <set comment="kpoint 45">
       <r>  -36.4916    1.0000 </r>
       <r>  -14.8873    1.0000 </r>
       <r>  -14.8847    1.0000 </r>
       <r>  -14.8702    1.0000 </r>
       <r>  -14.8638    1.0000 </r>
       <r>  -14.8637    1.0000 </r>
       <r>  -11.7444    1.0000 </r>
       <r>  -11.6885    1.0000 </r>
       <r>  -11.6850    1.0000 </r>
       <r>   -3.2275    1.0000 </r>
       <r>    3.0138    1.0000 </r>
       <r>    3.8542    1.0000 </r>
       <r>    3.9678    1.0000 </r>
       <r>    4.1737    1.0000 </r>
       <r>    4.5058    1.0000 </r>
       <r>    4.5257    1.0000 </r>
       <r>    6.1162    1.0000 </r>
       <r>    6.2913    1.0000 </r>
       <r>    7.6472    1.0000 </r>
       <r>    7.7780    0.4307 </r>
       <r>    7.8169    0.0000 </r>
       <r>    7.8573    0.0000 </r>
       <r>    8.0932    0.0000 </r>
       <r>    8.1194    0.0000 </r>
      </set>
      <set comment="kpoint 46">
       <r>  -36.4915    1.0000 </r>
       <r>  -14.8866    1.0000 </r>
       <r>  -14.8865    1.0000 </r>
       <r>  -14.8698    1.0000 </r>
       <r>  -14.8641    1.0000 </r>
       <r>  -14.8636    1.0000 </r>
       <r>  -11.7441    1.0000 </r>
       <r>  -11.6958    1.0000 </r>
       <r>  -11.6806    1.0000 </r>
       <r>   -3.1967    1.0000 </r>
       <r>    3.1603    1.0000 </r>
       <r>    3.7171    1.0000 </r>
       <r>    3.8941    1.0000 </r>
       <r>    4.2480    1.0000 </r>
       <r>    4.4677    1.0000 </r>
       <r>    4.5275    1.0000 </r>
       <r>    5.7545    1.0000 </r>
       <r>    6.2770    1.0000 </r>
       <r>    7.6531    1.0000 </r>
       <r>    7.7885    0.0480 </r>
       <r>    7.8321    0.0000 </r>
       <r>    7.9366    0.0000 </r>
       <r>    8.0403    0.0000 </r>
       <r>    8.0882    0.0000 </r>
      </set>
      <set comment="kpoint 47">
       <r>  -36.4915    1.0000 </r>
       <r>  -14.8893    1.0000 </r>
       <r>  -14.8870    1.0000 </r>
       <r>  -14.8691    1.0000 </r>
       <r>  -14.8648    1.0000 </r>
       <r>  -14.8638    1.0000 </r>
       <r>  -11.7375    1.0000 </r>
       <r>  -11.7055    1.0000 </r>
       <r>  -11.6734    1.0000 </r>
       <r>   -3.1604    1.0000 </r>
       <r>    3.1684    1.0000 </r>
       <r>    3.6226    1.0000 </r>
       <r>    3.7935    1.0000 </r>
       <r>    4.2425    1.0000 </r>
       <r>    4.5505    1.0000 </r>
       <r>    4.6074    1.0000 </r>
       <r>    5.4252    1.0000 </r>
       <r>    6.2529    1.0000 </r>
       <r>    7.6121    1.0000 </r>
       <r>    7.7906    0.0245 </r>
       <r>    7.8485    0.0000 </r>
       <r>    7.9841    0.0000 </r>
       <r>    8.0213    0.0000 </r>
       <r>    8.0403    0.0000 </r>
      </set>
      <set comment="kpoint 48">
       <r>  -36.4915    1.0000 </r>
       <r>  -14.8858    1.0000 </r>
       <r>  -14.8839    1.0000 </r>
       <r>  -14.8705    1.0000 </r>
       <r>  -14.8634    1.0000 </r>
       <r>  -14.8634    1.0000 </r>
       <r>  -11.7500    1.0000 </r>
       <r>  -11.6876    1.0000 </r>
       <r>  -11.6876    1.0000 </r>
       <r>   -3.2346    1.0000 </r>
       <r>    3.1665    1.0000 </r>
       <r>    3.9836    1.0000 </r>
       <r>    3.9836    1.0000 </r>
       <r>    4.0057    1.0000 </r>
       <r>    4.3584    1.0000 </r>
       <r>    4.5165    1.0000 </r>
       <r>    6.3169    1.0000 </r>
       <r>    6.3169    1.0000 </r>
       <r>    7.7507    0.9999 </r>
       <r>    7.7939    0.0076 </r>
       <r>    7.8218    0.0000 </r>
       <r>    7.8218    0.0000 </r>
       <r>    8.0634    0.0000 </r>
       <r>    8.1124    0.0000 </r>
      </set>
      <set comment="kpoint 49">
       <r>  -36.4915    1.0000 </r>
       <r>  -14.8856    1.0000 </r>
       <r>  -14.8845    1.0000 </r>
       <r>  -14.8704    1.0000 </r>
       <r>  -14.8636    1.0000 </r>
       <r>  -14.8634    1.0000 </r>
       <r>  -11.7498    1.0000 </r>
       <r>  -11.6903    1.0000 </r>
       <r>  -11.6861    1.0000 </r>
       <r>   -3.2239    1.0000 </r>
       <r>    3.2347    1.0000 </r>
       <r>    3.8383    1.0000 </r>
       <r>    3.9573    1.0000 </r>
       <r>    4.1479    1.0000 </r>
       <r>    4.3090    1.0000 </r>
       <r>    4.5240    1.0000 </r>
       <r>    6.1325    1.0000 </r>
       <r>    6.3095    1.0000 </r>
       <r>    7.7378    1.0000 </r>
       <r>    7.7870    0.0725 </r>
       <r>    7.8271    0.0000 </r>
       <r>    7.9132    0.0000 </r>
       <r>    7.9993    0.0000 </r>
       <r>    8.1117    0.0000 </r>
      </set>
      <set comment="kpoint 50">
       <r>  -36.4929    1.0000 </r>
       <r>  -14.8920    1.0000 </r>
       <r>  -14.8871    1.0000 </r>
       <r>  -14.8677    1.0000 </r>
       <r>  -14.8664    1.0000 </r>
       <r>  -14.8663    1.0000 </r>
       <r>  -11.6952    1.0000 </r>
       <r>  -11.6747    1.0000 </r>
       <r>  -11.6629    1.0000 </r>
       <r>   -3.5626    1.0000 </r>
       <r>    3.1060    1.0000 </r>
       <r>    3.7511    1.0000 </r>
       <r>    3.9790    1.0000 </r>
       <r>    4.3354    1.0000 </r>
       <r>    4.4743    1.0000 </r>
       <r>    5.3068    1.0000 </r>
       <r>    6.3266    1.0000 </r>
       <r>    6.6389    1.0000 </r>
       <r>    7.3072    1.0000 </r>
       <r>    7.7530    0.9996 </r>
       <r>    7.7717    0.7612 </r>
       <r>    7.8765    0.0000 </r>
       <r>    7.9459    0.0000 </r>
       <r>    8.0040    0.0000 </r>
      </set>
      <set comment="kpoint 51">
       <r>  -36.4926    1.0000 </r>
       <r>  -14.8941    1.0000 </r>
       <r>  -14.8883    1.0000 </r>
       <r>  -14.8680    1.0000 </r>
       <r>  -14.8661    1.0000 </r>
       <r>  -14.8659    1.0000 </r>
[...]
       <r>    7.5751    1.0000 </r>
       <r>    7.8044    0.0000 </r>
       <r>    7.8993    0.0000 </r>
       <r>    7.9536    0.0000 </r>
       <r>    7.9889    0.0000 </r>
       <r>    8.0506    0.0000 </r>
      </set>
      <set comment="kpoint 81">
       <r>  -36.4916    1.0000 </r>
       <r>  -14.8934    1.0000 </r>
       <r>  -14.8874    1.0000 </r>
       <r>  -14.8678    1.0000 </r>
       <r>  -14.8664    1.0000 </r>
       <r>  -14.8640    1.0000 </r>
       <r>  -11.7312    1.0000 </r>
       <r>  -11.7066    1.0000 </r>
       <r>  -11.6669    1.0000 </r>
       <r>   -3.1314    1.0000 </r>
       <r>    2.9527    1.0000 </r>
       <r>    3.5041    1.0000 </r>
       <r>    3.8627    1.0000 </r>
       <r>    4.3536    1.0000 </r>
       <r>    4.5249    1.0000 </r>
       <r>    4.7480    1.0000 </r>
       <r>    5.1414    1.0000 </r>
       <r>    6.3368    1.0000 </r>
       <r>    7.5577    1.0000 </r>
       <r>    7.7920    0.0152 </r>
       <r>    7.8932    0.0000 </r>
       <r>    7.9428    0.0000 </r>
       <r>    7.9749    0.0000 </r>
       <r>    8.0507    0.0000 </r>
      </set>
      <set comment="kpoint 82">
       <r>  -36.4915    1.0000 </r>
       <r>  -14.8897    1.0000 </r>
       <r>  -14.8853    1.0000 </r>
       <r>  -14.8692    1.0000 </r>
       <r>  -14.8651    1.0000 </r>
       <r>  -14.8634    1.0000 </r>
       <r>  -11.7384    1.0000 </r>
       <r>  -11.6992    1.0000 </r>
       <r>  -11.6808    1.0000 </r>
       <r>   -3.1733    1.0000 </r>
       <r>    3.1857    1.0000 </r>
       <r>    3.5725    1.0000 </r>
       <r>    3.9662    1.0000 </r>
       <r>    4.3582    1.0000 </r>
       <r>    4.4539    1.0000 </r>
       <r>    4.5482    1.0000 </r>
       <r>    5.3028    1.0000 </r>
       <r>    6.3662    1.0000 </r>
       <r>    7.6221    1.0000 </r>
       <r>    7.8059    0.0000 </r>
       <r>    7.8631    0.0000 </r>
       <r>    7.9643    0.0000 </r>
       <r>    8.0266    0.0000 </r>
       <r>    8.0524    0.0000 </r>
      </set>
      <set comment="kpoint 83">
       <r>  -36.4915    1.0000 </r>
       <r>  -14.8912    1.0000 </r>
       <r>  -14.8854    1.0000 </r>
       <r>  -14.8686    1.0000 </r>
       <r>  -14.8659    1.0000 </r>
       <r>  -14.8634    1.0000 </r>
       <r>  -11.7327    1.0000 </r>
       <r>  -11.7063    1.0000 </r>
       <r>  -11.6781    1.0000 </r>
       <r>   -3.1526    1.0000 </r>
       <r>    3.2300    1.0000 </r>
       <r>    3.5000    1.0000 </r>
       <r>    3.9411    1.0000 </r>
       <r>    4.3435    1.0000 </r>
       <r>    4.5228    1.0000 </r>
       <r>    4.6080    1.0000 </r>
       <r>    5.0342    1.0000 </r>
       <r>    6.3673    1.0000 </r>
       <r>    7.6039    1.0000 </r>
       <r>    7.8140    0.0000 </r>
       <r>    7.8856    0.0000 </r>
       <r>    7.9821    0.0000 </r>
       <r>    8.0128    0.0000 </r>
       <r>    8.0241    0.0000 </r>
      </set>
      <set comment="kpoint 84">
       <r>  -36.4915    1.0000 </r>
       <r>  -14.8921    1.0000 </r>
       <r>  -14.8854    1.0000 </r>
       <r>  -14.8680    1.0000 </r>
       <r>  -14.8666    1.0000 </r>
       <r>  -14.8634    1.0000 </r>
       <r>  -11.7291    1.0000 </r>
       <r>  -11.7089    1.0000 </r>
       <r>  -11.6775    1.0000 </r>
       <r>   -3.1438    1.0000 </r>
       <r>    3.2156    1.0000 </r>
       <r>    3.4661    1.0000 </r>
       <r>    3.9512    1.0000 </r>
       <r>    4.4019    1.0000 </r>
       <r>    4.5349    1.0000 </r>
       <r>    4.6622    1.0000 </r>
       <r>    4.8513    1.0000 </r>
       <r>    6.3811    1.0000 </r>
       <r>    7.5933    1.0000 </r>
       <r>    7.8181    0.0000 </r>
       <r>    7.9082    0.0000 </r>
       <r>    7.9616    0.0000 </r>
       <r>    7.9964    0.0000 </r>
       <r>    8.0401    0.0000 </r>
      </set>
     </set>
    </set>
   </array>
  </eigenvalues>
  <separator name="orbital magnetization" >
   <v name="MAGDIPOLOUT">      0.00000000      0.00000000      0.00000000</v>
  </separator>
  <dos>
   <i name="efermi">      7.77672164 </i>
   <total>
    <array>
     <dimension dim="1">gridpoints</dimension>
     <dimension dim="2">spin</dimension>
     <field>energy</field>
     <field>total</field>
     <field>integrated</field>
     <set>
      <set comment="spin 1">
       <r>   -38.7296     0.0000     0.0000 </r>
       <r>   -38.5656     0.0000     0.0000 </r>
       <r>   -38.4016     0.0000     0.0000 </r>
       <r>   -38.2376     0.0000     0.0000 </r>
       <r>   -38.0736     0.0000     0.0000 </r>
       <r>   -37.9096     0.0000     0.0000 </r>
       <r>   -37.7456     0.0000     0.0000 </r>
       <r>   -37.5816     0.0000     0.0000 </r>
       <r>   -37.4177     0.0000     0.0000 </r>
       <r>   -37.2537     0.0000     0.0000 </r>
       <r>   -37.0897     0.0000     0.0000 </r>
       <r>   -36.9257     0.0000     0.0000 </r>
       <r>   -36.7617     0.0000     0.0000 </r>
       <r>   -36.5977     0.0000     0.0000 </r>
       <r>   -36.4337    12.1960     2.0000 </r>
       <r>   -36.2697     0.0000     2.0000 </r>
       <r>   -36.1058     0.0000     2.0000 </r>
       <r>   -35.9418     0.0000     2.0000 </r>
       <r>   -35.7778     0.0000     2.0000 </r>
       <r>   -35.6138     0.0000     2.0000 </r>
       <r>   -35.4498     0.0000     2.0000 </r>
       <r>   -35.2858     0.0000     2.0000 </r>
       <r>   -35.1218     0.0000     2.0000 </r>
       <r>   -34.9578     0.0000     2.0000 </r>
       <r>   -34.7938     0.0000     2.0000 </r>
       <r>   -34.6299     0.0000     2.0000 </r>
       <r>   -34.4659     0.0000     2.0000 </r>
       <r>   -34.3019     0.0000     2.0000 </r>
       <r>   -34.1379     0.0000     2.0000 </r>
       <r>   -33.9739     0.0000     2.0000 </r>
       <r>   -33.8099     0.0000     2.0000 </r>
       <r>   -33.6459     0.0000     2.0000 </r>
       <r>   -33.4819     0.0000     2.0000 </r>
       <r>   -33.3179     0.0000     2.0000 </r>
       <r>   -33.1540     0.0000     2.0000 </r>
       <r>   -32.9900     0.0000     2.0000 </r>
       <r>   -32.8260     0.0000     2.0000 </r>
       <r>   -32.6620     0.0000     2.0000 </r>
       <r>   -32.4980     0.0000     2.0000 </r>
       <r>   -32.3340     0.0000     2.0000 </r>
       <r>   -32.1700     0.0000     2.0000 </r>
       <r>   -32.0060     0.0000     2.0000 </r>
       <r>   -31.8421     0.0000     2.0000 </r>
       <r>   -31.6781     0.0000     2.0000 </r>
       <r>   -31.5141     0.0000     2.0000 </r>
       <r>   -31.3501     0.0000     2.0000 </r>
       <r>   -31.1861     0.0000     2.0000 </r>
       <r>   -31.0221     0.0000     2.0000 </r>
       <r>   -30.8581     0.0000     2.0000 </r>
       <r>   -30.6941     0.0000     2.0000 </r>
       <r>   -30.5301     0.0000     2.0000 </r>
       <r>   -30.3662     0.0000     2.0000 </r>
       <r>   -30.2022     0.0000     2.0000 </r>
       <r>   -30.0382     0.0000     2.0000 </r>
       <r>   -29.8742     0.0000     2.0000 </r>
       <r>   -29.7102     0.0000     2.0000 </r>
       <r>   -29.5462     0.0000     2.0000 </r>
       <r>   -29.3822     0.0000     2.0000 </r>
       <r>   -29.2182     0.0000     2.0000 </r>
       <r>   -29.0542     0.0000     2.0000 </r>
       <r>   -28.8903     0.0000     2.0000 </r>
       <r>   -28.7263     0.0000     2.0000 </r>
       <r>   -28.5623     0.0000     2.0000 </r>
       <r>   -28.3983     0.0000     2.0000 </r>
       <r>   -28.2343     0.0000     2.0000 </r>
       <r>   -28.0703     0.0000     2.0000 </r>
       <r>   -27.9063     0.0000     2.0000 </r>
       <r>   -27.7423     0.0000     2.0000 </r>
       <r>   -27.5784     0.0000     2.0000 </r>
       <r>   -27.4144     0.0000     2.0000 </r>
       <r>   -27.2504     0.0000     2.0000 </r>
       <r>   -27.0864     0.0000     2.0000 </r>
       <r>   -26.9224     0.0000     2.0000 </r>
       <r>   -26.7584     0.0000     2.0000 </r>
       <r>   -26.5944     0.0000     2.0000 </r>
       <r>   -26.4304     0.0000     2.0000 </r>
       <r>   -26.2664     0.0000     2.0000 </r>
       <r>   -26.1025     0.0000     2.0000 </r>
       <r>   -25.9385     0.0000     2.0000 </r>
       <r>   -25.7745     0.0000     2.0000 </r>
       <r>   -25.6105     0.0000     2.0000 </r>
       <r>   -25.4465     0.0000     2.0000 </r>
       <r>   -25.2825     0.0000     2.0000 </r>
       <r>   -25.1185     0.0000     2.0000 </r>
       <r>   -24.9545     0.0000     2.0000 </r>
       <r>   -24.7905     0.0000     2.0000 </r>
       <r>   -24.6266     0.0000     2.0000 </r>
       <r>   -24.4626     0.0000     2.0000 </r>
       <r>   -24.2986     0.0000     2.0000 </r>
       <r>   -24.1346     0.0000     2.0000 </r>
       <r>   -23.9706     0.0000     2.0000 </r>
       <r>   -23.8066     0.0000     2.0000 </r>
       <r>   -23.6426     0.0000     2.0000 </r>
       <r>   -23.4786     0.0000     2.0000 </r>
       <r>   -23.3147     0.0000     2.0000 </r>
       <r>   -23.1507     0.0000     2.0000 </r>
       <r>   -22.9867     0.0000     2.0000 </r>
       <r>   -22.8227     0.0000     2.0000 </r>
       <r>   -22.6587     0.0000     2.0000 </r>
       <r>   -22.4947     0.0000     2.0000 </r>
       <r>   -22.3307     0.0000     2.0000 </r>
       <r>   -22.1667     0.0000     2.0000 </r>
       <r>   -22.0027     0.0000     2.0000 </r>
       <r>   -21.8388     0.0000     2.0000 </r>
       <r>   -21.6748     0.0000     2.0000 </r>
       <r>   -21.5108     0.0000     2.0000 </r>
       <r>   -21.3468     0.0000     2.0000 </r>
       <r>   -21.1828     0.0000     2.0000 </r>
       <r>   -21.0188     0.0000     2.0000 </r>
       <r>   -20.8548     0.0000     2.0000 </r>
       <r>   -20.6908     0.0000     2.0000 </r>
       <r>   -20.5268     0.0000     2.0000 </r>
       <r>   -20.3629     0.0000     2.0000 </r>
       <r>   -20.1989     0.0000     2.0000 </r>
       <r>   -20.0349     0.0000     2.0000 </r>
       <r>   -19.8709     0.0000     2.0000 </r>
       <r>   -19.7069     0.0000     2.0000 </r>
       <r>   -19.5429     0.0000     2.0000 </r>
       <r>   -19.3789     0.0000     2.0000 </r>
       <r>   -19.2149     0.0000     2.0000 </r>
       <r>   -19.0510     0.0000     2.0000 </r>
       <r>   -18.8870     0.0000     2.0000 </r>
       <r>   -18.7230     0.0000     2.0000 </r>
       <r>   -18.5590     0.0000     2.0000 </r>
       <r>   -18.3950     0.0000     2.0000 </r>
       <r>   -18.2310     0.0000     2.0000 </r>
       <r>   -18.0670     0.0000     2.0000 </r>
       <r>   -17.9030     0.0000     2.0000 </r>
       <r>   -17.7390     0.0000     2.0000 </r>
       <r>   -17.5751     0.0000     2.0000 </r>
       <r>   -17.4111     0.0000     2.0000 </r>
       <r>   -17.2471     0.0000     2.0000 </r>
       <r>   -17.0831     0.0000     2.0000 </r>
       <r>   -16.9191     0.0000     2.0000 </r>
       <r>   -16.7551     0.0000     2.0000 </r>
       <r>   -16.5911     0.0000     2.0000 </r>
       <r>   -16.4271     0.0000     2.0000 </r>
       <r>   -16.2632     0.0000     2.0000 </r>
       <r>   -16.0992     0.0000     2.0000 </r>
       <r>   -15.9352     0.0000     2.0000 </r>
       <r>   -15.7712     0.0000     2.0000 </r>
       <r>   -15.6072     0.0000     2.0000 </r>
       <r>   -15.4432     0.0000     2.0000 </r>
       <r>   -15.2792     0.0000     2.0000 </r>
       <r>   -15.1152     0.0000     2.0000 </r>
       <r>   -14.9512     0.0000     2.0000 </r>
       <r>   -14.7873    24.5418    12.0000 </r>
       <r>   -14.6233     0.0000    12.0000 </r>
       <r>   -14.4593     0.0000    12.0000 </r>
       <r>   -14.2953     0.0000    12.0000 </r>
       <r>   -14.1313     0.0000    12.0000 </r>
       <r>   -13.9673     0.0000    12.0000 </r>
       <r>   -13.8033     0.0000    12.0000 </r>
       <r>   -13.6393     0.0000    12.0000 </r>
       <r>   -13.4753     0.0000    12.0000 </r>
       <r>   -13.3114     0.0000    12.0000 </r>
       <r>   -13.1474     0.0000    12.0000 </r>
       <r>   -12.9834     0.0000    12.0000 </r>
       <r>   -12.8194     0.0000    12.0000 </r>
       <r>   -12.6554     0.0000    12.0000 </r>
       <r>   -12.4914     0.0000    12.0000 </r>
       <r>   -12.3274     0.0000    12.0000 </r>
       <r>   -12.1634     0.0000    12.0000 </r>
       <r>   -11.9995     0.0000    12.0000 </r>
       <r>   -11.8355     0.0000    12.0000 </r>
       <r>   -11.6715    24.0190    16.1282 </r>
       <r>   -11.5075     0.0000    18.0000 </r>
       <r>   -11.3435     0.0000    18.0000 </r>
       <r>   -11.1795     0.0000    18.0000 </r>
       <r>   -11.0155     0.0000    18.0000 </r>
       <r>   -10.8515     0.0000    18.0000 </r>
       <r>   -10.6875     0.0000    18.0000 </r>
       <r>   -10.5236     0.0000    18.0000 </r>
       <r>   -10.3596     0.0000    18.0000 </r>
       <r>   -10.1956     0.0000    18.0000 </r>
       <r>   -10.0316     0.0000    18.0000 </r>
       <r>    -9.8676     0.0000    18.0000 </r>
       <r>    -9.7036     0.0000    18.0000 </r>
       <r>    -9.5396     0.0000    18.0000 </r>
       <r>    -9.3756     0.0000    18.0000 </r>
       <r>    -9.2116     0.0000    18.0000 </r>
       <r>    -9.0477     0.0000    18.0000 </r>
       <r>    -8.8837     0.0000    18.0000 </r>
       <r>    -8.7197     0.0000    18.0000 </r>
       <r>    -8.5557     0.0000    18.0000 </r>
       <r>    -8.3917     0.0000    18.0000 </r>
       <r>    -8.2277     0.0000    18.0000 </r>
       <r>    -8.0637     0.0000    18.0000 </r>
       <r>    -7.8997     0.0000    18.0000 </r>
       <r>    -7.7358     0.0000    18.0000 </r>
       <r>    -7.5718     0.0000    18.0000 </r>
       <r>    -7.4078     0.0000    18.0000 </r>
       <r>    -7.2438     0.0000    18.0000 </r>
       <r>    -7.0798     0.0000    18.0000 </r>
       <r>    -6.9158     0.0000    18.0000 </r>
       <r>    -6.7518     0.0000    18.0000 </r>
       <r>    -6.5878     0.0000    18.0000 </r>
       <r>    -6.4238     0.0000    18.0000 </r>
       <r>    -6.2599     0.0000    18.0000 </r>
       <r>    -6.0959     0.0000    18.0000 </r>
       <r>    -5.9319     0.0000    18.0000 </r>
       <r>    -5.7679     0.0000    18.0000 </r>
       <r>    -5.6039     0.0000    18.0000 </r>
       <r>    -5.4399     0.0000    18.0000 </r>
       <r>    -5.2759     0.0000    18.0000 </r>
       <r>    -5.1119     0.0000    18.0000 </r>
       <r>    -4.9479     0.0000    18.0000 </r>
       <r>    -4.7840     0.0000    18.0000 </r>
       <r>    -4.6200     0.0000    18.0000 </r>
       <r>    -4.4560     0.0000    18.0000 </r>
       <r>    -4.2920     0.0000    18.0000 </r>
       <r>    -4.1280     0.0000    18.0000 </r>
       <r>    -3.9640     0.0000    18.0000 </r>
       <r>    -3.8000     0.0041    18.0007 </r>
       <r>    -3.6360     0.2419    18.0533 </r>
       <r>    -3.4721     0.3064    18.1531 </r>
       <r>    -3.3081     0.4809    18.3365 </r>
       <r>    -3.1441     4.0069    19.2879 </r>
       <r>    -2.9801     0.1776    20.0000 </r>
       <r>    -2.8161     0.0000    20.0000 </r>
       <r>    -2.6521     0.0000    20.0000 </r>
       <r>    -2.4881     0.0000    20.0000 </r>
       <r>    -2.3241     0.0000    20.0000 </r>
       <r>    -2.1601     0.0000    20.0000 </r>
       <r>    -1.9962     0.0000    20.0000 </r>
       <r>    -1.8322     0.0000    20.0000 </r>
       <r>    -1.6682     0.0000    20.0000 </r>
       <r>    -1.5042     0.0000    20.0000 </r>
       <r>    -1.3402     0.0000    20.0000 </r>
       <r>    -1.1762     0.0000    20.0000 </r>
       <r>    -1.0122     0.0000    20.0000 </r>
       <r>    -0.8482     0.0000    20.0000 </r>
       <r>    -0.6842     0.0000    20.0000 </r>
       <r>    -0.5203     0.0000    20.0000 </r>
       <r>    -0.3563     0.0000    20.0000 </r>
       <r>    -0.1923     0.0000    20.0000 </r>
       <r>    -0.0283     0.0000    20.0000 </r>
       <r>     0.1357     0.0000    20.0000 </r>
       <r>     0.2997     0.0000    20.0000 </r>
       <r>     0.4637     0.0000    20.0000 </r>
       <r>     0.6277     0.0000    20.0000 </r>
       <r>     0.7916     0.0000    20.0000 </r>
       <r>     0.9556     0.0000    20.0000 </r>
       <r>     1.1196     0.0000    20.0000 </r>
       <r>     1.2836     0.0000    20.0000 </r>
       <r>     1.4476     0.0000    20.0000 </r>
       <r>     1.6116     0.0000    20.0000 </r>
       <r>     1.7756     0.0000    20.0000 </r>
       <r>     1.9396     0.0000    20.0000 </r>
       <r>     2.1036     0.0000    20.0000 </r>
       <r>     2.2675     0.0000    20.0000 </r>
       <r>     2.4315     0.2129    20.0349 </r>
       <r>     2.5955     0.8073    20.2562 </r>
       <r>     2.7595     1.6522    21.0010 </r>
       <r>     2.9235     2.0138    21.4117 </r>
       <r>     3.0875     1.0467    21.6628 </r>
       <r>     3.2515     0.7318    21.9461 </r>
       <r>     3.4155     0.1332    21.9681 </r>
       <r>     3.5795     4.9227    22.8810 </r>
       <r>     3.7434     2.8646    24.0237 </r>
       <r>     3.9074     3.6928    25.2228 </r>
       <r>     4.0714     0.5197    26.0088 </r>
       <r>     4.2354     0.3585    26.0806 </r>
       <r>     4.3994     9.4445    28.0477 </r>
       <r>     4.5634     6.0784    30.1684 </r>
       <r>     4.7274     2.8183    31.1158 </r>
       <r>     4.8914     1.0075    31.5853 </r>
       <r>     5.0553     0.8622    31.8346 </r>
       <r>     5.2193     0.7995    32.0446 </r>
       <r>     5.3833     1.3870    32.3540 </r>
       <r>     5.5473     0.5873    32.5852 </r>
       <r>     5.7113     0.8515    32.8706 </r>
       <r>     5.8753     0.2817    33.1277 </r>
       <r>     6.0393     0.8235    33.3913 </r>
       <r>     6.2033     0.3331    33.6495 </r>
       <r>     6.3673     6.7318    34.9501 </r>
       <r>     6.5312     1.5628    35.6755 </r>
       <r>     6.6952     0.6883    35.9254 </r>
       <r>     6.8592     0.1524    35.9977 </r>
       <r>     7.0232     0.0843    36.0147 </r>
       <r>     7.1872     0.1312    36.0570 </r>
       <r>     7.3512     1.2062    36.4554 </r>
       <r>     7.5152     2.5215    37.2556 </r>
       <r>     7.6792     1.3091    37.9689 </r>
       <r>     7.8431    18.7365    41.3575 </r>
       <r>     8.0071    18.4351    45.6158 </r>
       <r>     8.1711     2.6182    47.9887 </r>
       <r>     8.3351     0.0000    48.0000 </r>
       <r>     8.4991     0.0000    48.0000 </r>
       <r>     8.6631     0.0000    48.0000 </r>
       <r>     8.8271     0.0000    48.0000 </r>
       <r>     8.9911     0.0000    48.0000 </r>
       <r>     9.1551     0.0000    48.0000 </r>
       <r>     9.3190     0.0000    48.0000 </r>
       <r>     9.4830     0.0000    48.0000 </r>
       <r>     9.6470     0.0000    48.0000 </r>
       <r>     9.8110     0.0000    48.0000 </r>
       <r>     9.9750     0.0000    48.0000 </r>
       <r>    10.1390     0.0000    48.0000 </r>
       <r>    10.3030     0.0000    48.0000 </r>
       <r>    10.4670     0.0000    48.0000 </r>
      </set>
     </set>
    </array>
   </total>
  </dos>
 </calculation>
 <structure name="finalpos" >
  <crystal>
   <varray name="basis" >
    <v>       0.00000000       3.52551964       3.52551964 </v>
    <v>       3.52551964       0.00000000       3.52551964 </v>
    <v>       3.52551964       3.52551964       0.00000000 </v>
   </varray>
   <i name="volume">     87.63940293 </i>
   <varray name="rec_basis" >
    <v>      -0.14182306       0.14182306       0.14182306 </v>
    <v>       0.14182306      -0.14182306       0.14182306 </v>
    <v>       0.14182306       0.14182306      -0.14182306 </v>
   </varray>
  </crystal>
  <varray name="positions" >
   <v>       0.25000000       0.25000000       0.25000000 </v>
   <v>       0.75000000       0.75000000       0.75000000 </v>
   <v>       0.00000000       0.00000000       0.00000000 </v>
  </varray>
 </structure>
</modeling>
