   3   3   0   0
  0.2183167E+02  0.4524540E-09  0.4524540E-09  0.4524540E-09  0.5000000E-15
  1.000000000000000E-004
  CAR
 unknown system
     13.10967932    -25.33936325  301      8.72296237      1.00000000
    -25.339  0.0000E+00  0.0000E+00
    -25.211  0.0000E+00  0.0000E+00
    -25.083  0.0000E+00  0.0000E+00
    -24.955  0.0000E+00  0.0000E+00
    -24.827  0.0000E+00  0.0000E+00
    -24.699  0.0000E+00  0.0000E+00
    -24.570  0.0000E+00  0.0000E+00
    -24.442  0.0000E+00  0.0000E+00
    -24.314  0.0000E+00  0.0000E+00
    -24.186  0.0000E+00  0.0000E+00
    -24.058  0.0000E+00  0.0000E+00
    -23.930  0.0000E+00  0.0000E+00
    -23.801  0.0000E+00  0.0000E+00
    -23.673  0.0000E+00  0.0000E+00
    -23.545  0.4681E+02  0.6000E+01
    -23.417  0.0000E+00  0.6000E+01
    -23.289  0.0000E+00  0.6000E+01
    -23.161  0.0000E+00  0.6000E+01
    -23.032  0.0000E+00  0.6000E+01
    -22.904  0.0000E+00  0.6000E+01
    -22.776  0.0000E+00  0.6000E+01
    -22.648  0.0000E+00  0.6000E+01
    -22.520  0.0000E+00  0.6000E+01
    -22.392  0.0000E+00  0.6000E+01
    -22.263  0.0000E+00  0.6000E+01
    -22.135  0.0000E+00  0.6000E+01
    -22.007  0.0000E+00  0.6000E+01
    -21.879  0.0000E+00  0.6000E+01
    -21.751  0.0000E+00  0.6000E+01
    -21.623  0.0000E+00  0.6000E+01
    -21.494  0.0000E+00  0.6000E+01
    -21.366  0.0000E+00  0.6000E+01
    -21.238  0.0000E+00  0.6000E+01
    -21.110  0.0000E+00  0.6000E+01
    -20.982  0.0000E+00  0.6000E+01
    -20.854  0.0000E+00  0.6000E+01
    -20.725  0.0000E+00  0.6000E+01
    -20.597  0.0000E+00  0.6000E+01
    -20.469  0.0000E+00  0.6000E+01
    -20.341  0.0000E+00  0.6000E+01
    -20.213  0.0000E+00  0.6000E+01
    -20.085  0.0000E+00  0.6000E+01
    -19.956  0.0000E+00  0.6000E+01
    -19.828  0.0000E+00  0.6000E+01
    -19.700  0.0000E+00  0.6000E+01
    -19.572  0.0000E+00  0.6000E+01
    -19.444  0.0000E+00  0.6000E+01
    -19.316  0.0000E+00  0.6000E+01
    -19.188  0.0000E+00  0.6000E+01
    -19.059  0.0000E+00  0.6000E+01
    -18.931  0.0000E+00  0.6000E+01
    -18.803  0.0000E+00  0.6000E+01
    -18.675  0.0000E+00  0.6000E+01
    -18.547  0.0000E+00  0.6000E+01
    -18.419  0.0000E+00  0.6000E+01
    -18.290  0.0000E+00  0.6000E+01
    -18.162  0.0000E+00  0.6000E+01
    -18.034  0.0000E+00  0.6000E+01
    -17.906  0.0000E+00  0.6000E+01
    -17.778  0.0000E+00  0.6000E+01
    -17.650  0.0000E+00  0.6000E+01
    -17.521  0.0000E+00  0.6000E+01
    -17.393  0.0000E+00  0.6000E+01
    -17.265  0.0000E+00  0.6000E+01
    -17.137  0.0000E+00  0.6000E+01
    -17.009  0.0000E+00  0.6000E+01
    -16.881  0.0000E+00  0.6000E+01
    -16.752  0.0000E+00  0.6000E+01
    -16.624  0.0000E+00  0.6000E+01
    -16.496  0.0000E+00  0.6000E+01
    -16.368  0.0000E+00  0.6000E+01
    -16.240  0.0000E+00  0.6000E+01
    -16.112  0.0000E+00  0.6000E+01
    -15.983  0.0000E+00  0.6000E+01
    -15.855  0.0000E+00  0.6000E+01
    -15.727  0.0000E+00  0.6000E+01
    -15.599  0.0000E+00  0.6000E+01
    -15.471  0.0000E+00  0.6000E+01
    -15.343  0.0000E+00  0.6000E+01
    -15.214  0.0000E+00  0.6000E+01
    -15.086  0.0000E+00  0.6000E+01
    -14.958  0.0000E+00  0.6000E+01
    -14.830  0.0000E+00  0.6000E+01
    -14.702  0.0000E+00  0.6000E+01
    -14.574  0.0000E+00  0.6000E+01
    -14.445  0.0000E+00  0.6000E+01
    -14.317  0.0000E+00  0.6000E+01
    -14.189  0.0000E+00  0.6000E+01
    -14.061  0.0000E+00  0.6000E+01
    -13.933  0.0000E+00  0.6000E+01
    -13.805  0.0000E+00  0.6000E+01
    -13.676  0.0000E+00  0.6000E+01
    -13.548  0.0000E+00  0.6000E+01
    -13.420  0.0000E+00  0.6000E+01
    -13.292  0.0000E+00  0.6000E+01
    -13.164  0.0000E+00  0.6000E+01
    -13.036  0.0000E+00  0.6000E+01
    -12.908  0.0000E+00  0.6000E+01
    -12.779  0.0000E+00  0.6000E+01
    -12.651  0.0000E+00  0.6000E+01
    -12.523  0.0000E+00  0.6000E+01
    -12.395  0.0000E+00  0.6000E+01
    -12.267  0.0000E+00  0.6000E+01
    -12.139  0.0000E+00  0.6000E+01
    -12.010  0.0000E+00  0.6000E+01
    -11.882  0.0000E+00  0.6000E+01
    -11.754  0.0000E+00  0.6000E+01
    -11.626  0.0000E+00  0.6000E+01
    -11.498  0.0000E+00  0.6000E+01
    -11.370  0.0000E+00  0.6000E+01
    -11.241  0.0000E+00  0.6000E+01
    -11.113  0.0000E+00  0.6000E+01
    -10.985  0.0000E+00  0.6000E+01
    -10.857  0.0000E+00  0.6000E+01
    -10.729  0.0000E+00  0.6000E+01
    -10.601  0.0000E+00  0.6000E+01
    -10.472  0.0000E+00  0.6000E+01
    -10.344  0.0000E+00  0.6000E+01
    -10.216  0.0000E+00  0.6000E+01
    -10.088  0.0000E+00  0.6000E+01
     -9.960  0.0000E+00  0.6000E+01
     -9.832  0.0000E+00  0.6000E+01
     -9.703  0.0000E+00  0.6000E+01
     -9.575  0.0000E+00  0.6000E+01
     -9.447  0.0000E+00  0.6000E+01
     -9.319  0.0000E+00  0.6000E+01
     -9.191  0.0000E+00  0.6000E+01
     -9.063  0.0000E+00  0.6000E+01
     -8.934  0.0000E+00  0.6000E+01
     -8.806  0.0000E+00  0.6000E+01
     -8.678  0.0000E+00  0.6000E+01
     -8.550  0.0000E+00  0.6000E+01
     -8.422  0.0000E+00  0.6000E+01
     -8.294  0.0000E+00  0.6000E+01
     -8.165  0.0000E+00  0.6000E+01
     -8.037  0.0000E+00  0.6000E+01
     -7.909  0.0000E+00  0.6000E+01
     -7.781  0.0000E+00  0.6000E+01
     -7.653  0.0000E+00  0.6000E+01
     -7.525  0.0000E+00  0.6000E+01
     -7.396  0.0000E+00  0.6000E+01
     -7.268  0.0000E+00  0.6000E+01
     -7.140  0.0000E+00  0.6000E+01
     -7.012  0.0000E+00  0.6000E+01
     -6.884  0.0000E+00  0.6000E+01
     -6.756  0.0000E+00  0.6000E+01
     -6.627  0.0000E+00  0.6000E+01
     -6.499  0.0000E+00  0.6000E+01
     -6.371  0.0000E+00  0.6000E+01
     -6.243  0.0000E+00  0.6000E+01
     -6.115  0.0000E+00  0.6000E+01
     -5.987  0.0000E+00  0.6000E+01
     -5.859  0.0000E+00  0.6000E+01
     -5.730  0.0000E+00  0.6000E+01
     -5.602  0.0000E+00  0.6000E+01
     -5.474  0.0000E+00  0.6000E+01
     -5.346  0.0000E+00  0.6000E+01
     -5.218  0.0000E+00  0.6000E+01
     -5.090  0.0000E+00  0.6000E+01
     -4.961  0.0000E+00  0.6000E+01
     -4.833  0.0000E+00  0.6000E+01
     -4.705  0.0000E+00  0.6000E+01
     -4.577  0.0000E+00  0.6000E+01
     -4.449  0.0000E+00  0.6000E+01
     -4.321  0.0000E+00  0.6000E+01
     -4.192  0.0000E+00  0.6000E+01
     -4.064  0.0000E+00  0.6000E+01
     -3.936  0.6957E-02  0.6001E+01
     -3.808  0.9949E-01  0.6014E+01
     -3.680  0.2273E+00  0.6054E+01
     -3.552  0.3082E+00  0.6093E+01
     -3.423  0.3267E+00  0.6145E+01
     -3.295  0.1596E+00  0.6174E+01
     -3.167  0.1984E+00  0.6261E+01
     -3.039  0.3994E+00  0.6353E+01
     -2.911  0.8585E+00  0.6484E+01
     -2.783  0.7483E+00  0.6585E+01
     -2.654  0.1035E+01  0.6793E+01
     -2.526  0.1768E+01  0.7083E+01
     -2.398  0.3243E+01  0.7700E+01
     -2.270  0.0000E+00  0.8000E+01
     -2.142  0.0000E+00  0.8000E+01
     -2.014  0.0000E+00  0.8000E+01
     -1.885  0.0000E+00  0.8000E+01
     -1.757  0.0000E+00  0.8000E+01
     -1.629  0.0000E+00  0.8000E+01
     -1.501  0.0000E+00  0.8000E+01
     -1.373  0.0000E+00  0.8000E+01
     -1.245  0.0000E+00  0.8000E+01
     -1.116  0.0000E+00  0.8000E+01
     -0.988  0.0000E+00  0.8000E+01
     -0.860  0.0000E+00  0.8000E+01
     -0.732  0.0000E+00  0.8000E+01
     -0.604  0.0000E+00  0.8000E+01
     -0.476  0.0000E+00  0.8000E+01
     -0.347  0.0000E+00  0.8000E+01
     -0.219  0.0000E+00  0.8000E+01
     -0.091  0.0000E+00  0.8000E+01
      0.037  0.0000E+00  0.8000E+01
      0.165  0.0000E+00  0.8000E+01
      0.293  0.0000E+00  0.8000E+01
      0.421  0.0000E+00  0.8000E+01
      0.550  0.0000E+00  0.8000E+01
      0.678  0.0000E+00  0.8000E+01
      0.806  0.0000E+00  0.8000E+01
      0.934  0.0000E+00  0.8000E+01
      1.062  0.0000E+00  0.8000E+01
      1.190  0.2273E+00  0.8029E+01
      1.319  0.7658E+00  0.8149E+01
      1.447  0.3141E+01  0.8606E+01
      1.575  0.2255E+01  0.9101E+01
      1.703  0.1631E+01  0.9507E+01
      1.831  0.7677E+00  0.9726E+01
      1.959  0.3428E+00  0.9857E+01
      2.088  0.1433E+00  0.9886E+01
      2.216  0.1957E-05  0.9924E+01
      2.344  0.1568E+00  0.9966E+01
      2.472  0.1187E+01  0.1019E+02
      2.600  0.5526E+01  0.1113E+02
      2.728  0.3024E+01  0.1180E+02
      2.857  0.4074E+01  0.1262E+02
      2.985  0.3119E+01  0.1324E+02
      3.113  0.1712E+01  0.1362E+02
      3.241  0.1530E+01  0.1392E+02
      3.369  0.4875E+00  0.1405E+02
      3.497  0.1393E+01  0.1434E+02
      3.626  0.2799E+01  0.1485E+02
      3.754  0.5516E+01  0.1583E+02
      3.882  0.5401E+01  0.1687E+02
      4.010  0.4698E+01  0.1802E+02
      4.138  0.3128E+01  0.1867E+02
      4.266  0.2420E+01  0.1921E+02
      4.395  0.1293E+01  0.1952E+02
      4.523  0.5972E+00  0.1965E+02
      4.651  0.6884E+00  0.1978E+02
      4.779  0.5593E+00  0.1995E+02
      4.907  0.7306E+00  0.2008E+02
      5.035  0.1317E+01  0.2031E+02
      5.164  0.6800E+00  0.2053E+02
      5.292  0.6393E+00  0.2063E+02
      5.420  0.1590E+01  0.2092E+02
      5.548  0.7071E+00  0.2110E+02
      5.676  0.1775E+01  0.2135E+02
      5.804  0.1486E+01  0.2160E+02
      5.933  0.4126E+01  0.2220E+02
      6.061  0.1188E+01  0.2257E+02
      6.189  0.2023E+01  0.2299E+02
      6.317  0.1665E+01  0.2335E+02
      6.445  0.1428E+01  0.2361E+02
      6.573  0.8107E+00  0.2374E+02
      6.702  0.3711E+00  0.2385E+02
      6.830  0.2557E+00  0.2392E+02
      6.958  0.2557E+00  0.2397E+02
      7.086  0.1993E+00  0.2400E+02
      7.214  0.0000E+00  0.2400E+02
      7.342  0.0000E+00  0.2400E+02
      7.470  0.0000E+00  0.2400E+02
      7.599  0.3132E-04  0.2400E+02
      7.727  0.0000E+00  0.2400E+02
      7.855  0.8747E-09  0.2400E+02
      7.983  0.3235E-01  0.2401E+02
      8.111  0.9672E-01  0.2403E+02
      8.239  0.6717E+00  0.2416E+02
      8.368  0.8590E+00  0.2431E+02
      8.496  0.1067E+01  0.2449E+02
      8.624  0.1061E+01  0.2473E+02
      8.752  0.2387E+01  0.2512E+02
      8.880  0.2393E+01  0.2549E+02
      9.008  0.2227E+01  0.2602E+02
      9.137  0.1664E+01  0.2628E+02
      9.265  0.1883E+01  0.2667E+02
      9.393  0.2143E+01  0.2715E+02
      9.521  0.4681E+01  0.2802E+02
      9.649  0.1768E+01  0.2846E+02
      9.777  0.1991E+01  0.2903E+02
      9.906  0.2157E+01  0.2967E+02
     10.034  0.5383E+00  0.2989E+02
     10.162  0.2243E+01  0.3022E+02
     10.290  0.1856E+01  0.3056E+02
     10.418  0.2569E+01  0.3096E+02
     10.546  0.1887E+01  0.3135E+02
     10.675  0.1176E+01  0.3170E+02
     10.803  0.4237E+00  0.3185E+02
     10.931  0.7796E+00  0.3197E+02
     11.059  0.1705E+00  0.3199E+02
     11.187  0.0000E+00  0.3199E+02
     11.315  0.1242E-11  0.3199E+02
     11.444  0.0000E+00  0.3200E+02
     11.572  0.0000E+00  0.3200E+02
     11.700  0.0000E+00  0.3200E+02
     11.828  0.0000E+00  0.3200E+02
     11.956  0.0000E+00  0.3200E+02
     12.084  0.0000E+00  0.3200E+02
     12.213  0.0000E+00  0.3200E+02
     12.341  0.0000E+00  0.3200E+02
     12.469  0.0000E+00  0.3200E+02
     12.597  0.0000E+00  0.3200E+02
     12.725  0.0000E+00  0.3200E+02
     12.853  0.0000E+00  0.3200E+02
     12.982  0.0000E+00  0.3200E+02
     13.110  0.0000E+00  0.3200E+02
