    3    3    1    1
  0.2183167E+02  0.4524540E-09  0.4524540E-09  0.4524540E-09  0.5000000E-15
  1.000000000000000E-004
  CAR
 unknown system
     25     84     16

  0.0000000E+00  0.0000000E+00  0.0000000E+00  0.4551661E-03
    1      -23.574828   1.000000
    2      -23.574828   1.000000
    3      -23.574828   1.000000
    4       -3.950515   1.000000
    5        2.759420   1.000000
    6        2.759420   1.000000
    7        2.759420   1.000000
    8        3.572997   1.000000
    9        3.572997   1.000000
   10        7.100903   1.000000
   11        7.100903   1.000000
   12        7.100903   1.000000
   13        7.617169   1.000000
   14        9.576616   0.000000
   15        9.576616   0.000000
   16        9.576616   0.000000

  0.7692308E-01 -0.3309307E-17  0.2540540E-17  0.3641329E-02
    1      -23.575785   1.000000
    2      -23.574791   1.000000
    3      -23.574791   1.000000
    4       -3.887459   1.000000
    5        2.679605   1.000000
    6        2.733702   1.000000
    7        2.733702   1.000000
    8        3.611097   1.000000
    9        3.611097   1.000000
   10        6.530102   1.000000
   11        7.034927   1.000000
   12        7.034927   1.000000
   13        7.894129   1.000000
   14        9.415191   0.000000
   15        9.415191   0.000000
   16        9.941889   0.000000

  0.1538462E+00 -0.5877930E-17  0.4340396E-17  0.3641329E-02
    1      -23.578424   1.000000
    2      -23.574690   1.000000
    3      -23.574690   1.000000
    4       -3.704751   1.000000
    5        2.458298   1.000000
    6        2.678717   1.000000
    7        2.678717   1.000000
    8        3.696378   1.000000
    9        3.696378   1.000000
   10        5.685945   1.000000
   11        6.869581   1.000000
   12        6.869581   1.000000
   13        8.139057   1.000000
   14        9.319220   0.000000
   15        9.319220   0.000000
   16       10.722301   0.000000

  0.2307692E+00 -0.5020428E-17  0.2714127E-17  0.3641329E-02
    1      -23.582109   1.000000
    2      -23.574557   1.000000
    3      -23.574557   1.000000
    4       -3.423179   1.000000
    5        2.133899   1.000000
    6        2.629256   1.000000
    7        2.629256   1.000000
    8        3.776651   1.000000
    9        3.776651   1.000000
   10        4.916673   1.000000
   11        6.676273   1.000000
   12        6.676273   1.000000
   13        8.329972   1.000000
   14        9.352549   0.000000
   15        9.352549   0.000000
   16       11.361996   0.000000

  0.3076923E+00 -0.1175586E-16  0.8680792E-17  0.3641329E-02
    1      -23.585985   1.000000
    2      -23.574417   1.000000
    3      -23.574417   1.000000
    4       -3.082649   1.000000
    5        1.750560   1.000000
    6        2.602719   1.000000
    7        2.602719   1.000000
    8        3.817329   1.000000
    9        3.817329   1.000000
   10        4.324650   1.000000
   11        6.517197   1.000000
   12        6.517197   1.000000
   13        8.502199   1.000000
   14        9.482478   0.000000
   15        9.482478   0.000000
   16       10.917574   0.000000

  0.3846154E+00 -0.8120486E-17  0.4276651E-17  0.3641329E-02
    1      -23.589172   1.000000
    2      -23.574293   1.000000
    3      -23.574293   1.000000
    4       -2.751826   1.000000
    5        1.378820   1.000000
    6        2.598085   1.000000
    7        2.598085   1.000000
    8        3.816799   1.000000
    9        3.816799   1.000000
   10        3.943565   1.000000
   11        6.418821   1.000000
   12        6.418821   1.000000
   13        8.673630   1.000000
   14        9.659212   0.000000
   15        9.659212   0.000000
   16       10.192614   0.000000

  0.4615385E+00 -0.9300173E-17  0.4687571E-17  0.3641329E-02
    1      -23.590960   1.000000
    2      -23.574223   1.000000
    3      -23.574223   1.000000
    4       -2.535353   1.000000
    5        1.135702   1.000000
    6        2.602384   1.000000
    7        2.602384   1.000000
    8        3.762717   1.000000
    9        3.802286   1.000000
   10        3.802286   1.000000
   11        6.375999   1.000000
   12        6.375999   1.000000
   13        8.833100   0.000000
   14        9.715857   0.000000
   15        9.797589   0.000000
   16        9.797589   0.000000

  0.7692308E-01  0.7692308E-01  0.1451119E-17  0.2730997E-02
    1      -23.575762   1.000000
    2      -23.574948   1.000000
    3      -23.574948   1.000000
    4       -3.866789   1.000000
    5        2.544719   1.000000
    6        2.789517   1.000000
    7        2.789517   1.000000
    8        3.605333   1.000000
    9        3.626062   1.000000
   10        6.561279   1.000000
   11        6.906786   1.000000
   12        6.906786   1.000000
   13        7.978169   1.000000
   14        9.273780   0.000000
   15        9.792548   0.000000
   16        9.854449   0.000000

  0.1538462E+00  0.7692308E-01  0.2623226E-18  0.1092399E-01
    1      -23.577720   1.000000
    2      -23.575029   1.000000
    3      -23.574857   1.000000
    4       -3.725099   1.000000
    5        2.334262   1.000000
    6        2.766888   1.000000
    7        2.793961   1.000000
    8        3.667304   1.000000
    9        3.680196   1.000000
   10        5.928400   1.000000
   11        6.716713   1.000000
   12        6.777892   1.000000
   13        8.227943   1.000000
   14        9.133250   0.000000
   15        9.573364   0.000000
   16       10.324469   0.000000

  0.2307692E+00  0.7692308E-01 -0.2752882E-17  0.1092399E-01
    1      -23.580994   1.000000
    2      -23.575001   1.000000
    3      -23.574719   1.000000
    4       -3.478361   1.000000
    5        2.084789   1.000000
    6        2.679263   1.000000
    7        2.767238   1.000000
    8        3.751277   1.000000
    9        3.753316   1.000000
   10        5.169735   1.000000
   11        6.532783   1.000000
   12        6.603747   1.000000
   13        8.500655   1.000000
   14        9.135042   0.000000
   15        9.464942   0.000000
   16       10.877347   0.000000

  0.3076923E+00  0.7692308E-01 -0.7886133E-17  0.1092399E-01
    1      -23.584714   1.000000
    2      -23.574873   1.000000
    3      -23.574650   1.000000
    4       -3.159805   1.000000
    5        1.789953   1.000000
    6        2.596901   1.000000
    7        2.734754   1.000000
    8        3.806184   1.000000
    9        3.808760   1.000000
   10        4.523381   1.000000
   11        6.399510   1.000000
   12        6.430269   1.000000
   13        8.621724   1.000000
   14        9.380043   0.000000
   15        9.482507   0.000000
   16       10.992174   0.000000

  0.3846154E+00  0.7692308E-01 -0.1505657E-16  0.1092399E-01
    1      -23.588043   1.000000
    2      -23.574689   1.000000
    3      -23.574688   1.000000
    4       -2.827165   1.000000
    5        1.474068   1.000000
    6        2.557737   1.000000
    7        2.703031   1.000000
    8        3.819262   1.000000
    9        3.820981   1.000000
   10        4.073894   1.000000
   11        6.300757   1.000000
   12        6.329027   1.000000
   13        8.699745   0.999487
   14        9.604626   0.000000
   15        9.685251   0.000000
   16       10.368118   0.000000

  0.4615385E+00  0.7692308E-01 -0.3557310E-17  0.1092399E-01
    1      -23.590230   1.000000
    2      -23.574806   1.000000
    3      -23.574483   1.000000
    4       -2.570729   1.000000
    5        1.221250   1.000000
    6        2.564240   1.000000
    7        2.664578   1.000000
    8        3.761358   1.000000
    9        3.816514   1.000000
   10        3.871587   1.000000
   11        6.223627   1.000000
   12        6.308072   1.000000
   13        8.822570   0.000000
   14        9.690469   0.000000
   15        9.761368   0.000000
   16       10.039999   0.000000

 -0.4615385E+00  0.7692308E-01 -0.7376709E-17  0.1092399E-01
    1      -23.590790   1.000000
    2      -23.574974   1.000000
    3      -23.574294   1.000000
    4       -2.495419   1.000000
    5        1.146700   1.000000
    6        2.602974   1.000000
    7        2.613934   1.000000
    8        3.712646   1.000000
    9        3.827191   1.000000
   10        3.843619   1.000000
   11        6.183130   1.000000
   12        6.324266   1.000000
   13        8.911561   0.000000
   14        9.506635   0.000000
   15        9.825259   0.000000
   16       10.095774   0.000000

 -0.3846154E+00  0.7692308E-01  0.9678298E-17  0.1092399E-01
    1      -23.589626   1.000000
    2      -23.575158   1.000000
    3      -23.574173   1.000000
    4       -2.640377   1.000000
    5        1.295709   1.000000
    6        2.560916   1.000000
    7        2.658622   1.000000
    8        3.760413   1.000000
    9        3.850671   1.000000
   10        3.914060   1.000000
   11        6.162939   1.000000
   12        6.383570   1.000000
   13        8.816689   0.000000
   14        9.719924   0.000000
   15        9.723764   0.000000
   16       10.094357   0.000000

 -0.3076923E+00  0.7692308E-01 -0.1136993E-16  0.1092399E-01
    1      -23.586976   1.000000
    2      -23.575298   1.000000
    3      -23.574142   1.000000
    4       -2.934048   1.000000
    5        1.593048   1.000000
    6        2.525988   1.000000
    7        2.720573   1.000000
    8        3.784216   1.000000
    9        3.860284   1.000000
   10        4.206110   1.000000
   11        6.168182   1.000000
   12        6.502639   1.000000
   13        8.724372   0.420997
   14        9.523357   0.000000
   15        9.635206   0.000000
   16       10.592401   0.000000

 -0.2307692E+00  0.7692308E-01 -0.5403265E-17  0.1092399E-01
    1      -23.583453   1.000000
    2      -23.575371   1.000000
    3      -23.574218   1.000000
    4       -3.270428   1.000000
    5        1.931487   1.000000
    6        2.526716   1.000000
    7        2.781064   1.000000
    8        3.762914   1.000000
    9        3.831614   1.000000
   10        4.722065   1.000000
   11        6.227726   1.000000
   12        6.683556   1.000000
   13        8.648865   1.000000
   14        9.317316   0.000000
   15        9.465427   0.000000
   16       10.880164   0.000000

 -0.1538462E+00  0.7692308E-01  0.4070382E-17  0.1092399E-01
    1      -23.579857   1.000000
    2      -23.575316   1.000000
    3      -23.574376   1.000000
    4       -3.570215   1.000000
    5        2.245723   1.000000
    6        2.569746   1.000000
    7        2.824293   1.000000
    8        3.702284   1.000000
    9        3.763223   1.000000
   10        5.406543   1.000000
   11        6.377481   1.000000
   12        6.887845   1.000000
   13        8.470810   1.000000
   14        9.180079   0.000000
   15        9.447123   0.000000
   16       10.410576   0.000000

 -0.7692308E-01  0.7692308E-01 -0.6618613E-17  0.5461994E-02
    1      -23.577082   1.000000
    2      -23.575112   1.000000
    3      -23.574588   1.000000
    4       -3.784876   1.000000
    5        2.506453   1.000000
    6        2.647271   1.000000
    7        2.814763   1.000000
    8        3.638275   1.000000
    9        3.677222   1.000000
   10        6.101669   1.000000
   11        6.670313   1.000000
   12        7.031243   1.000000
   13        8.157797   1.000000
   14        9.191630   0.000000
   15        9.563284   0.000000
   16        9.985024   0.000000

  0.1538462E+00  0.1538462E+00  0.2902239E-17  0.2730997E-02
    1      -23.578394   1.000000
    2      -23.575298   1.000000
    3      -23.575298   1.000000
    4       -3.628943   1.000000
    5        2.092411   1.000000
    6        2.874895   1.000000
    7        2.874895   1.000000
    8        3.660247   1.000000
    9        3.697974   1.000000
   10        5.873442   1.000000
   11        6.509696   1.000000
   12        6.509696   1.000000
   13        8.213519   1.000000
   14        9.127975   0.000000
   15        9.628543   0.000000
   16       10.443173   0.000000

  0.2307692E+00  0.1538462E+00  0.6398579E-17  0.1092399E-01
    1      -23.580798   1.000000
    2      -23.575435   1.000000
    3      -23.575380   1.000000
    4       -3.428268   1.000000
    5        1.860899   1.000000
    6        2.867892   1.000000
    7        2.903839   1.000000
    8        3.678862   1.000000
    9        3.771818   1.000000
   10        5.369099   1.000000
   11        6.317304   1.000000
   12        6.321878   1.000000
   13        8.433981   1.000000
   14        9.101774   0.000000
   15        9.495028   0.000000
   16       10.774871   0.000000

  0.3076923E+00  0.1538462E+00  0.1265328E-17  0.1092399E-01
    1      -23.583939   1.000000
    2      -23.575515   1.000000
    3      -23.575433   1.000000
    4       -3.151195   1.000000
    5        1.655142   1.000000
    6        2.769639   1.000000
    7        2.894137   1.000000
    8        3.736040   1.000000
    9        3.836472   1.000000
   10        4.755458   1.000000
   11        6.122719   1.000000
   12        6.198549   1.000000
   13        8.667825   1.000000
   14        9.304062   0.000000
   15        9.431689   0.000000
   16       10.900138   0.000000

  0.3846154E+00  0.1538462E+00 -0.8682984E-17  0.1092399E-01
    1      -23.586900   1.000000
    2      -23.575843   1.000000
    3      -23.575267   1.000000
    4       -2.846472   1.000000
    5        1.476445   1.000000
    6        2.650034   1.000000
    7        2.856957   1.000000
    8        3.784561   1.000000
    9        3.862865   1.000000
   10        4.245499   1.000000
   11        5.960155   1.000000
   12        6.147319   1.000000
   13        8.688844   0.999999
   14        9.502141   0.000000
   15        9.797364   0.000000
   16       10.455623   0.000000

  0.4615385E+00  0.1538462E+00 -0.5505764E-17  0.1092399E-01
    1      -23.589010   1.000000
    2      -23.576331   1.000000
    3      -23.574987   1.000000
    4       -2.587400   1.000000
    5        1.334172   1.000000
    6        2.568104   1.000000
    7        2.790501   1.000000
    8        3.750946   1.000000
    9        3.870302   1.000000
   10        3.973460   1.000000
   11        5.846169   1.000000
   12        6.144828   1.000000
   13        8.738066   0.016339
   14        9.681387   0.000000
   15        9.846122   0.000000
   16       10.273564   0.000000

 -0.4615385E+00  0.1538462E+00 -0.9325163E-17  0.1092399E-01
    1      -23.589805   1.000000
    2      -23.576828   1.000000
    3      -23.574648   1.000000
    4       -2.461471   1.000000
    5        1.267491   1.000000
    6        2.561286   1.000000
    7        2.697304   1.000000
    8        3.657586   1.000000
    9        3.887483   1.000000
   10        3.942405   1.000000
   11        5.768421   1.000000
   12        6.172834   1.000000
   13        8.875279   0.000000
   14        9.471777   0.000000
   15        9.838955   0.000000
   16       10.533001   0.000000

 -0.3846154E+00  0.1538462E+00  0.2437393E-16  0.1092399E-01
    1      -23.589172   1.000000
    2      -23.577191   1.000000
    3      -23.574349   1.000000
    4       -2.523278   1.000000
    5        1.319019   1.000000
    6        2.597097   1.000000
    7        2.635827   1.000000
    8        3.669494   1.000000
    9        3.913167   1.000000
   10        3.996600   1.000000
   11        5.700374   1.000000
   12        6.239910   1.000000
   13        8.946498   0.000000
   14        9.530508   0.000000
   15        9.815869   0.000000
   16       10.520195   0.000000

 -0.3076923E+00  0.1538462E+00  0.8881448E-17  0.1092399E-01
    1      -23.587294   1.000000
    2      -23.577273   1.000000
    3      -23.574136   1.000000
    4       -2.745404   1.000000
    5        1.480196   1.000000
    6        2.517677   1.000000
    7        2.759845   1.000000
    8        3.730302   1.000000
    9        3.923031   1.000000
   10        4.191977   1.000000
   11        5.638155   1.000000
   12        6.366283   1.000000
   13        8.951130   0.000000
   14        9.638504   0.000000
   15        9.893082   0.000000
   16       10.392749   0.000000

 -0.2307692E+00  0.1538462E+00 -0.7351719E-17  0.1092399E-01
    1      -23.584672   1.000000
    2      -23.576975   1.000000
    3      -23.574057   1.000000
    4       -3.044420   1.000000
    5        1.709327   1.000000
    6        2.481213   1.000000
    7        2.871116   1.000000
    8        3.746232   1.000000
    9        3.897847   1.000000
   10        4.590962   1.000000
   11        5.637116   1.000000
   12        6.552628   1.000000
   13        9.037945   0.000000
   14        9.415339   0.000000
   15        9.704500   0.000000
   16       10.549504   0.000000

 -0.1538462E+00  0.1538462E+00 -0.1175586E-16  0.5461994E-02
    1      -23.581998   1.000000
    2      -23.576272   1.000000
    3      -23.574151   1.000000
    4       -3.338531   1.000000
    5        1.973644   1.000000
    6        2.498889   1.000000
    7        2.905806   1.000000
    8        3.722648   1.000000
    9        3.838762   1.000000
   10        5.064797   1.000000
   11        5.841869   1.000000
   12        6.755882   1.000000
   13        8.966345   0.000000
   14        9.232846   0.000000
   15        9.436825   0.000000
   16       10.378837   0.000000

  0.2307692E+00  0.2307692E+00  0.4353358E-17  0.2730997E-02
    1      -23.582158   1.000000
    2      -23.575787   1.000000
    3      -23.575787   1.000000
    4       -3.280676   1.000000
    5        1.645399   1.000000
    6        3.000248   1.000000
    7        3.000248   1.000000
    8        3.594894   1.000000
    9        3.837115   1.000000
   10        5.261313   1.000000
   11        6.120291   1.000000
   12        6.120291   1.000000
   13        8.237776   1.000000
   14        9.206285   0.000000
   15        9.388831   0.000000
   16       10.893624   0.000000

  0.3076923E+00  0.2307692E+00  0.5515085E-17  0.1092399E-01
    1      -23.584497   1.000000
    2      -23.576096   1.000000
    3      -23.575943   1.000000
    4       -3.059410   1.000000
    5        1.488151   1.000000
    6        2.983728   1.000000
    7        3.040765   1.000000
    8        3.598451   1.000000
    9        3.909167   1.000000
   10        4.858616   1.000000
   11        5.909247   1.000000
   12        5.984612   1.000000
   13        8.363660   1.000000
   14        9.285548   0.000000
   15        9.345166   0.000000
   16       10.900407   0.000000

  0.3846154E+00  0.2307692E+00  0.1082771E-16  0.1092399E-01
    1      -23.586776   1.000000
    2      -23.576736   1.000000
    3      -23.575896   1.000000
    4       -2.805629   1.000000
    5        1.408093   1.000000
    6        2.844004   1.000000
    7        3.026747   1.000000
    8        3.686334   1.000000
    9        3.947468   1.000000
   10        4.383279   1.000000
   11        5.667777   1.000000
   12        5.932856   1.000000
   13        8.493991   1.000000
   14        9.307721   0.000000
   15        9.769719   0.000000
   16       10.546105   0.000000

  0.4615385E+00  0.2307692E+00 -0.2639157E-17  0.1092399E-01
    1      -23.588290   1.000000
    2      -23.577747   1.000000
    3      -23.575647   1.000000
    4       -2.576769   1.000000
    5        1.405050   1.000000
    6        2.676965   1.000000
    7        2.956954   1.000000
    8        3.718556   1.000000
    9        3.959969   1.000000
   10        4.054449   1.000000
   11        5.464963   1.000000
   12        5.938340   1.000000
   13        8.549046   1.000000
   14        9.499887   0.000000
   15       10.020814   0.000000
   16       10.343602   0.000000

 -0.4615385E+00  0.2307692E+00 -0.1201430E-16  0.1092399E-01
    1      -23.588712   1.000000
    2      -23.578885   1.000000
    3      -23.575240   1.000000
    4       -2.436219   1.000000
    5        1.446267   1.000000
    6        2.550852   1.000000
    7        2.838771   1.000000
    8        3.586925   1.000000
    9        3.975008   1.000000
   10        4.050911   1.000000
   11        5.318603   1.000000
   12        5.972849   1.000000
   13        8.661751   1.000000
   14        9.605592   0.000000
   15        9.789130   0.000000
   16       10.637420   0.000000

 -0.3846154E+00  0.2307692E+00  0.2168479E-16  0.1092399E-01
    1      -23.588103   1.000000
    2      -23.579741   1.000000
    3      -23.574781   1.000000
    4       -2.429997   1.000000
    5        1.472082   1.000000
    6        2.545468   1.000000
    7        2.700690   1.000000
    8        3.552267   1.000000
    9        3.992199   1.000000
   10        4.144241   1.000000
   11        5.216064   1.000000
   12        6.043066   1.000000
   13        8.855613   0.000000
   14        9.429481   0.000000
   15        9.916608   0.000000
   16       10.588333   0.000000

 -0.3076923E+00  0.2307692E+00 -0.2156327E-16  0.1092399E-01
    1      -23.586930   1.000000
    2      -23.579810   1.000000
    3      -23.574383   1.000000
    4       -2.561494   1.000000
    5        1.484985   1.000000
    6        2.578500   1.000000
    7        2.668883   1.000000
    8        3.633779   1.000000
    9        3.990178   1.000000
   10        4.281638   1.000000
   11        5.157584   1.000000
   12        6.170884   1.000000
   13        8.979454   0.000000
   14        9.689792   0.000000
   15        9.799614   0.000000
   16       10.490941   0.000000

 -0.2307692E+00  0.2307692E+00 -0.1004086E-16  0.5461994E-02
    1      -23.585766   1.000000
    2      -23.578746   1.000000
    3      -23.574125   1.000000
    4       -2.788000   1.000000
    5        1.553558   1.000000
    6        2.500004   1.000000
    7        2.815214   1.000000
    8        3.716914   1.000000
    9        3.956474   1.000000
   10        4.458905   1.000000
   11        5.244712   1.000000
   12        6.355263   1.000000
   13        9.055037   0.000000
   14        9.600525   0.000000
   15       10.162440   0.000000
   16       10.371860   0.000000

  0.3076923E+00  0.3076923E+00  0.5804477E-17  0.2730997E-02
    1      -23.586246   1.000000
    2      -23.576306   1.000000
    3      -23.576306   1.000000
    4       -2.903304   1.000000
    5        1.377228   1.000000
    6        3.139170   1.000000
    7        3.139170   1.000000
    8        3.456676   1.000000
    9        3.997974   1.000000
   10        4.667545   1.000000
   11        5.821473   1.000000
   12        5.821473   1.000000
   13        8.179683   1.000000
   14        9.121220   0.000000
   15        9.395271   0.000000
   16       10.847191   0.000000

  0.3846154E+00  0.3076923E+00  0.3329298E-17  0.1092399E-01
    1      -23.588057   1.000000
    2      -23.576806   1.000000
    3      -23.576439   1.000000
    4       -2.716385   1.000000
    5        1.359830   1.000000
    6        3.060151   1.000000
    7        3.171582   1.000000
    8        3.515972   1.000000
    9        4.055929   1.000000
   10        4.311148   1.000000
   11        5.616628   1.000000
   12        5.746246   1.000000
   13        8.238991   1.000000
   14        9.062870   0.000000
   15        9.616464   0.000000
   16       10.588048   0.000000

  0.4615385E+00  0.3076923E+00  0.1205648E-16  0.1092399E-01
    1      -23.589049   1.000000
    2      -23.577919   1.000000
    3      -23.576290   1.000000
    4       -2.541338   1.000000
    5        1.443601   1.000000
    6        2.862939   1.000000
    7        3.128187   1.000000
    8        3.631432   1.000000
    9        3.993412   1.000000
   10        4.072516   1.000000
   11        5.320573   1.000000
   12        5.744372   1.000000
   13        8.325574   1.000000
   14        9.203114   0.000000
   15       10.053330   0.000000
   16       10.283193   0.000000

 -0.4615385E+00  0.3076923E+00 -0.1396275E-16  0.1092399E-01
    1      -23.588863   1.000000
    2      -23.579568   1.000000
    3      -23.575911   1.000000
    4       -2.419144   1.000000
    5        1.591434   1.000000
    6        2.653055   1.000000
    7        3.012118   1.000000
    8        3.487729   1.000000
    9        4.054283   1.000000
   10        4.075328   1.000000
   11        5.049449   1.000000
   12        5.780357   1.000000
   13        8.424428   1.000000
   14        9.561364   0.000000
   15        9.761345   0.000000
   16       10.432284   0.000000

 -0.3846154E+00  0.3076923E+00  0.1973634E-16  0.1092399E-01
    1      -23.587671   1.000000
    2      -23.581241   1.000000
    3      -23.575386   1.000000
    4       -2.377981   1.000000
    5        1.682793   1.000000
    6        2.492629   1.000000
    7        2.854347   1.000000
    8        3.413133   1.000000
    9        4.070713   1.000000
   10        4.254314   1.000000
   11        4.857284   1.000000
   12        5.854155   1.000000
   13        8.606404   1.000000
   14        9.500247   0.000000
   15        9.975711   0.000000
   16       10.427071   0.000000

 -0.3076923E+00  0.3076923E+00 -0.2351172E-16  0.5461994E-02
    1      -23.586633   1.000000
    2      -23.581676   1.000000
    3      -23.574832   1.000000
    4       -2.428526   1.000000
    5        1.598223   1.000000
    6        2.528718   1.000000
    7        2.698102   1.000000
    8        3.499621   1.000000
    9        4.043691   1.000000
   10        4.364177   1.000000
   11        4.852370   1.000000
   12        5.985786   1.000000
   13        8.846911   0.000000
   14        9.447545   0.000000
   15        9.959413   0.000000
   16       10.362771   0.000000

  0.3846154E+00  0.3846154E+00  0.7255596E-17  0.2730997E-02
    1      -23.589705   1.000000
    2      -23.576747   1.000000
    3      -23.576747   1.000000
    4       -2.602796   1.000000
    5        1.386855   1.000000
    6        3.257664   1.000000
    7        3.257664   1.000000
    8        3.318245   1.000000
    9        4.037445   1.000000
   10        4.144104   1.000000
   11        5.635184   1.000000
   12        5.635184   1.000000
   13        8.113706   1.000000
   14        8.886661   0.000000
   15        9.509893   0.000000
   16       10.528052   0.000000

  0.4615385E+00  0.3846154E+00  0.1491730E-16  0.1092399E-01
    1      -23.590622   1.000000
    2      -23.577302   1.000000
    3      -23.576774   1.000000
    4       -2.493575   1.000000
    5        1.499083   1.000000
    6        3.073609   1.000000
    7        3.262801   1.000000
    8        3.480554   1.000000
    9        3.744995   1.000000
   10        4.176875   1.000000
   11        5.454657   1.000000
   12        5.608612   1.000000
   13        8.145877   1.000000
   14        8.900183   0.000000
   15        9.694819   0.000000
   16       10.311343   0.000000

 -0.4615385E+00  0.3846154E+00  0.2774777E-16  0.1092399E-01
    1      -23.590325   1.000000
    2      -23.578630   1.000000
    3      -23.576507   1.000000
    4       -2.412436   1.000000
    5        1.656307   1.000000
    6        2.863549   1.000000
    7        3.178976   1.000000
    8        3.373379   1.000000
    9        3.841505   1.000000
   10        4.166816   1.000000
   11        5.143127   1.000000
   12        5.638197   1.000000
   13        8.233106   1.000000
   14        9.163317   0.000000
   15        9.878216   0.000000
   16       10.279367   0.000000

 -0.3846154E+00  0.3846154E+00 -0.2735246E-16  0.5461994E-02
    1      -23.588965   1.000000
    2      -23.580348   1.000000
    3      -23.576011   1.000000
    4       -2.372362   1.000000
    5        1.761417   1.000000
    6        2.620142   1.000000
    7        3.027981   1.000000
    8        3.312621   1.000000
    9        4.109917   1.000000
   10        4.131338   1.000000
   11        4.872275   1.000000
   12        5.715830   1.000000
   13        8.380305   1.000000
   14        9.637875   0.000000
   15        9.671514   0.000000
   16       10.204079   0.000000

  0.4615385E+00  0.4615385E+00  0.8706716E-17  0.2730997E-02
    1      -23.591680   1.000000
    2      -23.576992   1.000000
    3      -23.576992   1.000000
    4       -2.449628   1.000000
    5        1.581333   1.000000
    6        3.267594   1.000000
    7        3.325065   1.000000
    8        3.325065   1.000000
    9        3.485014   1.000000
   10        4.232907   1.000000
   11        5.551748   1.000000
   12        5.551748   1.000000
   13        8.071829   1.000000
   14        8.747979   0.000202
   15        9.476493   0.000000
   16       10.292957   0.000000

 -0.4615385E+00  0.4615385E+00 -0.1860035E-16  0.5461994E-02
    1      -23.591560   1.000000
    2      -23.577485   1.000000
    3      -23.576896   1.000000
    4       -2.421396   1.000000
    5        1.648607   1.000000
    6        3.100512   1.000000
    7        3.294820   1.000000
    8        3.325948   1.000000
    9        3.566927   1.000000
   10        4.225677   1.000000
   11        5.405323   1.000000
   12        5.563560   1.000000
   13        8.112171   1.000000
   14        8.841658   0.000000
   15        9.657559   0.000000
   16       10.209765   0.000000

  0.2307692E+00  0.1538462E+00  0.7692308E-01  0.1092399E-01
    1      -23.579654   1.000000
    2      -23.575556   1.000000
    3      -23.574675   1.000000
    4       -3.552679   1.000000
    5        2.095833   1.000000
    6        2.701746   1.000000
    7        2.884660   1.000000
    8        3.692771   1.000000
    9        3.747606   1.000000
   10        5.529771   1.000000
   11        6.253383   1.000000
   12        6.737682   1.000000
   13        8.529317   1.000000
   14        9.062855   0.000000
   15        9.533008   0.000000
   16       10.385726   0.000000

  0.3076923E+00  0.1538462E+00  0.7692308E-01  0.2184797E-01
    1      -23.582594   1.000000
    2      -23.575976   1.000000
    3      -23.574503   1.000000
    4       -3.289679   1.000000
    5        1.851814   1.000000
    6        2.621785   1.000000
    7        2.891329   1.000000
    8        3.737850   1.000000