       N       E                     dE             d eps       ncg     rms          rms(c)
DAV:   1     0.140363719783E+03    0.14036E+03   -0.14243E+04  2688   0.174E+03
DAV:   2    -0.200435329187E+02   -0.16041E+03   -0.15892E+03  3352   0.338E+02
DAV:   3    -0.249447381744E+02   -0.49012E+01   -0.48163E+01  3632   0.517E+01
DAV:   4    -0.250176202962E+02   -0.72882E-01   -0.71438E-01  3264   0.661E+00
DAV:   5    -0.250192639458E+02   -0.16436E-02   -0.16427E-02  3680   0.929E-01    0.413E+01
DAV:   6    -0.242219617938E+02    0.79730E+00   -0.17609E+00  3464   0.923E+00    0.252E+01
DAV:   7    -0.240821817837E+02    0.13978E+00   -0.10337E+00  3808   0.570E+00    0.364E+00
DAV:   8    -0.240591202856E+02    0.23061E-01   -0.39845E-01  3456   0.339E+00    0.948E-01
DAV:   9    -0.240487716503E+02    0.10349E-01   -0.61305E-02  2920   0.186E+00    0.304E-01
DAV:  10    -0.240486417448E+02    0.12991E-03   -0.87815E-03  3728   0.466E-01    0.266E-01
DAV:  11    -0.240485203827E+02    0.12136E-03   -0.58024E-04  3168   0.148E-01    0.674E-02
DAV:  12    -0.240485161976E+02    0.41850E-05   -0.10068E-04  3712   0.584E-02    0.203E-02
DAV:  13    -0.240485146805E+02    0.15172E-05   -0.46577E-06  3000   0.150E-02    0.978E-03
DAV:  14    -0.240485147785E+02   -0.98068E-07   -0.19705E-07  2880   0.370E-03
   1 F= -.24048515E+02 E0= -.24048367E+02  d E =-.294968E-03
