 vasp.6.0.8 29Jun18 (build Jun 13 2019 12:54:44) complex

 executed on      IFC18_CrayMPICH date 2021.12.05  14:21:53
 running   64 mpi-ranks, with    1 threads/rank
 distrk:  each k-point on   16 cores,    4 groups
 distr:  one band on NCORES_PER_BAND=   4 cores,    4 groups


--------------------------------------------------------------------------------------------------------


 INCAR:
 POTCAR:    PAW_PBE Hf_pv 06Sep2000
 POTCAR:    PAW_PBE Sb 06Sep2000
 POTCAR:    PAW_PBE Pt 04Feb2005
 POTCAR:    PAW_PBE Hf_pv 06Sep2000
   VRHFIN =Hf: 5p6s5d
   LEXCH  = PE
   EATOM  =   860.9206 eV,   63.2759 Ry

   TITEL  = PAW_PBE Hf_pv 06Sep2000
   LULTRA =        F    use ultrasoft PP ?
   IUNSCR =        1    unscreen: 0-lin 1-nonlin 2-no
   RPACOR =    2.500    partial core radius
   POMASS =  178.490; ZVAL   =   10.000    mass and valenz
   RCORE  =    2.600    outmost cutoff radius
   RWIGS  =    3.050; RWIGS  =    1.614    wigner-seitz radius (au A)
   ENMAX  =  220.334; ENMIN  =  165.250 eV
   RCLOC  =    2.212    cutoff for local pot
   LCOR   =        T    correct aug charges
   LPAW   =        T    paw PP
   EAUG   =  380.878
   DEXC   =    0.000
   RMAX   =    2.665    core radius for proj-oper
   RAUG   =    1.300    factor for augmentation sphere
   RDEP   =    2.681    radius for radial grids
   RDEPT  =    2.139    core radius for aug-charge

   Atomic configuration
   15 entries
     n  l   j            E        occ.
     1  0  0.50    -65259.4397   2.0000
     2  0  0.50    -11157.9884   2.0000
     2  1  1.50     -9795.2114   6.0000
     3  0  0.50     -2541.4060   2.0000
     3  1  1.50     -2134.4772   6.0000
     3  2  2.50     -1653.5420  10.0000
     4  0  0.50      -510.9577   2.0000
     4  1  1.50      -377.5024   6.0000
     4  2  2.50      -205.2086  10.0000
     4  3  3.50       -15.4906  14.0000
     5  0  0.50       -65.6020   2.0000
     5  1  1.50       -34.2798   6.0000
     5  2  2.50        -1.9877   3.0000
     6  0  0.50        -4.7357   1.0000
     5  3  2.50        -1.3606   0.0000
   Description
     l       E           TYP  RCUT    TYP  RCUT
     1    -34.2797769     23  2.500
     1    -35.6403595     23  2.500
     2     -1.9876655     23  2.500
     2      0.0744675     23  2.500
     0     -4.7356889     23  2.600
     0      3.2364748     23  2.600
  local pseudopotential read in
  partial core-charges read in
  partial kinetic energy density read in
  atomic valenz-charges read in
  non local Contribution for L=           1  read in
    real space projection operators read in
  non local Contribution for L=           1  read in
    real space projection operators read in
  non local Contribution for L=           2  read in
    real space projection operators read in
  non local Contribution for L=           2  read in
    real space projection operators read in
  non local Contribution for L=           0  read in
    real space projection operators read in
  non local Contribution for L=           0  read in
    real space projection operators read in
    PAW grid and wavefunctions read in

   number of l-projection  operators is LMAX  =           6
   number of lm-projection operators is LMMAX =          18

 POTCAR:    PAW_PBE Sb 06Sep2000
   VRHFIN =Sb: s2p3
   LEXCH  = PE
   EATOM  =   149.9515 eV,   11.0211 Ry

   TITEL  = PAW_PBE Sb 06Sep2000
   LULTRA =        F    use ultrasoft PP ?
   IUNSCR =        1    unscreen: 0-lin 1-nonlin 2-no
   RPACOR =    2.200    partial core radius
   POMASS =  121.750; ZVAL   =    5.000    mass and valenz
   RCORE  =    2.300    outmost cutoff radius
   RWIGS  =    2.980; RWIGS  =    1.577    wigner-seitz radius (au A)
   ENMAX  =  172.069; ENMIN  =  129.052 eV
   ICORE  =        3    local potential
   LCOR   =        T    correct aug charges
   LPAW   =        T    paw PP
   EAUG   =  380.513
   DEXC   =    0.000
   RMAX   =    2.346    core radius for proj-oper
   RAUG   =    1.300    factor for augmentation sphere
   RDEP   =    2.360    radius for radial grids
   RDEPT  =    2.192    core radius for aug-charge

   Atomic configuration
   13 entries
     n  l   j            E        occ.
     1  0  0.50    -30298.2797   2.0000
     2  0  0.50     -4610.2252   2.0000
     2  1  1.50     -4138.3407   6.0000
     3  0  0.50      -903.8815   2.0000
     3  1  1.50      -750.1337   6.0000
     3  2  2.50      -515.7092  10.0000
     4  0  0.50      -148.8034   2.0000
     4  1  1.50      -101.7581   6.0000
     4  2  2.50       -33.5048  10.0000
     5  0  0.50       -12.8298   2.0000
     5  1  0.50        -4.8276   3.0000
     5  2  1.50        -4.0817   0.0000
     4  3  2.50        -4.0817   0.0000
   Description
     l       E           TYP  RCUT    TYP  RCUT
     0    -12.8297861     23  2.300
     0     13.6058260     23  2.300
     1     -4.8275512     23  2.300
     1     -0.7245443     23  2.300
     2     -4.0817478     23  2.300
     3     -1.3605826     23  2.300
  local pseudopotential read in
  partial core-charges read in
  partial kinetic energy density read in
  atomic valenz-charges read in
  non local Contribution for L=           0  read in
    real space projection operators read in
  non local Contribution for L=           0  read in
    real space projection operators read in
  non local Contribution for L=           1  read in
    real space projection operators read in
  non local Contribution for L=           1  read in
    real space projection operators read in
  non local Contribution for L=           2  read in
    real space projection operators read in
    PAW grid and wavefunctions read in

   number of l-projection  operators is LMAX  =           5
   number of lm-projection operators is LMMAX =          13

 POTCAR:    PAW_PBE Pt 04Feb2005
   VRHFIN =Pt: s1d9
   LEXCH  = PE
   EATOM  =   729.1176 eV,   53.5886 Ry

   TITEL  = PAW_PBE Pt 04Feb2005
   LULTRA =        F    use ultrasoft PP ?
   IUNSCR =        1    unscreen: 0-lin 1-nonlin 2-no
   RPACOR =    2.330    partial core radius
   POMASS =  195.080; ZVAL   =   10.000    mass and valenz
   RCORE  =    2.600    outmost cutoff radius
   RWIGS  =    2.750; RWIGS  =    1.455    wigner-seitz radius (au A)
   ENMAX  =  230.283; ENMIN  =  172.712 eV
   ICORE  =        3    local potential
   LCOR   =        T    correct aug charges
   LPAW   =        T    paw PP
   EAUG   =  358.966
   DEXC   =    0.000
   RMAX   =    2.658    core radius for proj-oper
   RAUG   =    1.300    factor for augmentation sphere
   RDEP   =    2.761    radius for radial grids
   RDEPT  =    2.203    core radius for aug-charge

   Atomic configuration
   16 entries
     n  l   j            E        occ.
     1  0  0.50    -78401.1885   2.0000
     2  0  0.50    -13770.7750   2.0000
     2  1  1.50    -11931.0468   6.0000
     3  0  0.50     -3234.7234   2.0000
     3  1  1.50     -2699.2216   6.0000
     3  2  2.50     -2119.5714  10.0000
     4  0  0.50      -695.1528   2.0000
     4  1  1.50      -519.6034   6.0000
     4  2  2.50      -306.6786  10.0000
     4  3  3.50       -70.1041  14.0000
     5  0  0.50      -101.7747   2.0000
     5  1  1.50       -55.9873   6.0000
     5  2  2.50        -6.1423   9.0000
     6  0  0.50        -5.6573   1.0000
     6  1  1.50        -6.8029   0.0000
     5  3  2.50        -1.3606   0.0000
   Description
     l       E           TYP  RCUT    TYP  RCUT
     2     -6.1423404     23  2.500
     2     -7.5029230     23  2.500
     0     -5.6573207     23  2.500
     0      0.7416693     23  2.500
     1     -2.7211652     23  2.600
     1     20.4087390     23  2.600
     3     -1.3605826     23  2.500
  local pseudopotential read in
  partial core-charges read in
  partial kinetic energy density read in
  atomic valenz-charges read in
  non local Contribution for L=           2  read in
    real space projection operators read in
  non local Contribution for L=           2  read in
    real space projection operators read in
  non local Contribution for L=           0  read in
    real space projection operators read in
  non local Contribution for L=           0  read in
    real space projection operators read in
  non local Contribution for L=           1  read in
    real space projection operators read in
  non local Contribution for L=           1  read in
    real space projection operators read in
    PAW grid and wavefunctions read in

   number of l-projection  operators is LMAX  =           6
   number of lm-projection operators is LMMAX =          18


 -----------------------------------------------------------------------------
|                                                                             |
|  ADVICE TO THIS USER RUNNING 'VASP/VAMP'   (HEAR YOUR MASTER'S VOICE ...):  |
|                                                                             |
|      You enforced a specific xc-type in the INCAR file,                     |
|      a different type was found on the POTCAR file                          |
|          I HOPE YOU KNOW, WHAT YOU ARE  DOING                               |
|                                                                             |
 -----------------------------------------------------------------------------

  PAW_PBE Hf_pv 06Sep2000               :
 energy of atom  1       EATOM= -860.9206
 kinetic energy error for atom=    0.0004 (will be added to EATOM!!)
  PAW_PBE Sb 06Sep2000                  :
 energy of atom  2       EATOM= -149.9515
 kinetic energy error for atom=    0.0002 (will be added to EATOM!!)
  PAW_PBE Pt 04Feb2005                  :
 energy of atom  3       EATOM= -729.1176
 kinetic energy error for atom=    0.0010 (will be added to EATOM!!)


 POSCAR: Hf1 Sb1 Pt1
  positions in direct lattice
  No initial velocities read in
 exchange correlation table for  LEXCH =       14
   RHO(1)=    0.500       N(1)  =     2000
   RHO(2)=  100.500       N(2)  =     4000



--------------------------------------------------------------------------------------------------------


 ion  position               nearest neighbor table
   1  0.750  0.750  0.750-   3 2.77   3 2.77   3 2.77   3 2.77   2 3.20   2 3.20   2 3.20   2 3.20
                             2 3.20   2 3.20
   2  0.250  0.250  0.250-   3 2.77   3 2.77   3 2.77   3 2.77   1 3.20   1 3.20   1 3.20   1 3.20
                             1 3.20   1 3.20
   3  0.000  0.000  0.000-   1 2.77   2 2.77   1 2.77   1 2.77   2 2.77   2 2.77   1 2.77   2 2.77


  LATTYP: Found a face centered cubic cell.
 ALAT       =     6.3986657037

  Lattice vectors:

 A1 = (   0.0000000000,   3.1993328518,   3.1993328518)
 A2 = (   3.1993328518,   0.0000000000,   3.1993328518)
 A3 = (   3.1993328518,   3.1993328518,   0.0000000000)


Analysis of symmetry for initial positions (statically):
=====================================================================
 Subroutine PRICEL returns:
 Original cell was already a primitive cell.


 Routine SETGRP: Setting up the symmetry group for a
 face centered cubic supercell.


 Subroutine GETGRP returns: Found 24 space group operations
 (whereof 24 operations were pure point group operations)
 out of a pool of 48 trial point group operations.


The static configuration has the point symmetry T_d .


Analysis of symmetry for dynamics (positions and initial velocities):
=====================================================================
 Subroutine PRICEL returns:
 Original cell was already a primitive cell.


 Routine SETGRP: Setting up the symmetry group for a
 face centered cubic supercell.


 Subroutine GETGRP returns: Found 24 space group operations
 (whereof 24 operations were pure point group operations)
 out of a pool of 48 trial point group operations.


The dynamic configuration has the point symmetry T_d .


 Subroutine INISYM returns: Found 24 space group operations
 (whereof 24 operations are pure point group operations),
 and found     1 'primitive' translations


----------------------------------------------------------------------------------------

                                     Primitive cell

  volume of cell :      65.4950

  direct lattice vectors                    reciprocal lattice vectors
     0.000000000  3.199332852  3.199332852    -0.156282582  0.156282582  0.156282582
     3.199332852  0.000000000  3.199332852     0.156282582 -0.156282582  0.156282582
     3.199332852  3.199332852  0.000000000     0.156282582  0.156282582 -0.156282582

  length of vectors
     4.524539910  4.524539910  4.524539910     0.270689373  0.270689373  0.270689373

  position of ions in fractional coordinates (direct lattice)
     0.750000000  0.750000000  0.750000000
     0.250000000  0.250000000  0.250000000
     0.000000000  0.000000000  0.000000000

  ion indices of the primitive-cell ions
   primitive index   ion index
                 1           1
                 2           2
                 3           3

----------------------------------------------------------------------------------------



 KPOINTS: KPOINTS

Automatic generation of k-mesh.
Space group operators:
 irot       det(A)        alpha          n_x          n_y          n_z        tau_x        tau_y        tau_z
    1     1.000000     0.000000     1.000000     0.000000     0.000000     0.000000     0.000000     0.000000
    2     1.000000   120.000000    -0.577350    -0.577350    -0.577350     0.000000     0.000000     0.000000
    3     1.000000   120.000000     0.577350     0.577350     0.577350     0.000000     0.000000     0.000000
    4    -1.000000    90.000000    -0.000000    -0.000000    -1.000000     0.000000     0.000000     0.000000
    5    -1.000000   180.000000     0.000000     0.707107     0.707107     0.000000     0.000000     0.000000
    6    -1.000000    90.000000    -0.000000     1.000000    -0.000000     0.000000     0.000000     0.000000
    7     1.000000   180.000000    -0.000000     0.000000     1.000000     0.000000     0.000000     0.000000
    8     1.000000   120.000000    -0.577350     0.577350     0.577350     0.000000     0.000000     0.000000
    9     1.000000   120.000000    -0.577350     0.577350    -0.577350     0.000000     0.000000     0.000000
   10    -1.000000    90.000000     0.000000     0.000000     1.000000     0.000000     0.000000     0.000000
   11    -1.000000    90.000000    -1.000000     0.000000     0.000000     0.000000     0.000000     0.000000
   12    -1.000000   180.000000     0.707107     0.000000     0.707107     0.000000     0.000000     0.000000
   13     1.000000   120.000000     0.577350    -0.577350     0.577350     0.000000     0.000000     0.000000
   14     1.000000   120.000000    -0.577350    -0.577350     0.577350     0.000000     0.000000     0.000000
   15     1.000000   180.000000     1.000000     0.000000     0.000000     0.000000     0.000000     0.000000
   16    -1.000000    90.000000     0.000000    -1.000000     0.000000     0.000000     0.000000     0.000000
   17    -1.000000   180.000000     0.707107     0.707107    -0.000000     0.000000     0.000000     0.000000
   18    -1.000000    90.000000     1.000000     0.000000     0.000000     0.000000     0.000000     0.000000
   19     1.000000   120.000000     0.577350    -0.577350    -0.577350     0.000000     0.000000     0.000000
   20     1.000000   180.000000    -0.000000    -1.000000    -0.000000     0.000000     0.000000     0.000000
   21     1.000000   120.000000     0.577350     0.577350    -0.577350     0.000000     0.000000     0.000000
   22    -1.000000   180.000000    -0.000000    -0.707107     0.707107     0.000000     0.000000     0.000000
   23    -1.000000   180.000000     0.707107    -0.707107     0.000000     0.000000     0.000000     0.000000
   24    -1.000000   180.000000     0.707107     0.000000    -0.707107     0.000000     0.000000     0.000000

 Subroutine IBZKPT returns following result:
 ===========================================

 Found     84 irreducible k-points:

 Following reciprocal coordinates:
            Coordinates               Weight
  0.000000  0.000000  0.000000      1.000000
  0.076923 -0.000000  0.000000      8.000000
  0.153846 -0.000000  0.000000      8.000000
  0.230769 -0.000000  0.000000      8.000000
  0.307692 -0.000000  0.000000      8.000000
  0.384615 -0.000000  0.000000      8.000000
  0.461538 -0.000000  0.000000      8.000000
  0.076923  0.076923  0.000000      6.000000
  0.153846  0.076923  0.000000     24.000000
  0.230769  0.076923 -0.000000     24.000000
  0.307692  0.076923 -0.000000     24.000000
  0.384615  0.076923 -0.000000     24.000000
  0.461538  0.076923 -0.000000     24.000000
 -0.461538  0.076923 -0.000000     24.000000
 -0.384615  0.076923  0.000000     24.000000
 -0.307692  0.076923 -0.000000     24.000000
 -0.230769  0.076923 -0.000000     24.000000
 -0.153846  0.076923  0.000000     24.000000
 -0.076923  0.076923 -0.000000     12.000000
  0.153846  0.153846  0.000000      6.000000
  0.230769  0.153846  0.000000     24.000000
  0.307692  0.153846  0.000000     24.000000
  0.384615  0.153846 -0.000000     24.000000
  0.461538  0.153846 -0.000000     24.000000
 -0.461538  0.153846 -0.000000     24.000000
 -0.384615  0.153846  0.000000     24.000000
 -0.307692  0.153846  0.000000     24.000000
 -0.230769  0.153846 -0.000000     24.000000
 -0.153846  0.153846 -0.000000     12.000000
  0.230769  0.230769  0.000000      6.000000
  0.307692  0.230769  0.000000     24.000000
  0.384615  0.230769  0.000000     24.000000
  0.461538  0.230769 -0.000000     24.000000
 -0.461538  0.230769 -0.000000     24.000000
 -0.384615  0.230769  0.000000     24.000000
 -0.307692  0.230769 -0.000000     24.000000
 -0.230769  0.230769 -0.000000     12.000000
  0.307692  0.307692  0.000000      6.000000
  0.384615  0.307692  0.000000     24.000000
  0.461538  0.307692  0.000000     24.000000
 -0.461538  0.307692 -0.000000     24.000000
 -0.384615  0.307692  0.000000     24.000000
 -0.307692  0.307692 -0.000000     12.000000
  0.384615  0.384615  0.000000      6.000000
  0.461538  0.384615  0.000000     24.000000
 -0.461538  0.384615  0.000000     24.000000
 -0.384615  0.384615 -0.000000     12.000000
  0.461538  0.461538  0.000000      6.000000
 -0.461538  0.461538 -0.000000     12.000000
  0.230769  0.153846  0.076923     24.000000
  0.307692  0.153846  0.076923     48.000000
  0.384615  0.153846  0.076923     48.000000
  0.461538  0.153846  0.076923     48.000000
 -0.461538  0.153846  0.076923     48.000000
  0.307692  0.230769  0.076923     24.000000
  0.384615  0.230769  0.076923     48.000000
  0.461538  0.230769  0.076923     48.000000
 -0.461538  0.230769  0.076923     48.000000
 -0.384615  0.230769  0.076923     48.000000
 -0.307692  0.230769  0.076923     48.000000
 -0.230769  0.230769  0.076923     48.000000
 -0.153846  0.230769  0.076923     24.000000
  0.384615  0.307692  0.076923     24.000000
  0.461538  0.307692  0.076923     48.000000
 -0.461538  0.307692  0.076923     48.000000
 -0.384615  0.307692  0.076923     48.000000
 -0.307692  0.307692  0.076923     48.000000
 -0.230769  0.307692  0.076923     24.000000
  0.461538  0.384615  0.076923     24.000000
 -0.461538  0.384615  0.076923     48.000000
 -0.384615  0.384615  0.076923     48.000000
 -0.307692  0.384615  0.076923     24.000000
 -0.461538  0.461538  0.076923     24.000000
 -0.384615  0.461538  0.076923     24.000000
  0.461538  0.307692  0.153846     24.000000
 -0.461538  0.307692  0.153846     48.000000
 -0.384615  0.307692  0.153846     48.000000
 -0.461538  0.384615  0.153846     24.000000
 -0.384615  0.384615  0.153846     48.000000
 -0.307692  0.384615  0.153846     48.000000
 -0.230769  0.384615  0.153846     24.000000
 -0.384615  0.461538  0.153846     24.000000
 -0.307692  0.461538  0.153846     24.000000
 -0.307692  0.461538  0.230769     24.000000

 Following cartesian coordinates:
            Coordinates               Weight
  0.000000  0.000000  0.000000      1.000000
 -0.012101  0.012101  0.012101      8.000000
 -0.024203  0.024203  0.024203      8.000000
 -0.036304  0.036304  0.036304      8.000000
 -0.048405  0.048405  0.048405      8.000000
 -0.060507  0.060507  0.060507      8.000000
 -0.072608  0.072608  0.072608      8.000000
  0.000000 -0.000000  0.024203      6.000000
 -0.012101  0.012101  0.036304     24.000000
 -0.024203  0.024203  0.048405     24.000000
 -0.036304  0.036304  0.060507     24.000000
 -0.048405  0.048405  0.072608     24.000000
 -0.060507  0.060507  0.084709     24.000000
  0.084709 -0.084709 -0.060507     24.000000
  0.072608 -0.072608 -0.048405     24.000000
  0.060507 -0.060507 -0.036304     24.000000
  0.048405 -0.048405 -0.024203     24.000000
  0.036304 -0.036304 -0.012101     24.000000
  0.024203 -0.024203  0.000000     12.000000
  0.000000 -0.000000  0.048405      6.000000
 -0.012101  0.012101  0.060507     24.000000
 -0.024203  0.024203  0.072608     24.000000
 -0.036304  0.036304  0.084709     24.000000
 -0.048405  0.048405  0.096811     24.000000
  0.096811 -0.096811 -0.048405     24.000000
  0.084709 -0.084709 -0.036304     24.000000
  0.072608 -0.072608 -0.024203     24.000000
  0.060507 -0.060507 -0.012101     24.000000
  0.048405 -0.048405  0.000000     12.000000
 -0.000000  0.000000  0.072608      6.000000
 -0.012101  0.012101  0.084709     24.000000
 -0.024203  0.024203  0.096811     24.000000
 -0.036304  0.036304  0.108912     24.000000
  0.108912 -0.108912 -0.036304     24.000000
  0.096811 -0.096811 -0.024203     24.000000
  0.084709 -0.084709 -0.012101     24.000000
  0.072608 -0.072608 -0.000000     12.000000
  0.000000 -0.000000  0.096811      6.000000
 -0.012101  0.012101  0.108912     24.000000
 -0.024203  0.024203  0.121014     24.000000
  0.121014 -0.121014 -0.024203     24.000000
  0.108912 -0.108912 -0.012101     24.000000
  0.096811 -0.096811  0.000000     12.000000
 -0.000000  0.000000  0.121014      6.000000
 -0.012101  0.012101  0.133115     24.000000
  0.133115 -0.133115 -0.012101     24.000000
  0.121014 -0.121014  0.000000     12.000000
 -0.000000  0.000000  0.145216      6.000000
  0.145216 -0.145216 -0.000000     12.000000
  0.000000  0.024203  0.048405     24.000000
 -0.012101  0.036304  0.060507     48.000000
 -0.024203  0.048405  0.072608     48.000000
 -0.036304  0.060507  0.084709     48.000000
  0.108912 -0.084709 -0.060507     48.000000
  0.000000  0.024203  0.072608     24.000000
 -0.012101  0.036304  0.084709     48.000000
 -0.024203  0.048405  0.096811     48.000000
  0.121014 -0.096811 -0.048405     48.000000
  0.108912 -0.084709 -0.036304     48.000000
  0.096811 -0.072608 -0.024203     48.000000
  0.084709 -0.060507 -0.012101     48.000000
  0.072608 -0.048405 -0.000000     24.000000
  0.000000  0.024203  0.096811     24.000000
 -0.012101  0.036304  0.108912     48.000000
  0.133115 -0.108912 -0.036304     48.000000
  0.121014 -0.096811 -0.024203     48.000000
  0.108912 -0.084709 -0.012101     48.000000
  0.096811 -0.072608 -0.000000     24.000000
  0.000000  0.024203  0.121014     24.000000
  0.145216 -0.121014 -0.024203     48.000000
  0.133115 -0.108912 -0.012101     48.000000
  0.121014 -0.096811  0.000000     24.000000
  0.157318 -0.133115 -0.012101     24.000000
  0.145216 -0.121014 -0.000000     24.000000
  0.000000  0.048405  0.096811     24.000000
  0.145216 -0.096811 -0.048405     48.000000
  0.133115 -0.084709 -0.036304     48.000000
  0.157318 -0.108912 -0.036304     24.000000
  0.145216 -0.096811 -0.024203     48.000000
  0.133115 -0.084709 -0.012101     48.000000
  0.121014 -0.072608  0.000000     24.000000
  0.157318 -0.108912 -0.012101     24.000000
  0.145216 -0.096811 -0.000000     24.000000
  0.157318 -0.084709 -0.012101     24.000000



--------------------------------------------------------------------------------------------------------




 Dimension of arrays:
   k-points           NKPTS =     84   k-points in BZ     NKDIM =     84   number of bands    NBANDS=     16
   number of dos      NEDOS =    301   number of ions     NIONS =      3
   non local maximal  LDIM  =      6   non local SUM 2l+1 LMDIM =     18
   total plane-waves  NPLWV =  64000
   max r-space proj   IRMAX =      1   max aug-charges    IRDMAX= 473623
   dimension x,y,z NGX =    40 NGY =   40 NGZ =   40
   dimension x,y,z NGXF=    80 NGYF=   80 NGZF=   80
   support grid    NGXF=   160 NGYF=  160 NGZF=  160
   ions per type =               1   1   1
   NGX,Y,Z   is equivalent  to a cutoff of  14.70, 14.70, 14.70 a.u.
   NGXF,Y,Z  is equivalent  to a cutoff of  29.39, 29.39, 29.39 a.u.

 SYSTEM =  unknown system
 POSCAR =  Hf1 Sb1 Pt1

 Startparameter for this run:
   NWRITE =      2    write-flag & timer
   PREC   = acc       normal or accurate (medium, high low for compatibility)
   ISTART =      0    job   : 0-new  1-cont  2-samecut
   ICHARG =      2    charge: 1-file 2-atom 10-const
   ISPIN  =      1    spin polarized calculation?
   LNONCOLLINEAR =      F non collinear calculations
   LSORBIT =      F    spin-orbit coupling
   INIWAV =      1    electr: 0-lowe 1-rand  2-diag
   LASPH  =      F    aspherical Exc in radial PAW
   METAGGA=      F    non-selfconsistent MetaGGA calc.

 Electronic Relaxation 1
   ENCUT  =  700.0 eV  51.45 Ry    7.17 a.u.   9.76  9.76  9.76*2*pi/ulx,y,z
   ENINI  =  700.0     initial cutoff
   ENAUG  =  380.9 eV  augmentation charge cutoff
   NELM   =     60;   NELMIN=  5; NELMDL= -5     # of ELM steps
   EDIFF  = 0.1E-06   stopping-criterion for ELM
   LREAL  =      F    real-space projection
   NLSPLINE    = F    spline interpolate recip. space projectors
   LCOMPAT=      F    compatible to vasp.4.4
   GGA_COMPAT  = T    GGA compatible to vasp.4.4-vasp.4.6
   LMAXPAW     = -100 max onsite density
   LMAXMIX     =    2 max onsite mixed and CHGCAR
   VOSKOWN=      0    Vosko Wilk Nusair interpolation
   ROPT   =    0.00000   0.00000   0.00000
 Ionic relaxation
   EDIFFG = 0.1E-05   stopping-criterion for IOM
   NSW    =      0    number of steps for IOM
   NBLOCK =      1;   KBLOCK =      1    inner block; outer block
   IBRION =     -1    ionic relax: 0-MD 1-quasi-New 2-CG
   NFREE  =      0    steps in history (QN), initial steepest desc. (CG)
   ISIF   =      3    stress and relaxation
   IWAVPR =     10    prediction:  0-non 1-charg 2-wave 3-comb
   ISYM   =      2    0-nonsym 1-usesym 2-fastsym
   LCORR  =      T    Harris-Foulkes like correction to forces

   POTIM  = 0.5000    time-step for ionic-motion
   TEIN   =    0.0    initial temperature
   TEBEG  =    0.0;   TEEND  =   0.0 temperature during run
   SMASS  =  -3.00    Nose mass-parameter (am)
   estimated Nose-frequenzy (Omega)   =  0.10E-29 period in steps = 0.13E+47 mass=  -0.468E-27a.u.
   SCALEE = 1.0000    scale energy and forces
   NPACO  =    256;   APACO  = 16.0  distance and # of slots for P.C.
   PSTRESS=    0.0 pullay stress

  Mass of Ions in am
   POMASS = 178.49121.75195.08
  Ionic Valenz
   ZVAL   =  10.00  5.00 10.00
  Atomic Wigner-Seitz radii
   RWIGS  =  -1.00 -1.00 -1.00
  virtual crystal weights
   VCA    =   1.00  1.00  1.00
   NELECT =      25.0000    total number of electrons
   NUPDOWN=      -1.0000    fix difference up-down

 DOS related values:
   EMIN   =  10.00;   EMAX   =-10.00  energy-range for DOS
   EFERMI =   0.00
   ISMEAR =     0;   SIGMA  =   0.01  broadening in eV -4-tet -1-fermi 0-gaus

 Electronic relaxation 2 (details)
   IALGO  =     38    algorithm
   LDIAG  =      T    sub-space diagonalisation (order eigenvalues)
   LSUBROT=      F    optimize rotation matrix (better conditioning)
   TURBO    =      0    0=normal 1=particle mesh
   IRESTART =      0    0=no restart 2=restart with 2 vectors
   NREBOOT  =      0    no. of reboots
   NMIN     =      0    reboot dimension
   EREF     =   0.00    reference energy to select bands
   IMIX   =      4    mixing-type and parameters
     AMIX     =   0.40;   BMIX     =  1.00
     AMIX_MAG =   1.60;   BMIX_MAG =  1.00
     AMIN     =   0.10
     WC   =   100.;   INIMIX=   1;  MIXPRE=   1;  MAXMIX= -45

 Intra band minimization:
   WEIMIN = 0.0000     energy-eigenvalue tresh-hold
   EBREAK =  0.16E-08  absolut break condition
   DEPER  =   0.30     relativ break condition

   TIME   =   0.40     timestep for ELM

  volume/ion in A,a.u.               =      21.83       147.33
  Fermi-wavevector in a.u.,A,eV,Ry     =   1.187550  2.244145 19.187972  1.410276
  Thomas-Fermi vector in A             =   2.323699

 Write flags
   LWAVE        =      F    write WAVECAR
   LDOWNSAMPLE  =      F    k-point downsampling of WAVECAR
   LCHARG       =      F    write CHGCAR
   LVTOT        =      F    write LOCPOT, total local potential
   LVHAR        =      F    write LOCPOT, Hartree potential only
   LELF         =      F    write electronic localiz. function (ELF)
   LORBIT       =      0    0 simple, 1 ext, 2 COOP (PROOUT), +10 PAW based schemes


 Dipole corrections
   LMONO  =      F    monopole corrections only (constant potential shift)
   LDIPOL =      F    correct potential (dipole corrections)
   IDIPOL =      0    1-x, 2-y, 3-z, 4-all directions
   EPSILON=  1.0000000 bulk dielectric constant

 Exchange correlation treatment:
   GGA     =    PS    GGA type
   LEXCH   =    14    internal setting for exchange type
   VOSKOWN=      0    Vosko Wilk Nusair interpolation
   LHFCALC =     F    Hartree Fock is set to
   LHFONE  =     F    Hartree Fock one center treatment
   AEXX    =    0.0000 exact exchange contribution

 Linear response parameters
   LEPSILON=     F    determine dielectric tensor
   LRPA    =     F    only Hartree local field effects (RPA)
   LNABLA  =     F    use nabla operator in PAW spheres
   LVEL    =     F    velocity operator in full k-point grid
   LINTERFAST=   F  fast interpolation
   KINTER  =     0    interpolate to denser k-point grid
   CSHIFT  =0.1000    complex shift for real part using Kramers Kronig
   OMEGAMAX=  -1.0    maximum frequency
   DEG_THRESHOLD= 0.2000000E-02 threshold for treating states as degnerate
   RTIME   =   -0.100 relaxation time in fs
  (WPLASMAI=    0.000 imaginary part of plasma frequency in eV, 0.658/RTIME)
   DFIELD  = 0.0000000 0.0000000 0.0000000 field for delta impulse in time

 Orbital magnetization related:
   ORBITALMAG=     F  switch on orbital magnetization
   LCHIMAG   =     F  perturbation theory with respect to B field
   DQ        =  0.001000  dq finite difference perturbation B field
   LLRAUG    =     F  two centre corrections for induced B field



--------------------------------------------------------------------------------------------------------


 Static calculation
 charge density and potential will be updated during run
 non-spin polarized calculation
 Variant of blocked Davidson
 Davidson routine will perform the subspace rotation
 perform sub-space diagonalisation
    after iterative eigenvector-optimisation
 modified Broyden-mixing scheme, WC =      100.0
 initial mixing is a Kerker type mixing with AMIX =  0.4000 and BMIX =      1.0000
 Hartree-type preconditioning will be used
 using additional bands            3
 reciprocal scheme for non local part
 use partial core corrections
 calculate Harris-corrections to forces
   (improved forces if not selfconsistent)
 use gradient corrections
 use of overlap-Matrix (Vanderbilt PP)
 Gauss-broadening in eV      SIGMA  =   0.01


--------------------------------------------------------------------------------------------------------


  energy-cutoff  :      700.00
  volume of cell :       65.50
      direct lattice vectors                 reciprocal lattice vectors
     0.000000000  3.199332852  3.199332852    -0.156282582  0.156282582  0.156282582
     3.199332852  0.000000000  3.199332852     0.156282582 -0.156282582  0.156282582
     3.199332852  3.199332852  0.000000000     0.156282582  0.156282582 -0.156282582

  length of vectors
     4.524539910  4.524539910  4.524539910     0.270689373  0.270689373  0.270689373



 k-points in units of 2pi/SCALE and weight: KPOINTS
   0.00000000  0.00000000  0.00000000       0.000
  -0.01210135  0.01210135  0.01210135       0.004
  -0.02420271  0.02420271  0.02420271       0.004
  -0.03630406  0.03630406  0.03630406       0.004
  -0.04840541  0.04840541  0.04840541       0.004
  -0.06050677  0.06050677  0.06050677       0.004
  -0.07260812  0.07260812  0.07260812       0.004
   0.00000000 -0.00000000  0.02420271       0.003
  -0.01210135  0.01210135  0.03630406       0.011
  -0.02420271  0.02420271  0.04840541       0.011
  -0.03630406  0.03630406  0.06050677       0.011
  -0.04840541  0.04840541  0.07260812       0.011
  -0.06050677  0.06050677  0.08470948       0.011
   0.08470948 -0.08470948 -0.06050677       0.011
   0.07260812 -0.07260812 -0.04840541       0.011
   0.06050677 -0.06050677 -0.03630406       0.011
   0.04840541 -0.04840541 -0.02420271       0.011
   0.03630406 -0.03630406 -0.01210135       0.011
   0.02420271 -0.02420271  0.00000000       0.005
   0.00000000 -0.00000000  0.04840541       0.003
  -0.01210135  0.01210135  0.06050677       0.011
  -0.02420271  0.02420271  0.07260812       0.011
  -0.03630406  0.03630406  0.08470948       0.011
  -0.04840541  0.04840541  0.09681083       0.011
   0.09681083 -0.09681083 -0.04840541       0.011
   0.08470948 -0.08470948 -0.03630406       0.011
   0.07260812 -0.07260812 -0.02420271       0.011
   0.06050677 -0.06050677 -0.01210135       0.011
   0.04840541 -0.04840541  0.00000000       0.005
  -0.00000000  0.00000000  0.07260812       0.003
  -0.01210135  0.01210135  0.08470948       0.011
  -0.02420271  0.02420271  0.09681083       0.011
  -0.03630406  0.03630406  0.10891218       0.011
   0.10891218 -0.10891218 -0.03630406       0.011
   0.09681083 -0.09681083 -0.02420271       0.011
   0.08470948 -0.08470948 -0.01210135       0.011
   0.07260812 -0.07260812 -0.00000000       0.005
   0.00000000 -0.00000000  0.09681083       0.003
  -0.01210135  0.01210135  0.10891218       0.011
  -0.02420271  0.02420271  0.12101354       0.011
   0.12101354 -0.12101354 -0.02420271       0.011
   0.10891218 -0.10891218 -0.01210135       0.011
   0.09681083 -0.09681083  0.00000000       0.005
  -0.00000000  0.00000000  0.12101354       0.003
  -0.01210135  0.01210135  0.13311489       0.011
   0.13311489 -0.13311489 -0.01210135       0.011
   0.12101354 -0.12101354  0.00000000       0.005
  -0.00000000  0.00000000  0.14521624       0.003
   0.14521624 -0.14521624 -0.00000000       0.005
   0.00000000  0.02420271  0.04840541       0.011
  -0.01210135  0.03630406  0.06050677       0.022
  -0.02420271  0.04840541  0.07260812       0.022
  -0.03630406  0.06050677  0.08470948       0.022
   0.10891218 -0.08470948 -0.06050677       0.022
   0.00000000  0.02420271  0.07260812       0.011
  -0.01210135  0.03630406  0.08470948       0.022
  -0.02420271  0.04840541  0.09681083       0.022
   0.12101354 -0.09681083 -0.04840541       0.022
   0.10891218 -0.08470948 -0.03630406       0.022
   0.09681083 -0.07260812 -0.02420271       0.022
   0.08470948 -0.06050677 -0.01210135       0.022
   0.07260812 -0.04840541 -0.00000000       0.011
   0.00000000  0.02420271  0.09681083       0.011
  -0.01210135  0.03630406  0.10891218       0.022
   0.13311489 -0.10891218 -0.03630406       0.022
   0.12101354 -0.09681083 -0.02420271       0.022
   0.10891218 -0.08470948 -0.01210135       0.022
   0.09681083 -0.07260812 -0.00000000       0.011
   0.00000000  0.02420271  0.12101354       0.011
   0.14521624 -0.12101354 -0.02420271       0.022
   0.13311489 -0.10891218 -0.01210135       0.022
   0.12101354 -0.09681083  0.00000000       0.011
   0.15731760 -0.13311489 -0.01210135       0.011
   0.14521624 -0.12101354 -0.00000000       0.011
   0.00000000  0.04840541  0.09681083       0.011
   0.14521624 -0.09681083 -0.04840541       0.022
   0.13311489 -0.08470948 -0.03630406       0.022
   0.15731760 -0.10891218 -0.03630406       0.011
   0.14521624 -0.09681083 -0.02420271       0.022
   0.13311489 -0.08470948 -0.01210135       0.022
   0.12101354 -0.07260812  0.00000000       0.011
   0.15731760 -0.10891218 -0.01210135       0.011
   0.14521624 -0.09681083 -0.00000000       0.011
   0.15731760 -0.08470948 -0.01210135       0.011

 k-points in reciprocal lattice and weights: KPOINTS
   0.00000000  0.00000000  0.00000000       0.000
   0.07692308 -0.00000000  0.00000000       0.004
   0.15384615 -0.00000000  0.00000000       0.004
   0.23076923 -0.00000000  0.00000000       0.004
   0.30769231 -0.00000000  0.00000000       0.004
   0.38461538 -0.00000000  0.00000000       0.004
   0.46153846 -0.00000000  0.00000000       0.004
   0.07692308  0.07692308  0.00000000       0.003
   0.15384615  0.07692308  0.00000000       0.011
   0.23076923  0.07692308 -0.00000000       0.011
   0.30769231  0.07692308 -0.00000000       0.011
   0.38461538  0.07692308 -0.00000000       0.011
   0.46153846  0.07692308 -0.00000000       0.011
  -0.46153846  0.07692308 -0.00000000       0.011
  -0.38461538  0.07692308  0.00000000       0.011
  -0.30769231  0.07692308 -0.00000000       0.011
  -0.23076923  0.07692308 -0.00000000       0.011
  -0.15384615  0.07692308  0.00000000       0.011
  -0.07692308  0.07692308 -0.00000000       0.005
   0.15384615  0.15384615  0.00000000       0.003
   0.23076923  0.15384615  0.00000000       0.011
   0.30769231  0.15384615  0.00000000       0.011
   0.38461538  0.15384615 -0.00000000       0.011
   0.46153846  0.15384615 -0.00000000       0.011
  -0.46153846  0.15384615 -0.00000000       0.011
  -0.38461538  0.15384615  0.00000000       0.011
  -0.30769231  0.15384615  0.00000000       0.011
  -0.23076923  0.15384615 -0.00000000       0.011
  -0.15384615  0.15384615 -0.00000000       0.005
   0.23076923  0.23076923  0.00000000       0.003
   0.30769231  0.23076923  0.00000000       0.011
   0.38461538  0.23076923  0.00000000       0.011
   0.46153846  0.23076923 -0.00000000       0.011
  -0.46153846  0.23076923 -0.00000000       0.011
  -0.38461538  0.23076923  0.00000000       0.011
  -0.30769231  0.23076923 -0.00000000       0.011
  -0.23076923  0.23076923 -0.00000000       0.005
   0.30769231  0.30769231  0.00000000       0.003
   0.38461538  0.30769231  0.00000000       0.011
   0.46153846  0.30769231  0.00000000       0.011
  -0.46153846  0.30769231 -0.00000000       0.011
  -0.38461538  0.30769231  0.00000000       0.011
  -0.30769231  0.30769231 -0.00000000       0.005
   0.38461538  0.38461538  0.00000000       0.003
   0.46153846  0.38461538  0.00000000       0.011
  -0.46153846  0.38461538  0.00000000       0.011
  -0.38461538  0.38461538 -0.00000000       0.005
   0.46153846  0.46153846  0.00000000       0.003
  -0.46153846  0.46153846 -0.00000000       0.005
   0.23076923  0.15384615  0.07692308       0.011
   0.30769231  0.15384615  0.07692308       0.022
   0.38461538  0.15384615  0.07692308       0.022
   0.46153846  0.15384615  0.07692308       0.022
  -0.46153846  0.15384615  0.07692308       0.022
   0.30769231  0.23076923  0.07692308       0.011
   0.38461538  0.23076923  0.07692308       0.022
   0.46153846  0.23076923  0.07692308       0.022
  -0.46153846  0.23076923  0.07692308       0.022
  -0.38461538  0.23076923  0.07692308       0.022
  -0.30769231  0.23076923  0.07692308       0.022
  -0.23076923  0.23076923  0.07692308       0.022
  -0.15384615  0.23076923  0.07692308       0.011
   0.38461538  0.30769231  0.07692308       0.011
   0.46153846  0.30769231  0.07692308       0.022
  -0.46153846  0.30769231  0.07692308       0.022
  -0.38461538  0.30769231  0.07692308       0.022
  -0.30769231  0.30769231  0.07692308       0.022
  -0.23076923  0.30769231  0.07692308       0.011
   0.46153846  0.38461538  0.07692308       0.011
  -0.46153846  0.38461538  0.07692308       0.022
  -0.38461538  0.38461538  0.07692308       0.022
  -0.30769231  0.38461538  0.07692308       0.011
  -0.46153846  0.46153846  0.07692308       0.011
  -0.38461538  0.46153846  0.07692308       0.011
   0.46153846  0.30769231  0.15384615       0.011
  -0.46153846  0.30769231  0.15384615       0.022
  -0.38461538  0.30769231  0.15384615       0.022
  -0.46153846  0.38461538  0.15384615       0.011
  -0.38461538  0.38461538  0.15384615       0.022
  -0.30769231  0.38461538  0.15384615       0.022
  -0.23076923  0.38461538  0.15384615       0.011
  -0.38461538  0.46153846  0.15384615       0.011
  -0.30769231  0.46153846  0.15384615       0.011
  -0.30769231  0.46153846  0.23076923       0.011

 position of ions in fractional coordinates (direct lattice)
   0.75000000  0.75000000  0.75000000
   0.25000000  0.25000000  0.25000000
   0.00000000  0.00000000  0.00000000

 position of ions in cartesian coordinates  (Angst):
   4.79899928  4.79899928  4.79899928
   1.59966643  1.59966643  1.59966643
   0.00000000  0.00000000  0.00000000



--------------------------------------------------------------------------------------------------------


 k-point  1 :   0.0000 0.0000 0.0000  plane waves:    2733
 k-point  2 :   0.0769-0.0000 0.0000  plane waves:    2731
 k-point  3 :   0.1538-0.0000 0.0000  plane waves:    2746
 k-point  4 :   0.2308-0.0000 0.0000  plane waves:    2755
 k-point  5 :   0.3077-0.0000 0.0000  plane waves:    2770
 k-point  6 :   0.3846-0.0000 0.0000  plane waves:    2746
 k-point  7 :   0.4615-0.0000 0.0000  plane waves:    2776
 k-point  8 :   0.0769 0.0769 0.0000  plane waves:    2733
 k-point  9 :   0.1538 0.0769 0.0000  plane waves:    2744
 k-point 10 :   0.2308 0.0769-0.0000  plane waves:    2756
 k-point 11 :   0.3077 0.0769-0.0000  plane waves:    2748
 k-point 12 :   0.3846 0.0769-0.0000  plane waves:    2757
 k-point 13 :   0.4615 0.0769-0.0000  plane waves:    2764
 k-point 14 :  -0.4615 0.0769-0.0000  plane waves:    2768
 k-point 15 :  -0.3846 0.0769 0.0000  plane waves:    2758
 k-point 16 :  -0.3077 0.0769-0.0000  plane waves:    2761
 k-point 17 :  -0.2308 0.0769-0.0000  plane waves:    2746
 k-point 18 :  -0.1538 0.0769 0.0000  plane waves:    2750
 k-point 19 :  -0.0769 0.0769-0.0000  plane waves:    2741
 k-point 20 :   0.1538 0.1538 0.0000  plane waves:    2742
 k-point 21 :   0.2308 0.1538 0.0000  plane waves:    2755
 k-point 22 :   0.3077 0.1538 0.0000  plane waves:    2747
 k-point 23 :   0.3846 0.1538-0.0000  plane waves:    2749
 k-point 24 :   0.4615 0.1538-0.0000  plane waves:    2749
 k-point 25 :  -0.4615 0.1538-0.0000  plane waves:    2751
 k-point 26 :  -0.3846 0.1538 0.0000  plane waves:    2753
 k-point 27 :  -0.3077 0.1538 0.0000  plane waves:    2760
 k-point 28 :  -0.2308 0.1538-0.0000  plane waves:    2760
 k-point 29 :  -0.1538 0.1538-0.0000  plane waves:    2758
 k-point 30 :   0.2308 0.2308 0.0000  plane waves:    2738
 k-point 31 :   0.3077 0.2308 0.0000  plane waves:    2762
 k-point 32 :   0.3846 0.2308 0.0000  plane waves:    2757
 k-point 33 :   0.4615 0.2308-0.0000  plane waves:    2757
 k-point 34 :  -0.4615 0.2308-0.0000  plane waves:    2749
 k-point 35 :  -0.3846 0.2308 0.0000  plane waves:    2746
 k-point 36 :  -0.3077 0.2308-0.0000  plane waves:    2747
 k-point 37 :  -0.2308 0.2308-0.0000  plane waves:    2750
 k-point 38 :   0.3077 0.3077 0.0000  plane waves:    2766
 k-point 39 :   0.3846 0.3077 0.0000  plane waves:    2761
 k-point 40 :   0.4615 0.3077 0.0000  plane waves:    2752
 k-point 41 :  -0.4615 0.3077-0.0000  plane waves:    2766
 k-point 42 :  -0.3846 0.3077 0.0000  plane waves:    2751
 k-point 43 :  -0.3077 0.3077-0.0000  plane waves:    2746
 k-point 44 :   0.3846 0.3846 0.0000  plane waves:    2778
 k-point 45 :   0.4615 0.3846 0.0000  plane waves:    2764
 k-point 46 :  -0.4615 0.3846 0.0000  plane waves:    2768
 k-point 47 :  -0.3846 0.3846-0.0000  plane waves:    2756
 k-point 48 :   0.4615 0.4615 0.0000  plane waves:    2754
 k-point 49 :  -0.4615 0.4615-0.0000  plane waves:    2758
 k-point 50 :   0.2308 0.1538 0.0769  plane waves:    2754
 k-point 51 :   0.3077 0.1538 0.0769  plane waves:    2765
 k-point 52 :   0.3846 0.1538 0.0769  plane waves:    2753
 k-point 53 :   0.4615 0.1538 0.0769  plane waves:    2755
 k-point 54 :  -0.4615 0.1538 0.0769  plane waves:    2766
 k-point 55 :   0.3077 0.2308 0.0769  plane waves:    2756
 k-point 56 :   0.3846 0.2308 0.0769  plane waves:    2756
 k-point 57 :   0.4615 0.2308 0.0769  plane waves:    2755
 k-point 58 :  -0.4615 0.2308 0.0769  plane waves:    2754
 k-point 59 :  -0.3846 0.2308 0.0769  plane waves:    2758
 k-point 60 :  -0.3077 0.2308 0.0769  plane waves:    2753
 k-point 61 :  -0.2308 0.2308 0.0769  plane waves:    2745
 k-point 62 :  -0.1538 0.2308 0.0769  plane waves:    2759
 k-point 63 :   0.3846 0.3077 0.0769  plane waves:    2758
 k-point 64 :   0.4615 0.3077 0.0769  plane waves:    2757
 k-point 65 :  -0.4615 0.3077 0.0769  plane waves:    2752
 k-point 66 :  -0.3846 0.3077 0.0769  plane waves:    2751
 k-point 67 :  -0.3077 0.3077 0.0769  plane waves:    2746
 k-point 68 :  -0.2308 0.3077 0.0769  plane waves:    2762
 k-point 69 :   0.4615 0.3846 0.0769  plane waves:    2761
 k-point 70 :  -0.4615 0.3846 0.0769  plane waves:    2755
 k-point 71 :  -0.3846 0.3846 0.0769  plane waves:    2757
 k-point 72 :  -0.3077 0.3846 0.0769  plane waves:    2757
 k-point 73 :  -0.4615 0.4615 0.0769  plane waves:    2758
 k-point 74 :  -0.3846 0.4615 0.0769  plane waves:    2749
 k-point 75 :   0.4615 0.3077 0.1538  plane waves:    2753
 k-point 76 :  -0.4615 0.3077 0.1538  plane waves:    2750
 k-point 77 :  -0.3846 0.3077 0.1538  plane waves:    2746
 k-point 78 :  -0.4615 0.3846 0.1538  plane waves:    2753
 k-point 79 :  -0.3846 0.3846 0.1538  plane waves:    2747
 k-point 80 :  -0.3077 0.3846 0.1538  plane waves:    2748
 k-point 81 :  -0.2308 0.3846 0.1538  plane waves:    2745
 k-point 82 :  -0.3846 0.4615 0.1538  plane waves:    2757
 k-point 83 :  -0.3077 0.4615 0.1538  plane waves:    2757
 k-point 84 :  -0.3077 0.4615 0.2308  plane waves:    2750

 maximum and minimum number of plane-waves per node :       709      672

 maximum number of plane-waves:      2778
 maximum index in each direction:
   IXMAX=   10   IYMAX=    9   IZMAX=    9
   IXMIN=  -10   IYMIN=  -10   IZMIN=   -9


 parallel 3D FFT for wavefunctions:
    minimum data exchange during FFTs selected (reduces bandwidth)
 parallel 3D FFT for charge:
    minimum data exchange during FFTs selected (reduces bandwidth)


 total amount of memory used by VASP MPI-rank0    67256. kBytes
=======================================================================

   base      :      30000. kBytes
   nonl-proj :      25435. kBytes
   fftplans  :       5204. kBytes
   grid      :       2732. kBytes
   one-center:         15. kBytes
   wavefun   :       3870. kBytes

     INWAV:  cpu time    0.0003: real time    0.0009
 Broyden mixing: mesh for mixing (old mesh)
   NGX = 19   NGY = 19   NGZ = 19
  (NGX  = 80   NGY  = 80   NGZ  = 80)
  gives a total of   6859 points

 initial charge density was supplied:
 charge density of overlapping atoms calculated
 number of electron      25.0000000 magnetization
 keeping initial charge density in first step


--------------------------------------------------------------------------------------------------------


 Maximum index for augmentation-charges        28887 (set IRDMAX)


--------------------------------------------------------------------------------------------------------


 First call to EWALD:  gamma=   0.440
 Maximum number of real-space cells 3x 3x 3
 Maximum number of reciprocal cells 3x 3x 3

    FEWALD:  cpu time    0.0053: real time    0.0061


--------------------------------------- Iteration      1(   1)  ---------------------------------------


    POTLOK:  cpu time    0.0507: real time    0.1268
    SETDIJ:  cpu time    0.0780: real time    0.0782
     EDDAV:  cpu time    0.8970: real time    0.9255
       DOS:  cpu time    0.0033: real time    0.0043
    --------------------------------------------
      LOOP:  cpu time    1.0293: real time    1.1369

 eigenvalue-minimisations  :  2688
 total energy-change (2. order) : 0.1403637E+03  (-0.1424335E+04)
 number of electron      25.0000000 magnetization
 augmentation part       25.0000000 magnetization

 Free energy of the ion-electron system (eV)
  ---------------------------------------------------
  alpha Z        PSCENC =       104.01941450
  Ewald energy   TEWEN  =     -1554.09261706
  -Hartree energ DENC   =      -327.50096171
  -exchange      EXHF   =         0.00000000
  -V(xc)+E(xc)   XCENC  =       -19.15317225
  PAW double counting   =      1514.36848356    -1421.27055995
  entropy T*S    EENTRO =        -0.00011597
  eigenvalues    EBANDS =       102.88873745
  atomic energy  EATOM  =      1741.10451121
  Solvation  Ediel_sol  =         0.00000000
  ---------------------------------------------------
  free energy    TOTEN  =       140.36371978 eV

  energy without entropy =      140.36383575  energy(sigma->0) =      140.36377777


--------------------------------------------------------------------------------------------------------




--------------------------------------- Iteration      1(   2)  ---------------------------------------


     EDDAV:  cpu time    1.0612: real time    1.0818
       DOS:  cpu time    0.0025: real time    0.0029
    --------------------------------------------
      LOOP:  cpu time    1.0637: real time    1.0852

 eigenvalue-minimisations  :  3352
 total energy-change (2. order) :-0.1604073E+03  (-0.1589234E+03)
 number of electron      25.0000000 magnetization
 augmentation part       25.0000000 magnetization

 Free energy of the ion-electron system (eV)
  ---------------------------------------------------
  alpha Z        PSCENC =       104.01941450
  Ewald energy   TEWEN  =     -1554.09261706
  -Hartree energ DENC   =      -327.50096171
  -exchange      EXHF   =         0.00000000
  -V(xc)+E(xc)   XCENC  =       -19.15317225
  PAW double counting   =      1514.36848356    -1421.27055995
  entropy T*S    EENTRO =        -0.00007328
  eigenvalues    EBANDS =       -57.51855794
  atomic energy  EATOM  =      1741.10451121
  Solvation  Ediel_sol  =         0.00000000
  ---------------------------------------------------
  free energy    TOTEN  =       -20.04353292 eV

  energy without entropy =      -20.04345964  energy(sigma->0) =      -20.04349628


--------------------------------------------------------------------------------------------------------




--------------------------------------- Iteration      1(   3)  ---------------------------------------


     EDDAV:  cpu time    1.1561: real time    1.1781
       DOS:  cpu time    0.0025: real time    0.0029
    --------------------------------------------
      LOOP:  cpu time    1.1586: real time    1.1800

 eigenvalue-minimisations  :  3632
 total energy-change (2. order) :-0.4901205E+01  (-0.4816298E+01)
 number of electron      25.0000000 magnetization
 augmentation part       25.0000000 magnetization

 Free energy of the ion-electron system (eV)
  ---------------------------------------------------
  alpha Z        PSCENC =       104.01941450
  Ewald energy   TEWEN  =     -1554.09261706
  -Hartree energ DENC   =      -327.50096171
  -exchange      EXHF   =         0.00000000
  -V(xc)+E(xc)   XCENC  =       -19.15317225
  PAW double counting   =      1514.36848356    -1421.27055995
  entropy T*S    EENTRO =        -0.00020804
  eigenvalues    EBANDS =       -62.41962844
  atomic energy  EATOM  =      1741.10451121
  Solvation  Ediel_sol  =         0.00000000
  ---------------------------------------------------
  free energy    TOTEN  =       -24.94473817 eV

  energy without entropy =      -24.94453014  energy(sigma->0) =      -24.94463416


--------------------------------------------------------------------------------------------------------




--------------------------------------- Iteration      1(   4)  ---------------------------------------


     EDDAV:  cpu time    1.0662: real time    1.0969
       DOS:  cpu time    0.0025: real time    0.0041
    --------------------------------------------
      LOOP:  cpu time    1.0688: real time    1.1022

 eigenvalue-minimisations  :  3264
 total energy-change (2. order) :-0.7288212E-01  (-0.7143766E-01)
 number of electron      25.0000000 magnetization
 augmentation part       25.0000000 magnetization

 Free energy of the ion-electron system (eV)
  ---------------------------------------------------
  alpha Z        PSCENC =       104.01941450
  Ewald energy   TEWEN  =     -1554.09261706
  -Hartree energ DENC   =      -327.50096171
  -exchange      EXHF   =         0.00000000
  -V(xc)+E(xc)   XCENC  =       -19.15317225
  PAW double counting   =      1514.36848356    -1421.27055995
  entropy T*S    EENTRO =        -0.00013025
  eigenvalues    EBANDS =       -62.49258834
  atomic energy  EATOM  =      1741.10451121
  Solvation  Ediel_sol  =         0.00000000
  ---------------------------------------------------
  free energy    TOTEN  =       -25.01762030 eV

  energy without entropy =      -25.01749005  energy(sigma->0) =      -25.01755517


--------------------------------------------------------------------------------------------------------




--------------------------------------- Iteration      1(   5)  ---------------------------------------


     EDDAV:  cpu time    1.1856: real time    1.2066
       DOS:  cpu time    0.0026: real time    0.0028
    CHARGE:  cpu time    0.2352: real time    0.2365
    MIXING:  cpu time    0.0046: real time    0.0049
    --------------------------------------------
      LOOP:  cpu time    1.4278: real time    1.4494

 eigenvalue-minimisations  :  3680
 total energy-change (2. order) :-0.1643650E-02  (-0.1642660E-02)
 number of electron      25.0000000 magnetization
 augmentation part        4.7730540 magnetization

 Broyden mixing:
  rms(total) = 0.41268E+01    rms(broyden)= 0.41268E+01
  rms(prec ) = 0.43396E+01
  weight for this iteration     100.00

 Free energy of the ion-electron system (eV)
  ---------------------------------------------------
  alpha Z        PSCENC =       104.01941450
  Ewald energy   TEWEN  =     -1554.09261706
  -Hartree energ DENC   =      -327.50096171
  -exchange      EXHF   =         0.00000000
  -V(xc)+E(xc)   XCENC  =       -19.15317225
  PAW double counting   =      1514.36848356    -1421.27055995
  entropy T*S    EENTRO =        -0.00013566
  eigenvalues    EBANDS =       -62.49422659
  atomic energy  EATOM  =      1741.10451121
  Solvation  Ediel_sol  =         0.00000000
  ---------------------------------------------------
  free energy    TOTEN  =       -25.01926395 eV

  energy without entropy =      -25.01912829  energy(sigma->0) =      -25.01919612


--------------------------------------------------------------------------------------------------------




--------------------------------------- Iteration      1(   6)  ---------------------------------------


    POTLOK:  cpu time    0.0407: real time    0.0548
    SETDIJ:  cpu time    0.0809: real time    0.0811
     EDDAV:  cpu time    1.0740: real time    1.0743
       DOS:  cpu time    0.0026: real time    0.0031
    CHARGE:  cpu time    0.2005: real time    0.2006
    MIXING:  cpu time    0.0044: real time    0.0045
    --------------------------------------------
      LOOP:  cpu time    1.4031: real time    1.4186

 eigenvalue-minimisations  :  3464
 total energy-change (2. order) : 0.7973022E+00  (-0.1760918E+00)
 number of electron      25.0000000 magnetization
 augmentation part        4.9416242 magnetization

 Broyden mixing:
  rms(total) = 0.25236E+01    rms(broyden)= 0.25236E+01
  rms(prec ) = 0.25833E+01
  weight for this iteration     100.00

 eigenvalues of (default mixing * dielectric matrix)
  average eigenvalue GAMMA=   2.5096
  2.5096

 Free energy of the ion-electron system (eV)
  ---------------------------------------------------
  alpha Z        PSCENC =       104.01941450
  Ewald energy   TEWEN  =     -1554.09261706
  -Hartree energ DENC   =      -312.75594428
  -exchange      EXHF   =         0.00000000
  -V(xc)+E(xc)   XCENC  =       -19.66101130
  PAW double counting   =      1918.63268730    -1827.99013312
  entropy T*S    EENTRO =        -0.00025893
  eigenvalues    EBANDS =       -73.47861012
  atomic energy  EATOM  =      1741.10451121
  Solvation  Ediel_sol  =         0.00000000
  ---------------------------------------------------
  free energy    TOTEN  =       -24.22196179 eV

  energy without entropy =      -24.22170286  energy(sigma->0) =      -24.22183233


--------------------------------------------------------------------------------------------------------




--------------------------------------- Iteration      1(   7)  ---------------------------------------


    POTLOK:  cpu time    0.0344: real time    0.0606
    SETDIJ:  cpu time    0.0734: real time    0.0736
     EDDAV:  cpu time    1.1697: real time    1.1699
       DOS:  cpu time    0.0025: real time    0.0029
    CHARGE:  cpu time    0.1647: real time    0.1648
    MIXING:  cpu time    0.0050: real time    0.0051
    --------------------------------------------
      LOOP:  cpu time    1.4498: real time    1.4765

 eigenvalue-minimisations  :  3808
 total energy-change (2. order) : 0.1397800E+00  (-0.1033714E+00)
 number of electron      25.0000000 magnetization
 augmentation part        4.9911471 magnetization

 Broyden mixing:
  rms(total) = 0.36369E+00    rms(broyden)= 0.36369E+00
  rms(prec ) = 0.47245E+00
  weight for this iteration     100.00

 eigenvalues of (default mixing * dielectric matrix)
  average eigenvalue GAMMA=   1.9231
  1.2321  2.6141

 Free energy of the ion-electron system (eV)
  ---------------------------------------------------
  alpha Z        PSCENC =       104.01941450
  Ewald energy   TEWEN  =     -1554.09261706
  -Hartree energ DENC   =      -303.91415650
  -exchange      EXHF   =         0.00000000
  -V(xc)+E(xc)   XCENC  =       -19.90077846
  PAW double counting   =      2510.96318263    -2423.22136118
  entropy T*S    EENTRO =        -0.00041445
  eigenvalues    EBANDS =       -79.03996248
  atomic energy  EATOM  =      1741.10451121
  Solvation  Ediel_sol  =         0.00000000
  ---------------------------------------------------
  free energy    TOTEN  =       -24.08218178 eV

  energy without entropy =      -24.08176734  energy(sigma->0) =      -24.08197456


--------------------------------------------------------------------------------------------------------




--------------------------------------- Iteration      1(   8)  ---------------------------------------


    POTLOK:  cpu time    0.0950: real time    0.1138
    SETDIJ:  cpu time    0.0734: real time    0.0735
     EDDAV:  cpu time    1.0848: real time    1.0850
       DOS:  cpu time    0.0028: real time    0.0030
    CHARGE:  cpu time    0.2115: real time    0.2116
    MIXING:  cpu time    0.0048: real time    0.0049
    --------------------------------------------
      LOOP:  cpu time    1.4724: real time    1.4918

 eigenvalue-minimisations  :  3456
 total energy-change (2. order) : 0.2306150E-01  (-0.3984534E-01)
 number of electron      25.0000000 magnetization
 augmentation part        5.0290174 magnetization

 Broyden mixing:
  rms(total) = 0.94813E-01    rms(broyden)= 0.94813E-01
  rms(prec ) = 0.21535E+00
  weight for this iteration     100.00

 eigenvalues of (default mixing * dielectric matrix)
  average eigenvalue GAMMA=   1.5168
  2.4954  1.4272  0.6278

 Free energy of the ion-electron system (eV)
  ---------------------------------------------------
  alpha Z        PSCENC =       104.01941450
  Ewald energy   TEWEN  =     -1554.09261706
  -Hartree energ DENC   =      -304.56447309
  -exchange      EXHF   =         0.00000000
  -V(xc)+E(xc)   XCENC  =       -19.84834289
  PAW double counting   =      2556.67182291    -2469.03689420
  entropy T*S    EENTRO =        -0.00028527
  eigenvalues    EBANDS =       -78.31225640
  atomic energy  EATOM  =      1741.10451121
  Solvation  Ediel_sol  =         0.00000000
  ---------------------------------------------------
  free energy    TOTEN  =       -24.05912029 eV

  energy without entropy =      -24.05883501  energy(sigma->0) =      -24.05897765


--------------------------------------------------------------------------------------------------------




--------------------------------------- Iteration      1(   9)  ---------------------------------------


    POTLOK:  cpu time    0.0311: real time    0.1049
    SETDIJ:  cpu time    0.0734: real time    0.0736
     EDDAV:  cpu time    0.9573: real time    0.9574
       DOS:  cpu time    0.0026: real time    0.0028
    CHARGE:  cpu time    0.1713: real time    0.1715
    MIXING:  cpu time    0.0051: real time    0.0051
    --------------------------------------------
      LOOP:  cpu time    1.2407: real time    1.3162

 eigenvalue-minimisations  :  2920
 total energy-change (2. order) : 0.1034864E-01  (-0.6130459E-02)
 number of electron      25.0000000 magnetization
 augmentation part        4.9941169 magnetization

 Broyden mixing:
  rms(total) = 0.30415E-01    rms(broyden)= 0.30415E-01
  rms(prec ) = 0.49432E-01
  weight for this iteration     100.00

 eigenvalues of (default mixing * dielectric matrix)
  average eigenvalue GAMMA=   1.4265
  2.4216  1.3270  1.3270  0.6304

 Free energy of the ion-electron system (eV)
  ---------------------------------------------------
  alpha Z        PSCENC =       104.01941450
  Ewald energy   TEWEN  =     -1554.09261706
  -Hartree energ DENC   =      -305.92097995
  -exchange      EXHF   =         0.00000000
  -V(xc)+E(xc)   XCENC  =       -19.80164628
  PAW double counting   =      2547.22653594    -2459.50731533
  entropy T*S    EENTRO =        -0.00030520
  eigenvalues    EBANDS =       -77.07636949
  atomic energy  EATOM  =      1741.10451121
  Solvation  Ediel_sol  =         0.00000000
  ---------------------------------------------------
  free energy    TOTEN  =       -24.04877165 eV

  energy without entropy =      -24.04846645  energy(sigma->0) =      -24.04861905


--------------------------------------------------------------------------------------------------------




--------------------------------------- Iteration      1(  10)  ---------------------------------------


    POTLOK:  cpu time    0.0622: real time    0.0788
    SETDIJ:  cpu time    0.0737: real time    0.0739
     EDDAV:  cpu time    1.1350: real time    1.1358
       DOS:  cpu time    0.0026: real time    0.0027
    CHARGE:  cpu time    0.1647: real time    0.1647
    MIXING:  cpu time    0.0048: real time    0.0049
    --------------------------------------------
      LOOP:  cpu time    1.4429: real time    1.4615

 eigenvalue-minimisations  :  3728
 total energy-change (2. order) : 0.1299055E-03  (-0.8781495E-03)
 number of electron      25.0000000 magnetization
 augmentation part        4.9907758 magnetization

 Broyden mixing:
  rms(total) = 0.26589E-01    rms(broyden)= 0.26589E-01
  rms(prec ) = 0.33315E-01
  weight for this iteration     100.00

 eigenvalues of (default mixing * dielectric matrix)
  average eigenvalue GAMMA=   1.3746
  2.4908  1.8016  1.0887  0.7945  0.6976

 Free energy of the ion-electron system (eV)
  ---------------------------------------------------
  alpha Z        PSCENC =       104.01941450
  Ewald energy   TEWEN  =     -1554.09261706
  -Hartree energ DENC   =      -305.81197928
  -exchange      EXHF   =         0.00000000
  -V(xc)+E(xc)   XCENC  =       -19.80571534
  PAW double counting   =      2553.28530380    -2465.51038623
  entropy T*S    EENTRO =        -0.00029514
  eigenvalues    EBANDS =       -77.23687821
  atomic energy  EATOM  =      1741.10451121
  Solvation  Ediel_sol  =         0.00000000
  ---------------------------------------------------
  free energy    TOTEN  =       -24.04864174 eV

  energy without entropy =      -24.04834660  energy(sigma->0) =      -24.04849417


--------------------------------------------------------------------------------------------------------




--------------------------------------- Iteration      1(  11)  ---------------------------------------


    POTLOK:  cpu time    0.0378: real time    0.0587
    SETDIJ:  cpu time    0.0751: real time    0.0752
     EDDAV:  cpu time    1.0204: real time    1.0206
       DOS:  cpu time    0.0027: real time    0.0028
    CHARGE:  cpu time    0.1643: real time    0.1643
    MIXING:  cpu time    0.0053: real time    0.0054
    --------------------------------------------
      LOOP:  cpu time    1.3055: real time    1.3280

 eigenvalue-minimisations  :  3168
 total energy-change (2. order) : 0.1213621E-03  (-0.5802399E-04)
 number of electron      25.0000000 magnetization
 augmentation part        4.9926996 magnetization

 Broyden mixing:
  rms(total) = 0.67398E-02    rms(broyden)= 0.67398E-02
  rms(prec ) = 0.83798E-02
  weight for this iteration     100.00

 eigenvalues of (default mixing * dielectric matrix)
  average eigenvalue GAMMA=   1.4436
  2.5678  2.2832  1.0697  1.0328  1.0328  0.6751

 Free energy of the ion-electron system (eV)
  ---------------------------------------------------
  alpha Z        PSCENC =       104.01941450
  Ewald energy   TEWEN  =     -1554.09261706
  -Hartree energ DENC   =      -305.88483658
  -exchange      EXHF   =         0.00000000
  -V(xc)+E(xc)   XCENC  =       -19.80111062
  PAW double counting   =      2556.02707928    -2468.23542651
  entropy T*S    EENTRO =        -0.00029375
  eigenvalues    EBANDS =       -77.18524084
  atomic energy  EATOM  =      1741.10451121
  Solvation  Ediel_sol  =         0.00000000
  ---------------------------------------------------
  free energy    TOTEN  =       -24.04852038 eV

  energy without entropy =      -24.04822663  energy(sigma->0) =      -24.04837351


--------------------------------------------------------------------------------------------------------




--------------------------------------- Iteration      1(  12)  ---------------------------------------


    POTLOK:  cpu time    0.0561: real time    0.0796
    SETDIJ:  cpu time    0.0783: real time    0.0784
     EDDAV:  cpu time    1.1560: real time    1.1562
       DOS:  cpu time    0.0027: real time    0.0029
    CHARGE:  cpu time    0.1651: real time    0.1653
    MIXING:  cpu time    0.0044: real time    0.0047
    --------------------------------------------
      LOOP:  cpu time    1.4627: real time    1.4849

 eigenvalue-minimisations  :  3712
 total energy-change (2. order) : 0.4185003E-05  (-0.1006769E-04)
 number of electron      25.0000000 magnetization
 augmentation part        4.9925710 magnetization

 Broyden mixing:
  rms(total) = 0.20329E-02    rms(broyden)= 0.20329E-02
  rms(prec ) = 0.22078E-02
  weight for this iteration     100.00

 eigenvalues of (default mixing * dielectric matrix)
  average eigenvalue GAMMA=   1.4737
  2.3712  2.3712  1.9114  1.0363  1.0363  0.6798  0.9101

 Free energy of the ion-electron system (eV)
  ---------------------------------------------------
  alpha Z        PSCENC =       104.01941450
  Ewald energy   TEWEN  =     -1554.09261706
  -Hartree energ DENC   =      -305.94980643
  -exchange      EXHF   =         0.00000000
  -V(xc)+E(xc)   XCENC  =       -19.79811312
  PAW double counting   =      2555.99143949    -2468.18454581
  entropy T*S    EENTRO =        -0.00029513
  eigenvalues    EBANDS =       -77.13850385
  atomic energy  EATOM  =      1741.10451121
  Solvation  Ediel_sol  =         0.00000000
  ---------------------------------------------------
  free energy    TOTEN  =       -24.04851620 eV

  energy without entropy =      -24.04822106  energy(sigma->0) =      -24.04836863


--------------------------------------------------------------------------------------------------------




--------------------------------------- Iteration      1(  13)  ---------------------------------------


    POTLOK:  cpu time    0.0334: real time    0.0628
    SETDIJ:  cpu time    0.0740: real time    0.0740
     EDDAV:  cpu time    1.0001: real time    1.0003
       DOS:  cpu time    0.0027: real time    0.0029
    CHARGE:  cpu time    0.1675: real time    0.1679
    MIXING:  cpu time    0.0057: real time    0.0058
    --------------------------------------------
      LOOP:  cpu time    1.2833: real time    1.3142

 eigenvalue-minimisations  :  3000
 total energy-change (2. order) : 0.1517188E-05  (-0.4657675E-06)
 number of electron      25.0000000 magnetization
 augmentation part        4.9926579 magnetization

 Broyden mixing:
  rms(total) = 0.97768E-03    rms(broyden)= 0.97768E-03
  rms(prec ) = 0.10327E-02
  weight for this iteration     100.00

 eigenvalues of (default mixing * dielectric matrix)
  average eigenvalue GAMMA=   1.4957
  2.5739  2.5739  1.9951  0.6797  1.2229  0.9389  0.9906  0.9906

 Free energy of the ion-electron system (eV)
  ---------------------------------------------------
  alpha Z        PSCENC =       104.01941450
  Ewald energy   TEWEN  =     -1554.09261706
  -Hartree energ DENC   =      -305.93572820
  -exchange      EXHF   =         0.00000000
  -V(xc)+E(xc)   XCENC  =       -19.79878782
  PAW double counting   =      2555.68506978    -2467.87543805
  entropy T*S    EENTRO =        -0.00029490
  eigenvalues    EBANDS =       -77.15464414
  atomic energy  EATOM  =      1741.10451121
  Solvation  Ediel_sol  =         0.00000000
  ---------------------------------------------------
  free energy    TOTEN  =       -24.04851468 eV

  energy without entropy =      -24.04821978  energy(sigma->0) =      -24.04836723


--------------------------------------------------------------------------------------------------------




--------------------------------------- Iteration      1(  14)  ---------------------------------------


    POTLOK:  cpu time    0.0418: real time    0.0619
    SETDIJ:  cpu time    0.0731: real time    0.0731
     EDDAV:  cpu time    0.9641: real time    0.9643
       DOS:  cpu time    0.0025: real time    0.0027
    --------------------------------------------
      LOOP:  cpu time    1.0814: real time    1.1030

 eigenvalue-minimisations  :  2880
 total energy-change (2. order) :-0.9806809E-07  (-0.1970488E-07)
 number of electron      25.0000000 magnetization
 augmentation part        4.9926579 magnetization

 Free energy of the ion-electron system (eV)
  ---------------------------------------------------
  alpha Z        PSCENC =       104.01941450
  Ewald energy   TEWEN  =     -1554.09261706
  -Hartree energ DENC   =      -305.94051027
  -exchange      EXHF   =         0.00000000
  -V(xc)+E(xc)   XCENC  =       -19.79849687
  PAW double counting   =      2555.96869060    -2468.15740896
  entropy T*S    EENTRO =        -0.00029497
  eigenvalues    EBANDS =       -77.15180296
  atomic energy  EATOM  =      1741.10451121
  Solvation  Ediel_sol  =         0.00000000
  ---------------------------------------------------
  free energy    TOTEN  =       -24.04851478 eV

  energy without entropy =      -24.04821981  energy(sigma->0) =      -24.04836729


--------------------------------------------------------------------------------------------------------




 average (electrostatic) potential at core
  the test charge radii are     1.1707  1.1712  1.2059
  (the norm of the test charge is              1.0000)
       1 -35.0830       2 -84.8568       3 -66.5772



 E-fermi :   8.7230     XC(G=0): -11.2538     alpha+bet :-13.3657


 k-point     1 :       0.0000    0.0000    0.0000
  band No.  band energies     occupation
      1     -23.5748      2.00000
      2     -23.5748      2.00000
      3     -23.5748      2.00000
      4      -3.9505      2.00000
      5       2.7594      2.00000
      6       2.7594      2.00000
      7       2.7594      2.00000
      8       3.5730      2.00000
      9       3.5730      2.00000
     10       7.1009      2.00000
     11       7.1009      2.00000
     12       7.1009      2.00000
     13       7.6172      2.00000
     14       9.5766      0.00000
     15       9.5766      0.00000
     16       9.5766      0.00000

 k-point     2 :       0.0769   -0.0000    0.0000
  band No.  band energies     occupation
      1     -23.5758      2.00000
      2     -23.5748      2.00000
      3     -23.5748      2.00000
      4      -3.8875      2.00000
      5       2.6796      2.00000
      6       2.7337      2.00000
      7       2.7337      2.00000
      8       3.6111      2.00000
      9       3.6111      2.00000
     10       6.5301      2.00000
     11       7.0349      2.00000
     12       7.0349      2.00000
     13       7.8941      2.00000
     14       9.4152      0.00000
     15       9.4152      0.00000
     16       9.9419      0.00000

 k-point     3 :       0.1538   -0.0000    0.0000
  band No.  band energies     occupation
      1     -23.5784      2.00000
      2     -23.5747      2.00000
      3     -23.5747      2.00000
      4      -3.7048      2.00000
      5       2.4583      2.00000
      6       2.6787      2.00000
      7       2.6787      2.00000
      8       3.6964      2.00000
      9       3.6964      2.00000
     10       5.6859      2.00000
     11       6.8696      2.00000
     12       6.8696      2.00000
     13       8.1391      2.00000
     14       9.3192      0.00000
     15       9.3192      0.00000
     16      10.7223      0.00000

 k-point     4 :       0.2308   -0.0000    0.0000
  band No.  band energies     occupation
      1     -23.5821      2.00000
      2     -23.5746      2.00000
      3     -23.5746      2.00000
      4      -3.4232      2.00000
      5       2.1339      2.00000
      6       2.6293      2.00000
      7       2.6293      2.00000
      8       3.7767      2.00000
      9       3.7767      2.00000
     10       4.9167      2.00000
     11       6.6763      2.00000
     12       6.6763      2.00000
     13       8.3300      2.00000
     14       9.3525      0.00000
     15       9.3525      0.00000
     16      11.3620      0.00000

 k-point     5 :       0.3077   -0.0000    0.0000
  band No.  band energies     occupation
      1     -23.5860      2.00000
      2     -23.5744      2.00000
      3     -23.5744      2.00000
      4      -3.0826      2.00000
      5       1.7506      2.00000
      6       2.6027      2.00000
      7       2.6027      2.00000
      8       3.8173      2.00000
      9       3.8173      2.00000
     10       4.3247      2.00000
     11       6.5172      2.00000
     12       6.5172      2.00000
     13       8.5022      2.00000
     14       9.4825      0.00000
     15       9.4825      0.00000
     16      10.9176      0.00000

 k-point     6 :       0.3846   -0.0000    0.0000
  band No.  band energies     occupation
      1     -23.5892      2.00000
      2     -23.5743      2.00000
      3     -23.5743      2.00000
      4      -2.7518      2.00000
      5       1.3788      2.00000
      6       2.5981      2.00000
      7       2.5981      2.00000
      8       3.8168      2.00000
      9       3.8168      2.00000
     10       3.9436      2.00000
     11       6.4188      2.00000
     12       6.4188      2.00000
     13       8.6736      2.00000
     14       9.6592      0.00000
     15       9.6592      0.00000
     16      10.1926      0.00000

 k-point     7 :       0.4615   -0.0000    0.0000
  band No.  band energies     occupation
      1     -23.5910      2.00000
      2     -23.5742      2.00000
      3     -23.5742      2.00000
      4      -2.5354      2.00000
      5       1.1357      2.00000
      6       2.6024      2.00000
      7       2.6024      2.00000
      8       3.7627      2.00000
      9       3.8023      2.00000
     10       3.8023      2.00000
     11       6.3760      2.00000
     12       6.3760      2.00000
     13       8.8331      0.00000
     14       9.7159      0.00000
     15       9.7976      0.00000
     16       9.7976      0.00000

 k-point     8 :       0.0769    0.0769    0.0000
  band No.  band energies     occupation
      1     -23.5758      2.00000
      2     -23.5749      2.00000
      3     -23.5749      2.00000
      4      -3.8668      2.00000
      5       2.5447      2.00000
      6       2.7895      2.00000
      7       2.7895      2.00000
      8       3.6053      2.00000
      9       3.6261      2.00000
     10       6.5613      2.00000
     11       6.9068      2.00000
     12       6.9068      2.00000
     13       7.9782      2.00000
     14       9.2738      0.00000
     15       9.7925      0.00000
     16       9.8544      0.00000

 k-point     9 :       0.1538    0.0769    0.0000
  band No.  band energies     occupation
      1     -23.5777      2.00000
      2     -23.5750      2.00000
      3     -23.5749      2.00000
      4      -3.7251      2.00000
      5       2.3343      2.00000
      6       2.7669      2.00000
      7       2.7940      2.00000
      8       3.6673      2.00000
      9       3.6802      2.00000
     10       5.9284      2.00000
     11       6.7167      2.00000
     12       6.7779      2.00000
     13       8.2279      2.00000
     14       9.1332      0.00000
     15       9.5734      0.00000
     16      10.3245      0.00000

 k-point    10 :       0.2308    0.0769   -0.0000
  band No.  band energies     occupation
      1     -23.5810      2.00000
      2     -23.5750      2.00000
      3     -23.5747      2.00000
      4      -3.4784      2.00000
      5       2.0848      2.00000
      6       2.6793      2.00000
      7       2.7672      2.00000
      8       3.7513      2.00000
      9       3.7533      2.00000
     10       5.1697      2.00000
     11       6.5328      2.00000
     12       6.6037      2.00000
     13       8.5007      2.00000
     14       9.1350      0.00000
     15       9.4649      0.00000
     16      10.8773      0.00000

 k-point    11 :       0.3077    0.0769   -0.0000
  band No.  band energies     occupation
      1     -23.5847      2.00000
      2     -23.5749      2.00000
      3     -23.5747      2.00000
      4      -3.1598      2.00000
      5       1.7900      2.00000
      6       2.5969      2.00000
      7       2.7348      2.00000
      8       3.8062      2.00000
      9       3.8088      2.00000
     10       4.5234      2.00000
     11       6.3995      2.00000
     12       6.4303      2.00000
     13       8.6217      2.00000
     14       9.3800      0.00000
     15       9.4825      0.00000
     16      10.9922      0.00000

 k-point    12 :       0.3846    0.0769   -0.0000
  band No.  band energies     occupation
      1     -23.5880      2.00000
      2     -23.5747      2.00000
      3     -23.5747      2.00000
      4      -2.8272      2.00000
      5       1.4741      2.00000
      6       2.5577      2.00000
      7       2.7030      2.00000
      8       3.8193      2.00000
      9       3.8210      2.00000
     10       4.0739      2.00000
     11       6.3008      2.00000
     12       6.3290      2.00000
     13       8.6997      1.99897
     14       9.6046      0.00000
     15       9.6853      0.00000
     16      10.3681      0.00000

 k-point    13 :       0.4615    0.0769   -0.0000
  band No.  band energies     occupation
      1     -23.5902      2.00000
      2     -23.5748      2.00000
      3     -23.5745      2.00000
      4      -2.5707      2.00000
      5       1.2213      2.00000
      6       2.5642      2.00000
      7       2.6646      2.00000
      8       3.7614      2.00000
      9       3.8165      2.00000
     10       3.8716      2.00000
     11       6.2236      2.00000
     12       6.3081      2.00000
     13       8.8226      0.00000
     14       9.6905      0.00000
     15       9.7614      0.00000
     16      10.0400      0.00000

 k-point    14 :      -0.4615    0.0769   -0.0000
  band No.  band energies     occupation
      1     -23.5908      2.00000
      2     -23.5750      2.00000
      3     -23.5743      2.00000
      4      -2.4954      2.00000
      5       1.1467      2.00000
      6       2.6030      2.00000
      7       2.6139      2.00000
      8       3.7126      2.00000
[...]
  212              fftbas_plan_mpi                       0.060579                     12   6
  213                dfftw_execute                         0.025676                   36   7
  214                map_backward                          0.004152                   12   7
  215                  map_gather                            0.000791                  6   8
  216                  m_alltoallv_z                         0.001993                  6   8
  217                  map_scatter                           0.001085                  6   8
  218                map_forward                           0.027694                   12   7
  219                  map_gather                            0.015610                  6   8
  220                  m_alltoallv_z                         0.005273                  6   8
  221                  map_scatter                           0.006484                  6   8
  222            M_sumb_d                              0.005513                        6   5
  223          M_sumb_d                              0.000031                          1   4
  224        setdij_                               1.225372                           20   3
  225          fft3d_mpi                             0.215827                         40   4
  226            fftbas_plan_mpi                       0.198543                       40   5
  227              dfftw_execute                         0.085708                    120   6
  228              map_backward                          0.012563                     40   6
  229                map_gather                            0.002799                   20   7
  230                m_alltoallv_z                         0.005115                   20   7
  231                map_scatter                           0.003669                   20   7
  232              map_forward                           0.090097                     40   6
  233                map_gather                            0.050935                   20   7
  234                m_alltoallv_z                         0.017101                   20   7
  235                map_scatter                           0.021073                   20   7
  236          M_sumb_d                              0.014405                         20   4
  237        set_dd_magatom                        0.000004                            1   3
  238        set_dd_paw                            0.012921                            1   3
  239          set_rsgf_all                          0.000004                          1   4
  240          M_sumb_d                              0.012757                          8   4
  241        strkin                                0.001527                            1   3
  242          M_sumb_d                              0.001138                          1   4
  243        strelo                                0.002690                            1   3
  244          M_sumb_d                              0.000627                          2   4
  245        strenl                                0.708802                            1   3
  246          spher                                 0.559969                         19   4
  247          phase                                 0.011502                        189   4
  248          proj1                                 0.113010                        756   4
  249            crexp_mul_wave                        0.017675                     2268   5
  250            M_sumb_d                              0.029655                      756   5
  251          M_sumb_d                              0.012225                          1   4
  252        M_sumb_d                              0.000292                            6   3
  253        fft3d_mpi                             0.015270                           11   3
  254          fftbas_plan_mpi                       0.014251                         11   4
  255            dfftw_execute                         0.005019                       33   5
  256            map_forward                           0.002819                       10   5
  257              map_gather                            0.000620                      5   6
  258              m_alltoallv_z                         0.001306                      5   6
  259              map_scatter                           0.000651                      5   6
  260            map_backward                          0.003725                       12   5
  261              map_gather                            0.000786                      6   6
  262              m_alltoallv_z                         0.001537                      6   6
  263              map_scatter                           0.001106                      6   6
  264        ggaall_grid                           0.001491                            1   3
  265        forhar                                0.006237                            2   3
  266          M_sumb_d                              0.000338                          2   4
  267        strehar                               0.002673                            1   3
  268          M_sumb_d                              0.000152                          1   4
  269        chggra                                0.005741                            1   3
  270          fft3d_mpi                             0.004098                          3   4
  271            fftbas_plan_mpi                       0.003824                        3   5
  272              dfftw_execute                         0.001329                      9   6
  273              map_backward                          0.000606                      2   6
  274                map_gather                            0.000115                    1   7
  275                m_alltoallv_z                         0.000250                    1   7
  276                map_scatter                           0.000187                    1   7
  277              map_forward                           0.001102                      4   6
  278                map_gather                            0.000251                    2   7
  279                m_alltoallv_z                         0.000505                    2   7
  280                map_scatter                           0.000252                    2   7
  281          M_sumb_d                              0.000134                          3   4
  282        brmix                                 0.013596                            1   3
  283          M_sumb_d                              0.000267                          6   4
  284          brpre                                 0.000041                          1   4
  285          setg0                                 0.001163                          1   4
  286          broyd                                 0.001740                          1   4
  287            M_sumb_d                              0.000509                       16   5
  288            brget                                 0.000248                       54   5
  289            brsav                                 0.000063                       14   5
  290          M_bcast_z                             0.009427                          1   4
  291          M_bcast_d                             0.000051                          1   4
  292        M_bcast_d                             0.000424                            2   3
  293      potlok                                0.026859                              1   2
  294        fft3d_mpi                             0.017776                           13   3
  295          fftbas_plan_mpi                       0.016608                         13   4
  296            dfftw_execute                         0.005617                       39   5
  297            map_forward                           0.003700                       14   5
  298              map_gather                            0.000811                      8   6
  299              m_alltoallv_z                         0.001640                      8   6
  300              map_scatter                           0.000906                      8   6
  301            map_backward                          0.004318                       12   5
  302              map_gather                            0.000832                      6   6
  303              m_alltoallv_z                         0.001728                      6   6
  304              map_scatter                           0.001445                      6   6
  305        ggaall_grid                           0.001571                            1   3
  306        M_sumb_d                              0.000388                            6   3
  307        M_bcast_d                             0.000156                            1   3
  308      potlok_metagga                        0.000004                              1   2
  309      set_dd_magatom                        0.000004                              1   2
  310      set_dd_paw                            0.000371                              1   2
  311        set_rsgf_all                          0.000003                            1   3
  312        M_sumb_d                              0.000220                            8   3
  313      densta                                0.002035                              1   2
  314        M_sumb_d                              0.000789                           41   3
  315      lprj_proall                           0.000007                              1   2

 Flat profile
 ============

             routine name                   CPU           calls
 ---------------------------------------------------------------
 total_time                             12.671728           1
 eddav                                   2.939780          14
 dfftw_execute                           2.772413       27546
 setdij_                                 2.001900          38
 fftbas_plan_mpi                         1.848562        9184
 M_sumb_d                                1.438500       26099
 elmin                                   1.204753           1
 m_alltoallv_z                           1.029813        9203
 set_charge                              0.987397          10
 spher                                   0.641748          20
 M_alltoall_d                            0.610141       30170
 pdssyex_zheevx                          0.593863         294
 orth1                                   0.442051        6144
 vhamil                                  0.412807        4082
 map_gather                              0.390219        9203
 proj1                                   0.387405        3746
 fftwav_mpi                              0.352568        4846
 map_forward                             0.346831        9938
 map_scatter                             0.340672        9203
 gemm                                    0.330716       12246
 vnlac0                                  0.266914        4082
 crpa_reader                             0.260317           1
 redis_pw                                0.251044       11700
 hamiltmu                                0.221336        2041
 redis_proj                              0.220984       14627
 M_bcast_z                               0.212667        3748
 fft3d_mpi                               0.168907        9182
 w1_copy                                 0.163081       12246
 map_backward                            0.149156        8426
 work_mul_crexp                          0.128591       12246
 fftext_mpi                              0.126913        4082
 eccp                                    0.103559        1176
 crexp_mul_wave                          0.099782       11238
 kinhamil                                0.079595        4082
 overl                                   0.076923        7009
 potlok                                  0.074824          11
 force_and_stress                        0.071072           1
 M_bcast_d                               0.067693        2069
 overl1                                  0.049488        4082
 lincom                                  0.047936         315
 pw_charge                               0.047315         764
 apply_precond                           0.039239        2906
 setup_precond                           0.039135        1176
 phase                                   0.032149         526
 w1_projall                              0.031362        1453
 soft_charge                             0.020369          10
 fornl                                   0.020288           1
 ggaall_grid                             0.018651          12
 truncate_high_frequency_w1              0.018088        5258
 densta                                  0.017466          15
 setg0                                   0.012236          11
 strenl                                  0.012096           1
 brmix                                   0.009598          10
 forhar                                  0.005899           2
 broyd                                   0.005737          10
 brgrid                                  0.003193           1
 forloc                                  0.003017           1
 strehar                                 0.002521           1
 depsum                                  0.002375          10
 strelo                                  0.002063           1
 set_dd_paw                              0.002056          12
 orthch                                  0.001853           1
 chggra                                  0.001509           1
 brget                                   0.001365         309
 proj                                    0.001111          21
 choleski                                0.000769          21
 brpre                                   0.000605          10
 brsav                                   0.000499          96
 strkin                                  0.000389           1
 fordep                                  0.000109           1
 set_rsgf_all                            0.000057          12
 vectorpot                               0.000054          11
 potlok_metagga                          0.000047          11
 set_dd_magatom                          0.000047          12
 set_kineden                             0.000036           9
 rotate_active_occupied_orbital          0.000015           1
 lprj_proall                             0.000007           1
 redis_pw_over_bands                     0.000003           1
 ---------------------------------------------------------------
  summed up times    34.9379739761353

 Accumulative profile
 ====================

             routine name                   CPU           calls
 ---------------------------------------------------------------
 total_time                             34.937974           1
 elmin                                  18.837002           1
 eddav                                  14.900690          14
 fft3d_mpi                               7.011116        9182
 fftbas_plan_mpi                         6.877666        9184
 hamiltmu                                4.604879        2041
 fftwav_mpi                              3.803444        4846
 kinhamil                                2.944921        4082
 fftext_mpi                              2.865327        4082
 dfftw_execute                           2.772413       27546
 force_and_stress                        2.633794           1
 setdij_                                 2.466314          38
 set_charge                              1.804463          10
 M_sumb_d                                1.438500       26099
 map_forward                             1.340383        9938
 m_alltoallv_z                           1.029813        9203
 vnlac0                                  0.976326        4082
 map_backward                            0.916308        8426
 strenl                                  0.708802           1
 proj1                                   0.683696        3746
 soft_charge                             0.674011          10
 spher                                   0.641748          20
 M_alltoall_d                            0.610141       30170
 pdssyex_zheevx                          0.593863         294
 redis_pw                                0.591613       11700
 w1_projall                              0.588892        1453
 redis_proj                              0.490556       14627
 orth1                                   0.442051        6144
 vhamil                                  0.412807        4082
 map_gather                              0.390219        9203
 fordep                                  0.371027           1
 map_scatter                             0.340672        9203
 gemm                                    0.330716       12246
 potlok                                  0.292681          11
 crpa_reader                             0.260317           1
 M_bcast_z                               0.212667        3748
 eccp                                    0.172130        1176
 w1_copy                                 0.163081       12246
 work_mul_crexp                          0.128591       12246
 crexp_mul_wave                          0.099782       11238
 set_dd_paw                              0.095047          12
 overl                                   0.076923        7009
 M_bcast_d                               0.067693        2069
 setup_precond                           0.066710        1176
 brmix                                   0.055617          10
 overl1                                  0.049488        4082
 lincom                                  0.047936         315
 pw_charge                               0.047315         764
 apply_precond                           0.039239        2906
 phase                                   0.032149         526
 fornl                                   0.028766           1
 densta                                  0.028252          15
 orthch                                  0.024689           1
 ggaall_grid                             0.018651          12
 truncate_high_frequency_w1              0.018088        5258
 proj                                    0.014266          21
 setg0                                   0.012236          11
 broyd                                   0.011363          10
 forhar                                  0.006237           2
 depsum                                  0.005949          10
 chggra                                  0.005741           1
 brgrid                                  0.003193           1
 forloc                                  0.003072           1
 strelo                                  0.002690           1
 strehar                                 0.002673           1
 strkin                                  0.001527           1
 brget                                   0.001365         309
 choleski                                0.000769          21
 brpre                                   0.000605          10
 brsav                                   0.000499          96
 set_rsgf_all                            0.000057          12
 vectorpot                               0.000054          11
 potlok_metagga                          0.000047          11
 set_dd_magatom                          0.000047          12
 set_kineden                             0.000036           9
 rotate_active_occupied_orbital          0.000015           1
 lprj_proall                             0.000007           1
 redis_pw_over_bands                     0.000003           1
 ---------------------------------------------------------------

Profiling took   0.718321  0.877967  0.005911  0.004507 seconds
Profiling took   0.697253 seconds
