<?xml version="1.0" encoding="ISO-8859-1"?>
<modeling>
 <generator>
  <i name="program" type="string">vasp </i>
  <i name="version" type="string">6.0.8  </i>
  <i name="subversion" type="string">29Jun18 (build Jun 13 2019 12:54:44) complex                          parallel </i>
  <i name="platform" type="string">IFC18_CrayMPICH </i>
  <i name="date" type="string">2021 12 05 </i>
  <i name="time" type="string">14:21:53 </i>
 </generator>
 <incar>
  <i type="int" name="KPAR">     4</i>
  <i type="int" name="NPAR">     4</i>
  <i type="int" name="ISTART">     0</i>
  <i type="string" name="PREC"> ACC</i>
  <i type="string" name="ALGO"> Normal</i>
  <i type="logical" name="ADDGRID"> T  </i>
  <i type="int" name="ISPIN">     1</i>
  <i type="int" name="NELMIN">     5</i>
  <i type="int" name="IBRION">    -1</i>
  <i name="EDIFF">      0.00000010</i>
  <i type="int" name="NSW">     0</i>
  <i type="int" name="ISIF">     3</i>
  <i name="ENCUT">    700.00000000</i>
  <i type="logical" name="LREAL"> F  </i>
  <i type="int" name="ISMEAR">     0</i>
  <i name="SIGMA">      0.01000000</i>
  <i type="logical" name="LWAVE"> F  </i>
  <i type="logical" name="LCHARG"> F  </i>
  <i type="logical" name="LVTOT"> F  </i>
  <i type="string" name="ALGO"> Normal</i>
  <i type="string" name="GGA"> PS</i>
  <i name="EDIFF">      0.00000010</i>
  <i type="int" name="ISPIN">     1</i>
 </incar>
 <structure name="primitive_cell" >
  <crystal>
   <varray name="basis" >
    <v>       0.00000000       3.19933285       3.19933285 </v>
    <v>       3.19933285       0.00000000       3.19933285 </v>
    <v>       3.19933285       3.19933285       0.00000000 </v>
   </varray>
   <i name="volume">     65.49501896 </i>
   <varray name="rec_basis" >
    <v>      -0.15628258       0.15628258       0.15628258 </v>
    <v>       0.15628258      -0.15628258       0.15628258 </v>
    <v>       0.15628258       0.15628258      -0.15628258 </v>
   </varray>
  </crystal>
  <varray name="positions" >
   <v>       0.75000000       0.75000000       0.75000000 </v>
   <v>       0.25000000       0.25000000       0.25000000 </v>
   <v>       0.00000000       0.00000000       0.00000000 </v>
  </varray>
 </structure>
 <varray name="primitive_index" >
  <v type="int" >        1 </v>
  <v type="int" >        2 </v>
  <v type="int" >        3 </v>
 </varray>
 <kpoints>
  <generation param="Gamma">
   <v type="int" name="divisions">      13       13       13 </v>
   <v name="usershift">      0.00000000       0.00000000       0.00000000 </v>
   <v name="genvec1">      0.07692308      -0.00000000       0.00000000 </v>
   <v name="genvec2">     -0.00000000       0.07692308      -0.00000000 </v>
   <v name="genvec3">      0.00000000       0.00000000       0.07692308 </v>
   <v name="shift">      0.00000000       0.00000000       0.00000000 </v>
  </generation>
  <varray name="kpointlist" >
   <v>       0.00000000       0.00000000       0.00000000 </v>
   <v>       0.07692308      -0.00000000       0.00000000 </v>
   <v>       0.15384615      -0.00000000       0.00000000 </v>
   <v>       0.23076923      -0.00000000       0.00000000 </v>
   <v>       0.30769231      -0.00000000       0.00000000 </v>
   <v>       0.38461538      -0.00000000       0.00000000 </v>
   <v>       0.46153846      -0.00000000       0.00000000 </v>
   <v>       0.07692308       0.07692308       0.00000000 </v>
   <v>       0.15384615       0.07692308       0.00000000 </v>
   <v>       0.23076923       0.07692308      -0.00000000 </v>
   <v>       0.30769231       0.07692308      -0.00000000 </v>
   <v>       0.38461538       0.07692308      -0.00000000 </v>
   <v>       0.46153846       0.07692308      -0.00000000 </v>
   <v>      -0.46153846       0.07692308      -0.00000000 </v>
   <v>      -0.38461538       0.07692308       0.00000000 </v>
   <v>      -0.30769231       0.07692308      -0.00000000 </v>
   <v>      -0.23076923       0.07692308      -0.00000000 </v>
   <v>      -0.15384615       0.07692308       0.00000000 </v>
   <v>      -0.07692308       0.07692308      -0.00000000 </v>
   <v>       0.15384615       0.15384615       0.00000000 </v>
   <v>       0.23076923       0.15384615       0.00000000 </v>
   <v>       0.30769231       0.15384615       0.00000000 </v>
   <v>       0.38461538       0.15384615      -0.00000000 </v>
   <v>       0.46153846       0.15384615      -0.00000000 </v>
   <v>      -0.46153846       0.15384615      -0.00000000 </v>
   <v>      -0.38461538       0.15384615       0.00000000 </v>
   <v>      -0.30769231       0.15384615       0.00000000 </v>
   <v>      -0.23076923       0.15384615      -0.00000000 </v>
   <v>      -0.15384615       0.15384615      -0.00000000 </v>
   <v>       0.23076923       0.23076923       0.00000000 </v>
   <v>       0.30769231       0.23076923       0.00000000 </v>
   <v>       0.38461538       0.23076923       0.00000000 </v>
   <v>       0.46153846       0.23076923      -0.00000000 </v>
   <v>      -0.46153846       0.23076923      -0.00000000 </v>
   <v>      -0.38461538       0.23076923       0.00000000 </v>
   <v>      -0.30769231       0.23076923      -0.00000000 </v>
   <v>      -0.23076923       0.23076923      -0.00000000 </v>
   <v>       0.30769231       0.30769231       0.00000000 </v>
   <v>       0.38461538       0.30769231       0.00000000 </v>
   <v>       0.46153846       0.30769231       0.00000000 </v>
   <v>      -0.46153846       0.30769231      -0.00000000 </v>
   <v>      -0.38461538       0.30769231       0.00000000 </v>
   <v>      -0.30769231       0.30769231      -0.00000000 </v>
   <v>       0.38461538       0.38461538       0.00000000 </v>
   <v>       0.46153846       0.38461538       0.00000000 </v>
   <v>      -0.46153846       0.38461538       0.00000000 </v>
   <v>      -0.38461538       0.38461538      -0.00000000 </v>
   <v>       0.46153846       0.46153846       0.00000000 </v>
   <v>      -0.46153846       0.46153846      -0.00000000 </v>
   <v>       0.23076923       0.15384615       0.07692308 </v>
   <v>       0.30769231       0.15384615       0.07692308 </v>
   <v>       0.38461538       0.15384615       0.07692308 </v>
   <v>       0.46153846       0.15384615       0.07692308 </v>
   <v>      -0.46153846       0.15384615       0.07692308 </v>
   <v>       0.30769231       0.23076923       0.07692308 </v>
   <v>       0.38461538       0.23076923       0.07692308 </v>
   <v>       0.46153846       0.23076923       0.07692308 </v>
   <v>      -0.46153846       0.23076923       0.07692308 </v>
   <v>      -0.38461538       0.23076923       0.07692308 </v>
   <v>      -0.30769231       0.23076923       0.07692308 </v>
   <v>      -0.23076923       0.23076923       0.07692308 </v>
   <v>      -0.15384615       0.23076923       0.07692308 </v>
   <v>       0.38461538       0.30769231       0.07692308 </v>
   <v>       0.46153846       0.30769231       0.07692308 </v>
   <v>      -0.46153846       0.30769231       0.07692308 </v>
   <v>      -0.38461538       0.30769231       0.07692308 </v>
   <v>      -0.30769231       0.30769231       0.07692308 </v>
   <v>      -0.23076923       0.30769231       0.07692308 </v>
   <v>       0.46153846       0.38461538       0.07692308 </v>
   <v>      -0.46153846       0.38461538       0.07692308 </v>
   <v>      -0.38461538       0.38461538       0.07692308 </v>
   <v>      -0.30769231       0.38461538       0.07692308 </v>
   <v>      -0.46153846       0.46153846       0.07692308 </v>
   <v>      -0.38461538       0.46153846       0.07692308 </v>
   <v>       0.46153846       0.30769231       0.15384615 </v>
   <v>      -0.46153846       0.30769231       0.15384615 </v>
   <v>      -0.38461538       0.30769231       0.15384615 </v>
   <v>      -0.46153846       0.38461538       0.15384615 </v>
   <v>      -0.38461538       0.38461538       0.15384615 </v>
   <v>      -0.30769231       0.38461538       0.15384615 </v>
   <v>      -0.23076923       0.38461538       0.15384615 </v>
   <v>      -0.38461538       0.46153846       0.15384615 </v>
   <v>      -0.30769231       0.46153846       0.15384615 </v>
   <v>      -0.30769231       0.46153846       0.23076923 </v>
  </varray>
  <varray name="weights" >
   <v>       0.00045517 </v>
   <v>       0.00364133 </v>
   <v>       0.00364133 </v>
   <v>       0.00364133 </v>
   <v>       0.00364133 </v>
   <v>       0.00364133 </v>
   <v>       0.00364133 </v>
   <v>       0.00273100 </v>
   <v>       0.01092399 </v>
   <v>       0.01092399 </v>
   <v>       0.01092399 </v>
   <v>       0.01092399 </v>
   <v>       0.01092399 </v>
   <v>       0.01092399 </v>
   <v>       0.01092399 </v>
   <v>       0.01092399 </v>
   <v>       0.01092399 </v>
   <v>       0.01092399 </v>
   <v>       0.00546199 </v>
   <v>       0.00273100 </v>
   <v>       0.01092399 </v>
   <v>       0.01092399 </v>
   <v>       0.01092399 </v>
   <v>       0.01092399 </v>
   <v>       0.01092399 </v>
   <v>       0.01092399 </v>
   <v>       0.01092399 </v>
   <v>       0.01092399 </v>
   <v>       0.00546199 </v>
   <v>       0.00273100 </v>
   <v>       0.01092399 </v>
   <v>       0.01092399 </v>
   <v>       0.01092399 </v>
   <v>       0.01092399 </v>
   <v>       0.01092399 </v>
   <v>       0.01092399 </v>
   <v>       0.00546199 </v>
   <v>       0.00273100 </v>
   <v>       0.01092399 </v>
   <v>       0.01092399 </v>
   <v>       0.01092399 </v>
   <v>       0.01092399 </v>
   <v>       0.00546199 </v>
   <v>       0.00273100 </v>
   <v>       0.01092399 </v>
   <v>       0.01092399 </v>
   <v>       0.00546199 </v>
   <v>       0.00273100 </v>
   <v>       0.00546199 </v>
   <v>       0.01092399 </v>
   <v>       0.02184797 </v>
   <v>       0.02184797 </v>
   <v>       0.02184797 </v>
   <v>       0.02184797 </v>
   <v>       0.01092399 </v>
   <v>       0.02184797 </v>
   <v>       0.02184797 </v>
   <v>       0.02184797 </v>
   <v>       0.02184797 </v>
   <v>       0.02184797 </v>
   <v>       0.02184797 </v>
   <v>       0.01092399 </v>
   <v>       0.01092399 </v>
   <v>       0.02184797 </v>
   <v>       0.02184797 </v>
   <v>       0.02184797 </v>
   <v>       0.02184797 </v>
   <v>       0.01092399 </v>
   <v>       0.01092399 </v>
   <v>       0.02184797 </v>
   <v>       0.02184797 </v>
   <v>       0.01092399 </v>
   <v>       0.01092399 </v>
   <v>       0.01092399 </v>
   <v>       0.01092399 </v>
   <v>       0.02184797 </v>
   <v>       0.02184797 </v>
   <v>       0.01092399 </v>
   <v>       0.02184797 </v>
   <v>       0.02184797 </v>
   <v>       0.01092399 </v>
   <v>       0.01092399 </v>
   <v>       0.01092399 </v>
   <v>       0.01092399 </v>
  </varray>
 </kpoints>
 <parameters>
  <separator name="general" >
   <i type="string" name="SYSTEM">unknown system</i>
   <i type="logical" name="LCOMPAT"> F  </i>
  </separator>
  <separator name="electronic" >
   <i type="string" name="PREC">acc</i>
   <i name="ENMAX">    700.00000000</i>
   <i name="ENAUG">    380.87800000</i>
   <i name="EDIFF">      0.00000010</i>
   <i type="int" name="IALGO">    38</i>
   <i type="int" name="IWAVPR">    10</i>
   <i type="int" name="NBANDS">    16</i>
   <i type="int" name="NBANDSLOW">    -1</i>
   <i type="int" name="NBANDSHIGH">    -1</i>
   <i name="NELECT">     25.00000000</i>
   <i type="int" name="TURBO">     0</i>
   <i type="int" name="IRESTART">     0</i>
   <i type="int" name="NREBOOT">     0</i>
   <i type="int" name="NMIN">     0</i>
   <i name="EREF">      0.00000000</i>
   <separator name="electronic smearing" >
    <i type="int" name="ISMEAR">     0</i>
    <i name="SIGMA">      0.01000000</i>
    <i name="KSPACING">      0.50000000</i>
    <i type="logical" name="KGAMMA"> T  </i>
    <i type="logical" name="KBLOWUP"> T  </i>
   </separator>
   <separator name="electronic projectors" >
    <i type="logical" name="LREAL"> F  </i>
    <v name="ROPT">      0.00000000      0.00000000      0.00000000</v>
    <i type="int" name="LMAXPAW">  -100</i>
    <i type="int" name="LMAXMIX">     2</i>
    <i type="logical" name="NLSPLINE"> F  </i>
   </separator>
   <separator name="electronic startup" >
    <i type="int" name="ISTART">     0</i>
    <i type="int" name="ICHARG">     2</i>
    <i type="int" name="INIWAV">     1</i>
   </separator>
   <separator name="electronic spin" >
    <i type="int" name="ISPIN">     1</i>
    <i type="logical" name="LNONCOLLINEAR"> F  </i>
    <v name="MAGMOM">      1.00000000      1.00000000      1.00000000</v>
    <i name="NUPDOWN">     -1.00000000</i>
    <i type="logical" name="LSORBIT"> F  </i>
    <v name="SAXIS">      0.00000000      0.00000000      1.00000000</v>
    <i type="logical" name="LSPIRAL"> F  </i>
    <v name="QSPIRAL">      0.00000000      0.00000000      0.00000000</v>
    <i type="logical" name="LZEROZ"> F  </i>
   </separator>
   <separator name="electronic exchange-correlation" >
    <i type="logical" name="LASPH"> F  </i>
    <i type="logical" name="LMETAGGA"> F  </i>
   </separator>
   <separator name="electronic convergence" >
    <i type="int" name="NELM">    60</i>
    <i type="int" name="NELMDL">    -5</i>
    <i type="int" name="NELMIN">     5</i>
    <i name="ENINI">    700.00000000</i>
    <separator name="electronic convergence detail" >
     <i type="logical" name="LDIAG"> T  </i>
     <i type="logical" name="LSUBROT"> F  </i>
     <i name="WEIMIN">      0.00000000</i>
     <i name="EBREAK">      0.00000000</i>
     <i name="DEPER">      0.30000000</i>
     <i type="int" name="NRMM">     4</i>
     <i name="TIME">      0.40000000</i>
    </separator>
   </separator>
   <separator name="electronic mixer" >
    <i name="AMIX">      0.40000000</i>
    <i name="BMIX">      1.00000000</i>
    <i name="AMIN">      0.10000000</i>
    <i name="AMIX_MAG">      1.60000000</i>
    <i name="BMIX_MAG">      1.00000000</i>
    <separator name="electronic mixer details" >
     <i type="int" name="IMIX">     4</i>
     <i type="logical" name="MIXFIRST"> F  </i>
     <i type="int" name="MAXMIX">   -45</i>
     <i name="WC">    100.00000000</i>
     <i type="int" name="INIMIX">     1</i>
     <i type="int" name="MIXPRE">     1</i>
     <i type="int" name="MREMOVE">     5</i>
    </separator>
   </separator>
   <separator name="electronic dipolcorrection" >
    <i type="logical" name="LDIPOL"> F  </i>
    <i type="logical" name="LMONO"> F  </i>
    <i type="int" name="IDIPOL">     0</i>
    <i name="EPSILON">      1.00000000</i>
    <v name="DIPOL">   -100.00000000   -100.00000000   -100.00000000</v>
    <i name="EFIELD">      0.00000000</i>
   </separator>
  </separator>
  <separator name="grids" >
   <i type="int" name="NGX">    40</i>
   <i type="int" name="NGY">    40</i>
   <i type="int" name="NGZ">    40</i>
   <i type="int" name="NGXF">    80</i>
   <i type="int" name="NGYF">    80</i>
   <i type="int" name="NGZF">    80</i>
   <i type="logical" name="ADDGRID"> T  </i>
  </separator>
  <separator name="ionic" >
   <i type="int" name="NSW">     0</i>
   <i type="int" name="IBRION">    -1</i>
   <i type="int" name="MDALGO">     0</i>
   <i type="int" name="ISIF">     3</i>
   <i name="PSTRESS">      0.00000000</i>
   <i name="EDIFFG">      0.00000100</i>
   <i type="int" name="NFREE">     0</i>
   <i name="POTIM">      0.50000000</i>
   <i name="SMASS">     -3.00000000</i>
   <i name="SCALEE">      1.00000000</i>
  </separator>
  <separator name="ionic md" >
   <i name="TEBEG">      0.00010000</i>
   <i name="TEEND">      0.00010000</i>
   <i type="int" name="NBLOCK">     1</i>
   <i type="int" name="KBLOCK">     1</i>
   <i type="int" name="NPACO">   256</i>
   <i name="APACO">     16.00000000</i>
  </separator>
  <separator name="symmetry" >
   <i type="int" name="ISYM">     2</i>
   <i name="SYMPREC">      0.00001000</i>
  </separator>
  <separator name="dos" >
   <i type="int" name="LORBIT">     0</i>
   <v name="RWIGS">     -1.00000000     -1.00000000     -1.00000000</v>
   <i type="int" name="NEDOS">   301</i>
   <i name="EMIN">     10.00000000</i>
   <i name="EMAX">    -10.00000000</i>
   <i name="EFERMI">      0.00000000</i>
  </separator>
  <separator name="writing" >
   <i type="int" name="NWRITE">     2</i>
   <i type="logical" name="LWAVE"> F  </i>
   <i type="logical" name="LDOWNSAMPLE"> F  </i>
   <i type="logical" name="LCHARG"> F  </i>
   <i type="logical" name="LPARD"> F  </i>
   <i type="logical" name="LVTOT"> F  </i>
   <i type="logical" name="LVHAR"> F  </i>
   <i type="logical" name="LELF"> F  </i>
   <i type="logical" name="LOPTICS"> F  </i>
   <v name="STM">      0.00000000      0.00000000      0.00000000      0.00000000      0.00000000      0.00000000      0.00000000</v>
  </separator>
  <separator name="performance" >
   <i type="int" name="NPAR">     4</i>
   <i type="int" name="NSIM">     4</i>
   <i type="int" name="NBLK">    -1</i>
   <i type="logical" name="LPLANE"> T  </i>
   <i type="logical" name="LSCALAPACK"> T  </i>
   <i type="logical" name="LSCAAWARE"> F  </i>
   <i type="logical" name="LSCALU"> F  </i>
   <i type="logical" name="LASYNC"> F  </i>
   <i type="logical" name="LORBITALREAL"> F  </i>
  </separator>
  <separator name="miscellaneous" >
   <i type="int" name="IDIOT">     3</i>
   <i type="int" name="PHON_NSTRUCT">    -1</i>
   <i type="logical" name="LMUSIC"> F  </i>
   <v name="POMASS">    178.49000000    121.75000000    195.08000000</v>
   <v name="DARWINR">      0.00000000      0.00000000      0.00000000</v>
   <v name="DARWINV">      1.00000000      1.00000000      1.00000000</v>
   <i type="logical" name="LCORR"> T  </i>
  </separator>
  <i type="logical" name="GGA_COMPAT"> T  </i>
  <i type="logical" name="LBERRY"> F  </i>
  <i type="int" name="ICORELEVEL">     0</i>
  <i type="logical" name="LDAU"> F  </i>
  <i type="int" name="I_CONSTRAINED_M">     0</i>
  <separator name="electronic exchange-correlation" >
   <i type="string" name="GGA">PS</i>
   <i type="int" name="VOSKOWN">     0</i>
   <i type="logical" name="LHFCALC"> F  </i>
   <i type="string" name="PRECFOCK"></i>
   <i type="logical" name="LSYMGRAD"> F  </i>
   <i type="logical" name="LHFONE"> F  </i>
   <i type="logical" name="LRHFCALC"> F  </i>
   <i type="logical" name="LTHOMAS"> F  </i>
   <i type="logical" name="LMODELHF"> F  </i>
   <i type="logical" name="LFOCKACE"> F  </i>
   <i name="ENCUT4O">     -1.00000000</i>
   <i type="int" name="EXXOEP">     0</i>
   <i type="int" name="FOURORBIT">     0</i>
   <i name="AEXX">      0.00000000</i>
   <i name="HFALPHA">      0.00000000</i>
   <i name="MCALPHA">      0.00000000</i>
   <i name="ALDAX">      1.00000000</i>
   <i name="AGGAX">      1.00000000</i>
   <i name="ALDAC">      1.00000000</i>
   <i name="AGGAC">      1.00000000</i>
   <i type="int" name="NKREDX">     1</i>
   <i type="int" name="NKREDY">     1</i>
   <i type="int" name="NKREDZ">     1</i>
   <i type="logical" name="SHIFTRED"> F  </i>
   <i type="logical" name="ODDONLY"> F  </i>
   <i type="logical" name="EVENONLY"> F  </i>
   <i type="int" name="LMAXFOCK">     0</i>
   <i type="int" name="NMAXFOCKAE">     0</i>
   <i type="logical" name="LFOCKAEDFT"> F  </i>
   <i name="HFSCREEN">      0.00000000</i>
   <i name="HFSCREENC">      0.00000000</i>
   <i type="int" name="NBANDSGWLOW">     0</i>
  </separator>
  <separator name="vdW DFT" >
   <i type="logical" name="LUSE_VDW"> F  </i>
   <i name="Zab_VDW">     -0.84910000</i>
   <i name="PARAM1">      0.12340000</i>
   <i name="PARAM2">      1.00000000</i>
   <i name="PARAM3">      0.00000000</i>
  </separator>
  <separator name="model GW" >
   <i type="int" name="MODEL_GW">     0</i>
   <i name="MODEL_EPS0">     13.09900379</i>
   <i name="MODEL_ALPHA">      1.00000000</i>
  </separator>
  <separator name="linear response parameters" >
   <i type="logical" name="LEPSILON"> F  </i>
   <i type="logical" name="LRPA"> F  </i>
   <i type="logical" name="LNABLA"> F  </i>
   <i type="logical" name="LVEL"> F  </i>
   <i type="int" name="KINTER">     0</i>
   <i name="CSHIFT">      0.10000000</i>
   <i name="OMEGAMAX">     -1.00000000</i>
   <i name="DEG_THRESHOLD">      0.00200000</i>
   <i name="RTIME">     -0.10000000</i>
   <i name="WPLASMAI">      0.00000000</i>
   <v name="DFIELD">      0.00000000      0.00000000      0.00000000</v>
   <v name="WPLASMA">      0.00000000      0.00000000      0.00000000      0.00000000      0.00000000      0.00000000      0.00000000      0.00000000      0.00000000</v>
  </separator>
  <separator name="orbital magnetization" >
   <i type="logical" name="NUCIND"> F  </i>
   <v name="MAGPOS">      0.00000000      0.00000000      0.00000000</v>
   <i type="logical" name="LNICSALL"> T  </i>
   <i type="logical" name="ORBITALMAG"> F  </i>
   <i type="logical" name="LMAGBLOCH"> F  </i>
   <i type="logical" name="LCHIMAG"> F  </i>
   <i type="logical" name="LGAUGE"> T  </i>
   <i type="int" name="MAGATOM">     0</i>
   <v name="MAGDIPOL">      0.00000000      0.00000000      0.00000000</v>
   <v name="AVECCONST">      0.00000000      0.00000000      0.00000000</v>
  </separator>
  <separator name="response functions" >
   <i type="logical" name="LFINITE_TEMPERATURE"> F  </i>
   <i type="logical" name="LADDER"> F  </i>
   <i type="logical" name="LRPAFORCE"> F  </i>
   <i type="logical" name="LFXC"> F  </i>
   <i type="logical" name="LHARTREE"> T  </i>
   <i type="int" name="IBSE">     0</i>
   <v type="int" name="KPOINT">    -1     0     0     0</v>
   <i type="logical" name="LTCTC"> F  </i>
   <i type="logical" name="LTCTE"> F  </i>
   <i type="logical" name="LTETE"> F  </i>
   <i type="logical" name="LTRIPLET"> F  </i>
   <i type="logical" name="LFXCEPS"> F  </i>
   <i type="logical" name="LFXHEG"> F  </i>
   <i type="int" name="NATURALO">     2</i>
   <i type="logical" name="L2ORDER"> F  </i>
   <i type="logical" name="LDMP1"> F  </i>
   <i type="logical" name="LMP2LT"> F  </i>
   <i type="logical" name="LSMP2LT"> F  </i>
   <i type="logical" name="LUSEW"> F  </i>
   <i name="ENCUTGW">     -2.00000000</i>
   <i name="ENCUTGWSOFT">     -2.00000000</i>
   <i name="ENCUTLF">     -1.00000000</i>
   <i type="int" name="LMAXMP2">    -1</i>
   <i name="SCISSOR">      0.00000000</i>
   <i type="int" name="NOMEGA">     0</i>
   <i type="int" name="NOMEGAR">     0</i>
   <i type="int" name="NBANDSGW">    -1</i>
   <i type="int" name="NBANDSO">    -1</i>
   <i type="int" name="NBANDSV">    -1</i>
   <i type="int" name="NELM">     1</i>
   <i type="int" name="NELMHF">     1</i>
   <i type="int" name="DIM">     3</i>
   <i type="int" name="IESPILON">     4</i>
   <i type="int" name="ANTIRES">     0</i>
   <i name="OMEGAMAX">    -30.00000000</i>
   <i name="OMEGAMIN">    -30.00000000</i>
   <i name="OMEGATL">   -200.00000000</i>
   <i type="int" name="OMEGAGRID">   145</i>
   <i name="CSHIFT">     -0.10000000</i>
   <i type="logical" name="LSELFENERGY"> F  </i>
   <i type="logical" name="LSPECTRAL"> F  </i>
   <i type="logical" name="LSPECTRALGW"> F  </i>
   <i type="logical" name="LSINGLES"> F  </i>
   <i type="logical" name="LFERMIGW"> F  </i>
   <i type="logical" name="ODDONLYGW"> F  </i>
   <i type="logical" name="EVENONLYGW"> F  </i>
   <i type="int" name="NKREDLFX">     1</i>
   <i type="int" name="NKREDLFY">     1</i>
   <i type="int" name="NKREDLFZ">     1</i>
   <i type="int" name="MAXMEM">  2800</i>
   <i type="int" name="TELESCOPE">     0</i>
   <i type="int" name="NTAUPAR">     1</i>
   <i type="int" name="NOMEGAPAR">    -1</i>
   <i name="LAMBDA">      1.00000000</i>
  </separator>
  <separator name="External order field" >
   <i name="OFIELD_KAPPA">      0.00000000</i>
   <v name="OFIELD_K">      0.00000000      0.00000000      0.00000000</v>
   <i name="OFIELD_Q6_NEAR">      0.00000000</i>
   <i name="OFIELD_Q6_FAR">      0.00000000</i>
   <i name="OFIELD_A">      0.00000000</i>
  </separator>
 </parameters>
 <atominfo>
  <atoms>       3 </atoms>
  <types>       3 </types>
  <array name="atoms" >
   <dimension dim="1">ion</dimension>
   <field type="string">element</field>
   <field type="int">atomtype</field>
   <set>
    <rc><c>Hf</c><c>   1</c></rc>
    <rc><c>Sb</c><c>   2</c></rc>
    <rc><c>Pt</c><c>   3</c></rc>
   </set>
  </array>
  <array name="atomtypes" >
   <dimension dim="1">type</dimension>
   <field type="int">atomspertype</field>
   <field type="string">element</field>
   <field>mass</field>
   <field>valence</field>
   <field type="string">pseudopotential</field>
   <set>
    <rc><c>   1</c><c>Hf</c><c>    178.49000000</c><c>     10.00000000</c><c>  PAW_PBE Hf_pv 06Sep2000               </c></rc>
    <rc><c>   1</c><c>Sb</c><c>    121.75000000</c><c>      5.00000000</c><c>  PAW_PBE Sb 06Sep2000                  </c></rc>
    <rc><c>   1</c><c>Pt</c><c>    195.08000000</c><c>     10.00000000</c><c>  PAW_PBE Pt 04Feb2005                  </c></rc>
   </set>
  </array>
 </atominfo>
 <structure name="initialpos" >
  <crystal>
   <varray name="basis" >
    <v>       0.00000000       3.19933285       3.19933285 </v>
    <v>       3.19933285       0.00000000       3.19933285 </v>
    <v>       3.19933285       3.19933285       0.00000000 </v>
   </varray>
   <i name="volume">     65.49501896 </i>
   <varray name="rec_basis" >
    <v>      -0.15628258       0.15628258       0.15628258 </v>
    <v>       0.15628258      -0.15628258       0.15628258 </v>
    <v>       0.15628258       0.15628258      -0.15628258 </v>
   </varray>
  </crystal>
  <varray name="positions" >
   <v>       0.75000000       0.75000000       0.75000000 </v>
   <v>       0.25000000       0.25000000       0.25000000 </v>
   <v>       0.00000000       0.00000000       0.00000000 </v>
  </varray>
 </structure>
 <calculation>
  <scstep>
   <time name="dav">    0.90    0.93</time>
   <time name="total">    1.03    1.14</time>
   <energy>
    <i name="alphaZ">    104.01941450 </i>
    <i name="ewald">  -1554.09261706 </i>
    <i name="hartreedc">   -327.50096171 </i>
    <i name="XCdc">    -19.15317225 </i>
    <i name="pawpsdc">   1514.36848356 </i>
    <i name="pawaedc">  -1421.27055995 </i>
    <i name="eentropy">     -0.00011597 </i>
    <i name="bandstr">    102.88873745 </i>
    <i name="atom">   1741.10451121 </i>
    <i name="e_fr_energy">    140.36371978 </i>
    <i name="e_wo_entrp">    140.36383575 </i>
    <i name="e_0_energy">    140.36377777 </i>
   </energy>
  </scstep>
  <scstep>
   <time name="dav">    1.06    1.08</time>
   <time name="total">    1.06    1.09</time>
   <energy>
    <i name="e_fr_energy">    -20.04353292 </i>
    <i name="e_wo_entrp">    -20.04345964 </i>
    <i name="e_0_energy">    -20.04349628 </i>
   </energy>
  </scstep>
  <scstep>
   <time name="dav">    1.16    1.18</time>
   <time name="total">    1.16    1.18</time>
   <energy>
    <i name="e_fr_energy">    -24.94473817 </i>
    <i name="e_wo_entrp">    -24.94453014 </i>
    <i name="e_0_energy">    -24.94463416 </i>
   </energy>
  </scstep>
  <scstep>
   <time name="dav">    1.07    1.10</time>
   <time name="total">    1.07    1.10</time>
   <energy>
    <i name="e_fr_energy">    -25.01762030 </i>
    <i name="e_wo_entrp">    -25.01749005 </i>
    <i name="e_0_energy">    -25.01755517 </i>
   </energy>
  </scstep>
  <scstep>
   <time name="dav">    1.19    1.21</time>
   <time name="total">    1.43    1.45</time>
   <energy>
    <i name="e_fr_energy">    -25.01926395 </i>
    <i name="e_wo_entrp">    -25.01912829 </i>
    <i name="e_0_energy">    -25.01919612 </i>
   </energy>
  </scstep>
  <scstep>
   <time name="dav">    1.07    1.07</time>
   <time name="total">    1.40    1.42</time>
   <energy>
    <i name="e_fr_energy">    -24.22196179 </i>
    <i name="e_wo_entrp">    -24.22170286 </i>
    <i name="e_0_energy">    -24.22183233 </i>
   </energy>
  </scstep>
  <scstep>
   <time name="dav">    1.17    1.17</time>
   <time name="total">    1.45    1.48</time>
   <energy>
    <i name="e_fr_energy">    -24.08218178 </i>
    <i name="e_wo_entrp">    -24.08176734 </i>
    <i name="e_0_energy">    -24.08197456 </i>
   </energy>
  </scstep>
  <scstep>
   <time name="dav">    1.08    1.08</time>
   <time name="total">    1.47    1.49</time>
   <energy>
    <i name="e_fr_energy">    -24.05912029 </i>
    <i name="e_wo_entrp">    -24.05883501 </i>
    <i name="e_0_energy">    -24.05897765 </i>
   </energy>
  </scstep>
  <scstep>
   <time name="dav">    0.96    0.96</time>
   <time name="total">    1.24    1.32</time>
   <energy>
    <i name="e_fr_energy">    -24.04877165 </i>
    <i name="e_wo_entrp">    -24.04846645 </i>
    <i name="e_0_energy">    -24.04861905 </i>
   </energy>
  </scstep>
  <scstep>
   <time name="dav">    1.13    1.14</time>
   <time name="total">    1.44    1.46</time>
   <energy>
    <i name="e_fr_energy">    -24.04864174 </i>
    <i name="e_wo_entrp">    -24.04834660 </i>
    <i name="e_0_energy">    -24.04849417 </i>
   </energy>
  </scstep>
  <scstep>
   <time name="dav">    1.02    1.02</time>
   <time name="total">    1.31    1.33</time>
   <energy>
    <i name="e_fr_energy">    -24.04852038 </i>
    <i name="e_wo_entrp">    -24.04822663 </i>
    <i name="e_0_energy">    -24.04837351 </i>
   </energy>
  </scstep>
  <scstep>
   <time name="dav">    1.16    1.16</time>
   <time name="total">    1.46    1.48</time>
   <energy>
    <i name="e_fr_energy">    -24.04851620 </i>
    <i name="e_wo_entrp">    -24.04822106 </i>
    <i name="e_0_energy">    -24.04836863 </i>
   </energy>
  </scstep>
  <scstep>
   <time name="dav">    1.00    1.00</time>
   <time name="total">    1.28    1.31</time>
   <energy>
    <i name="e_fr_energy">    -24.04851468 </i>
    <i name="e_wo_entrp">    -24.04821978 </i>
    <i name="e_0_energy">    -24.04836723 </i>
   </energy>
  </scstep>
  <scstep>
   <time name="dav">    0.96    0.96</time>
   <time name="total">    1.08    1.10</time>
   <energy>
    <i name="alphaZ">    104.01941450 </i>
    <i name="ewald">  -1554.09261706 </i>
    <i name="hartreedc">   -305.94051027 </i>
    <i name="XCdc">    -19.79849687 </i>
    <i name="pawpsdc">   2555.96869060 </i>
    <i name="pawaedc">  -2468.15740896 </i>
    <i name="eentropy">     -0.00029497 </i>
    <i name="bandstr">    -77.15180296 </i>
    <i name="atom">   1741.10451121 </i>
    <i name="e_fr_energy">    -24.04851478 </i>
    <i name="e_wo_entrp">    -24.04821981 </i>
    <i name="e_0_energy">    -24.04836729 </i>
   </energy>
  </scstep>
  <structure>
   <crystal>
    <varray name="basis" >
     <v>       0.00000000       3.19933285       3.19933285 </v>
     <v>       3.19933285       0.00000000       3.19933285 </v>
     <v>       3.19933285       3.19933285       0.00000000 </v>
    </varray>
    <i name="volume">     65.49501896 </i>
    <varray name="rec_basis" >
     <v>      -0.15628258       0.15628258       0.15628258 </v>
     <v>       0.15628258      -0.15628258       0.15628258 </v>
     <v>       0.15628258       0.15628258      -0.15628258 </v>
    </varray>
   </crystal>
   <varray name="positions" >
    <v>       0.75000000       0.75000000       0.75000000 </v>
    <v>       0.25000000       0.25000000       0.25000000 </v>
    <v>       0.00000000       0.00000000       0.00000000 </v>
   </varray>
  </structure>
  <varray name="forces" >
   <v>       0.00000000       0.00000000       0.00000000 </v>
   <v>      -0.00000000       0.00000000      -0.00000000 </v>
   <v>       0.00000000      -0.00000000      -0.00000000 </v>
  </varray>
  <varray name="stress" >
   <v>     -25.77597698      -0.00000000       0.00000000 </v>
   <v>      -0.00000000     -25.77597698      -0.00000000 </v>
   <v>       0.00000000       0.00000000     -25.77597698 </v>
  </varray>
  <energy>
   <i name="e_fr_energy">    -24.04851478 </i>
   <i name="e_wo_entrp">    -24.04836729 </i>
   <i name="e_0_energy">     -0.00029497 </i>
  </energy>
  <time name="totalsc">   20.71   21.66</time>
  <eigenvalues>
   <array>
    <dimension dim="1">band</dimension>
    <dimension dim="2">kpoint</dimension>
    <dimension dim="3">spin</dimension>
    <field>eigene</field>
    <field>occ</field>
    <set>
     <set comment="spin 1">
      <set comment="kpoint 1">
       <r>  -23.5748    1.0000 </r>
       <r>  -23.5748    1.0000 </r>
       <r>  -23.5748    1.0000 </r>
       <r>   -3.9505    1.0000 </r>
       <r>    2.7594    1.0000 </r>
       <r>    2.7594    1.0000 </r>
       <r>    2.7594    1.0000 </r>
       <r>    3.5730    1.0000 </r>
       <r>    3.5730    1.0000 </r>
       <r>    7.1009    1.0000 </r>
       <r>    7.1009    1.0000 </r>
       <r>    7.1009    1.0000 </r>
       <r>    7.6172    1.0000 </r>
       <r>    9.5766    0.0000 </r>
       <r>    9.5766    0.0000 </r>
       <r>    9.5766    0.0000 </r>
      </set>
      <set comment="kpoint 2">
       <r>  -23.5758    1.0000 </r>
       <r>  -23.5748    1.0000 </r>
       <r>  -23.5748    1.0000 </r>
       <r>   -3.8875    1.0000 </r>
       <r>    2.6796    1.0000 </r>
       <r>    2.7337    1.0000 </r>
       <r>    2.7337    1.0000 </r>
       <r>    3.6111    1.0000 </r>
       <r>    3.6111    1.0000 </r>
       <r>    6.5301    1.0000 </r>
       <r>    7.0349    1.0000 </r>
       <r>    7.0349    1.0000 </r>
       <r>    7.8941    1.0000 </r>
       <r>    9.4152    0.0000 </r>
       <r>    9.4152    0.0000 </r>
       <r>    9.9419    0.0000 </r>
      </set>
      <set comment="kpoint 3">
       <r>  -23.5784    1.0000 </r>
       <r>  -23.5747    1.0000 </r>
       <r>  -23.5747    1.0000 </r>
       <r>   -3.7048    1.0000 </r>
       <r>    2.4583    1.0000 </r>
       <r>    2.6787    1.0000 </r>
       <r>    2.6787    1.0000 </r>
       <r>    3.6964    1.0000 </r>
       <r>    3.6964    1.0000 </r>
       <r>    5.6859    1.0000 </r>
       <r>    6.8696    1.0000 </r>
       <r>    6.8696    1.0000 </r>
       <r>    8.1391    1.0000 </r>
       <r>    9.3192    0.0000 </r>
       <r>    9.3192    0.0000 </r>
       <r>   10.7223    0.0000 </r>
      </set>
      <set comment="kpoint 4">
       <r>  -23.5821    1.0000 </r>
       <r>  -23.5746    1.0000 </r>
       <r>  -23.5746    1.0000 </r>
       <r>   -3.4232    1.0000 </r>
       <r>    2.1339    1.0000 </r>
       <r>    2.6293    1.0000 </r>
       <r>    2.6293    1.0000 </r>
       <r>    3.7767    1.0000 </r>
       <r>    3.7767    1.0000 </r>
       <r>    4.9167    1.0000 </r>
       <r>    6.6763    1.0000 </r>
       <r>    6.6763    1.0000 </r>
       <r>    8.3300    1.0000 </r>
       <r>    9.3525    0.0000 </r>
       <r>    9.3525    0.0000 </r>
       <r>   11.3620    0.0000 </r>
      </set>
      <set comment="kpoint 5">
       <r>  -23.5860    1.0000 </r>
       <r>  -23.5744    1.0000 </r>
       <r>  -23.5744    1.0000 </r>
       <r>   -3.0826    1.0000 </r>
       <r>    1.7506    1.0000 </r>
       <r>    2.6027    1.0000 </r>
       <r>    2.6027    1.0000 </r>
       <r>    3.8173    1.0000 </r>
       <r>    3.8173    1.0000 </r>
       <r>    4.3247    1.0000 </r>
       <r>    6.5172    1.0000 </r>
       <r>    6.5172    1.0000 </r>
       <r>    8.5022    1.0000 </r>
       <r>    9.4825    0.0000 </r>
       <r>    9.4825    0.0000 </r>
       <r>   10.9176    0.0000 </r>
      </set>
      <set comment="kpoint 6">
       <r>  -23.5892    1.0000 </r>
       <r>  -23.5743    1.0000 </r>
       <r>  -23.5743    1.0000 </r>
       <r>   -2.7518    1.0000 </r>
       <r>    1.3788    1.0000 </r>
       <r>    2.5981    1.0000 </r>
       <r>    2.5981    1.0000 </r>
       <r>    3.8168    1.0000 </r>
       <r>    3.8168    1.0000 </r>
       <r>    3.9436    1.0000 </r>
       <r>    6.4188    1.0000 </r>
       <r>    6.4188    1.0000 </r>
       <r>    8.6736    1.0000 </r>
       <r>    9.6592    0.0000 </r>
       <r>    9.6592    0.0000 </r>
       <r>   10.1926    0.0000 </r>
      </set>
      <set comment="kpoint 7">
       <r>  -23.5910    1.0000 </r>
       <r>  -23.5742    1.0000 </r>
       <r>  -23.5742    1.0000 </r>
       <r>   -2.5354    1.0000 </r>
       <r>    1.1357    1.0000 </r>
       <r>    2.6024    1.0000 </r>
       <r>    2.6024    1.0000 </r>
       <r>    3.7627    1.0000 </r>
       <r>    3.8023    1.0000 </r>
       <r>    3.8023    1.0000 </r>
       <r>    6.3760    1.0000 </r>
       <r>    6.3760    1.0000 </r>
       <r>    8.8331    0.0000 </r>
       <r>    9.7159    0.0000 </r>
       <r>    9.7976    0.0000 </r>
       <r>    9.7976    0.0000 </r>
      </set>
      <set comment="kpoint 8">
       <r>  -23.5758    1.0000 </r>
       <r>  -23.5749    1.0000 </r>
       <r>  -23.5749    1.0000 </r>
       <r>   -3.8668    1.0000 </r>
       <r>    2.5447    1.0000 </r>
       <r>    2.7895    1.0000 </r>
       <r>    2.7895    1.0000 </r>
       <r>    3.6053    1.0000 </r>
       <r>    3.6261    1.0000 </r>
       <r>    6.5613    1.0000 </r>
       <r>    6.9068    1.0000 </r>
       <r>    6.9068    1.0000 </r>
       <r>    7.9782    1.0000 </r>
       <r>    9.2738    0.0000 </r>
       <r>    9.7925    0.0000 </r>
       <r>    9.8544    0.0000 </r>
      </set>
      <set comment="kpoint 9">
       <r>  -23.5777    1.0000 </r>
       <r>  -23.5750    1.0000 </r>
       <r>  -23.5749    1.0000 </r>
       <r>   -3.7251    1.0000 </r>
       <r>    2.3343    1.0000 </r>
       <r>    2.7669    1.0000 </r>
       <r>    2.7940    1.0000 </r>
       <r>    3.6673    1.0000 </r>
       <r>    3.6802    1.0000 </r>
       <r>    5.9284    1.0000 </r>
       <r>    6.7167    1.0000 </r>
       <r>    6.7779    1.0000 </r>
       <r>    8.2279    1.0000 </r>
       <r>    9.1332    0.0000 </r>
       <r>    9.5734    0.0000 </r>
       <r>   10.3245    0.0000 </r>
      </set>
      <set comment="kpoint 10">
       <r>  -23.5810    1.0000 </r>
       <r>  -23.5750    1.0000 </r>
       <r>  -23.5747    1.0000 </r>
       <r>   -3.4784    1.0000 </r>
       <r>    2.0848    1.0000 </r>
       <r>    2.6793    1.0000 </r>
       <r>    2.7672    1.0000 </r>
       <r>    3.7513    1.0000 </r>
       <r>    3.7533    1.0000 </r>
       <r>    5.1697    1.0000 </r>
       <r>    6.5328    1.0000 </r>
       <r>    6.6037    1.0000 </r>
       <r>    8.5007    1.0000 </r>
       <r>    9.1350    0.0000 </r>
       <r>    9.4649    0.0000 </r>
       <r>   10.8773    0.0000 </r>
      </set>
      <set comment="kpoint 11">
       <r>  -23.5847    1.0000 </r>
       <r>  -23.5749    1.0000 </r>
       <r>  -23.5747    1.0000 </r>
       <r>   -3.1598    1.0000 </r>
       <r>    1.7900    1.0000 </r>
       <r>    2.5969    1.0000 </r>
       <r>    2.7348    1.0000 </r>
       <r>    3.8062    1.0000 </r>
       <r>    3.8088    1.0000 </r>
       <r>    4.5234    1.0000 </r>
       <r>    6.3995    1.0000 </r>
       <r>    6.4303    1.0000 </r>
       <r>    8.6217    1.0000 </r>
       <r>    9.3800    0.0000 </r>
       <r>    9.4825    0.0000 </r>
       <r>   10.9922    0.0000 </r>
      </set>
      <set comment="kpoint 12">
       <r>  -23.5880    1.0000 </r>
       <r>  -23.5747    1.0000 </r>
       <r>  -23.5747    1.0000 </r>
       <r>   -2.8272    1.0000 </r>
       <r>    1.4741    1.0000 </r>
       <r>    2.5577    1.0000 </r>
       <r>    2.7030    1.0000 </r>
       <r>    3.8193    1.0000 </r>
       <r>    3.8210    1.0000 </r>
       <r>    4.0739    1.0000 </r>
       <r>    6.3008    1.0000 </r>
       <r>    6.3290    1.0000 </r>
       <r>    8.6997    0.9995 </r>
       <r>    9.6046    0.0000 </r>
       <r>    9.6853    0.0000 </r>
       <r>   10.3681    0.0000 </r>
      </set>
      <set comment="kpoint 13">
       <r>  -23.5902    1.0000 </r>
       <r>  -23.5748    1.0000 </r>
       <r>  -23.5745    1.0000 </r>
       <r>   -2.5707    1.0000 </r>
       <r>    1.2213    1.0000 </r>
       <r>    2.5642    1.0000 </r>
       <r>    2.6646    1.0000 </r>
       <r>    3.7614    1.0000 </r>
       <r>    3.8165    1.0000 </r>
       <r>    3.8716    1.0000 </r>
       <r>    6.2236    1.0000 </r>
       <r>    6.3081    1.0000 </r>
       <r>    8.8226    0.0000 </r>
       <r>    9.6905    0.0000 </r>
       <r>    9.7614    0.0000 </r>
       <r>   10.0400    0.0000 </r>
      </set>
      <set comment="kpoint 14">
       <r>  -23.5908    1.0000 </r>
       <r>  -23.5750    1.0000 </r>
       <r>  -23.5743    1.0000 </r>
       <r>   -2.4954    1.0000 </r>
       <r>    1.1467    1.0000 </r>
       <r>    2.6030    1.0000 </r>
       <r>    2.6139    1.0000 </r>
       <r>    3.7126    1.0000 </r>
       <r>    3.8272    1.0000 </r>
       <r>    3.8436    1.0000 </r>
       <r>    6.1831    1.0000 </r>
       <r>    6.3243    1.0000 </r>
       <r>    8.9116    0.0000 </r>
       <r>    9.5066    0.0000 </r>
       <r>    9.8253    0.0000 </r>
       <r>   10.0958    0.0000 </r>
      </set>
      <set comment="kpoint 15">
       <r>  -23.5896    1.0000 </r>
       <r>  -23.5752    1.0000 </r>
       <r>  -23.5742    1.0000 </r>
       <r>   -2.6404    1.0000 </r>
       <r>    1.2957    1.0000 </r>
       <r>    2.5609    1.0000 </r>
       <r>    2.6586    1.0000 </r>
       <r>    3.7604    1.0000 </r>
       <r>    3.8507    1.0000 </r>
       <r>    3.9141    1.0000 </r>
       <r>    6.1629    1.0000 </r>
       <r>    6.3836    1.0000 </r>
       <r>    8.8167    0.0000 </r>
       <r>    9.7199    0.0000 </r>
       <r>    9.7238    0.0000 </r>
       <r>   10.0944    0.0000 </r>
      </set>
      <set comment="kpoint 16">
       <r>  -23.5870    1.0000 </r>
       <r>  -23.5753    1.0000 </r>
       <r>  -23.5741    1.0000 </r>
       <r>   -2.9340    1.0000 </r>
       <r>    1.5930    1.0000 </r>
       <r>    2.5260    1.0000 </r>
       <r>    2.7206    1.0000 </r>
       <r>    3.7842    1.0000 </r>
       <r>    3.8603    1.0000 </r>
       <r>    4.2061    1.0000 </r>
       <r>    6.1682    1.0000 </r>
       <r>    6.5026    1.0000 </r>
       <r>    8.7244    0.4210 </r>
       <r>    9.5234    0.0000 </r>
       <r>    9.6352    0.0000 </r>
       <r>   10.5924    0.0000 </r>
      </set>
      <set comment="kpoint 17">
       <r>  -23.5835    1.0000 </r>
       <r>  -23.5754    1.0000 </r>
       <r>  -23.5742    1.0000 </r>
       <r>   -3.2704    1.0000 </r>
       <r>    1.9315    1.0000 </r>
       <r>    2.5267    1.0000 </r>
       <r>    2.7811    1.0000 </r>
       <r>    3.7629    1.0000 </r>
       <r>    3.8316    1.0000 </r>
       <r>    4.7221    1.0000 </r>
       <r>    6.2277    1.0000 </r>
       <r>    6.6836    1.0000 </r>
       <r>    8.6489    1.0000 </r>
       <r>    9.3173    0.0000 </r>
       <r>    9.4654    0.0000 </r>
       <r>   10.8802    0.0000 </r>
      </set>
      <set comment="kpoint 18">
       <r>  -23.5799    1.0000 </r>
       <r>  -23.5753    1.0000 </r>
       <r>  -23.5744    1.0000 </r>
       <r>   -3.5702    1.0000 </r>
       <r>    2.2457    1.0000 </r>
       <r>    2.5697    1.0000 </r>
       <r>    2.8243    1.0000 </r>
       <r>    3.7023    1.0000 </r>
       <r>    3.7632    1.0000 </r>
       <r>    5.4065    1.0000 </r>
       <r>    6.3775    1.0000 </r>
       <r>    6.8878    1.0000 </r>
       <r>    8.4708    1.0000 </r>
       <r>    9.1801    0.0000 </r>
       <r>    9.4471    0.0000 </r>
       <r>   10.4106    0.0000 </r>
      </set>
      <set comment="kpoint 19">
       <r>  -23.5771    1.0000 </r>
       <r>  -23.5751    1.0000 </r>
       <r>  -23.5746    1.0000 </r>
       <r>   -3.7849    1.0000 </r>
       <r>    2.5065    1.0000 </r>
       <r>    2.6473    1.0000 </r>
       <r>    2.8148    1.0000 </r>
       <r>    3.6383    1.0000 </r>
       <r>    3.6772    1.0000 </r>
       <r>    6.1017    1.0000 </r>
       <r>    6.6703    1.0000 </r>
       <r>    7.0312    1.0000 </r>
       <r>    8.1578    1.0000 </r>
       <r>    9.1916    0.0000 </r>
       <r>    9.5633    0.0000 </r>
       <r>    9.9850    0.0000 </r>
      </set>
      <set comment="kpoint 20">
       <r>  -23.5784    1.0000 </r>
       <r>  -23.5753    1.0000 </r>
       <r>  -23.5753    1.0000 </r>
       <r>   -3.6289    1.0000 </r>
       <r>    2.0924    1.0000 </r>
       <r>    2.8749    1.0000 </r>
       <r>    2.8749    1.0000 </r>
       <r>    3.6602    1.0000 </r>
       <r>    3.6980    1.0000 </r>
       <r>    5.8734    1.0000 </r>
       <r>    6.5097    1.0000 </r>
       <r>    6.5097    1.0000 </r>
       <r>    8.2135    1.0000 </r>
       <r>    9.1280    0.0000 </r>
       <r>    9.6285    0.0000 </r>
       <r>   10.4432    0.0000 </r>
      </set>
      <set comment="kpoint 21">
       <r>  -23.5808    1.0000 </r>
       <r>  -23.5754    1.0000 </r>
       <r>  -23.5754    1.0000 </r>
       <r>   -3.4283    1.0000 </r>
       <r>    1.8609    1.0000 </r>
       <r>    2.8679    1.0000 </r>
       <r>    2.9038    1.0000 </r>
       <r>    3.6789    1.0000 </r>
       <r>    3.7718    1.0000 </r>
       <r>    5.3691    1.0000 </r>
       <r>    6.3173    1.0000 </r>
       <r>    6.3219    1.0000 </r>
       <r>    8.4340    1.0000 </r>
       <r>    9.1018    0.0000 </r>
       <r>    9.4950    0.0000 </r>
       <r>   10.7749    0.0000 </r>
      </set>
      <set comment="kpoint 22">
       <r>  -23.5839    1.0000 </r>
       <r>  -23.5755    1.0000 </r>
       <r>  -23.5754    1.0000 </r>
       <r>   -3.1512    1.0000 </r>
       <r>    1.6551    1.0000 </r>
       <r>    2.7696    1.0000 </r>
       <r>    2.8941    1.0000 </r>
       <r>    3.7360    1.0000 </r>
       <r>    3.8365    1.0000 </r>
       <r>    4.7555    1.0000 </r>
       <r>    6.1227    1.0000 </r>
       <r>    6.1985    1.0000 </r>
       <r>    8.6678    1.0000 </r>
       <r>    9.3041    0.0000 </r>
       <r>    9.4317    0.0000 </r>
       <r>   10.9001    0.0000 </r>
      </set>
      <set comment="kpoint 23">
       <r>  -23.5869    1.0000 </r>
       <r>  -23.5758    1.0000 </r>
       <r>  -23.5753    1.0000 </r>
       <r>   -2.8465    1.0000 </r>
       <r>    1.4764    1.0000 </r>
       <r>    2.6500    1.0000 </r>
       <r>    2.8570    1.0000 </r>
       <r>    3.7846    1.0000 </r>
       <r>    3.8629    1.0000 </r>
       <r>    4.2455    1.0000 </r>
       <r>    5.9602    1.0000 </r>
       <r>    6.1473    1.0000 </r>
       <r>    8.6888    1.0000 </r>
       <r>    9.5021    0.0000 </r>
       <r>    9.7974    0.0000 </r>
       <r>   10.4556    0.0000 </r>
      </set>
      <set comment="kpoint 24">
       <r>  -23.5890    1.0000 </r>
       <r>  -23.5763    1.0000 </r>
       <r>  -23.5750    1.0000 </r>
       <r>   -2.5874    1.0000 </r>
       <r>    1.3342    1.0000 </r>
       <r>    2.5681    1.0000 </r>
       <r>    2.7905    1.0000 </r>
       <r>    3.7509    1.0000 </r>
       <r>    3.8703    1.0000 </r>
       <r>    3.9735    1.0000 </r>
       <r>    5.8462    1.0000 </r>
       <r>    6.1448    1.0000 </r>
       <r>    8.7381    0.0163 </r>
       <r>    9.6814    0.0000 </r>
       <r>    9.8461    0.0000 </r>
       <r>   10.2736    0.0000 </r>
      </set>
      <set comment="kpoint 25">
       <r>  -23.5898    1.0000 </r>
       <r>  -23.5768    1.0000 </r>
       <r>  -23.5746    1.0000 </r>
       <r>   -2.4615    1.0000 </r>
       <r>    1.2675    1.0000 </r>
       <r>    2.5613    1.0000 </r>
       <r>    2.6973    1.0000 </r>
       <r>    3.6576    1.0000 </r>
       <r>    3.8875    1.0000 </r>
       <r>    3.9424    1.0000 </r>
       <r>    5.7684    1.0000 </r>
       <r>    6.1728    1.0000 </r>
       <r>    8.8753    0.0000 </r>
       <r>    9.4718    0.0000 </r>
       <r>    9.8390    0.0000 </r>
       <r>   10.5330    0.0000 </r>
      </set>
      <set comment="kpoint 26">
       <r>  -23.5892    1.0000 </r>
       <r>  -23.5772    1.0000 </r>
       <r>  -23.5743    1.0000 </r>
       <r>   -2.5233    1.0000 </r>
       <r>    1.3190    1.0000 </r>
       <r>    2.5971    1.0000 </r>
       <r>    2.6358    1.0000 </r>
       <r>    3.6695    1.0000 </r>
       <r>    3.9132    1.0000 </r>
       <r>    3.9966    1.0000 </r>
       <r>    5.7004    1.0000 </r>
       <r>    6.2399    1.0000 </r>
       <r>    8.9465    0.0000 </r>
       <r>    9.5305    0.0000 </r>
       <r>    9.8159    0.0000 </r>
       <r>   10.5202    0.0000 </r>
      </set>
      <set comment="kpoint 27">
       <r>  -23.5873    1.0000 </r>
       <r>  -23.5773    1.0000 </r>
       <r>  -23.5741    1.0000 </r>
       <r>   -2.7454    1.0000 </r>
       <r>    1.4802    1.0000 </r>
       <r>    2.5177    1.0000 </r>
       <r>    2.7598    1.0000 </r>
       <r>    3.7303    1.0000 </r>
       <r>    3.9230    1.0000 </r>
       <r>    4.1920    1.0000 </r>
       <r>    5.6382    1.0000 </r>
       <r>    6.3663    1.0000 </r>
       <r>    8.9511    0.0000 </r>
       <r>    9.6385    0.0000 </r>
       <r>    9.8931    0.0000 </r>
       <r>   10.3927    0.0000 </r>
      </set>
      <set comment="kpoint 28">
       <r>  -23.5847    1.0000 </r>
       <r>  -23.5770    1.0000 </r>
       <r>  -23.5741    1.0000 </r>
       <r>   -3.0444    1.0000 </r>
       <r>    1.7093    1.0000 </r>
       <r>    2.4812    1.0000 </r>
       <r>    2.8711    1.0000 </r>
       <r>    3.7462    1.0000 </r>
       <r>    3.8978    1.0000 </r>
       <r>    4.5910    1.0000 </r>
       <r>    5.6371    1.0000 </r>
       <r>    6.5526    1.0000 </r>
       <r>    9.0379    0.0000 </r>
       <r>    9.4153    0.0000 </r>
       <r>    9.7045    0.0000 </r>
       <r>   10.5495    0.0000 </r>
      </set>
      <set comment="kpoint 29">
       <r>  -23.5820    1.0000 </r>
       <r>  -23.5763    1.0000 </r>
       <r>  -23.5742    1.0000 </r>
       <r>   -3.3385    1.0000 </r>
       <r>    1.9736    1.0000 </r>
       <r>    2.4989    1.0000 </r>
       <r>    2.9058    1.0000 </r>
       <r>    3.7226    1.0000 </r>
       <r>    3.8388    1.0000 </r>
       <r>    5.0648    1.0000 </r>
       <r>    5.8419    1.0000 </r>
       <r>    6.7559    1.0000 </r>
       <r>    8.9663    0.0000 </r>
       <r>    9.2328    0.0000 </r>
       <r>    9.4368    0.0000 </r>
       <r>   10.3788    0.0000 </r>
      </set>
      <set comment="kpoint 30">
       <r>  -23.5822    1.0000 </r>
       <r>  -23.5758    1.0000 </r>
       <r>  -23.5758    1.0000 </r>
       <r>   -3.2807    1.0000 </r>
       <r>    1.6454    1.0000 </r>
       <r>    3.0002    1.0000 </r>
       <r>    3.0002    1.0000 </r>
       <r>    3.5949    1.0000 </r>
       <r>    3.8371    1.0000 </r>
       <r>    5.2613    1.0000 </r>
       <r>    6.1203    1.0000 </r>
       <r>    6.1203    1.0000 </r>
       <r>    8.2378    1.0000 </r>
       <r>    9.2063    0.0000 </r>
       <r>    9.3888    0.0000 </r>
       <r>   10.8936    0.0000 </r>
      </set>
      <set comment="kpoint 31">
       <r>  -23.5845    1.0000 </r>
       <r>  -23.5761    1.0000 </r>
       <r>  -23.5759    1.0000 </r>
       <r>   -3.0594    1.0000 </r>
       <r>    1.4882    1.0000 </r>
       <r>    2.9837    1.0000 </r>
       <r>    3.0408    1.0000 </r>
       <r>    3.5985    1.0000 </r>
       <r>    3.9092    1.0000 </r>
       <r>    4.8586    1.0000 </r>
       <r>    5.9092    1.0000 </r>
       <r>    5.9846    1.0000 </r>
       <r>    8.3637    1.0000 </r>
       <r>    9.2855    0.0000 </r>
       <r>    9.3452    0.0000 </r>
       <r>   10.9004    0.0000 </r>
      </set>
      <set comment="kpoint 32">
       <r>  -23.5868    1.0000 </r>
       <r>  -23.5767    1.0000 </r>
       <r>  -23.5759    1.0000 </r>
       <r>   -2.8056    1.0000 </r>
       <r>    1.4081    1.0000 </r>
       <r>    2.8440    1.0000 </r>
       <r>    3.0267    1.0000 </r>
       <r>    3.6863    1.0000 </r>
       <r>    3.9475    1.0000 </r>
       <r>    4.3833    1.0000 </r>
       <r>    5.6678    1.0000 </r>
       <r>    5.9329    1.0000 </r>
       <r>    8.4940    1.0000 </r>
       <r>    9.3077    0.0000 </r>
       <r>    9.7697    0.0000 </r>
       <r>   10.5461    0.0000 </r>
      </set>
      <set comment="kpoint 33">
       <r>  -23.5883    1.0000 </r>
       <r>  -23.5777    1.0000 </r>
       <r>  -23.5756    1.0000 </r>
       <r>   -2.5768    1.0000 </r>
       <r>    1.4050    1.0000 </r>
       <r>    2.6770    1.0000 </r>
       <r>    2.9570    1.0000 </r>
       <r>    3.7186    1.0000 </r>
       <r>    3.9600    1.0000 </r>
       <r>    4.0544    1.0000 </r>
       <r>    5.4650    1.0000 </r>
       <r>    5.9383    1.0000 </r>
       <r>    8.5490    1.0000 </r>
       <r>    9.4999    0.0000 </r>
       <r>   10.0208    0.0000 </r>
       <r>   10.3436    0.0000 </r>
      </set>
      <set comment="kpoint 34">
       <r>  -23.5887    1.0000 </r>
       <r>  -23.5789    1.0000 </r>
       <r>  -23.5752    1.0000 </r>
       <r>   -2.4362    1.0000 </r>
       <r>    1.4463    1.0000 </r>
       <r>    2.5509    1.0000 </r>
       <r>    2.8388    1.0000 </r>
       <r>    3.5869    1.0000 </r>
       <r>    3.9750    1.0000 </r>
       <r>    4.0509    1.0000 </r>
       <r>    5.3186    1.0000 </r>
       <r>    5.9728    1.0000 </r>
       <r>    8.6618    1.0000 </r>
       <r>    9.6056    0.0000 </r>
       <r>    9.7891    0.0000 </r>
       <r>   10.6374    0.0000 </r>
      </set>
      <set comment="kpoint 35">
       <r>  -23.5881    1.0000 </r>
       <r>  -23.5797    1.0000 </r>
       <r>  -23.5748    1.0000 </r>
       <r>   -2.4300    1.0000 </r>
       <r>    1.4721    1.0000 </r>
       <r>    2.5455    1.0000 </r>
       <r>    2.7007    1.0000 </r>
       <r>    3.5523    1.0000 </r>
       <r>    3.9922    1.0000 </r>
       <r>    4.1442    1.0000 </r>
       <r>    5.2161    1.0000 </r>
       <r>    6.0431    1.0000 </r>
       <r>    8.8556    0.0000 </r>
       <r>    9.4295    0.0000 </r>
       <r>    9.9166    0.0000 </r>
       <r>   10.5883    0.0000 </r>
      </set>
      <set comment="kpoint 36">
       <r>  -23.5869    1.0000 </r>
       <r>  -23.5798    1.0000 </r>
       <r>  -23.5744    1.0000 </r>
       <r>   -2.5615    1.0000 </r>
       <r>    1.4850    1.0000 </r>
       <r>    2.5785    1.0000 </r>
       <r>    2.6689    1.0000 </r>
       <r>    3.6338    1.0000 </r>
       <r>    3.9902    1.0000 </r>
       <r>    4.2816    1.0000 </r>
       <r>    5.1576    1.0000 </r>
       <r>    6.1709    1.0000 </r>
       <r>    8.9795    0.0000 </r>
       <r>    9.6898    0.0000 </r>
       <r>    9.7996    0.0000 </r>
       <r>   10.4909    0.0000 </r>
      </set>
      <set comment="kpoint 37">
       <r>  -23.5858    1.0000 </r>
       <r>  -23.5787    1.0000 </r>
       <r>  -23.5741    1.0000 </r>
       <r>   -2.7880    1.0000 </r>
       <r>    1.5536    1.0000 </r>
       <r>    2.5000    1.0000 </r>
       <r>    2.8152    1.0000 </r>
       <r>    3.7169    1.0000 </r>
       <r>    3.9565    1.0000 </r>
       <r>    4.4589    1.0000 </r>
       <r>    5.2447    1.0000 </r>
       <r>    6.3553    1.0000 </r>
       <r>    9.0550    0.0000 </r>
       <r>    9.6005    0.0000 </r>
       <r>   10.1624    0.0000 </r>
       <r>   10.3719    0.0000 </r>
      </set>
      <set comment="kpoint 38">
       <r>  -23.5862    1.0000 </r>
       <r>  -23.5763    1.0000 </r>
       <r>  -23.5763    1.0000 </r>
       <r>   -2.9033    1.0000 </r>
       <r>    1.3772    1.0000 </r>
       <r>    3.1392    1.0000 </r>
       <r>    3.1392    1.0000 </r>
       <r>    3.4567    1.0000 </r>
       <r>    3.9980    1.0000 </r>
       <r>    4.6675    1.0000 </r>
       <r>    5.8215    1.0000 </r>
       <r>    5.8215    1.0000 </r>
       <r>    8.1797    1.0000 </r>
       <r>    9.1212    0.0000 </r>
       <r>    9.3953    0.0000 </r>
       <r>   10.8472    0.0000 </r>
      </set>
      <set comment="kpoint 39">
       <r>  -23.5881    1.0000 </r>
       <r>  -23.5768    1.0000 </r>
       <r>  -23.5764    1.0000 </r>
       <r>   -2.7164    1.0000 </r>
       <r>    1.3598    1.0000 </r>
       <r>    3.0602    1.0000 </r>
       <r>    3.1716    1.0000 </r>
       <r>    3.5160    1.0000 </r>
       <r>    4.0559    1.0000 </r>
       <r>    4.3111    1.0000 </r>
       <r>    5.6166    1.0000 </r>
       <r>    5.7462    1.0000 </r>
       <r>    8.2390    1.0000 </r>
       <r>    9.0629    0.0000 </r>
       <r>    9.6165    0.0000 </r>
       <r>   10.5880    0.0000 </r>
      </set>
      <set comment="kpoint 40">
       <r>  -23.5890    1.0000 </r>
       <r>  -23.5779    1.0000 </r>
       <r>  -23.5763    1.0000 </r>
       <r>   -2.5413    1.0000 </r>
       <r>    1.4436    1.0000 </r>
       <r>    2.8629    1.0000 </r>
       <r>    3.1282    1.0000 </r>
       <r>    3.6314    1.0000 </r>
       <r>    3.9934    1.0000 </r>
       <r>    4.0725    1.0000 </r>
       <r>    5.3206    1.0000 </r>
       <r>    5.7444    1.0000 </r>
       <r>    8.3256    1.0000 </r>
       <r>    9.2031    0.0000 </r>
       <r>   10.0533    0.0000 </r>
       <r>   10.2832    0.0000 </r>
      </set>
      <set comment="kpoint 41">
       <r>  -23.5889    1.0000 </r>
       <r>  -23.5796    1.0000 </r>
       <r>  -23.5759    1.0000 </r>
       <r>   -2.4191    1.0000 </r>
       <r>    1.5914    1.0000 </r>
       <r>    2.6531    1.0000 </r>
       <r>    3.0121    1.0000 </r>
       <r>    3.4877    1.0000 </r>
       <r>    4.0543    1.0000 </r>
       <r>    4.0753    1.0000 </r>
       <r>    5.0494    1.0000 </r>
       <r>    5.7804    1.0000 </r>
       <r>    8.4244    1.0000 </r>
       <r>    9.5614    0.0000 </r>
       <r>    9.7613    0.0000 </r>
       <r>   10.4323    0.0000 </r>
      </set>
      <set comment="kpoint 42">
       <r>  -23.5877    1.0000 </r>
       <r>  -23.5812    1.0000 </r>
       <r>  -23.5754    1.0000 </r>
       <r>   -2.3780    1.0000 </r>
       <r>    1.6828    1.0000 </r>
       <r>    2.4926    1.0000 </r>
       <r>    2.8543    1.0000 </r>
       <r>    3.4131    1.0000 </r>
       <r>    4.0707    1.0000 </r>
       <r>    4.2543    1.0000 </r>
       <r>    4.8573    1.0000 </r>
       <r>    5.8542    1.0000 </r>
       <r>    8.6064    1.0000 </r>
       <r>    9.5002    0.0000 </r>
       <r>    9.9757    0.0000 </r>
       <r>   10.4271    0.0000 </r>
      </set>
      <set comment="kpoint 43">
       <r>  -23.5866    1.0000 </r>
       <r>  -23.5817    1.0000 </r>
       <r>  -23.5748    1.0000 </r>
       <r>   -2.4285    1.0000 </r>
       <r>    1.5982    1.0000 </r>
       <r>    2.5287    1.0000 </r>
       <r>    2.6981    1.0000 </r>
       <r>    3.4996    1.0000 </r>
       <r>    4.0437    1.0000 </r>
       <r>    4.3642    1.0000 </r>
       <r>    4.8524    1.0000 </r>
       <r>    5.9858    1.0000 </r>
       <r>    8.8469    0.0000 </r>
       <r>    9.4475    0.0000 </r>
       <r>    9.9594    0.0000 </r>
       <r>   10.3628    0.0000 </r>
      </set>
      <set comment="kpoint 44">
       <r>  -23.5897    1.0000 </r>
       <r>  -23.5767    1.0000 </r>
       <r>  -23.5767    1.0000 </r>
       <r>   -2.6028    1.0000 </r>
       <r>    1.3869    1.0000 </r>
       <r>    3.2577    1.0000 </r>
       <r>    3.2577    1.0000 </r>
       <r>    3.3182    1.0000 </r>
       <r>    4.0374    1.0000 </r>
       <r>    4.1441    1.0000 </r>
       <r>    5.6352    1.0000 </r>
       <r>    5.6352    1.0000 </r>
       <r>    8.1137    1.0000 </r>
       <r>    8.8867    0.0000 </r>
       <r>    9.5099    0.0000 </r>
       <r>   10.5281    0.0000 </r>
      </set>
      <set comment="kpoint 45">
       <r>  -23.5906    1.0000 </r>
       <r>  -23.5773    1.0000 </r>
       <r>  -23.5768    1.0000 </r>
       <r>   -2.4936    1.0000 </r>
       <r>    1.4991    1.0000 </r>
       <r>    3.0736    1.0000 </r>
       <r>    3.2628    1.0000 </r>
       <r>    3.4806    1.0000 </r>
       <r>    3.7450    1.0000 </r>
       <r>    4.1769    1.0000 </r>
       <r>    5.4547    1.0000 </r>
       <r>    5.6086    1.0000 </r>
       <r>    8.1459    1.0000 </r>
       <r>    8.9002    0.0000 </r>
       <r>    9.6948    0.0000 </r>
       <r>   10.3113    0.0000 </r>
      </set>
      <set comment="kpoint 46">
       <r>  -23.5903    1.0000 </r>
       <r>  -23.5786    1.0000 </r>
       <r>  -23.5765    1.0000 </r>
       <r>   -2.4124    1.0000 </r>
       <r>    1.6563    1.0000 </r>
       <r>    2.8635    1.0000 </r>
       <r>    3.1790    1.0000 </r>
       <r>    3.3734    1.0000 </r>
       <r>    3.8415    1.0000 </r>
       <r>    4.1668    1.0000 </r>
       <r>    5.1431    1.0000 </r>
       <r>    5.6382    1.0000 </r>
       <r>    8.2331    1.0000 </r>
       <r>    9.1633    0.0000 </r>
       <r>    9.8782    0.0000 </r>
       <r>   10.2794    0.0000 </r>
      </set>
      <set comment="kpoint 47">
       <r>  -23.5890    1.0000 </r>
       <r>  -23.5803    1.0000 </r>
       <r>  -23.5760    1.0000 </r>
       <r>   -2.3724    1.0000 </r>
       <r>    1.7614    1.0000 </r>
       <r>    2.6201    1.0000 </r>
       <r>    3.0280    1.0000 </r>
       <r>    3.3126    1.0000 </r>
       <r>    4.1099    1.0000 </r>
       <r>    4.1313    1.0000 </r>
       <r>    4.8723    1.0000 </r>
       <r>    5.7158    1.0000 </r>
       <r>    8.3803    1.0000 </r>
       <r>    9.6379    0.0000 </r>
       <r>    9.6715    0.0000 </r>
       <r>   10.2041    0.0000 </r>
      </set>
      <set comment="kpoint 48">
       <r>  -23.5917    1.0000 </r>
       <r>  -23.5770    1.0000 </r>
       <r>  -23.5770    1.0000 </r>
       <r>   -2.4496    1.0000 </r>
       <r>    1.5813    1.0000 </r>
       <r>    3.2676    1.0000 </r>
       <r>    3.3251    1.0000 </r>
       <r>    3.3251    1.0000 </r>
       <r>    3.4850    1.0000 </r>
       <r>    4.2329    1.0000 </r>
       <r>    5.5517    1.0000 </r>
       <r>    5.5517    1.0000 </r>
       <r>    8.0718    1.0000 </r>
       <r>    8.7480    0.0002 </r>
       <r>    9.4765    0.0000 </r>
       <r>   10.2930    0.0000 </r>
      </set>
      <set comment="kpoint 49">
       <r>  -23.5916    1.0000 </r>
       <r>  -23.5775    1.0000 </r>
       <r>  -23.5769    1.0000 </r>
       <r>   -2.4214    1.0000 </r>
       <r>    1.6486    1.0000 </r>
       <r>    3.1005    1.0000 </r>
       <r>    3.2948    1.0000 </r>
       <r>    3.3259    1.0000 </r>
       <r>    3.5669    1.0000 </r>
       <r>    4.2257    1.0000 </r>
       <r>    5.4053    1.0000 </r>
       <r>    5.5636    1.0000 </r>
       <r>    8.1122    1.0000 </r>
       <r>    8.8417    0.0000 </r>
       <r>    9.6576    0.0000 </r>
       <r>   10.2098    0.0000 </r>
      </set>
      <set comment="kpoint 50">
       <r>  -23.5797    1.0000 </r>
       <r>  -23.5756    1.0000 </r>
       <r>  -23.5747    1.0000 </r>
       <r>   -3.5527    1.0000 </r>
       <r>    2.0958    1.0000 </r>
       <r>    2.7017    1.0000 </r>
       <r>    2.8847    1.0000 </r>
       <r>    3.6928    1.0000 </r>
       <r>    3.7476    1.0000 </r>
       <r>    5.5298    1.0000 </r>
       <r>    6.2534    1.0000 </r>
       <r>    6.7377    1.0000 </r>
       <r>    8.5293    1.0000 </r>
       <r>    9.0629    0.0000 </r>
       <r>    9.5330    0.0000 </r>
       <r>   10.3857    0.0000 </r>
      </set>
      <set comment="kpoint 51">
       <r>  -23.5826    1.0000 </r>
       <r>  -23.5760    1.0000 </r>
       <r>  -23.5745    1.0000 </r>
       <r>   -3.2897    1.0000 </r>
       <r>    1.8518    1.0000 </r>
       <r>    2.6218    1.0000 </r>
       <r>    2.8913    1.0000 </r>
       <r>    3.7378    1.0000 </r>
       <r>    3.8230    1.0000 </r>
       <r>    4.9497    1.0000 </r>
       <r>    5.9787    1.0000 </r>
       <r>    6.5900    1.0000 </r>
       <r>    8.8449    0.0000 </r>
       <r>    9.1514    0.0000 </r>
       <r>    9.4768    0.0000 </r>
       <r>   10.6600    0.0000 </r>
      </set>
      <set comment="kpoint 52">
       <r>  -23.5858    1.0000 </r>
       <r>  -23.5762    1.0000 </r>
       <r>  -23.5744    1.0000 </r>
       <r>   -2.9773    1.0000 </r>
       <r>    1.6096    1.0000 </r>
       <r>    2.5681    1.0000 </r>
       <r>    2.8336    1.0000 </r>
       <r>    3.7722    1.0000 </r>
       <r>    3.8681    1.0000 </r>
       <r>    4.4000    1.0000 </r>
       <r>    5.8881    1.0000 </r>
       <r>    6.4169    1.0000 </r>
       <r>    8.8344    0.0000 </r>
       <r>    9.4371    0.0000 </r>
       <r>    9.6830    0.0000 </r>
       <r>   10.6615    0.0000 </r>
      </set>
      <set comment="kpoint 53">
       <r>  -23.5884    1.0000 </r>
       <r>  -23.5763    1.0000 </r>
       <r>  -23.5745    1.0000 </r>
       <r>   -2.6820    1.0000 </r>
       <r>    1.3893    1.0000 </r>
       <r>    2.5510    1.0000 </r>
       <r>    2.7525    1.0000 </r>
       <r>    3.7575    1.0000 </r>
       <r>    3.8742    1.0000 </r>
       <r>    4.0438    1.0000 </r>
       <r>    5.8761    1.0000 </r>
       <r>    6.2908    1.0000 </r>
       <r>    8.8309    0.0000 </r>
       <r>    9.6113    0.0000 </r>
       <r>    9.9062    0.0000 </r>
       <r>   10.2352    0.0000 </r>
      </set>
      <set comment="kpoint 54">
       <r>  -23.5899    1.0000 </r>
       <r>  -23.5763    1.0000 </r>
       <r>  -23.5745    1.0000 </r>
       <r>   -2.4948    1.0000 </r>
       <r>    1.2464    1.0000 </r>
       <r>    2.5611    1.0000 </r>
       <r>    2.6867    1.0000 </r>
       <r>    3.6893    1.0000 </r>
       <r>    3.8550    1.0000 </r>
       <r>    3.9340    1.0000 </r>
       <r>    5.8822    1.0000 </r>
       <r>    6.2317    1.0000 </r>
       <r>    8.9140    0.0000 </r>
       <r>    9.4764    0.0000 </r>
       <r>    9.8332    0.0000 </r>
       <r>   10.3934    0.0000 </r>
      </set>
      <set comment="kpoint 55">
       <r>  -23.5829    1.0000 </r>
       <r>  -23.5762    1.0000 </r>
       <r>  -23.5752    1.0000 </r>
       <r>   -3.2148    1.0000 </r>
       <r>    1.6563    1.0000 </r>
       <r>    2.8315    1.0000 </r>
       <r>    2.9831    1.0000 </r>
       <r>    3.6780    1.0000 </r>
       <r>    3.8412    1.0000 </r>
       <r>    5.0327    1.0000 </r>
       <r>    5.8840    1.0000 </r>
       <r>    6.3050    1.0000 </r>
       <r>    8.5836    1.0000 </r>
       <r>    9.2016    0.0000 </r>
       <r>    9.4211    0.0000 </r>
       <r>   10.8030    0.0000 </r>
      </set>
      <set comment="kpoint 56">
       <r>  -23.5854    1.0000 </r>
       <r>  -23.5769    1.0000 </r>
       <r>  -23.5752    1.0000 </r>
       <r>   -2.9477    1.0000 </r>
       <r>    1.5072    1.0000 </r>
       <r>    2.7433    1.0000 </r>
       <r>    2.9737    1.0000 </r>
       <r>    3.7288    1.0000 </r>
       <r>    3.8870    1.0000 </r>
       <r>    4.5772    1.0000 </r>
       <r>    5.6382    1.0000 </r>
       <r>    6.1935    1.0000 </r>
       <r>    8.7187    0.7271 </r>
       <r>    9.3003    0.0000 </r>
       <r>    9.6806    0.0000 </r>
       <r>   10.7214    0.0000 </r>
      </set>
      <set comment="kpoint 57">
       <r>  -23.5875    1.0000 </r>
       <r>  -23.5775    1.0000 </r>
       <r>  -23.5752    1.0000 </r>
       <r>   -2.6819    1.0000 </r>
       <r>    1.4207    1.0000 </r>
       <r>    2.6355    1.0000 </r>
       <r>    2.9117    1.0000 </r>
       <r>    3.7628    1.0000 </r>
       <r>    3.8901    1.0000 </r>
       <r>    4.1865    1.0000 </r>
       <r>    5.5278    1.0000 </r>
       <r>    6.0995    1.0000 </r>
       <r>    8.7298    0.1682 </r>
       <r>    9.4402    0.0000 </r>
       <r>   10.1255    0.0000 </r>
       <r>   10.2501    0.0000 </r>
      </set>
      <set comment="kpoint 58">
       <r>  -23.5887    1.0000 </r>
       <r>  -23.5781    1.0000 </r>
       <r>  -23.5751    1.0000 </r>
       <r>   -2.4883    1.0000 </r>
       <r>    1.3889    1.0000 </r>
       <r>    2.5409    1.0000 </r>
       <r>    2.8355    1.0000 </r>
       <r>    3.6675    1.0000 </r>
       <r>    3.8912    1.0000 </r>
       <r>    4.0542    1.0000 </r>
       <r>    5.4599    1.0000 </r>
       <r>    6.0658    1.0000 </r>
       <r>    8.7872    0.0000 </r>
       <r>    9.5367    0.0000 </r>
       <r>    9.7917    0.0000 </r>
       <r>   10.5870    0.0000 </r>
      </set>
      <set comment="kpoint 59">
       <r>  -23.5889    1.0000 </r>
       <r>  -23.5785    1.0000 </r>
       <r>  -23.5749    1.0000 </r>
       <r>   -2.4321    1.0000 </r>
       <r>    1.3912    1.0000 </r>
       <r>    2.5123    1.0000 </r>
       <r>    2.7678    1.0000 </r>
       <r>    3.6012    1.0000 </r>
       <r>    3.9118    1.0000 </r>
       <r>    4.0644    1.0000 </r>
       <r>    5.4093    1.0000 </r>
       <r>    6.0823    1.0000 </r>
       <r>    8.9217    0.0000 </r>
       <r>    9.3448    0.0000 </r>
       <r>    9.8611    0.0000 </r>
       <r>   10.6964    0.0000 </r>
      </set>
      <set comment="kpoint 60">
       <r>  -23.5880    1.0000 </r>
       <r>  -23.5786    1.0000 </r>
       <r>  -23.5746    1.0000 </r>
       <r>   -2.5352    1.0000 </r>
       <r>    1.4220    1.0000 </r>
       <r>    2.5441    1.0000 </r>
       <r>    2.7561    1.0000 </r>
       <r>    3.6589    1.0000 </r>
       <r>    3.9335    1.0000 </r>
       <r>    4.1387    1.0000 </r>
       <r>    5.3686    1.0000 </r>
       <r>    6.1507    1.0000 </r>
       <r>    8.9513    0.0000 </r>
       <r>    9.5077    0.0000 </r>
       <r>    9.8232    0.0000 </r>
       <r>   10.6301    0.0000 </r>
      </set>
      <set comment="kpoint 61">
       <r>  -23.5864    1.0000 </r>
       <r>  -23.5782    1.0000 </r>
       <r>  -23.5744    1.0000 </r>
       <r>   -2.7595    1.0000 </r>
       <r>    1.5027    1.0000 </r>
       <r>    2.5520    1.0000 </r>
       <r>    2.8443    1.0000 </r>
       <r>    3.7349    1.0000 </r>
       <r>    3.9266    1.0000 </r>
       <r>    4.3597    1.0000 </r>
       <r>    5.3616    1.0000 </r>
       <r>    6.2828    1.0000 </r>
       <r>    8.9894    0.0000 </r>
       <r>    9.4559    0.0000 </r>
       <r>   10.1139    0.0000 </r>
       <r>   10.4084    0.0000 </r>
      </set>
      <set comment="kpoint 62">
       <r>  -23.5845    1.0000 </r>
       <r>  -23.5773    1.0000 </r>
       <r>  -23.5744    1.0000 </r>
       <r>   -3.0337    1.0000 </r>
       <r>    1.6484    1.0000 </r>
       <r>    2.5675    1.0000 </r>
       <r>    2.9231    1.0000 </r>
       <r>    3.7454    1.0000 </r>
       <r>    3.8873    1.0000 </r>
       <r>    4.6922    1.0000 </r>
       <r>    5.5148    1.0000 </r>
       <r>    6.4563    1.0000 </r>
       <r>    9.0611    0.0000 </r>
       <r>    9.2752    0.0000 </r>
       <r>    9.7179    0.0000 </r>
       <r>   10.5858    0.0000 </r>
      </set>
      <set comment="kpoint 63">
       <r>  -23.5864    1.0000 </r>
       <r>  -23.5768    1.0000 </r>
       <r>  -23.5759    1.0000 </r>
       <r>   -2.8532    1.0000 </r>
       <r>    1.3986    1.0000 </r>
       <r>    2.9392    1.0000 </r>
       <r>    3.1010    1.0000 </r>
       <r>    3.6106    1.0000 </r>
       <r>    3.9657    1.0000 </r>
       <r>    4.5517    1.0000 </r>
       <r>    5.5976    1.0000 </r>
       <r>    5.9417    1.0000 </r>
       <r>    8.4136    1.0000 </r>
       <r>    9.1767    0.0000 </r>
       <r>    9.6164    0.0000 </r>
       <r>   10.7288    0.0000 </r>
      </set>
      <set comment="kpoint 64">
       <r>  -23.5879    1.0000 </r>
       <r>  -23.5778    1.0000 </r>
       <r>  -23.5759    1.0000 </r>
       <r>   -2.6403    1.0000 </r>
       <r>    1.4074    1.0000 </r>
       <r>    2.7929    1.0000 </r>
       <r>    3.0928    1.0000 </r>
       <r>    3.7021    1.0000 </r>
       <r>    3.9500    1.0000 </r>
       <r>    4.2267    1.0000 </r>
       <r>    5.3242    1.0000 </r>
       <r>    5.8966    1.0000 </r>
       <r>    8.5036    1.0000 </r>
       <r>    9.2079    0.0000 </r>
       <r>   10.0953    0.0000 </r>
       <r>   10.2897    0.0000 </r>
      </set>
      <set comment="kpoint 65">
       <r>  -23.5884    1.0000 </r>
       <r>  -23.5791    1.0000 </r>
       <r>  -23.5758    1.0000 </r>
       <r>   -2.4722    1.0000 </r>
       <r>    1.5011    1.0000 </r>
       <r>    2.6172    1.0000 </r>
       <r>    3.0277    1.0000 </r>
       <r>    3.6342    1.0000 </r>
       <r>    3.9269    1.0000 </r>
       <r>    4.1208    1.0000 </r>
       <r>    5.1108    1.0000 </r>
       <r>    5.8920    1.0000 </r>
       <r>    8.5726    1.0000 </r>
       <r>    9.4442    0.0000 </r>
       <r>    9.7863    0.0000 </r>
       <r>   10.5127    0.0000 </r>
      </set>
      <set comment="kpoint 66">
       <r>  -23.5880    1.0000 </r>
       <r>  -23.5804    1.0000 </r>
       <r>  -23.5755    1.0000 </r>
       <r>   -2.3923    1.0000 </r>
       <r>    1.5995    1.0000 </r>
       <r>    2.4748    1.0000 </r>
       <r>    2.9233    1.0000 </r>
       <r>    3.4909    1.0000 </r>
       <r>    3.9889    1.0000 </r>
       <r>    4.1773    1.0000 </r>
       <r>    4.9631    1.0000 </r>
       <r>    5.9214    1.0000 </r>
       <r>    8.7132    0.9172 </r>
       <r>    9.4522    0.0000 </r>
       <r>    9.7718    0.0000 </r>
       <r>   10.4636    0.0000 </r>
      </set>
      <set comment="kpoint 67">
       <r>  -23.5871    1.0000 </r>
       <r>  -23.5810    1.0000 </r>
       <r>  -23.5751    1.0000 </r>
       <r>   -2.4230    1.0000 </r>
       <r>    1.5810    1.0000 </r>
       <r>    2.4743    1.0000 </r>
       <r>    2.8174    1.0000 </r>
       <r>    3.5182    1.0000 </r>
       <r>    4.0041    1.0000 </r>
       <r>    4.2830    1.0000 </r>
       <r>    4.9049    1.0000 </r>
       <r>    5.9905    1.0000 </r>
       <r>    8.9144    0.0000 </r>
       <r>    9.3635    0.0000 </r>
       <r>    9.8037    0.0000 </r>
       <r>   10.4847    0.0000 </r>
      </set>
      <set comment="kpoint 68">
       <r>  -23.5866    1.0000 </r>
       <r>  -23.5802    1.0000 </r>
       <r>  -23.5747    1.0000 </r>
       <r>   -2.5572    1.0000 </r>
       <r>    1.5043    1.0000 </r>
       <r>    2.5443    1.0000 </r>
       <r>    2.7859    1.0000 </r>
       <r>    3.6417    1.0000 </r>
       <r>    3.9769    1.0000 </r>
       <r>    4.3526    1.0000 </r>
       <r>    5.0104    1.0000 </r>
       <r>    6.1164    1.0000 </r>
       <r>    9.0002    0.0000 </r>
       <r>    9.5278    0.0000 </r>
       <r>    9.8022    0.0000 </r>
       <r>   10.4885    0.0000 </r>
      </set>
      <set comment="kpoint 69">
       <r>  -23.5893    1.0000 </r>
       <r>  -23.5774    1.0000 </r>
       <r>  -23.5765    1.0000 </r>
       <r>   -2.5705    1.0000 </r>
       <r>    1.4211    1.0000 </r>
       <r>    2.9631    1.0000 </r>
       <r>    3.2276    1.0000 </r>
       <r>    3.5708    1.0000 </r>
       <r>    3.9721    1.0000 </r>
       <r>    4.1279    1.0000 </r>
       <r>    5.3790    1.0000 </r>
       <r>    5.7288    1.0000 </r>
       <r>    8.2632    1.0000 </r>
       <r>    9.0013    0.0000 </r>
       <r>    9.8728    0.0000 </r>
       <r>   10.3432    0.0000 </r>
      </set>
      <set comment="kpoint 70">
       <r>  -23.5895    1.0000 </r>
       <r>  -23.5786    1.0000 </r>
       <r>  -23.5765    1.0000 </r>
       <r>   -2.4495    1.0000 </r>
       <r>    1.5710    1.0000 </r>
       <r>    2.7783    1.0000 </r>
       <r>    3.2039    1.0000 </r>
       <r>    3.5733    1.0000 </r>
       <r>    3.8296    1.0000 </r>
       <r>    4.1293    1.0000 </r>
       <r>    5.0637    1.0000 </r>
       <r>    5.7537    1.0000 </r>
       <r>    8.3518    1.0000 </r>
       <r>    9.1193    0.0000 </r>
       <r>    9.9220    0.0000 </r>
       <r>   10.3519    0.0000 </r>
      </set>
      <set comment="kpoint 71">
       <r>  -23.5887    1.0000 </r>
       <r>  -23.5803    1.0000 </r>
       <r>  -23.5762    1.0000 </r>
       <r>   -2.3779    1.0000 </r>
       <r>    1.7383    1.0000 </r>
       <r>    2.5669    1.0000 </r>
       <r>    3.1043    1.0000 </r>
       <r>    3.3779    1.0000 </r>
       <r>    4.0413    1.0000 </r>
       <r>    4.1330    1.0000 </r>
       <r>    4.7867    1.0000 </r>
       <r>    5.7968    1.0000 </r>
       <r>    8.4775    1.0000 </r>
       <r>    9.4395    0.0000 </r>
       <r>    9.6905    0.0000 </r>
       <r>   10.1753    0.0000 </r>
      </set>
      <set comment="kpoint 72">
       <r>  -23.5873    1.0000 </r>
       <r>  -23.5817    1.0000 </r>
       <r>  -23.5756    1.0000 </r>
       <r>   -2.3681    1.0000 </r>
       <r>    1.7603    1.0000 </r>
       <r>    2.4252    1.0000 </r>
       <r>    2.9552    1.0000 </r>
       <r>    3.3839    1.0000 </r>
       <r>    4.0638    1.0000 </r>
       <r>    4.3228    1.0000 </r>
       <r>    4.6432    1.0000 </r>
       <r>    5.8689    1.0000 </r>
       <r>    8.6838    1.0000 </r>
       <r>    9.4168    0.0000 </r>
       <r>    9.8385    0.0000 </r>
       <r>   10.2214    0.0000 </r>
      </set>
      <set comment="kpoint 73">
       <r>  -23.5910    1.0000 </r>
       <r>  -23.5777    1.0000 </r>
       <r>  -23.5769    1.0000 </r>
       <r>   -2.4294    1.0000 </r>
       <r>    1.6240    1.0000 </r>
       <r>    2.9693    1.0000 </r>
       <r>    3.2806    1.0000 </r>
       <r>    3.4869    1.0000 </r>
       <r>    3.5983    1.0000 </r>
       <r>    4.1947    1.0000 </r>
       <r>    5.2495    1.0000 </r>
       <r>    5.6492    1.0000 </r>
       <r>    8.1805    1.0000 </r>
       <r>    8.8923    0.0000 </r>
       <r>    9.8718    0.0000 </r>
       <r>   10.1970    0.0000 </r>
      </set>
      <set comment="kpoint 74">
       <r>  -23.5902    1.0000 </r>
       <r>  -23.5789    1.0000 </r>
       <r>  -23.5767    1.0000 </r>
       <r>   -2.3899    1.0000 </r>
       <r>    1.7298    1.0000 </r>
       <r>    2.7770    1.0000 </r>
       <r>    3.2164    1.0000 </r>
       <r>    3.3789    1.0000 </r>
       <r>    3.8078    1.0000 </r>
       <r>    4.1633    1.0000 </r>
       <r>    4.9590    1.0000 </r>
       <r>    5.7158    1.0000 </r>
       <r>    8.2991    1.0000 </r>
       <r>    9.0791    0.0000 </r>
       <r>    9.9068    0.0000 </r>
       <r>   10.1156    0.0000 </r>
      </set>
      <set comment="kpoint 75">
       <r>  -23.5866    1.0000 </r>
       <r>  -23.5783    1.0000 </r>
       <r>  -23.5752    1.0000 </r>
       <r>   -2.7207    1.0000 </r>
       <r>    1.4488    1.0000 </r>
       <r>    2.6684    1.0000 </r>
       <r>    2.9795    1.0000 </r>
       <r>    3.7550    1.0000 </r>
       <r>    3.8963    1.0000 </r>
       <r>    4.3956    1.0000 </r>
       <r>    5.2465    1.0000 </r>
       <r>    6.1023    1.0000 </r>
       <r>    8.8304    0.0000 </r>
       <r>    9.2440    0.0000 </r>
       <r>   10.1541    0.0000 </r>
       <r>   10.3501    0.0000 </r>
      </set>
      <set comment="kpoint 76">
       <r>  -23.5874    1.0000 </r>
       <r>  -23.5795    1.0000 </r>
       <r>  -23.5753    1.0000 </r>
       <r>   -2.5236    1.0000 </r>
       <r>    1.4861    1.0000 </r>
       <r>    2.5591    1.0000 </r>
       <r>    2.9553    1.0000 </r>
       <r>    3.6826    1.0000 </r>
       <r>    3.9041    1.0000 </r>
       <r>    4.2422    1.0000 </r>
       <r>    5.0490    1.0000 </r>
       <r>    6.0168    1.0000 </r>
       <r>    8.8701    0.0000 </r>
       <r>    9.3542    0.0000 </r>
       <r>    9.7712    0.0000 </r>
       <r>   10.5815    0.0000 </r>
      </set>
      <set comment="kpoint 77">
       <r>  -23.5878    1.0000 </r>
       <r>  -23.5802    1.0000 </r>
       <r>  -23.5755    1.0000 </r>
       <r>   -2.4090    1.0000 </r>
       <r>    1.5649    1.0000 </r>
       <r>    2.4488    1.0000 </r>
       <r>    2.9466    1.0000 </r>
       <r>    3.5499    1.0000 </r>
       <r>    3.9226    1.0000 </r>
       <r>    4.1903    1.0000 </r>
       <r>    4.9671    1.0000 </r>
       <r>    5.9803    1.0000 </r>
       <r>    8.9387    0.0000 </r>
       <r>    9.2748    0.0000 </r>
       <r>    9.6871    0.0000 </r>
       <r>   10.5106    0.0000 </r>
      </set>
      <set comment="kpoint 78">
       <r>  -23.5882    1.0000 </r>
       <r>  -23.5792    1.0000 </r>
       <r>  -23.5761    1.0000 </r>
[...]
       <r>    9.1688    0.0000 </r>
       <r>    9.8240    0.0000 </r>
       <r>   10.4474    0.0000 </r>
      </set>
      <set comment="kpoint 79">
       <r>  -23.5879    1.0000 </r>
       <r>  -23.5806    1.0000 </r>
       <r>  -23.5762    1.0000 </r>
       <r>   -2.3922    1.0000 </r>
       <r>    1.6968    1.0000 </r>
       <r>    2.4846    1.0000 </r>
       <r>    3.1461    1.0000 </r>
       <r>    3.5332    1.0000 </r>
       <r>    3.9071    1.0000 </r>
       <r>    4.1829    1.0000 </r>
       <r>    4.6736    1.0000 </r>
       <r>    5.9022    1.0000 </r>
       <r>    8.7472    0.0003 </r>
       <r>    9.3276    0.0000 </r>
       <r>    9.4813    0.0000 </r>
       <r>   10.2451    0.0000 </r>
      </set>
      <set comment="kpoint 80">
       <r>  -23.5872    1.0000 </r>
       <r>  -23.5816    1.0000 </r>
       <r>  -23.5761    1.0000 </r>
       <r>   -2.3631    1.0000 </r>
       <r>    1.7901    1.0000 </r>
       <r>    2.3728    1.0000 </r>
       <r>    3.1035    1.0000 </r>
       <r>    3.4359    1.0000 </r>
       <r>    3.9814    1.0000 </r>
       <r>    4.2717    1.0000 </r>
       <r>    4.5175    1.0000 </r>
       <r>    5.9221    1.0000 </r>
       <r>    8.9157    0.0000 </r>
       <r>    9.2409    0.0000 </r>
       <r>    9.5306    0.0000 </r>
       <r>   10.1212    0.0000 </r>
      </set>
      <set comment="kpoint 81">
       <r>  -23.5870    1.0000 </r>
       <r>  -23.5812    1.0000 </r>
       <r>  -23.5757    1.0000 </r>
       <r>   -2.4094    1.0000 </r>
       <r>    1.6552    1.0000 </r>
       <r>    2.4394    1.0000 </r>
       <r>    3.0261    1.0000 </r>
       <r>    3.5262    1.0000 </r>
       <r>    3.9569    1.0000 </r>
       <r>    4.3098    1.0000 </r>
       <r>    4.6575    1.0000 </r>
       <r>    5.9524    1.0000 </r>
       <r>    9.0008    0.0000 </r>
       <r>    9.2640    0.0000 </r>
       <r>    9.4915    0.0000 </r>
       <r>   10.4135    0.0000 </r>
      </set>
      <set comment="kpoint 82">
       <r>  -23.5891    1.0000 </r>
       <r>  -23.5796    1.0000 </r>
       <r>  -23.5767    1.0000 </r>
       <r>   -2.3843    1.0000 </r>
       <r>    1.7465    1.0000 </r>
       <r>    2.6201    1.0000 </r>
       <r>    3.2193    1.0000 </r>
       <r>    3.5618    1.0000 </r>
       <r>    3.7795    1.0000 </r>
       <r>    4.1227    1.0000 </r>
       <r>    4.7297    1.0000 </r>
       <r>    5.8291    1.0000 </r>
       <r>    8.5053    1.0000 </r>
       <r>    9.0803    0.0000 </r>
       <r>    9.7521    0.0000 </r>
       <r>   10.1019    0.0000 </r>
      </set>
      <set comment="kpoint 83">
       <r>  -23.5880    1.0000 </r>
       <r>  -23.5810    1.0000 </r>
       <r>  -23.5766    1.0000 </r>
       <r>   -2.3547    1.0000 </r>
       <r>    1.8679    1.0000 </r>
       <r>    2.4462    1.0000 </r>
       <r>    3.1820    1.0000 </r>
       <r>    3.4621    1.0000 </r>
       <r>    3.9996    1.0000 </r>
       <r>    4.0740    1.0000 </r>
       <r>    4.5000    1.0000 </r>
       <r>    5.8841    1.0000 </r>
       <r>    8.6969    0.9999 </r>
       <r>    9.2363    0.0000 </r>
       <r>    9.5593    0.0000 </r>
       <r>    9.9445    0.0000 </r>
      </set>
      <set comment="kpoint 84">
       <r>  -23.5872    1.0000 </r>
       <r>  -23.5816    1.0000 </r>
       <r>  -23.5766    1.0000 </r>
       <r>   -2.3502    1.0000 </r>
       <r>    1.9008    1.0000 </r>
       <r>    2.3621    1.0000 </r>
       <r>    3.1828    1.0000 </r>
       <r>    3.5508    1.0000 </r>
       <r>    3.9320    1.0000 </r>
       <r>    4.1143    1.0000 </r>
       <r>    4.3844    1.0000 </r>
       <r>    5.9286    1.0000 </r>
       <r>    8.9924    0.0000 </r>
       <r>    9.2122    0.0000 </r>
       <r>    9.2868    0.0000 </r>
       <r>    9.9396    0.0000 </r>
      </set>
     </set>
    </set>
   </array>
  </eigenvalues>
  <separator name="orbital magnetization" >
   <v name="MAGDIPOLOUT">      0.00000000      0.00000000      0.00000000</v>
  </separator>
  <dos>
   <i name="efermi">      8.72296237 </i>
   <total>
    <array>
     <dimension dim="1">gridpoints</dimension>
     <dimension dim="2">spin</dimension>
     <field>energy</field>
     <field>total</field>
     <field>integrated</field>
     <set>
      <set comment="spin 1">
       <r>   -25.3394     0.0000     0.0000 </r>
       <r>   -25.2112     0.0000     0.0000 </r>
       <r>   -25.0830     0.0000     0.0000 </r>
       <r>   -24.9549     0.0000     0.0000 </r>
       <r>   -24.8267     0.0000     0.0000 </r>
       <r>   -24.6985     0.0000     0.0000 </r>
       <r>   -24.5704     0.0000     0.0000 </r>
       <r>   -24.4422     0.0000     0.0000 </r>
       <r>   -24.3141     0.0000     0.0000 </r>
       <r>   -24.1859     0.0000     0.0000 </r>
       <r>   -24.0577     0.0000     0.0000 </r>
       <r>   -23.9296     0.0000     0.0000 </r>
       <r>   -23.8014     0.0000     0.0000 </r>
       <r>   -23.6732     0.0000     0.0000 </r>
       <r>   -23.5451    46.8150     6.0000 </r>
       <r>   -23.4169     0.0000     6.0000 </r>
       <r>   -23.2887     0.0000     6.0000 </r>
       <r>   -23.1606     0.0000     6.0000 </r>
       <r>   -23.0324     0.0000     6.0000 </r>
       <r>   -22.9043     0.0000     6.0000 </r>
       <r>   -22.7761     0.0000     6.0000 </r>
       <r>   -22.6479     0.0000     6.0000 </r>
       <r>   -22.5198     0.0000     6.0000 </r>
       <r>   -22.3916     0.0000     6.0000 </r>
       <r>   -22.2634     0.0000     6.0000 </r>
       <r>   -22.1353     0.0000     6.0000 </r>
       <r>   -22.0071     0.0000     6.0000 </r>
       <r>   -21.8789     0.0000     6.0000 </r>
       <r>   -21.7508     0.0000     6.0000 </r>
       <r>   -21.6226     0.0000     6.0000 </r>
       <r>   -21.4945     0.0000     6.0000 </r>
       <r>   -21.3663     0.0000     6.0000 </r>
       <r>   -21.2381     0.0000     6.0000 </r>
       <r>   -21.1100     0.0000     6.0000 </r>
       <r>   -20.9818     0.0000     6.0000 </r>
       <r>   -20.8536     0.0000     6.0000 </r>
       <r>   -20.7255     0.0000     6.0000 </r>
       <r>   -20.5973     0.0000     6.0000 </r>
       <r>   -20.4692     0.0000     6.0000 </r>
       <r>   -20.3410     0.0000     6.0000 </r>
       <r>   -20.2128     0.0000     6.0000 </r>
       <r>   -20.0847     0.0000     6.0000 </r>
       <r>   -19.9565     0.0000     6.0000 </r>
       <r>   -19.8283     0.0000     6.0000 </r>
       <r>   -19.7002     0.0000     6.0000 </r>
       <r>   -19.5720     0.0000     6.0000 </r>
       <r>   -19.4438     0.0000     6.0000 </r>
       <r>   -19.3157     0.0000     6.0000 </r>
       <r>   -19.1875     0.0000     6.0000 </r>
       <r>   -19.0594     0.0000     6.0000 </r>
       <r>   -18.9312     0.0000     6.0000 </r>
       <r>   -18.8030     0.0000     6.0000 </r>
       <r>   -18.6749     0.0000     6.0000 </r>
       <r>   -18.5467     0.0000     6.0000 </r>
       <r>   -18.4185     0.0000     6.0000 </r>
       <r>   -18.2904     0.0000     6.0000 </r>
       <r>   -18.1622     0.0000     6.0000 </r>
       <r>   -18.0340     0.0000     6.0000 </r>
       <r>   -17.9059     0.0000     6.0000 </r>
       <r>   -17.7777     0.0000     6.0000 </r>
       <r>   -17.6496     0.0000     6.0000 </r>
       <r>   -17.5214     0.0000     6.0000 </r>
       <r>   -17.3932     0.0000     6.0000 </r>
       <r>   -17.2651     0.0000     6.0000 </r>
       <r>   -17.1369     0.0000     6.0000 </r>
       <r>   -17.0087     0.0000     6.0000 </r>
       <r>   -16.8806     0.0000     6.0000 </r>
       <r>   -16.7524     0.0000     6.0000 </r>
       <r>   -16.6242     0.0000     6.0000 </r>
       <r>   -16.4961     0.0000     6.0000 </r>
       <r>   -16.3679     0.0000     6.0000 </r>
       <r>   -16.2398     0.0000     6.0000 </r>
       <r>   -16.1116     0.0000     6.0000 </r>
       <r>   -15.9834     0.0000     6.0000 </r>
       <r>   -15.8553     0.0000     6.0000 </r>
       <r>   -15.7271     0.0000     6.0000 </r>
       <r>   -15.5989     0.0000     6.0000 </r>
       <r>   -15.4708     0.0000     6.0000 </r>
       <r>   -15.3426     0.0000     6.0000 </r>
       <r>   -15.2144     0.0000     6.0000 </r>
       <r>   -15.0863     0.0000     6.0000 </r>
       <r>   -14.9581     0.0000     6.0000 </r>
       <r>   -14.8300     0.0000     6.0000 </r>
       <r>   -14.7018     0.0000     6.0000 </r>
       <r>   -14.5736     0.0000     6.0000 </r>
       <r>   -14.4455     0.0000     6.0000 </r>
       <r>   -14.3173     0.0000     6.0000 </r>
       <r>   -14.1891     0.0000     6.0000 </r>
       <r>   -14.0610     0.0000     6.0000 </r>
       <r>   -13.9328     0.0000     6.0000 </r>
       <r>   -13.8047     0.0000     6.0000 </r>
       <r>   -13.6765     0.0000     6.0000 </r>
       <r>   -13.5483     0.0000     6.0000 </r>
       <r>   -13.4202     0.0000     6.0000 </r>
       <r>   -13.2920     0.0000     6.0000 </r>
       <r>   -13.1638     0.0000     6.0000 </r>
       <r>   -13.0357     0.0000     6.0000 </r>
       <r>   -12.9075     0.0000     6.0000 </r>
       <r>   -12.7793     0.0000     6.0000 </r>
       <r>   -12.6512     0.0000     6.0000 </r>
       <r>   -12.5230     0.0000     6.0000 </r>
       <r>   -12.3949     0.0000     6.0000 </r>
       <r>   -12.2667     0.0000     6.0000 </r>
       <r>   -12.1385     0.0000     6.0000 </r>
       <r>   -12.0104     0.0000     6.0000 </r>
       <r>   -11.8822     0.0000     6.0000 </r>
       <r>   -11.7540     0.0000     6.0000 </r>
       <r>   -11.6259     0.0000     6.0000 </r>
       <r>   -11.4977     0.0000     6.0000 </r>
       <r>   -11.3695     0.0000     6.0000 </r>
       <r>   -11.2414     0.0000     6.0000 </r>
       <r>   -11.1132     0.0000     6.0000 </r>
       <r>   -10.9851     0.0000     6.0000 </r>
       <r>   -10.8569     0.0000     6.0000 </r>
       <r>   -10.7287     0.0000     6.0000 </r>
       <r>   -10.6006     0.0000     6.0000 </r>
       <r>   -10.4724     0.0000     6.0000 </r>
       <r>   -10.3442     0.0000     6.0000 </r>
       <r>   -10.2161     0.0000     6.0000 </r>
       <r>   -10.0879     0.0000     6.0000 </r>
       <r>    -9.9597     0.0000     6.0000 </r>
       <r>    -9.8316     0.0000     6.0000 </r>
       <r>    -9.7034     0.0000     6.0000 </r>
       <r>    -9.5753     0.0000     6.0000 </r>
       <r>    -9.4471     0.0000     6.0000 </r>
       <r>    -9.3189     0.0000     6.0000 </r>
       <r>    -9.1908     0.0000     6.0000 </r>
       <r>    -9.0626     0.0000     6.0000 </r>
       <r>    -8.9344     0.0000     6.0000 </r>
       <r>    -8.8063     0.0000     6.0000 </r>
       <r>    -8.6781     0.0000     6.0000 </r>
       <r>    -8.5499     0.0000     6.0000 </r>
       <r>    -8.4218     0.0000     6.0000 </r>
       <r>    -8.2936     0.0000     6.0000 </r>
       <r>    -8.1655     0.0000     6.0000 </r>
       <r>    -8.0373     0.0000     6.0000 </r>
       <r>    -7.9091     0.0000     6.0000 </r>
       <r>    -7.7810     0.0000     6.0000 </r>
       <r>    -7.6528     0.0000     6.0000 </r>
       <r>    -7.5246     0.0000     6.0000 </r>
       <r>    -7.3965     0.0000     6.0000 </r>
       <r>    -7.2683     0.0000     6.0000 </r>
       <r>    -7.1401     0.0000     6.0000 </r>
       <r>    -7.0120     0.0000     6.0000 </r>
       <r>    -6.8838     0.0000     6.0000 </r>
       <r>    -6.7557     0.0000     6.0000 </r>
       <r>    -6.6275     0.0000     6.0000 </r>
       <r>    -6.4993     0.0000     6.0000 </r>
       <r>    -6.3712     0.0000     6.0000 </r>
       <r>    -6.2430     0.0000     6.0000 </r>
       <r>    -6.1148     0.0000     6.0000 </r>
       <r>    -5.9867     0.0000     6.0000 </r>
       <r>    -5.8585     0.0000     6.0000 </r>
       <r>    -5.7304     0.0000     6.0000 </r>
       <r>    -5.6022     0.0000     6.0000 </r>
       <r>    -5.4740     0.0000     6.0000 </r>
       <r>    -5.3459     0.0000     6.0000 </r>
       <r>    -5.2177     0.0000     6.0000 </r>
       <r>    -5.0895     0.0000     6.0000 </r>
       <r>    -4.9614     0.0000     6.0000 </r>
       <r>    -4.8332     0.0000     6.0000 </r>
       <r>    -4.7050     0.0000     6.0000 </r>
       <r>    -4.5769     0.0000     6.0000 </r>
       <r>    -4.4487     0.0000     6.0000 </r>
       <r>    -4.3206     0.0000     6.0000 </r>
       <r>    -4.1924     0.0000     6.0000 </r>
       <r>    -4.0642     0.0000     6.0000 </r>
       <r>    -3.9361     0.0070     6.0009 </r>
       <r>    -3.8079     0.0995     6.0137 </r>
       <r>    -3.6797     0.2273     6.0537 </r>
       <r>    -3.5516     0.3082     6.0932 </r>
       <r>    -3.4234     0.3267     6.1447 </r>
       <r>    -3.2952     0.1596     6.1743 </r>
       <r>    -3.1671     0.1984     6.2612 </r>
       <r>    -3.0389     0.3994     6.3525 </r>
       <r>    -2.9108     0.8585     6.4842 </r>
       <r>    -2.7826     0.7483     6.5847 </r>
       <r>    -2.6544     1.0347     6.7926 </r>
       <r>    -2.5263     1.7682     7.0832 </r>
       <r>    -2.3981     3.2427     7.7001 </r>
       <r>    -2.2699     0.0000     8.0000 </r>
       <r>    -2.1418     0.0000     8.0000 </r>
       <r>    -2.0136     0.0000     8.0000 </r>
       <r>    -1.8854     0.0000     8.0000 </r>
       <r>    -1.7573     0.0000     8.0000 </r>
       <r>    -1.6291     0.0000     8.0000 </r>
       <r>    -1.5010     0.0000     8.0000 </r>
       <r>    -1.3728     0.0000     8.0000 </r>
       <r>    -1.2446     0.0000     8.0000 </r>
       <r>    -1.1165     0.0000     8.0000 </r>
       <r>    -0.9883     0.0000     8.0000 </r>
       <r>    -0.8601     0.0000     8.0000 </r>
       <r>    -0.7320     0.0000     8.0000 </r>
       <r>    -0.6038     0.0000     8.0000 </r>
       <r>    -0.4756     0.0000     8.0000 </r>
       <r>    -0.3475     0.0000     8.0000 </r>
       <r>    -0.2193     0.0000     8.0000 </r>
       <r>    -0.0912     0.0000     8.0000 </r>
       <r>     0.0370     0.0000     8.0000 </r>
       <r>     0.1652     0.0000     8.0000 </r>
       <r>     0.2933     0.0000     8.0000 </r>
       <r>     0.4215     0.0000     8.0000 </r>
       <r>     0.5497     0.0000     8.0000 </r>
       <r>     0.6778     0.0000     8.0000 </r>
       <r>     0.8060     0.0000     8.0000 </r>
       <r>     0.9341     0.0000     8.0000 </r>
       <r>     1.0623     0.0000     8.0000 </r>
       <r>     1.1905     0.2273     8.0291 </r>
       <r>     1.3186     0.7658     8.1491 </r>
       <r>     1.4468     3.1408     8.6065 </r>
       <r>     1.5750     2.2554     9.1011 </r>
       <r>     1.7031     1.6310     9.5072 </r>
       <r>     1.8313     0.7677     9.7261 </r>
       <r>     1.9595     0.3428     9.8573 </r>
       <r>     2.0876     0.1433     9.8864 </r>
       <r>     2.2158     0.0000     9.9244 </r>
       <r>     2.3439     0.1568     9.9664 </r>
       <r>     2.4721     1.1869    10.1858 </r>
       <r>     2.6003     5.5265    11.1316 </r>
       <r>     2.7284     3.0243    11.8032 </r>
       <r>     2.8566     4.0743    12.6214 </r>
       <r>     2.9848     3.1191    13.2418 </r>
       <r>     3.1129     1.7121    13.6186 </r>
       <r>     3.2411     1.5302    13.9230 </r>
       <r>     3.3693     0.4875    14.0461 </r>
       <r>     3.4974     1.3929    14.3424 </r>
       <r>     3.6256     2.7985    14.8503 </r>
       <r>     3.7537     5.5161    15.8267 </r>
       <r>     3.8819     5.4006    16.8697 </r>
       <r>     4.0101     4.6979    18.0195 </r>
       <r>     4.1382     3.1282    18.6667 </r>
       <r>     4.2664     2.4197    19.2150 </r>
       <r>     4.3946     1.2926    19.5239 </r>
       <r>     4.5227     0.5972    19.6496 </r>
       <r>     4.6509     0.6884    19.7815 </r>
       <r>     4.7791     0.5593    19.9451 </r>
       <r>     4.9072     0.7306    20.0763 </r>
       <r>     5.0354     1.3170    20.3117 </r>
       <r>     5.1635     0.6800    20.5250 </r>
       <r>     5.2917     0.6393    20.6290 </r>
       <r>     5.4199     1.5897    20.9202 </r>
       <r>     5.5480     0.7071    21.1020 </r>
       <r>     5.6762     1.7748    21.3481 </r>
       <r>     5.8044     1.4864    21.6024 </r>
       <r>     5.9325     4.1265    22.2030 </r>
       <r>     6.0607     1.1876    22.5746 </r>
       <r>     6.1889     2.0235    22.9876 </r>
       <r>     6.3170     1.6652    23.3459 </r>
       <r>     6.4452     1.4275    23.6104 </r>
       <r>     6.5733     0.8107    23.7352 </r>
       <r>     6.7015     0.3711    23.8482 </r>
       <r>     6.8297     0.2557    23.9244 </r>
       <r>     6.9578     0.2557    23.9718 </r>
       <r>     7.0860     0.1993    23.9973 </r>
       <r>     7.2142     0.0000    24.0000 </r>
       <r>     7.3423     0.0000    24.0000 </r>
       <r>     7.4705     0.0000    24.0000 </r>
       <r>     7.5986     0.0000    24.0000 </r>
       <r>     7.7268     0.0000    24.0009 </r>
       <r>     7.8550     0.0000    24.0009 </r>
       <r>     7.9831     0.0323    24.0123 </r>
       <r>     8.1113     0.0967    24.0261 </r>
       <r>     8.2395     0.6717    24.1616 </r>
       <r>     8.3676     0.8590    24.3113 </r>
       <r>     8.4958     1.0670    24.4872 </r>
       <r>     8.6240     1.0609    24.7341 </r>
       <r>     8.7521     2.3872    25.1225 </r>
       <r>     8.8803     2.3929    25.4856 </r>
       <r>     9.0084     2.2265    26.0232 </r>
       <r>     9.1366     1.6639    26.2788 </r>
       <r>     9.2648     1.8830    26.6674 </r>
       <r>     9.3929     2.1434    27.1486 </r>
       <r>     9.5211     4.6810    28.0201 </r>
       <r>     9.6493     1.7685    28.4588 </r>
       <r>     9.7774     1.9911    29.0344 </r>
       <r>     9.9056     2.1574    29.6730 </r>
       <r>    10.0338     0.5383    29.8933 </r>
       <r>    10.1619     2.2434    30.2211 </r>
       <r>    10.2901     1.8556    30.5610 </r>
       <r>    10.4182     2.5694    30.9638 </r>
       <r>    10.5464     1.8867    31.3515 </r>
       <r>    10.6746     1.1761    31.7028 </r>
       <r>    10.8027     0.4237    31.8540 </r>
       <r>    10.9309     0.7796    31.9707 </r>
       <r>    11.0591     0.1705    31.9927 </r>
       <r>    11.1872     0.0000    31.9927 </r>
       <r>    11.3154     0.0000    31.9927 </r>
       <r>    11.4436     0.0000    32.0000 </r>
       <r>    11.5717     0.0000    32.0000 </r>
       <r>    11.6999     0.0000    32.0000 </r>
       <r>    11.8280     0.0000    32.0000 </r>
       <r>    11.9562     0.0000    32.0000 </r>
       <r>    12.0844     0.0000    32.0000 </r>
       <r>    12.2125     0.0000    32.0000 </r>
       <r>    12.3407     0.0000    32.0000 </r>
       <r>    12.4689     0.0000    32.0000 </r>
       <r>    12.5970     0.0000    32.0000 </r>
       <r>    12.7252     0.0000    32.0000 </r>
       <r>    12.8534     0.0000    32.0000 </r>
       <r>    12.9815     0.0000    32.0000 </r>
       <r>    13.1097     0.0000    32.0000 </r>
      </set>
     </set>
    </array>
   </total>
  </dos>
 </calculation>
 <structure name="finalpos" >
  <crystal>
   <varray name="basis" >
    <v>       0.00000000       3.19933285       3.19933285 </v>
    <v>       3.19933285       0.00000000       3.19933285 </v>
    <v>       3.19933285       3.19933285       0.00000000 </v>
   </varray>
   <i name="volume">     65.49501896 </i>
   <varray name="rec_basis" >
    <v>      -0.15628258       0.15628258       0.15628258 </v>
    <v>       0.15628258      -0.15628258       0.15628258 </v>
    <v>       0.15628258       0.15628258      -0.15628258 </v>
   </varray>
  </crystal>
  <varray name="positions" >
   <v>       0.75000000       0.75000000       0.75000000 </v>
   <v>       0.25000000       0.25000000       0.25000000 </v>
   <v>       0.00000000       0.00000000       0.00000000 </v>
  </varray>
 </structure>
</modeling>
