   3   3   0   0
  0.2434427E+02  0.4691852E-09  0.4691852E-09  0.4691852E-09  0.1000000E-15
  1.000000000000000E-004
  CAR
 unknown system
     13.03869109    -36.27261852  301     10.08970847      1.00000000
    -36.273  0.0000E+00  0.0000E+00
    -36.108  0.0000E+00  0.0000E+00
    -35.944  0.0000E+00  0.0000E+00
    -35.780  0.0000E+00  0.0000E+00
    -35.615  0.0000E+00  0.0000E+00
    -35.451  0.0000E+00  0.0000E+00
    -35.286  0.0000E+00  0.0000E+00
    -35.122  0.0000E+00  0.0000E+00
    -34.958  0.0000E+00  0.0000E+00
    -34.793  0.0000E+00  0.0000E+00
    -34.629  0.0000E+00  0.0000E+00
    -34.465  0.0000E+00  0.0000E+00
    -34.300  0.0000E+00  0.0000E+00
    -34.136  0.0000E+00  0.0000E+00
    -33.971  0.2028E+00  0.3333E-01
    -33.807  0.0000E+00  0.3333E-01
    -33.643  0.0000E+00  0.3333E-01
    -33.478  0.0000E+00  0.3333E-01
    -33.314  0.0000E+00  0.3333E-01
    -33.150  0.0000E+00  0.3333E-01
    -32.985  0.0000E+00  0.3333E-01
    -32.821  0.0000E+00  0.3333E-01
    -32.656  0.0000E+00  0.3333E-01
    -32.492  0.0000E+00  0.3333E-01
    -32.328  0.0000E+00  0.3333E-01
    -32.163  0.0000E+00  0.3333E-01
    -31.999  0.0000E+00  0.3333E-01
    -31.835  0.0000E+00  0.3333E-01
    -31.670  0.0000E+00  0.3333E-01
    -31.506  0.0000E+00  0.3333E-01
    -31.341  0.0000E+00  0.3333E-01
    -31.177  0.0000E+00  0.3333E-01
    -31.013  0.0000E+00  0.3333E-01
    -30.848  0.0000E+00  0.3333E-01
    -30.684  0.0000E+00  0.3333E-01
    -30.520  0.0000E+00  0.3333E-01
    -30.355  0.0000E+00  0.3333E-01
    -30.191  0.0000E+00  0.3333E-01
    -30.027  0.0000E+00  0.3333E-01
    -29.862  0.0000E+00  0.3333E-01
    -29.698  0.0000E+00  0.3333E-01
    -29.533  0.0000E+00  0.3333E-01
    -29.369  0.0000E+00  0.3333E-01
    -29.205  0.0000E+00  0.3333E-01
    -29.040  0.0000E+00  0.3333E-01
    -28.876  0.0000E+00  0.3333E-01
    -28.712  0.0000E+00  0.3333E-01
    -28.547  0.0000E+00  0.3333E-01
    -28.383  0.0000E+00  0.3333E-01
    -28.218  0.0000E+00  0.3333E-01
    -28.054  0.0000E+00  0.3333E-01
    -27.890  0.0000E+00  0.3333E-01
    -27.725  0.0000E+00  0.3333E-01
    -27.561  0.0000E+00  0.3333E-01
    -27.397  0.0000E+00  0.3333E-01
    -27.232  0.0000E+00  0.3333E-01
    -27.068  0.0000E+00  0.3333E-01
    -26.903  0.0000E+00  0.3333E-01
    -26.739  0.0000E+00  0.3333E-01
    -26.575  0.0000E+00  0.3333E-01
    -26.410  0.0000E+00  0.3333E-01
    -26.246  0.0000E+00  0.3333E-01
    -26.082  0.0000E+00  0.3333E-01
    -25.917  0.0000E+00  0.3333E-01
    -25.753  0.0000E+00  0.3333E-01
    -25.589  0.0000E+00  0.3333E-01
    -25.424  0.0000E+00  0.3333E-01
    -25.260  0.0000E+00  0.3333E-01
    -25.095  0.0000E+00  0.3333E-01
    -24.931  0.0000E+00  0.3333E-01
    -24.767  0.0000E+00  0.3333E-01
    -24.602  0.0000E+00  0.3333E-01
    -24.438  0.0000E+00  0.3333E-01
    -24.274  0.0000E+00  0.3333E-01
    -24.109  0.0000E+00  0.3333E-01
    -23.945  0.0000E+00  0.3333E-01
    -23.780  0.0000E+00  0.3333E-01
    -23.616  0.0000E+00  0.3333E-01
    -23.452  0.0000E+00  0.3333E-01
    -23.287  0.0000E+00  0.3333E-01
    -23.123  0.0000E+00  0.3333E-01
    -22.959  0.0000E+00  0.3333E-01
    -22.794  0.0000E+00  0.3333E-01
    -22.630  0.0000E+00  0.3333E-01
    -22.465  0.0000E+00  0.3333E-01
    -22.301  0.0000E+00  0.3333E-01
    -22.137  0.0000E+00  0.3333E-01
    -21.972  0.0000E+00  0.3333E-01
    -21.808  0.0000E+00  0.3333E-01
    -21.644  0.0000E+00  0.3333E-01
    -21.479  0.0000E+00  0.3333E-01
    -21.315  0.0000E+00  0.3333E-01
    -21.150  0.0000E+00  0.3333E-01
    -20.986  0.0000E+00  0.3333E-01
    -20.822  0.0000E+00  0.3333E-01
    -20.657  0.0000E+00  0.3333E-01
    -20.493  0.0000E+00  0.3333E-01
    -20.329  0.0000E+00  0.3333E-01
    -20.164  0.0000E+00  0.3333E-01
    -20.000  0.0000E+00  0.3333E-01
    -19.836  0.0000E+00  0.3333E-01
    -19.671  0.0000E+00  0.3333E-01
    -19.507  0.0000E+00  0.3333E-01
    -19.342  0.0000E+00  0.3333E-01
    -19.178  0.0000E+00  0.3333E-01
    -19.014  0.0000E+00  0.3333E-01
    -18.849  0.0000E+00  0.3333E-01
    -18.685  0.0000E+00  0.3333E-01
    -18.521  0.0000E+00  0.3333E-01
    -18.356  0.0000E+00  0.3333E-01
    -18.192  0.0000E+00  0.3333E-01
    -18.027  0.0000E+00  0.3333E-01
    -17.863  0.0000E+00  0.3333E-01
    -17.699  0.0000E+00  0.3333E-01
    -17.534  0.0000E+00  0.3333E-01
    -17.370  0.0000E+00  0.3333E-01
    -17.206  0.0000E+00  0.3333E-01
    -17.041  0.0000E+00  0.3333E-01
    -16.877  0.0000E+00  0.3333E-01
    -16.712  0.0000E+00  0.3333E-01
    -16.548  0.0000E+00  0.3333E-01
    -16.384  0.0000E+00  0.3333E-01
    -16.219  0.0000E+00  0.3333E-01
    -16.055  0.0000E+00  0.3333E-01
    -15.891  0.0000E+00  0.3333E-01
    -15.726  0.0000E+00  0.3333E-01
    -15.562  0.0000E+00  0.3333E-01
    -15.397  0.0000E+00  0.3333E-01
    -15.233  0.0000E+00  0.3333E-01
    -15.069  0.0000E+00  0.3333E-01
    -14.904  0.0000E+00  0.3333E-01
    -14.740  0.0000E+00  0.3333E-01
    -14.576  0.0000E+00  0.3333E-01
    -14.411  0.0000E+00  0.3333E-01
    -14.247  0.0000E+00  0.3333E-01
    -14.083  0.0000E+00  0.3333E-01
    -13.918  0.0000E+00  0.3333E-01
    -13.754  0.0000E+00  0.3333E-01
    -13.589  0.0000E+00  0.3333E-01
    -13.425  0.0000E+00  0.3333E-01
    -13.261  0.0000E+00  0.3333E-01
    -13.096  0.0000E+00  0.3333E-01
    -12.932  0.0000E+00  0.3333E-01
    -12.768  0.8705E+00  0.2000E+00
    -12.603  0.0000E+00  0.2000E+00
    -12.439  0.0000E+00  0.2000E+00
    -12.274  0.0000E+00  0.2000E+00
    -12.110  0.0000E+00  0.2000E+00
    -11.946  0.0000E+00  0.2000E+00
    -11.781  0.0000E+00  0.2000E+00
    -11.617  0.0000E+00  0.2000E+00
    -11.453  0.0000E+00  0.2000E+00
    -11.288  0.0000E+00  0.2000E+00
    -11.124  0.0000E+00  0.2000E+00
    -10.959  0.0000E+00  0.2000E+00
    -10.795  0.0000E+00  0.2000E+00
    -10.631  0.0000E+00  0.2000E+00
    -10.466  0.0000E+00  0.2000E+00
    -10.302  0.0000E+00  0.2000E+00
    -10.138  0.0000E+00  0.2000E+00
     -9.973  0.0000E+00  0.2000E+00
     -9.809  0.0000E+00  0.2000E+00
     -9.645  0.0000E+00  0.2000E+00
     -9.480  0.6839E-01  0.2112E+00
     -9.316  0.2177E+00  0.2686E+00
     -9.151  0.0000E+00  0.3000E+00
     -8.987  0.0000E+00  0.3000E+00
     -8.823  0.0000E+00  0.3000E+00
     -8.658  0.0000E+00  0.3000E+00
     -8.494  0.0000E+00  0.3000E+00
     -8.330  0.0000E+00  0.3000E+00
     -8.165  0.0000E+00  0.3000E+00
     -8.001  0.0000E+00  0.3000E+00
     -7.836  0.0000E+00  0.3000E+00
     -7.672  0.0000E+00  0.3000E+00
     -7.508  0.0000E+00  0.3000E+00
     -7.343  0.0000E+00  0.3000E+00
     -7.179  0.0000E+00  0.3000E+00
     -7.015  0.0000E+00  0.3000E+00
     -6.850  0.0000E+00  0.3000E+00
     -6.686  0.0000E+00  0.3000E+00
     -6.521  0.0000E+00  0.3000E+00
     -6.357  0.0000E+00  0.3000E+00
     -6.193  0.0000E+00  0.3000E+00
     -6.028  0.0000E+00  0.3000E+00
     -5.864  0.0000E+00  0.3000E+00
     -5.700  0.0000E+00  0.3000E+00
     -5.535  0.0000E+00  0.3000E+00
     -5.371  0.0000E+00  0.3000E+00
     -5.206  0.0000E+00  0.3000E+00
     -5.042  0.0000E+00  0.3000E+00
     -4.878  0.0000E+00  0.3000E+00
     -4.713  0.0000E+00  0.3000E+00
     -4.549  0.0000E+00  0.3000E+00
     -4.385  0.0000E+00  0.3000E+00
     -4.220  0.0000E+00  0.3000E+00
     -4.056  0.0000E+00  0.3000E+00
     -3.892  0.0000E+00  0.3000E+00
     -3.727  0.0000E+00  0.3000E+00
     -3.563  0.0000E+00  0.3000E+00
     -3.398  0.0000E+00  0.3000E+00
     -3.234  0.0000E+00  0.3000E+00
     -3.070  0.0000E+00  0.3000E+00
     -2.905  0.0000E+00  0.3000E+00
     -2.741  0.0000E+00  0.3000E+00
     -2.577  0.0000E+00  0.3000E+00
     -2.412  0.9230E-04  0.3000E+00
     -2.248  0.1106E-02  0.3004E+00
     -2.083  0.5539E-03  0.3010E+00
     -1.919  0.4540E-02  0.3025E+00
     -1.755  0.8862E-02  0.3043E+00
     -1.590  0.2550E-01  0.3097E+00
     -1.426  0.4728E-01  0.3237E+00
     -1.262  0.1758E-01  0.3328E+00
     -1.097  0.0000E+00  0.3333E+00
     -0.933  0.0000E+00  0.3333E+00
     -0.768  0.0000E+00  0.3333E+00
     -0.604  0.0000E+00  0.3333E+00
     -0.440  0.0000E+00  0.3333E+00
     -0.275  0.0000E+00  0.3333E+00
     -0.111  0.0000E+00  0.3333E+00
      0.053  0.0000E+00  0.3333E+00
      0.218  0.0000E+00  0.3333E+00
      0.382  0.0000E+00  0.3333E+00
      0.546  0.0000E+00  0.3333E+00
      0.711  0.0000E+00  0.3333E+00
      0.875  0.0000E+00  0.3333E+00
      1.040  0.0000E+00  0.3333E+00
      1.204  0.0000E+00  0.3333E+00
      1.368  0.0000E+00  0.3333E+00
      1.533  0.0000E+00  0.3333E+00
      1.697  0.0000E+00  0.3333E+00
      1.861  0.0000E+00  0.3333E+00
      2.026  0.0000E+00  0.3333E+00
      2.190  0.0000E+00  0.3333E+00
      2.355  0.0000E+00  0.3333E+00
      2.519  0.0000E+00  0.3333E+00
      2.683  0.0000E+00  0.3333E+00
      2.848  0.0000E+00  0.3333E+00
      3.012  0.0000E+00  0.3333E+00
      3.176  0.0000E+00  0.3333E+00
      3.341  0.0000E+00  0.3333E+00
      3.505  0.0000E+00  0.3333E+00
      3.670  0.0000E+00  0.3333E+00
      3.834  0.9865E-03  0.3335E+00
      3.998  0.7373E-02  0.3358E+00
      4.163  0.3094E-01  0.3454E+00
      4.327  0.1546E-01  0.3523E+00
      4.491  0.1786E-01  0.3564E+00
      4.656  0.6898E-02  0.3594E+00
      4.820  0.4321E-01  0.3697E+00
      4.985  0.5264E-01  0.3896E+00
      5.149  0.4532E-01  0.4053E+00
      5.313  0.4460E-01  0.4200E+00
      5.478  0.2560E-01  0.4319E+00
      5.642  0.3876E-02  0.4342E+00
      5.806  0.4658E-01  0.4426E+00
      5.971  0.4239E-01  0.4736E+00
      6.135  0.6974E-01  0.4987E+00
      6.299  0.1113E-01  0.5056E+00
      6.464  0.2679E-01  0.5146E+00
      6.628  0.2734E-01  0.5221E+00
      6.793  0.1858E-02  0.5258E+00
      6.957  0.1826E-01  0.5305E+00
      7.121  0.1394E-01  0.5333E+00
      7.286  0.1090E-01  0.5360E+00
      7.450  0.5051E-02  0.5410E+00
      7.614  0.5071E-02  0.5440E+00
      7.779  0.1839E-01  0.5507E+00
      7.943  0.6326E-02  0.5533E+00
      8.108  0.2079E-01  0.5591E+00
      8.272  0.5835E-02  0.5612E+00
      8.436  0.9077E-01  0.5823E+00
      8.601  0.3008E-01  0.5969E+00
      8.765  0.4717E-02  0.5995E+00
      8.929  0.1753E-02  0.6000E+00
      9.094  0.0000E+00  0.6000E+00
      9.258  0.1207E-02  0.6003E+00
      9.423  0.1295E-01  0.6027E+00
      9.587  0.3312E-01  0.6110E+00
      9.751  0.3339E-01  0.6217E+00
      9.916  0.2134E-01  0.6324E+00
     10.080  0.6778E-01  0.6449E+00
     10.244  0.9473E-01  0.6949E+00
     10.409  0.1793E+00  0.7389E+00
     10.573  0.1434E+00  0.7890E+00
     10.737  0.7204E-02  0.7998E+00
     10.902  0.0000E+00  0.8000E+00
     11.066  0.0000E+00  0.8000E+00
     11.231  0.0000E+00  0.8000E+00
     11.395  0.0000E+00  0.8000E+00
     11.559  0.0000E+00  0.8000E+00
     11.724  0.0000E+00  0.8000E+00
     11.888  0.0000E+00  0.8000E+00
     12.052  0.0000E+00  0.8000E+00
     12.217  0.0000E+00  0.8000E+00
     12.381  0.0000E+00  0.8000E+00
     12.546  0.0000E+00  0.8000E+00
     12.710  0.0000E+00  0.8000E+00
     12.874  0.0000E+00  0.8000E+00
     13.039  0.0000E+00  0.8000E+00
