    3    3   60    1
  0.2434427E+02  0.4691852E-09  0.4691852E-09  0.4691852E-09  0.1000000E-15
  1.000000000000000E-004
  CAR
 unknown system
     39     84     24

  0.0000000E+00  0.0000000E+00  0.0000000E+00  0.4551661E-03
    1      -34.031195   1.000000
    2      -12.830712   1.000000
    3      -12.830712   1.000000
    4      -12.801998   1.000000
    5      -12.801998   1.000000
    6      -12.801998   1.000000
    7       -9.321988   1.000000
    8       -9.321988   1.000000
    9       -9.321988   1.000000
   10       -2.445575   1.000000
   11        5.464452   1.000000
   12        5.464452   1.000000
   13        5.464452   1.000000
   14        5.714879   1.000000
   15        5.714879   1.000000
   16        8.486296   1.000000
   17        8.910144   1.000000
   18        8.910144   1.000000
   19        8.910144   1.000000
   20       10.046451   1.000000
   21       10.046451   1.000000
   22       10.046452   1.000000
   23       10.222623   0.000000
   24       10.331542   0.000000

  0.7692308E-01  0.2575043E-17 -0.3489694E-17  0.3641329E-02
    1      -34.030925   1.000000
    2      -12.832328   1.000000
    3      -12.832328   1.000000
    4      -12.802305   1.000000
    5      -12.801775   1.000000
    6      -12.801775   1.000000
    7       -9.336852   1.000000
    8       -9.318431   1.000000
    9       -9.318431   1.000000
   10       -2.376961   1.000000
   11        5.338269   1.000000
   12        5.342580   1.000000
   13        5.342580   1.000000
   14        5.829269   1.000000
   15        5.829269   1.000000
   16        8.064897   1.000000
   17        8.850887   1.000000
   18        8.850887   1.000000
   19        9.172470   1.000000
   20       10.025461   1.000000
   21       10.037910   1.000000
   22       10.037923   1.000000
   23       10.354891   0.000000
   24       10.404317   0.000000

  0.1538462E+00 -0.1210465E-17 -0.6188372E-18  0.3641329E-02
    1      -34.030181   1.000000
    2      -12.836889   1.000000
    3      -12.836889   1.000000
    4      -12.803195   1.000000
    5      -12.801191   1.000000
    6      -12.801191   1.000000
    7       -9.376549   1.000000
    8       -9.308615   1.000000
    9       -9.308615   1.000000
   10       -2.185494   1.000000
   11        5.016334   1.000000
   12        5.173147   1.000000
   13        5.173147   1.000000
   14        5.965932   1.000000
   15        5.965932   1.000000
   16        7.468452   1.000000
   17        8.723250   1.000000
   18        8.723250   1.000000
   19        9.254507   1.000000
   20       10.035380   1.000000
   21       10.035380   1.000000
   22       10.241737   0.000000
   23       10.541810   0.000000
   24       10.541961   0.000000

  0.2307692E+00  0.5936063E-17 -0.8680015E-17  0.3641329E-02
    1      -34.029134   1.000000
    2      -12.843324   1.000000
    3      -12.843324   1.000000
    4      -12.804671   1.000000
    5      -12.800303   1.000000
    6      -12.800303   1.000000
    7       -9.429048   1.000000
    8       -9.294855   1.000000
    9       -9.294855   1.000000
   10       -1.911691   1.000000
   11        4.614197   1.000000
   12        5.044831   1.000000
   13        5.044831   1.000000
   14        6.017350   1.000000
   15        6.017350   1.000000
   16        6.918921   1.000000
   17        8.612981   1.000000
   18        8.612982   1.000000
   19        9.247359   1.000000
   20       10.050556   1.000000
   21       10.050556   1.000000
   22       10.388207   0.000000
   23       10.618915   0.000000
   24       10.618926   0.000000

  0.3076923E+00 -0.2420929E-17 -0.1237674E-17  0.3641329E-02
    1      -34.028023   1.000000
    2      -12.850149   1.000000
    3      -12.850149   1.000000
    4      -12.806526   1.000000
    5      -12.799301   1.000000
    6      -12.799301   1.000000
    7       -9.480678   1.000000
    8       -9.280343   1.000000
    9       -9.280343   1.000000
   10       -1.615219   1.000000
   11        4.234905   1.000000
   12        4.973905   1.000000
   13        4.973905   1.000000
   14        5.969484   1.000000
   15        5.969485   1.000000
   16        6.483228   1.000000
   17        8.563116   1.000000
   18        8.563116   1.000000
   19        9.283331   1.000000
   20       10.082064   0.860171
   21       10.082064   0.860169
   22       10.345391   0.000000
   23       10.459081   0.000000
   24       10.589733   0.000000

  0.3846154E+00  0.4725598E-17 -0.9298853E-17  0.3641329E-02
    1      -34.027101   1.000000
    2      -12.855766   1.000000
    3      -12.855766   1.000000
    4      -12.808261   1.000000
    5      -12.798444   1.000000
    6      -12.798444   1.000000
    7       -9.520490   1.000000
    8       -9.268387   1.000000
    9       -9.268387   1.000000
   10       -1.364302   1.000000
   11        3.949205   1.000000
   12        4.954961   1.000000
   13        4.954962   1.000000
   14        5.866010   1.000000
   15        5.866010   1.000000
   16        6.188881   1.000000
   17        8.560929   1.000000
   18        8.560929   1.000000
   19        9.357420   1.000000
   20       10.126100   0.000000
   21       10.126100   0.000000
   22       10.508885   0.000000
   23       10.509351   0.000000
   24       10.513040   0.000000

  0.4615385E+00 -0.8366213E-17  0.2878308E-17  0.3641329E-02
    1      -34.026579   1.000000
    2      -12.858925   1.000000
    3      -12.858924   1.000000
    4      -12.809346   1.000000
    5      -12.797956   1.000000
    6      -12.797956   1.000000
    7       -9.541848   1.000000
    8       -9.261665   1.000000
    9       -9.261664   1.000000
   10       -1.220398   1.000000
   11        3.797803   1.000000
   12        4.962141   1.000000
   13        4.962141   1.000000
   14        5.782310   1.000000
   15        5.782310   1.000000
   16        6.042073   1.000000
   17        8.571519   1.000000
   18        8.571519   1.000000
   19        9.421777   1.000000
   20       10.167089   0.000000
   21       10.167090   0.000000
   22       10.440914   0.000000
   23       10.441234   0.000000
   24       10.551144   0.000000

  0.7692308E-01  0.7692308E-01 -0.3906980E-18  0.2730997E-02
    1      -34.030835   1.000000
    2      -12.835179   1.000000
    3      -12.830272   1.000000
    4      -12.802472   1.000000
    5      -12.801657   1.000000
    6      -12.801657   1.000000
    7       -9.329706   1.000000
    8       -9.323461   1.000000
    9       -9.323461   1.000000
   10       -2.355634   1.000000
   11        5.078043   1.000000
   12        5.478138   1.000000
   13        5.478138   1.000000
   14        5.729025   1.000000
   15        5.876742   1.000000
   16        8.045538   1.000000
   17        8.754834   1.000000
   18        8.754834   1.000000
   19        9.333963   1.000000
   20        9.942648   1.000000
   21       10.058920   0.999993
   22       10.058923   0.999993
   23       10.342575   0.000000
   24       10.383807   0.000000

  0.1538462E+00  0.7692308E-01 -0.5897339E-17  0.1092399E-01
    1      -34.030255   1.000000
    2      -12.840203   1.000000
    3      -12.831600   1.000000
    4      -12.803200   1.000000
    5      -12.801241   1.000000
    6      -12.801135   1.000000
    7       -9.360034   1.000000
    8       -9.321257   1.000000
    9       -9.312215   1.000000
   10       -2.209876   1.000000
   11        4.795156   1.000000
   12        5.362107   1.000000
   13        5.387022   1.000000
   14        5.828148   1.000000
   15        5.979644   1.000000
   16        7.644623   1.000000
   17        8.614401   1.000000
   18        8.616290   1.000000
   19        9.434953   1.000000
   20        9.999999   1.000000
   21       10.060732   0.999979
   22       10.159283   0.000000
   23       10.348447   0.000000
   24       10.509623   0.000000

  0.2307692E+00  0.7692308E-01 -0.2448139E-17  0.1092399E-01
    1      -34.029314   1.000000
    2      -12.846297   1.000000
    3      -12.836019   1.000000
    4      -12.804343   1.000000
    5      -12.800623   1.000000
    6      -12.800233   1.000000
    7       -9.408655   1.000000
    8       -9.312366   1.000000
    9       -9.296967   1.000000
   10       -1.971809   1.000000
   11        4.512469   1.000000
   12        5.136948   1.000000
   13        5.259889   1.000000
   14        5.907425   1.000000
   15        6.069441   1.000000
   16        7.135611   1.000000
   17        8.472575   1.000000
   18        8.514901   1.000000
   19        9.411729   1.000000
   20       10.031898   1.000000
   21       10.064393   0.999828
   22       10.343188   0.000000
   23       10.351401   0.000000
   24       10.588740   0.000000

  0.3076923E+00  0.7692308E-01 -0.8883586E-17  0.1092399E-01
    1      -34.028225   1.000000
    2      -12.852048   1.000000
    3      -12.842479   1.000000
    4      -12.805878   1.000000
    5      -12.799869   1.000000
    6      -12.799178   1.000000
    7       -9.460490   1.000000
    8       -9.298888   1.000000
    9       -9.283016   1.000000
   10       -1.694654   1.000000
   11        4.241280   1.000000
   12        4.962483   1.000000
   13        5.165243   1.000000
   14        5.891252   1.000000
   15        6.075012   1.000000
   16        6.669001   1.000000
   17        8.393699   1.000000
   18        8.484075   1.000000
   19        9.398141   1.000000
   20       10.072533   0.992428
   21       10.081321   0.882225
   22       10.353894   0.000000
   23       10.420296   0.000000
   24       10.582909   0.000000

  0.3846154E+00  0.7692308E-01 -0.3066976E-17  0.1092399E-01
    1      -34.027248   1.000000
    2      -12.856203   1.000000
    3      -12.849435   1.000000
    4      -12.807500   1.000000
    5      -12.799099   1.000000
    6      -12.798300   1.000000
    7       -9.503820   1.000000
    8       -9.283950   1.000000
    9       -9.273468   1.000000
   10       -1.441951   1.000000
   11        4.017238   1.000000
   12        4.889017   1.000000
   13        5.098267   1.000000
   14        5.820578   1.000000
   15        5.999164   1.000000
   16        6.314904   1.000000
   17        8.377959   1.000000
   18        8.501290   1.000000
   19        9.427406   1.000000
   20       10.114736   0.000200
   21       10.121164   0.000004
   22       10.354519   0.000000
   23       10.452975   0.000000
   24       10.540122   0.000000

  0.4615385E+00  0.7692308E-01 -0.1391057E-16  0.1092399E-01
    1      -34.026596   1.000000
    2      -12.857804   1.000000
    3      -12.855246   1.000000
    4      -12.808694   1.000000
    5      -12.798502   1.000000
    6      -12.797789   1.000000
    7       -9.530819   1.000000
    8       -9.270911   1.000000
    9       -9.270342   1.000000
   10       -1.272773   1.000000
   11        3.878554   1.000000
   12        4.905163   1.000000
   13        5.029464   1.000000
   14        5.779815   1.000000
   15        5.888958   1.000000
   16        6.103676   1.000000
   17        8.389443   1.000000
   18        8.525269   1.000000
   19        9.478368   1.000000
   20       10.160019   0.000000
   21       10.163190   0.000000
   22       10.351842   0.000000
   23       10.432437   0.000000
   24       10.527745   0.000000

 -0.4615385E+00  0.7692308E-01  0.8088388E-17  0.1092399E-01
    1      -34.026423   1.000000
    2      -12.858649   1.000000
    3      -12.856521   1.000000
    4      -12.809034   1.000000
    5      -12.798248   1.000000
    6      -12.797787   1.000000
    7       -9.537630   1.000000
    8       -9.274228   1.000000
    9       -9.262705   1.000000
   10       -1.226410   1.000000
   11        3.842512   1.000000
   12        4.942356   1.000000
   13        4.976930   1.000000
   14        5.801053   1.000000
   15        5.824143   1.000000
   16        6.051760   1.000000
   17        8.388352   1.000000
   18        8.534130   1.000000
   19        9.499830   1.000000
   20       10.166495   0.000000
   21       10.190897   0.000000
   22       10.342071   0.000000
   23       10.438461   0.000000
   24       10.453355   0.000000

 -0.3846154E+00  0.7692308E-01  0.1553073E-16  0.1092399E-01
    1      -34.026768   1.000000
    2      -12.858894   1.000000
    3      -12.852619   1.000000
    4      -12.808287   1.000000
    5      -12.798410   1.000000
    6      -12.798263   1.000000
    7       -9.523474   1.000000
    8       -9.284134   1.000000
    9       -9.261175   1.000000
   10       -1.313757   1.000000
   11        3.915468   1.000000
   12        4.863732   1.000000
   13        5.065489   1.000000
   14        5.782283   1.000000
   15        5.935636   1.000000
   16        6.160085   1.000000
   17        8.352998   1.000000
   18        8.534122   1.000000
   19        9.468455   1.000000
   20       10.131276   0.000000
   21       10.166771   0.000000
   22       10.346247   0.000000
   23       10.467335   0.000000
   24       10.484000   0.000000

 -0.3076923E+00  0.7692308E-01  0.7469551E-17  0.1092399E-01
    1      -34.027550   1.000000
    2      -12.855959   1.000000
    3      -12.846928   1.000000
    4      -12.806847   1.000000
    5      -12.799077   1.000000
    6      -12.798977   1.000000
    7       -9.490357   1.000000
    8       -9.297724   1.000000
    9       -9.266690   1.000000
   10       -1.515115   1.000000
   11        4.100277   1.000000
   12        4.830667   1.000000
   13        5.155428   1.000000
   14        5.830455   1.000000
   15        6.055892   1.000000
   16        6.418949   1.000000
   17        8.292979   1.000000
   18        8.551964   1.000000
   19        9.420179   1.000000
   20       10.093244   0.308527
   21       10.114962   0.000178
   22       10.350892   0.000000
   23       10.463277   0.000000
   24       10.531163   0.000000

 -0.2307692E+00  0.7692308E-01  0.1017707E-16  0.1092399E-01
    1      -34.028593   1.000000
    2      -12.850506   1.000000
    3      -12.840710   1.000000
    4      -12.805169   1.000000
    5      -12.800033   1.000000
    6      -12.799796   1.000000
    7       -9.443670   1.000000
    8       -9.311746   1.000000
    9       -9.278061   1.000000
   10       -1.783284   1.000000
   11        4.383578   1.000000
   12        4.864742   1.000000
   13        5.264859   1.000000
   14        5.877627   1.000000
   15        6.122874   1.000000
   16        6.812541   1.000000
   17        8.256006   1.000000
   18        8.617452   1.000000
   19        9.398017   1.000000
   20       10.066122   0.999574
   21       10.067583   0.999123
   22       10.349233   0.000000
   23       10.409012   0.000000
   24       10.592230   0.000000

 -0.1538462E+00  0.7692308E-01  0.6850714E-17  0.1092399E-01
    1      -34.029657   1.000000
    2      -12.843732   1.000000
    3      -12.835439   1.000000
    4      -12.803757   1.000000
    5      -12.800903   1.000000
    6      -12.800671   1.000000
    7       -9.393137   1.000000
    8       -9.322480   1.000000
    9       -9.292728   1.000000
   10       -2.055301   1.000000
   11        4.723695   1.000000
   12        4.971091   1.000000
   13        5.403382   1.000000
   14        5.852667   1.000000
   15        6.098269   1.000000
   16        7.294854   1.000000
   17        8.319557   1.000000
   18        8.730816   1.000000
   19        9.407544   1.000000
   20       10.030286   1.000000
   21       10.053363   1.000000
   22       10.314638   0.000000
   23       10.344962   0.000000
   24       10.583455   0.000000

 -0.7692308E-01  0.7692308E-01  0.2782677E-17  0.5461994E-02
    1      -34.030500   1.000000
    2      -12.837198   1.000000
    3      -12.832405   1.000000
    4      -12.802790   1.000000
    5      -12.801510   1.000000
    6      -12.801381   1.000000
    7       -9.353312   1.000000
    8       -9.325251   1.000000
    9       -9.307315   1.000000
   10       -2.269012   1.000000
   11        5.060395   1.000000
   12        5.140059   1.000000
   13        5.490121   1.000000
   14        5.788877   1.000000
   15        5.986834   1.000000
   16        7.754548   1.000000
   17        8.556169   1.000000
   18        8.836233   1.000000
   19        9.366020   1.000000
   20       10.018107   1.000000
   21       10.033221   1.000000
   22       10.135532   0.000000
   23       10.339054   0.000000
   24       10.470208   0.000000

  0.1538462E+00  0.1538462E+00 -0.7813960E-18  0.2730997E-02
    1      -34.029862   1.000000
    2      -12.844512   1.000000
    3      -12.829165   1.000000
    4      -12.803973   1.000000
    5      -12.800715   1.000000
    6      -12.800715   1.000000
    7       -9.352420   1.000000
    8       -9.327711   1.000000
    9       -9.327711   1.000000
   10       -2.123763   1.000000
   11        4.496745   1.000000
   12        5.504319   1.000000
   13        5.504319   1.000000
   14        5.768702   1.000000
   15        5.922684   1.000000
   16        7.610961   1.000000
   17        8.479746   1.000000
   18        8.479746   1.000000
   19        9.480468   1.000000
   20       10.075717   0.976071
   21       10.075718   0.976070
   22       10.099549   0.082018
   23       10.375641   0.000000
   24       10.568235   0.000000

  0.2307692E+00  0.1538462E+00  0.6729490E-17  0.1092399E-01
    1      -34.029090   1.000000
    2      -12.848808   1.000000
    3      -12.830283   1.000000
    4      -12.804975   1.000000
    5      -12.800097   1.000000
    6      -12.799864   1.000000
    7       -9.388546   1.000000
    8       -9.326518   1.000000
    9       -9.316770   1.000000
   10       -1.949748   1.000000
   11        4.255180   1.000000
   12        5.377123   1.000000
   13        5.445919   1.000000
   14        5.827926   1.000000
   15        5.973925   1.000000
   16        7.334341   1.000000
   17        8.306263   1.000000
   18        8.388163   1.000000
   19        9.504585   1.000000
   20       10.045595   1.000000
   21       10.082451   0.847629
   22       10.271282   0.000000
   23       10.388717   0.000000
   24       10.607011   0.000000

  0.3076923E+00  0.1538462E+00 -0.1910031E-17  0.1092399E-01
    1      -34.028118   1.000000
    2      -12.852100   1.000000
    3      -12.834694   1.000000
    4      -12.806015   1.000000
    5      -12.799639   1.000000
    6      -12.798786   1.000000
    7       -9.436634   1.000000
    8       -9.318027   1.000000
    9       -9.303352   1.000000
   10       -1.731330   1.000000
   11        4.098151   1.000000
   12        5.149709   1.000000
   13        5.352725   1.000000
   14        5.844111   1.000000
   15        6.045096   1.000000
   16        6.945720   1.000000
   17        8.134771   1.000000
   18        8.371830   1.000000
   19        9.536766   1.000000
   20       10.063950   0.999865
   21       10.094324   0.256961
   22       10.355204   0.000000
   23       10.389988   0.000000
   24       10.603651   0.000000

  0.3846154E+00  0.1538462E+00 -0.1233862E-16  0.1092399E-01
    1      -34.027169   1.000000
    2      -12.853687   1.000000
    3      -12.841261   1.000000
    4      -12.807004   1.000000
    5      -12.799352   1.000000
    6      -12.797839   1.000000
    7       -9.479483   1.000000
    8       -9.304224   1.000000
    9       -9.296120   1.000000
   10       -1.520945   1.000000
   11        4.030475   1.000000
   12        4.973768   1.000000
   13        5.252864   1.000000
   14        5.815731   1.000000
   15        6.048967   1.000000
   16        6.561826   1.000000
   17        8.049086   1.000000
   18        8.402626   1.000000
   19        9.552631   1.000000
   20       10.110917   0.001353
   21       10.120067   0.000009
   22       10.384565   0.000000
   23       10.386842   0.000000
   24       10.573137   0.000000

  0.4615385E+00  0.1538462E+00 -0.1614581E-18  0.1092399E-01
    1      -34.026461   1.000000
    2      -12.853262   1.000000
    3      -12.848379   1.000000
    4      -12.807707   1.000000
    5      -12.799210   1.000000
    6      -12.797278   1.000000
    7       -9.508473   1.000000
    8       -9.296768   1.000000
    9       -9.288267   1.000000
   10       -1.364431   1.000000
   11        4.024388   1.000000
   12        4.901122   1.000000
   13        5.124367   1.000000
   14        5.819400   1.000000
   15        5.985177   1.000000
   16        6.278905   1.000000
   17        8.022179   1.000000
   18        8.432590   1.000000
   19        9.582206   1.000000
   20       10.150864   0.000000
   21       10.162324   0.000000
   22       10.370127   0.000000
   23       10.403030   0.000000
   24       10.551144   0.000000

 -0.4615385E+00  0.1538462E+00 -0.1065289E-16  0.1092399E-01
    1      -34.026155   1.000000
    2      -12.854451   1.000000
    3      -12.851007   1.000000
    4      -12.807870   1.000000
    5      -12.799178   1.000000
    6      -12.797258   1.000000
    7       -9.519328   1.000000
    8       -9.304698   1.000000
    9       -9.273756   1.000000
   10       -1.290650   1.000000
   11        4.028313   1.000000
   12        4.939594   1.000000
   13        4.974212   1.000000
   14        5.888298   1.000000
   15        5.892046   1.000000
   16        6.164353   1.000000
   17        8.001858   1.000000
   18        8.440069   1.000000
   19        9.612045   1.000000
   20       10.153301   0.000000
   21       10.212565   0.000000
   22       10.341116   0.000000
   23       10.432355   0.000000
   24       10.535993   0.000000

 -0.3846154E+00  0.1538462E+00  0.6259086E-17  0.1092399E-01
    1      -34.026322   1.000000
    2      -12.858143   1.000000
    3      -12.847395   1.000000
    4      -12.807306   1.000000
    5      -12.799253   1.000000
    6      -12.797720   1.000000
    7       -9.511307   1.000000
    8       -9.317411   1.000000
    9       -9.263958   1.000000
   10       -1.312468   1.000000
   11        4.023106   1.000000
   12        4.841227   1.000000
   13        5.061000   1.000000
   14        5.811983   1.000000
   15        6.011043   1.000000
   16        6.236919   1.000000
   17        7.945811   1.000000
   18        8.438046   1.000000
   19        9.611746   1.000000
   20       10.123689   0.000001
   21       10.226726   0.000000
   22       10.324024   0.000000
   23       10.464567   0.000000
   24       10.474492   0.000000

 -0.3076923E+00  0.1538462E+00 -0.6536911E-17  0.1092399E-01
    1      -34.026919   1.000000
    2      -12.858672   1.000000
    3      -12.843121   1.000000
    4      -12.806294   1.000000
    5      -12.799453   1.000000
    6      -12.798515   1.000000
    7       -9.486706   1.000000
    8       -9.330905   1.000000
    9       -9.261101   1.000000
   10       -1.429838   1.000000
   11        4.053766   1.000000
   12        4.760323   1.000000
   13        5.222266   1.000000
   14        5.780878   1.000000
   15        6.129267   1.000000
   16        6.471390   1.000000
   17        7.849124   1.000000
   18        8.458878   1.000000
   19        9.584611   1.000000
   20       10.093856   0.278753
   21       10.176086   0.000000
   22       10.349342   0.000000
   23       10.454239   0.000000
   24       10.493696   0.000000

 -0.2307692E+00  0.1538462E+00  0.5640249E-17  0.1092399E-01
    1      -34.027814   1.000000
    2      -12.855969   1.000000
    3      -12.839105   1.000000
    4      -12.805256   1.000000
    5      -12.799762   1.000000
    6      -12.799442   1.000000
    7       -9.451502   1.000000
    8       -9.339942   1.000000
    9       -9.265888   1.000000
   10       -1.623637   1.000000
   11        4.178308   1.000000
   12        4.752129   1.000000
   13        5.387056   1.000000
   14        5.773803   1.000000
   15        6.196976   1.000000
   16        6.810464   1.000000
   17        7.772842   1.000000
   18        8.530117   1.000000
   19        9.553065   1.000000
   20       10.076184   0.972099
   21       10.115497   0.000133
   22       10.360276   0.000000
   23       10.421685   0.000000
   24       10.544743   0.000000

 -0.1538462E+00  0.1538462E+00 -0.2420929E-17  0.5461994E-02
    1      -34.028804   1.000000
    2      -12.850596   1.000000
    3      -12.836282   1.000000
    4      -12.804435   1.000000
    5      -12.800296   1.000000
    6      -12.800168   1.000000
    7       -9.416725   1.000000
    8       -9.337898   1.000000
    9       -9.277296   1.000000
   10       -1.850926   1.000000
   11        4.412886   1.000000
   12        4.824114   1.000000
   13        5.500596   1.000000
   14        5.765566   1.000000
   15        6.184888   1.000000
   16        7.120541   1.000000
   17        7.891658   1.000000
   18        8.641875   1.000000
   19        9.514014   1.000000
   20       10.062071   0.999954
   21       10.065878   0.999624
   22       10.356358   0.000000
   23       10.377128   0.000000
   24       10.594812   0.000000

  0.2307692E+00  0.2307692E+00 -0.1172094E-17  0.2730997E-02
    1      -34.028516   1.000000
    2      -12.850200   1.000000
    3      -12.827586   1.000000
    4      -12.806123   1.000000
    5      -12.799160   1.000000
    6      -12.799160   1.000000
    7       -9.388099   1.000000
    8       -9.334074   1.000000
    9       -9.334074   1.000000
   10       -1.856793   1.000000
   11        4.067766   1.000000
   12        5.508563   1.000000
   13        5.508563   1.000000
   14        5.820434   1.000000
   15        5.826071   1.000000
   16        7.300726   1.000000
   17        8.305580   1.000000
   18        8.305580   1.000000
   19        9.459537   1.000000
   20       10.094589   0.245027
   21       10.094589   0.245020
   22       10.233302   0.000000
   23       10.430211   0.000000
   24       10.677920   0.000000

  0.3076923E+00  0.2307692E+00  0.6689256E-17  0.1092399E-01
    1      -34.027718   1.000000
    2      -12.850152   1.000000
    3      -12.828646   1.000000
    4      -12.807165   1.000000
    5      -12.798460   1.000000
    6      -12.798146   1.000000
    7       -9.421500   1.000000
    8       -9.333326   1.000000
    9       -9.329318   1.000000
   10       -1.723017   1.000000
   11        3.998438   1.000000
   12        5.349863   1.000000
   13        5.461465   1.000000
   14        5.852238   1.000000
   15        5.863476   1.000000
   16        7.094930   1.000000
   17        8.149492   1.000000
   18        8.298826   1.000000
   19        9.547720   1.000000
   20       10.080767   0.896983
   21       10.107148   0.006825
   22       10.280535   0.000000
   23       10.449112   0.000000
   24       10.663553   0.000000

  0.3846154E+00  0.2307692E+00 -0.3739332E-17  0.1092399E-01
    1      -34.026888   1.000000
    2      -12.848671   1.000000
    3      -12.833169   1.000000
    4      -12.807807   1.000000
    5      -12.798333   1.000000
    6      -12.797159   1.000000
    7       -9.458677   1.000000
    8       -9.325273   1.000000
    9       -9.324528   1.000000
   10       -1.584387   1.000000
   11        4.053733   1.000000
   12        5.127507   1.000000
   13        5.364571   1.000000
   14        5.857167   1.000000
   15        5.950860   1.000000
   16        6.805123   1.000000
   17        7.915887   1.000000
   18        8.336932   1.000000
   19        9.641871   1.000000
   20       10.093469   0.297426
   21       10.128763   0.000000
   22       10.318436   0.000000
   23       10.445620   0.000000
   24       10.618769   0.000000

  0.4615385E+00  0.2307692E+00 -0.7807369E-17  0.1092399E-01
    1      -34.026209   1.000000
    2      -12.846208   1.000000
    3      -12.839908   1.000000
    4      -12.807848   1.000000
    5      -12.798766   1.000000
    6      -12.796543   1.000000
    7       -9.484441   1.000000
    8       -9.330100   1.000000
    9       -9.309711   1.000000
   10       -1.469116   1.000000
   11        4.193595   1.000000
   12        4.974730   1.000000
   13        5.220288   1.000000
   14        5.885586   1.000000
   15        5.976271   1.000000
   16        6.516992   1.000000
   17        7.740526   1.000000
   18        8.364173   1.000000
   19        9.682256   1.000000
   20       10.126279   0.000000
   21       10.164542   0.000000
   22       10.357751   0.000000
   23       10.424911   0.000000
   24       10.572896   0.000000

 -0.4615385E+00  0.2307692E+00  0.2806938E-16  0.1092399E-01
    1      -34.025839   1.000000
    2      -12.847293   1.000000
    3      -12.843464   1.000000
    4      -12.807155   1.000000
    5      -12.799607   1.000000
    6      -12.796489   1.000000
    7       -9.493808   1.000000
    8       -9.343122   1.000000
    9       -9.292240   1.000000
   10       -1.392230   1.000000
   11        4.312894   1.000000
   12        4.922004   1.000000
   13        5.047711   1.000000
   14        5.920165   1.000000
   15        5.962399   1.000000
   16        6.361671   1.000000
   17        7.624079   1.000000
   18        8.357787   1.000000
   19        9.709843   1.000000
   20       10.128468   0.000000
   21       10.212685   0.000000
   22       10.383058   0.000000
   23       10.416137   0.000000
   24       10.538546   0.000000

 -0.3846154E+00  0.2307692E+00 -0.1052979E-16  0.1092399E-01
    1      -34.025863   1.000000
    2      -12.853700   1.000000
    3      -12.841090   1.000000
    4      -12.805921   1.000000
    5      -12.800509   1.000000
    6      -12.796932   1.000000
    7       -9.487344   1.000000
    8       -9.359649   1.000000
    9       -9.276054   1.000000
   10       -1.362195   1.000000
   11        4.290547   1.000000
   12        4.885852   1.000000
   13        4.983839   1.000000
   14        5.847689   1.000000
   15        6.068894   1.000000
   16        6.405523   1.000000
   17        7.526672   1.000000
   18        8.339347   1.000000
   19        9.722982   1.000000
   20       10.100570   0.062262
   21       10.262476   0.000000
   22       10.325997   0.000000