       N       E                     dE             d eps       ncg     rms          rms(c)
DAV:   1     0.395627500968E+03    0.39563E+03   -0.18885E+04  4032   0.188E+03
DAV:   2     0.249825125560E+02   -0.37064E+03   -0.36376E+03  4400   0.449E+02
DAV:   3    -0.211340737772E+02   -0.46117E+02   -0.45246E+02  5144   0.165E+02
DAV:   4    -0.259422910625E+02   -0.48082E+01   -0.47858E+01  7544   0.432E+01
DAV:   5    -0.260991443477E+02   -0.15685E+00   -0.15664E+00  5472   0.655E+00    0.148E+01
DAV:   6    -0.333539831078E+02   -0.72548E+01   -0.19573E+02  6072   0.894E+01    0.220E+01
DAV:   7    -0.246379398819E+02    0.87160E+01   -0.26573E+01  5880   0.281E+01    0.972E+00
DAV:   8    -0.245324461407E+02    0.10549E+00   -0.29896E+01  5904   0.230E+01    0.784E+00
DAV:   9    -0.237648762778E+02    0.76757E+00   -0.89810E+00  6248   0.177E+01    0.145E+00
DAV:  10    -0.238015770535E+02   -0.36701E-01   -0.40991E-01  6776   0.313E+00    0.140E+00
DAV:  11    -0.237676863975E+02    0.33891E-01   -0.25238E-01  5992   0.266E+00    0.290E-01
DAV:  12    -0.237683924186E+02   -0.70602E-03   -0.79987E-03  6696   0.501E-01    0.124E-01
DAV:  13    -0.237682606317E+02    0.13179E-03   -0.11207E-03  6216   0.225E-01    0.351E-02
DAV:  14    -0.237682597731E+02    0.85859E-06   -0.92690E-05  5656   0.654E-02
   1 F= -.23768260E+02 E0= -.23767432E+02  d E =-.237683E+02
