 vasp.6.0.8 29Jun18 (build Jun 13 2019 12:54:44) complex

 executed on      IFC18_CrayMPICH date 2021.11.11  21:51:26
 running   64 mpi-ranks, with    1 threads/rank
 distrk:  each k-point on   16 cores,    4 groups
 distr:  one band on NCORES_PER_BAND=   4 cores,    4 groups


--------------------------------------------------------------------------------------------------------


 INCAR:
 POTCAR:    PAW_PBE Bi_d 06Sep2000
 POTCAR:    PAW_PBE Pt 04Feb2005
 POTCAR:    PAW_PBE U 06Sep2000
 POTCAR:    PAW_PBE Bi_d 06Sep2000
   VRHFIN =Bi:
   LEXCH  = PE
   EATOM  =  1959.2045 eV,  143.9975 Ry

   TITEL  = PAW_PBE Bi_d 06Sep2000
   LULTRA =        F    use ultrasoft PP ?
   IUNSCR =        1    unscreen: 0-lin 1-nonlin 2-no
   RPACOR =    2.200    partial core radius
   POMASS =  208.980; ZVAL   =   15.000    mass and valenz
   RCORE  =    2.500    outmost cutoff radius
   RWIGS  =    3.090; RWIGS  =    1.635    wigner-seitz radius (au A)
   ENMAX  =  242.839; ENMIN  =  182.129 eV
   ICORE  =        3    local potential
   LCOR   =        T    correct aug charges
   LPAW   =        T    paw PP
   EAUG   =  442.899
   DEXC   =    0.000
   RMAX   =    2.551    core radius for proj-oper
   RAUG   =    1.300    factor for augmentation sphere
   RDEP   =    2.650    radius for radial grids
   RDEPT  =    2.039    core radius for aug-charge

   Atomic configuration
   16 entries
     n  l   j            E        occ.
     1  0  0.50    -90639.6581   2.0000
     2  0  0.50    -16282.4666   2.0000
     2  1  1.50    -13922.8286   6.0000
     3  0  0.50     -3930.4763   2.0000
     3  1  1.50     -3256.7013   6.0000
     3  2  2.50     -2581.6168  10.0000
     4  0  0.50      -902.2614   2.0000
     4  1  1.50      -681.5915   6.0000
     4  2  2.50      -429.8249  10.0000
     4  3  3.50      -152.6004  14.0000
     5  0  0.50      -157.7156   2.0000
     5  1  1.50       -95.8054   6.0000
     5  2  2.50       -27.0806  10.0000
     6  0  0.50       -14.4732   2.0000
     6  1  1.50        -4.5702   3.0000
     5  3  2.50        -2.7212   0.0000
   Description
     l       E           TYP  RCUT    TYP  RCUT
     2    -27.0805982     23  2.500
     2     -1.3605826     23  2.500
     0    -14.4732271     23  2.500
     0      6.8029130     23  2.500
     1     -4.5701651     23  2.500
     1     13.6058260     23  2.500
     3     -1.3605826      7  2.500
  local pseudopotential read in
  partial core-charges read in
  partial kinetic energy density read in
  atomic valenz-charges read in
  non local Contribution for L=           2  read in
    real space projection operators read in
  non local Contribution for L=           2  read in
    real space projection operators read in
  non local Contribution for L=           0  read in
    real space projection operators read in
  non local Contribution for L=           0  read in
    real space projection operators read in
  non local Contribution for L=           1  read in
    real space projection operators read in
  non local Contribution for L=           1  read in
    real space projection operators read in
    PAW grid and wavefunctions read in

   number of l-projection  operators is LMAX  =           6
   number of lm-projection operators is LMMAX =          18

 POTCAR:    PAW_PBE Pt 04Feb2005
   VRHFIN =Pt: s1d9
   LEXCH  = PE
   EATOM  =   729.1176 eV,   53.5886 Ry

   TITEL  = PAW_PBE Pt 04Feb2005
   LULTRA =        F    use ultrasoft PP ?
   IUNSCR =        1    unscreen: 0-lin 1-nonlin 2-no
   RPACOR =    2.330    partial core radius
   POMASS =  195.080; ZVAL   =   10.000    mass and valenz
   RCORE  =    2.600    outmost cutoff radius
   RWIGS  =    2.750; RWIGS  =    1.455    wigner-seitz radius (au A)
   ENMAX  =  230.283; ENMIN  =  172.712 eV
   ICORE  =        3    local potential
   LCOR   =        T    correct aug charges
   LPAW   =        T    paw PP
   EAUG   =  358.966
   DEXC   =    0.000
   RMAX   =    2.658    core radius for proj-oper
   RAUG   =    1.300    factor for augmentation sphere
   RDEP   =    2.761    radius for radial grids
   RDEPT  =    2.203    core radius for aug-charge

   Atomic configuration
   16 entries
     n  l   j            E        occ.
     1  0  0.50    -78401.1885   2.0000
     2  0  0.50    -13770.7750   2.0000
     2  1  1.50    -11931.0468   6.0000
     3  0  0.50     -3234.7234   2.0000
     3  1  1.50     -2699.2216   6.0000
     3  2  2.50     -2119.5714  10.0000
     4  0  0.50      -695.1528   2.0000
     4  1  1.50      -519.6034   6.0000
     4  2  2.50      -306.6786  10.0000
     4  3  3.50       -70.1041  14.0000
     5  0  0.50      -101.7747   2.0000
     5  1  1.50       -55.9873   6.0000
     5  2  2.50        -6.1423   9.0000
     6  0  0.50        -5.6573   1.0000
     6  1  1.50        -6.8029   0.0000
     5  3  2.50        -1.3606   0.0000
   Description
     l       E           TYP  RCUT    TYP  RCUT
     2     -6.1423404     23  2.500
     2     -7.5029230     23  2.500
     0     -5.6573207     23  2.500
     0      0.7416693     23  2.500
     1     -2.7211652     23  2.600
     1     20.4087390     23  2.600
     3     -1.3605826     23  2.500
  local pseudopotential read in
  partial core-charges read in
  partial kinetic energy density read in
  atomic valenz-charges read in
  non local Contribution for L=           2  read in
    real space projection operators read in
  non local Contribution for L=           2  read in
    real space projection operators read in
  non local Contribution for L=           0  read in
    real space projection operators read in
  non local Contribution for L=           0  read in
    real space projection operators read in
  non local Contribution for L=           1  read in
    real space projection operators read in
  non local Contribution for L=           1  read in
    real space projection operators read in
    PAW grid and wavefunctions read in

   number of l-projection  operators is LMAX  =           6
   number of lm-projection operators is LMMAX =          18

 POTCAR:    PAW_PBE U 06Sep2000
   VRHFIN =U:  [Xe,5d,4f]
   LEXCH  = PE
   EATOM  =  1405.3058 eV,  103.2871 Ry

   TITEL  = PAW_PBE U 06Sep2000
   LULTRA =        F    use ultrasoft PP ?
   IUNSCR =        1    unscreen: 0-lin 1-nonlin 2-no
   RPACOR =    2.200    partial core radius
   POMASS =  238.029; ZVAL   =   14.000    mass and valenz
   RCORE  =    2.800    outmost cutoff radius
   RWIGS  =    3.000; RWIGS  =    1.588    wigner-seitz radius (au A)
   ENMAX  =  252.502; ENMIN  =  189.376 eV
   RCLOC  =    1.811    cutoff for local pot
   LCOR   =        T    correct aug charges
   LPAW   =        T    paw PP
   EAUG   =  526.410
   DEXC   =    0.000
   RMAX   =    2.863    core radius for proj-oper
   RAUG   =    1.300    factor for augmentation sphere
   RDEP   =    2.950    radius for radial grids
   RDEPT  =    2.270    core radius for aug-charge

   Atomic configuration
   18 entries
     n  l   j            E        occ.
     1  0  0.50   -116038.1941   2.0000
     2  0  0.50    -21694.8835   2.0000
     2  1  1.50    -18009.1553   6.0000
     3  0  0.50     -5481.2929   2.0000
     3  1  1.50     -4458.9283   6.0000
     3  2  2.50     -3575.9978  10.0000
     4  0  0.50     -1400.5351   2.0000
     4  1  1.50     -1066.7807   6.0000
     4  2  2.50      -732.1336  10.0000
     4  3  3.50      -377.4393  14.0000
     5  0  0.50      -314.7366   2.0000
     5  1  1.50      -211.6057   6.0000
     5  2  2.50      -103.2045  10.0000
     6  0  0.50       -50.6026   2.0000
     7  0  0.50        -4.5896   2.0000
     6  1  1.50       -25.2884   6.0000
     6  2  1.50        -3.1039   2.0000
     5  3  2.50        -6.3670   2.0000
   Description
     l       E           TYP  RCUT    TYP  RCUT
     0    -50.6026097     23  2.600
     0     -4.5896371     23  2.600
     1    -25.2883770     23  2.500
     1     27.2116520     23  2.500
     2     -3.1038686     23  2.500
     2      0.8290654     23  2.500
     3     -6.3670133     23  2.800
     3     -7.7275959     23  2.800
  local pseudopotential read in
  partial core-charges read in
  partial kinetic energy density read in
  atomic valenz-charges read in
  non local Contribution for L=           0  read in
    real space projection operators read in
  non local Contribution for L=           0  read in
    real space projection operators read in
  non local Contribution for L=           1  read in
    real space projection operators read in
  non local Contribution for L=           1  read in
    real space projection operators read in
  non local Contribution for L=           2  read in
    real space projection operators read in
  non local Contribution for L=           2  read in
    real space projection operators read in
  non local Contribution for L=           3  read in
    real space projection operators read in
  non local Contribution for L=           3  read in
    real space projection operators read in
    PAW grid and wavefunctions read in

   number of l-projection  operators is LMAX  =           8
   number of lm-projection operators is LMMAX =          32


 -----------------------------------------------------------------------------
|                                                                             |
|  ADVICE TO THIS USER RUNNING 'VASP/VAMP'   (HEAR YOUR MASTER'S VOICE ...):  |
|                                                                             |
|      You enforced a specific xc-type in the INCAR file,                     |
|      a different type was found on the POTCAR file                          |
|          I HOPE YOU KNOW, WHAT YOU ARE  DOING                               |
|                                                                             |
 -----------------------------------------------------------------------------

  PAW_PBE Bi_d 06Sep2000                :
 energy of atom  1       EATOM=-1959.2045
 kinetic energy error for atom=    0.0040 (will be added to EATOM!!)
  PAW_PBE Pt 04Feb2005                  :
 energy of atom  2       EATOM= -729.1176
 kinetic energy error for atom=    0.0032 (will be added to EATOM!!)
  PAW_PBE U 06Sep2000                   :
 energy of atom  3       EATOM=-1405.3058
 kinetic energy error for atom=    0.0014 (will be added to EATOM!!)


 POSCAR: U1 Bi1 Pt1
  positions in direct lattice
  velocities in cartesian coordinates
 exchange correlation table for  LEXCH =       14
   RHO(1)=    0.500       N(1)  =     2000
   RHO(2)=  100.500       N(2)  =     4000



--------------------------------------------------------------------------------------------------------


 ion  position               nearest neighbor table
   1  0.250  0.250  0.250-   2 2.87   2 2.87   2 2.87   2 2.87   3 3.32   3 3.32   3 3.32   3 3.32
                             3 3.32   3 3.32
   2  0.000  0.000  0.000-   3 2.87   3 2.87   3 2.87   1 2.87   3 2.87   1 2.87   1 2.87   1 2.87

   3  0.750  0.750  0.750-   2 2.87   2 2.87   2 2.87   2 2.87   1 3.32   1 3.32   1 3.32   1 3.32
                             1 3.32   1 3.32

  LATTYP: Found a face centered cubic cell.
 ALAT       =     6.6352811949

  Lattice vectors:

 A1 = (   0.0000000000,   3.3176405974,   3.3176405974)
 A2 = (   3.3176405974,   0.0000000000,   3.3176405974)
 A3 = (   3.3176405974,   3.3176405974,   0.0000000000)


Analysis of symmetry for initial positions (statically):
=====================================================================
 Subroutine PRICEL returns:
 Original cell was already a primitive cell.


 Routine SETGRP: Setting up the symmetry group for a
 face centered cubic supercell.


 Subroutine GETGRP returns: Found 24 space group operations
 (whereof 24 operations were pure point group operations)
 out of a pool of 48 trial point group operations.


The static configuration has the point symmetry T_d .


Analysis of symmetry for dynamics (positions and initial velocities):
=====================================================================
 Subroutine PRICEL returns:
 Original cell was already a primitive cell.


 Routine SETGRP: Setting up the symmetry group for a
 face centered cubic supercell.


 Subroutine GETGRP returns: Found 24 space group operations
 (whereof 24 operations were pure point group operations)
 out of a pool of 48 trial point group operations.


The dynamic configuration has the point symmetry T_d .


 Subroutine INISYM returns: Found 24 space group operations
 (whereof 24 operations are pure point group operations),
 and found     1 'primitive' translations


----------------------------------------------------------------------------------------

                                     Primitive cell

  volume of cell :      73.0328

  direct lattice vectors                    reciprocal lattice vectors
     0.000000000  3.317640597  3.317640597    -0.150709513  0.150709513  0.150709513
     3.317640597  0.000000000  3.317640597     0.150709513 -0.150709513  0.150709513
     3.317640597  3.317640597  0.000000000     0.150709513  0.150709513 -0.150709513

  length of vectors
     4.691852328  4.691852328  4.691852328     0.261036534  0.261036534  0.261036534

  position of ions in fractional coordinates (direct lattice)
     0.250000000  0.250000000  0.250000000
     0.000000000  0.000000000  0.000000000
     0.750000000  0.750000000  0.750000000

  ion indices of the primitive-cell ions
   primitive index   ion index
                 1           1
                 2           2
                 3           3

----------------------------------------------------------------------------------------



 KPOINTS: KPOINTS

Automatic generation of k-mesh.
Space group operators:
 irot       det(A)        alpha          n_x          n_y          n_z        tau_x        tau_y        tau_z
    1     1.000000     0.000000     1.000000     0.000000     0.000000     0.000000     0.000000     0.000000
    2     1.000000   120.000000    -0.577350    -0.577350    -0.577350     0.000000     0.000000     0.000000
    3     1.000000   120.000000     0.577350     0.577350     0.577350     0.000000     0.000000     0.000000
    4    -1.000000    90.000000    -0.000000    -0.000000    -1.000000     0.000000     0.000000     0.000000
    5    -1.000000   180.000000    -0.000000     0.707107     0.707107     0.000000     0.000000     0.000000
    6    -1.000000    90.000000    -0.000000     1.000000    -0.000000     0.000000     0.000000     0.000000
    7     1.000000   180.000000    -0.000000    -0.000000     1.000000     0.000000     0.000000     0.000000
    8     1.000000   120.000000    -0.577350     0.577350     0.577350     0.000000     0.000000     0.000000
    9     1.000000   120.000000    -0.577350     0.577350    -0.577350     0.000000     0.000000     0.000000
   10    -1.000000    90.000000     0.000000     0.000000     1.000000     0.000000     0.000000     0.000000
   11    -1.000000    90.000000    -1.000000     0.000000     0.000000     0.000000     0.000000     0.000000
   12    -1.000000   180.000000     0.707107     0.000000     0.707107     0.000000     0.000000     0.000000
   13     1.000000   120.000000     0.577350    -0.577350     0.577350     0.000000     0.000000     0.000000
   14     1.000000   120.000000    -0.577350    -0.577350     0.577350     0.000000     0.000000     0.000000
   15     1.000000   180.000000     1.000000     0.000000     0.000000     0.000000     0.000000     0.000000
   16    -1.000000    90.000000     0.000000    -1.000000     0.000000     0.000000     0.000000     0.000000
   17    -1.000000   180.000000     0.707107     0.707107    -0.000000     0.000000     0.000000     0.000000
   18    -1.000000    90.000000     1.000000     0.000000     0.000000     0.000000     0.000000     0.000000
   19     1.000000   120.000000     0.577350    -0.577350    -0.577350     0.000000     0.000000     0.000000
   20     1.000000   180.000000     0.000000     1.000000     0.000000     0.000000     0.000000     0.000000
   21     1.000000   120.000000     0.577350     0.577350    -0.577350     0.000000     0.000000     0.000000
   22    -1.000000   180.000000    -0.000000    -0.707107     0.707107     0.000000     0.000000     0.000000
   23    -1.000000   180.000000     0.707107    -0.707107     0.000000     0.000000     0.000000     0.000000
   24    -1.000000   180.000000     0.707107     0.000000    -0.707107     0.000000     0.000000     0.000000

 Subroutine IBZKPT returns following result:
 ===========================================

 Found     84 irreducible k-points:

 Following reciprocal coordinates:
            Coordinates               Weight
  0.000000  0.000000  0.000000      1.000000
  0.076923  0.000000 -0.000000      8.000000
  0.153846 -0.000000 -0.000000      8.000000
  0.230769  0.000000 -0.000000      8.000000
  0.307692 -0.000000 -0.000000      8.000000
  0.384615  0.000000 -0.000000      8.000000
  0.461538 -0.000000  0.000000      8.000000
  0.076923  0.076923 -0.000000      6.000000
  0.153846  0.076923 -0.000000     24.000000
  0.230769  0.076923 -0.000000     24.000000
  0.307692  0.076923 -0.000000     24.000000
  0.384615  0.076923 -0.000000     24.000000
  0.461538  0.076923 -0.000000     24.000000
 -0.461538  0.076923  0.000000     24.000000
 -0.384615  0.076923  0.000000     24.000000
 -0.307692  0.076923  0.000000     24.000000
 -0.230769  0.076923  0.000000     24.000000
 -0.153846  0.076923  0.000000     24.000000
 -0.076923  0.076923  0.000000     12.000000
  0.153846  0.153846 -0.000000      6.000000
  0.230769  0.153846  0.000000     24.000000
  0.307692  0.153846 -0.000000     24.000000
  0.384615  0.153846 -0.000000     24.000000
  0.461538  0.153846 -0.000000     24.000000
 -0.461538  0.153846 -0.000000     24.000000
 -0.384615  0.153846  0.000000     24.000000
 -0.307692  0.153846 -0.000000     24.000000
 -0.230769  0.153846  0.000000     24.000000
 -0.153846  0.153846 -0.000000     12.000000
  0.230769  0.230769 -0.000000      6.000000
  0.307692  0.230769  0.000000     24.000000
  0.384615  0.230769 -0.000000     24.000000
  0.461538  0.230769 -0.000000     24.000000
 -0.461538  0.230769  0.000000     24.000000
 -0.384615  0.230769 -0.000000     24.000000
 -0.307692  0.230769  0.000000     24.000000
 -0.230769  0.230769  0.000000     12.000000
  0.307692  0.307692 -0.000000      6.000000
  0.384615  0.307692  0.000000     24.000000
  0.461538  0.307692 -0.000000     24.000000
 -0.461538  0.307692  0.000000     24.000000
 -0.384615  0.307692  0.000000     24.000000
 -0.307692  0.307692 -0.000000     12.000000
  0.384615  0.384615 -0.000000      6.000000
  0.461538  0.384615  0.000000     24.000000
 -0.461538  0.384615  0.000000     24.000000
 -0.384615  0.384615  0.000000     12.000000
  0.461538  0.461538 -0.000000      6.000000
 -0.461538  0.461538 -0.000000     12.000000
  0.230769  0.153846  0.076923     24.000000
  0.307692  0.153846  0.076923     48.000000
  0.384615  0.153846  0.076923     48.000000
  0.461538  0.153846  0.076923     48.000000
 -0.461538  0.153846  0.076923     48.000000
  0.307692  0.230769  0.076923     24.000000
  0.384615  0.230769  0.076923     48.000000
  0.461538  0.230769  0.076923     48.000000
 -0.461538  0.230769  0.076923     48.000000
 -0.384615  0.230769  0.076923     48.000000
 -0.307692  0.230769  0.076923     48.000000
 -0.230769  0.230769  0.076923     48.000000
 -0.153846  0.230769  0.076923     24.000000
  0.384615  0.307692  0.076923     24.000000
  0.461538  0.307692  0.076923     48.000000
 -0.461538  0.307692  0.076923     48.000000
 -0.384615  0.307692  0.076923     48.000000
 -0.307692  0.307692  0.076923     48.000000
 -0.230769  0.307692  0.076923     24.000000
  0.461538  0.384615  0.076923     24.000000
 -0.461538  0.384615  0.076923     48.000000
 -0.384615  0.384615  0.076923     48.000000
 -0.307692  0.384615  0.076923     24.000000
 -0.461538  0.461538  0.076923     24.000000
 -0.384615  0.461538  0.076923     24.000000
  0.461538  0.307692  0.153846     24.000000
 -0.461538  0.307692  0.153846     48.000000
 -0.384615  0.307692  0.153846     48.000000
 -0.461538  0.384615  0.153846     24.000000
 -0.384615  0.384615  0.153846     48.000000
 -0.307692  0.384615  0.153846     48.000000
 -0.230769  0.384615  0.153846     24.000000
 -0.384615  0.461538  0.153846     24.000000
 -0.307692  0.461538  0.153846     24.000000
 -0.307692  0.461538  0.230769     24.000000

 Following cartesian coordinates:
            Coordinates               Weight
  0.000000  0.000000  0.000000      1.000000
 -0.011593  0.011593  0.011593      8.000000
 -0.023186  0.023186  0.023186      8.000000
 -0.034779  0.034779  0.034779      8.000000
 -0.046372  0.046372  0.046372      8.000000
 -0.057965  0.057965  0.057965      8.000000
 -0.069558  0.069558  0.069558      8.000000
  0.000000 -0.000000  0.023186      6.000000
 -0.011593  0.011593  0.034779     24.000000
 -0.023186  0.023186  0.046372     24.000000
 -0.034779  0.034779  0.057965     24.000000
 -0.046372  0.046372  0.069558     24.000000
 -0.057965  0.057965  0.081151     24.000000
  0.081151 -0.081151 -0.057965     24.000000
  0.069558 -0.069558 -0.046372     24.000000
  0.057965 -0.057965 -0.034779     24.000000
  0.046372 -0.046372 -0.023186     24.000000
  0.034779 -0.034779 -0.011593     24.000000
  0.023186 -0.023186  0.000000     12.000000
 -0.000000  0.000000  0.046372      6.000000
 -0.011593  0.011593  0.057965     24.000000
 -0.023186  0.023186  0.069558     24.000000
 -0.034779  0.034779  0.081151     24.000000
 -0.046372  0.046372  0.092744     24.000000
  0.092744 -0.092744 -0.046372     24.000000
  0.081151 -0.081151 -0.034779     24.000000
  0.069558 -0.069558 -0.023186     24.000000
  0.057965 -0.057965 -0.011593     24.000000
  0.046372 -0.046372  0.000000     12.000000
 -0.000000  0.000000  0.069558      6.000000
 -0.011593  0.011593  0.081151     24.000000
 -0.023186  0.023186  0.092744     24.000000
 -0.034779  0.034779  0.104337     24.000000
  0.104337 -0.104337 -0.034779     24.000000
  0.092744 -0.092744 -0.023186     24.000000
  0.081151 -0.081151 -0.011593     24.000000
  0.069558 -0.069558 -0.000000     12.000000
 -0.000000  0.000000  0.092744      6.000000
 -0.011593  0.011593  0.104337     24.000000
 -0.023186  0.023186  0.115930     24.000000
  0.115930 -0.115930 -0.023186     24.000000
  0.104337 -0.104337 -0.011593     24.000000
  0.092744 -0.092744  0.000000     12.000000
 -0.000000  0.000000  0.115930      6.000000
 -0.011593  0.011593  0.127523     24.000000
  0.127523 -0.127523 -0.011593     24.000000
  0.115930 -0.115930 -0.000000     12.000000
 -0.000000  0.000000  0.139116      6.000000
  0.139116 -0.139116 -0.000000     12.000000
 -0.000000  0.023186  0.046372     24.000000
 -0.011593  0.034779  0.057965     48.000000
 -0.023186  0.046372  0.069558     48.000000
 -0.034779  0.057965  0.081151     48.000000
  0.104337 -0.081151 -0.057965     48.000000
  0.000000  0.023186  0.069558     24.000000
 -0.011593  0.034779  0.081151     48.000000
 -0.023186  0.046372  0.092744     48.000000
  0.115930 -0.092744 -0.046372     48.000000
  0.104337 -0.081151 -0.034779     48.000000
  0.092744 -0.069558 -0.023186     48.000000
  0.081151 -0.057965 -0.011593     48.000000
  0.069558 -0.046372 -0.000000     24.000000
 -0.000000  0.023186  0.092744     24.000000
 -0.011593  0.034779  0.104337     48.000000
  0.127523 -0.104337 -0.034779     48.000000
  0.115930 -0.092744 -0.023186     48.000000
  0.104337 -0.081151 -0.011593     48.000000
  0.092744 -0.069558 -0.000000     24.000000
  0.000000  0.023186  0.115930     24.000000
  0.139116 -0.115930 -0.023186     48.000000
  0.127523 -0.104337 -0.011593     48.000000
  0.115930 -0.092744 -0.000000     24.000000
  0.150710 -0.127523 -0.011593     24.000000
  0.139116 -0.115930 -0.000000     24.000000
 -0.000000  0.046372  0.092744     24.000000
  0.139116 -0.092744 -0.046372     48.000000
  0.127523 -0.081151 -0.034779     48.000000
  0.150710 -0.104337 -0.034779     24.000000
  0.139116 -0.092744 -0.023186     48.000000
  0.127523 -0.081151 -0.011593     48.000000
  0.115930 -0.069558 -0.000000     24.000000
  0.150710 -0.104337 -0.011593     24.000000
  0.139116 -0.092744 -0.000000     24.000000
  0.150710 -0.081151 -0.011593     24.000000



--------------------------------------------------------------------------------------------------------




 Dimension of arrays:
   k-points           NKPTS =     84   k-points in BZ     NKDIM =     84   number of bands    NBANDS=     24
   number of dos      NEDOS =    301   number of ions     NIONS =      3
   non local maximal  LDIM  =      8   non local SUM 2l+1 LMDIM =     32
   total plane-waves  NPLWV =  46656
   max r-space proj   IRMAX =      1   max aug-charges    IRDMAX= 311873
   dimension x,y,z NGX =    36 NGY =   36 NGZ =   36
   dimension x,y,z NGXF=    72 NGYF=   72 NGZF=   72
   support grid    NGXF=   144 NGYF=  144 NGZF=  144
   ions per type =               1   1   1
   NGX,Y,Z   is equivalent  to a cutoff of  12.76, 12.76, 12.76 a.u.
   NGXF,Y,Z  is equivalent  to a cutoff of  25.51, 25.51, 25.51 a.u.

 SYSTEM =  unknown system
 POSCAR =  U1 Bi1 Pt1

 Startparameter for this run:
   NWRITE =      2    write-flag & timer
   PREC   = acc       normal or accurate (medium, high low for compatibility)
   ISTART =      0    job   : 0-new  1-cont  2-samecut
   ICHARG =      2    charge: 1-file 2-atom 10-const
   ISPIN  =      1    spin polarized calculation?
   LNONCOLLINEAR =      F non collinear calculations
   LSORBIT =      F    spin-orbit coupling
   INIWAV =      1    electr: 0-lowe 1-rand  2-diag
   LASPH  =      F    aspherical Exc in radial PAW
   METAGGA=      F    non-selfconsistent MetaGGA calc.

 Electronic Relaxation 1
   ENCUT  =  520.0 eV  38.22 Ry    6.18 a.u.   8.72  8.72  8.72*2*pi/ulx,y,z
   ENINI  =  520.0     initial cutoff
   ENAUG  =  526.4 eV  augmentation charge cutoff
   NELM   =     60;   NELMIN=  5; NELMDL= -5     # of ELM steps
   EDIFF  = 0.1E-04   stopping-criterion for ELM
   LREAL  =      F    real-space projection
   NLSPLINE    = F    spline interpolate recip. space projectors
   LCOMPAT=      F    compatible to vasp.4.4
   GGA_COMPAT  = T    GGA compatible to vasp.4.4-vasp.4.6
   LMAXPAW     = -100 max onsite density
   LMAXMIX     =    2 max onsite mixed and CHGCAR
   VOSKOWN=      0    Vosko Wilk Nusair interpolation
   ROPT   =    0.00000   0.00000   0.00000
 Ionic relaxation
   EDIFFG = -.1E-01   stopping-criterion for IOM
   NSW    =     60    number of steps for IOM
   NBLOCK =      1;   KBLOCK =     60    inner block; outer block
   IBRION =      3    ionic relax: 0-MD 1-quasi-New 2-CG
   NFREE  =      0    steps in history (QN), initial steepest desc. (CG)
   ISIF   =      7    stress and relaxation
   IWAVPR =     11    prediction:  0-non 1-charg 2-wave 3-comb
   ISYM   =      2    0-nonsym 1-usesym 2-fastsym
   LCORR  =      T    Harris-Foulkes like correction to forces

   POTIM  = 0.1000    time-step for ionic-motion
   TEIN   =    0.0    initial temperature
   TEBEG  =    0.0;   TEEND  =   0.0 temperature during run
   SMASS  =  -3.00    Nose mass-parameter (am)
   estimated Nose-frequenzy (Omega)   =  0.10E-29 period in steps = 0.63E+47 mass=  -0.503E-27a.u.
   SCALEE = 1.0000    scale energy and forces
   NPACO  =    256;   APACO  = 16.0  distance and # of slots for P.C.
   PSTRESS=    0.0 pullay stress

  Mass of Ions in am
   POMASS = 208.98195.08238.03
  Ionic Valenz
   ZVAL   =  15.00 10.00 14.00
  Atomic Wigner-Seitz radii
   RWIGS  =  -1.00 -1.00 -1.00
  virtual crystal weights
   VCA    =   1.00  1.00  1.00
   NELECT =      39.0000    total number of electrons
   NUPDOWN=      -1.0000    fix difference up-down

 DOS related values:
   EMIN   =  10.00;   EMAX   =-10.00  energy-range for DOS
   EFERMI =   0.00
   ISMEAR =     0;   SIGMA  =   0.01  broadening in eV -4-tet -1-fermi 0-gaus

 Electronic relaxation 2 (details)
   IALGO  =     38    algorithm
   LDIAG  =      T    sub-space diagonalisation (order eigenvalues)
   LSUBROT=      F    optimize rotation matrix (better conditioning)
   TURBO    =      0    0=normal 1=particle mesh
   IRESTART =      0    0=no restart 2=restart with 2 vectors
   NREBOOT  =      0    no. of reboots
   NMIN     =      0    reboot dimension
   EREF     =   0.00    reference energy to select bands
   IMIX   =      4    mixing-type and parameters
     AMIX     =   0.40;   BMIX     =  1.00
     AMIX_MAG =   1.60;   BMIX_MAG =  1.00
     AMIN     =   0.10
     WC   =   100.;   INIMIX=   1;  MIXPRE=   1;  MAXMIX= -45

 Intra band minimization:
   WEIMIN = 0.0010     energy-eigenvalue tresh-hold
   EBREAK =  0.10E-06  absolut break condition
   DEPER  =   0.30     relativ break condition

   TIME   =   0.40     timestep for ELM

  volume/ion in A,a.u.               =      24.34       164.28
  Fermi-wavevector in a.u.,A,eV,Ry     =   1.328180  2.509897 24.001533  1.764063
  Thomas-Fermi vector in A             =   2.457437

 Write flags
   LWAVE        =      F    write WAVECAR
   LDOWNSAMPLE  =      F    k-point downsampling of WAVECAR
   LCHARG       =      F    write CHGCAR
   LVTOT        =      F    write LOCPOT, total local potential
   LVHAR        =      F    write LOCPOT, Hartree potential only
   LELF         =      F    write electronic localiz. function (ELF)
   LORBIT       =      0    0 simple, 1 ext, 2 COOP (PROOUT), +10 PAW based schemes


 Dipole corrections
   LMONO  =      F    monopole corrections only (constant potential shift)
   LDIPOL =      F    correct potential (dipole corrections)
   IDIPOL =      0    1-x, 2-y, 3-z, 4-all directions
   EPSILON=  1.0000000 bulk dielectric constant

 Exchange correlation treatment:
   GGA     =    PS    GGA type
   LEXCH   =    14    internal setting for exchange type
   VOSKOWN=      0    Vosko Wilk Nusair interpolation
   LHFCALC =     F    Hartree Fock is set to
   LHFONE  =     F    Hartree Fock one center treatment
   AEXX    =    0.0000 exact exchange contribution

 Linear response parameters
   LEPSILON=     F    determine dielectric tensor
   LRPA    =     F    only Hartree local field effects (RPA)
   LNABLA  =     F    use nabla operator in PAW spheres
   LVEL    =     F    velocity operator in full k-point grid
   LINTERFAST=   F  fast interpolation
   KINTER  =     0    interpolate to denser k-point grid
   CSHIFT  =0.1000    complex shift for real part using Kramers Kronig
   OMEGAMAX=  -1.0    maximum frequency
   DEG_THRESHOLD= 0.2000000E-02 threshold for treating states as degnerate
   RTIME   =   -0.100 relaxation time in fs
  (WPLASMAI=    0.000 imaginary part of plasma frequency in eV, 0.658/RTIME)
   DFIELD  = 0.0000000 0.0000000 0.0000000 field for delta impulse in time

 Orbital magnetization related:
   ORBITALMAG=     F  switch on orbital magnetization
   LCHIMAG   =     F  perturbation theory with respect to B field
   DQ        =  0.001000  dq finite difference perturbation B field
   LLRAUG    =     F  two centre corrections for induced B field



--------------------------------------------------------------------------------------------------------


 quickmin algorithm: (dynamic with friction)
 charge density and potential will be updated during run
 non-spin polarized calculation
 Variant of blocked Davidson
 Davidson routine will perform the subspace rotation
 perform sub-space diagonalisation
    after iterative eigenvector-optimisation
 modified Broyden-mixing scheme, WC =      100.0
 initial mixing is a Kerker type mixing with AMIX =  0.4000 and BMIX =      1.0000
 Hartree-type preconditioning will be used
 using additional bands            4
 reciprocal scheme for non local part
 use partial core corrections
 calculate Harris-corrections to forces
   (improved forces if not selfconsistent)
 use gradient corrections
 use of overlap-Matrix (Vanderbilt PP)
 Gauss-broadening in eV      SIGMA  =   0.01


--------------------------------------------------------------------------------------------------------


  energy-cutoff  :      520.00
  volume of cell :       73.03
      direct lattice vectors                 reciprocal lattice vectors
     0.000000000  3.317640597  3.317640597    -0.150709513  0.150709513  0.150709513
     3.317640597  0.000000000  3.317640597     0.150709513 -0.150709513  0.150709513
     3.317640597  3.317640597  0.000000000     0.150709513  0.150709513 -0.150709513

  length of vectors
     4.691852328  4.691852328  4.691852328     0.261036534  0.261036534  0.261036534



 k-points in units of 2pi/SCALE and weight: KPOINTS
   0.00000000  0.00000000  0.00000000       0.000
  -0.01159304  0.01159304  0.01159304       0.004
  -0.02318608  0.02318608  0.02318608       0.004
  -0.03477912  0.03477912  0.03477912       0.004
  -0.04637216  0.04637216  0.04637216       0.004
  -0.05796520  0.05796520  0.05796520       0.004
  -0.06955824  0.06955824  0.06955824       0.004
   0.00000000 -0.00000000  0.02318608       0.003
  -0.01159304  0.01159304  0.03477912       0.011
  -0.02318608  0.02318608  0.04637216       0.011
  -0.03477912  0.03477912  0.05796520       0.011
  -0.04637216  0.04637216  0.06955824       0.011
  -0.05796520  0.05796520  0.08115128       0.011
   0.08115128 -0.08115128 -0.05796520       0.011
   0.06955824 -0.06955824 -0.04637216       0.011
   0.05796520 -0.05796520 -0.03477912       0.011
   0.04637216 -0.04637216 -0.02318608       0.011
   0.03477912 -0.03477912 -0.01159304       0.011
   0.02318608 -0.02318608  0.00000000       0.005
  -0.00000000  0.00000000  0.04637216       0.003
  -0.01159304  0.01159304  0.05796520       0.011
  -0.02318608  0.02318608  0.06955824       0.011
  -0.03477912  0.03477912  0.08115128       0.011
  -0.04637216  0.04637216  0.09274432       0.011
   0.09274432 -0.09274432 -0.04637216       0.011
   0.08115128 -0.08115128 -0.03477912       0.011
   0.06955824 -0.06955824 -0.02318608       0.011
   0.05796520 -0.05796520 -0.01159304       0.011
   0.04637216 -0.04637216  0.00000000       0.005
  -0.00000000  0.00000000  0.06955824       0.003
  -0.01159304  0.01159304  0.08115128       0.011
  -0.02318608  0.02318608  0.09274432       0.011
  -0.03477912  0.03477912  0.10433736       0.011
   0.10433736 -0.10433736 -0.03477912       0.011
   0.09274432 -0.09274432 -0.02318608       0.011
   0.08115128 -0.08115128 -0.01159304       0.011
   0.06955824 -0.06955824 -0.00000000       0.005
  -0.00000000  0.00000000  0.09274432       0.003
  -0.01159304  0.01159304  0.10433736       0.011
  -0.02318608  0.02318608  0.11593039       0.011
   0.11593039 -0.11593039 -0.02318608       0.011
   0.10433736 -0.10433736 -0.01159304       0.011
   0.09274432 -0.09274432  0.00000000       0.005
  -0.00000000  0.00000000  0.11593039       0.003
  -0.01159304  0.01159304  0.12752343       0.011
   0.12752343 -0.12752343 -0.01159304       0.011
   0.11593039 -0.11593039 -0.00000000       0.005
  -0.00000000  0.00000000  0.13911647       0.003
   0.13911647 -0.13911647 -0.00000000       0.005
  -0.00000000  0.02318608  0.04637216       0.011
  -0.01159304  0.03477912  0.05796520       0.022
  -0.02318608  0.04637216  0.06955824       0.022
  -0.03477912  0.05796520  0.08115128       0.022
   0.10433736 -0.08115128 -0.05796520       0.022
   0.00000000  0.02318608  0.06955824       0.011
  -0.01159304  0.03477912  0.08115128       0.022
  -0.02318608  0.04637216  0.09274432       0.022
   0.11593039 -0.09274432 -0.04637216       0.022
   0.10433736 -0.08115128 -0.03477912       0.022
   0.09274432 -0.06955824 -0.02318608       0.022
   0.08115128 -0.05796520 -0.01159304       0.022
   0.06955824 -0.04637216 -0.00000000       0.011
  -0.00000000  0.02318608  0.09274432       0.011
  -0.01159304  0.03477912  0.10433736       0.022
   0.12752343 -0.10433736 -0.03477912       0.022
   0.11593039 -0.09274432 -0.02318608       0.022
   0.10433736 -0.08115128 -0.01159304       0.022
   0.09274432 -0.06955824 -0.00000000       0.011
   0.00000000  0.02318608  0.11593039       0.011
   0.13911647 -0.11593039 -0.02318608       0.022
   0.12752343 -0.10433736 -0.01159304       0.022
   0.11593039 -0.09274432 -0.00000000       0.011
   0.15070951 -0.12752343 -0.01159304       0.011
   0.13911647 -0.11593039 -0.00000000       0.011
  -0.00000000  0.04637216  0.09274432       0.011
   0.13911647 -0.09274432 -0.04637216       0.022
   0.12752343 -0.08115128 -0.03477912       0.022
   0.15070951 -0.10433736 -0.03477912       0.011
   0.13911647 -0.09274432 -0.02318608       0.022
   0.12752343 -0.08115128 -0.01159304       0.022
   0.11593039 -0.06955824 -0.00000000       0.011
   0.15070951 -0.10433736 -0.01159304       0.011
   0.13911647 -0.09274432 -0.00000000       0.011
   0.15070951 -0.08115128 -0.01159304       0.011

 k-points in reciprocal lattice and weights: KPOINTS
   0.00000000  0.00000000  0.00000000       0.000
   0.07692308  0.00000000 -0.00000000       0.004
   0.15384615 -0.00000000 -0.00000000       0.004
   0.23076923  0.00000000 -0.00000000       0.004
   0.30769231 -0.00000000 -0.00000000       0.004
   0.38461538  0.00000000 -0.00000000       0.004
   0.46153846 -0.00000000  0.00000000       0.004
   0.07692308  0.07692308 -0.00000000       0.003
   0.15384615  0.07692308 -0.00000000       0.011
   0.23076923  0.07692308 -0.00000000       0.011
   0.30769231  0.07692308 -0.00000000       0.011
   0.38461538  0.07692308 -0.00000000       0.011
   0.46153846  0.07692308 -0.00000000       0.011
  -0.46153846  0.07692308  0.00000000       0.011
  -0.38461538  0.07692308  0.00000000       0.011
  -0.30769231  0.07692308  0.00000000       0.011
  -0.23076923  0.07692308  0.00000000       0.011
  -0.15384615  0.07692308  0.00000000       0.011
  -0.07692308  0.07692308  0.00000000       0.005
   0.15384615  0.15384615 -0.00000000       0.003
   0.23076923  0.15384615  0.00000000       0.011
   0.30769231  0.15384615 -0.00000000       0.011
   0.38461538  0.15384615 -0.00000000       0.011
   0.46153846  0.15384615 -0.00000000       0.011
  -0.46153846  0.15384615 -0.00000000       0.011
  -0.38461538  0.15384615  0.00000000       0.011
  -0.30769231  0.15384615 -0.00000000       0.011
  -0.23076923  0.15384615  0.00000000       0.011
  -0.15384615  0.15384615 -0.00000000       0.005
   0.23076923  0.23076923 -0.00000000       0.003
   0.30769231  0.23076923  0.00000000       0.011
   0.38461538  0.23076923 -0.00000000       0.011
   0.46153846  0.23076923 -0.00000000       0.011
  -0.46153846  0.23076923  0.00000000       0.011
  -0.38461538  0.23076923 -0.00000000       0.011
  -0.30769231  0.23076923  0.00000000       0.011
  -0.23076923  0.23076923  0.00000000       0.005
   0.30769231  0.30769231 -0.00000000       0.003
   0.38461538  0.30769231  0.00000000       0.011
   0.46153846  0.30769231 -0.00000000       0.011
  -0.46153846  0.30769231  0.00000000       0.011
  -0.38461538  0.30769231  0.00000000       0.011
  -0.30769231  0.30769231 -0.00000000       0.005
   0.38461538  0.38461538 -0.00000000       0.003
   0.46153846  0.38461538  0.00000000       0.011
  -0.46153846  0.38461538  0.00000000       0.011
  -0.38461538  0.38461538  0.00000000       0.005
   0.46153846  0.46153846 -0.00000000       0.003
  -0.46153846  0.46153846 -0.00000000       0.005
   0.23076923  0.15384615  0.07692308       0.011
   0.30769231  0.15384615  0.07692308       0.022
   0.38461538  0.15384615  0.07692308       0.022
   0.46153846  0.15384615  0.07692308       0.022
  -0.46153846  0.15384615  0.07692308       0.022
   0.30769231  0.23076923  0.07692308       0.011
   0.38461538  0.23076923  0.07692308       0.022
   0.46153846  0.23076923  0.07692308       0.022
  -0.46153846  0.23076923  0.07692308       0.022
  -0.38461538  0.23076923  0.07692308       0.022
  -0.30769231  0.23076923  0.07692308       0.022
  -0.23076923  0.23076923  0.07692308       0.022
  -0.15384615  0.23076923  0.07692308       0.011
   0.38461538  0.30769231  0.07692308       0.011
   0.46153846  0.30769231  0.07692308       0.022
  -0.46153846  0.30769231  0.07692308       0.022
  -0.38461538  0.30769231  0.07692308       0.022
  -0.30769231  0.30769231  0.07692308       0.022
  -0.23076923  0.30769231  0.07692308       0.011
   0.46153846  0.38461538  0.07692308       0.011
  -0.46153846  0.38461538  0.07692308       0.022
  -0.38461538  0.38461538  0.07692308       0.022
  -0.30769231  0.38461538  0.07692308       0.011
  -0.46153846  0.46153846  0.07692308       0.011
  -0.38461538  0.46153846  0.07692308       0.011
   0.46153846  0.30769231  0.15384615       0.011
  -0.46153846  0.30769231  0.15384615       0.022
  -0.38461538  0.30769231  0.15384615       0.022
  -0.46153846  0.38461538  0.15384615       0.011
  -0.38461538  0.38461538  0.15384615       0.022
  -0.30769231  0.38461538  0.15384615       0.022
  -0.23076923  0.38461538  0.15384615       0.011
  -0.38461538  0.46153846  0.15384615       0.011
  -0.30769231  0.46153846  0.15384615       0.011
  -0.30769231  0.46153846  0.23076923       0.011

 position of ions in fractional coordinates (direct lattice)
   0.25000000  0.25000000  0.25000000
   0.00000000  0.00000000  0.00000000
   0.75000000  0.75000000  0.75000000

 position of ions in cartesian coordinates  (Angst):
   1.65882030  1.65882030  1.65882030
   0.00000000  0.00000000  0.00000000
   4.97646090  4.97646090  4.97646090



--------------------------------------------------------------------------------------------------------


 k-point  1 :   0.0000 0.0000 0.0000  plane waves:    1989
 k-point  2 :   0.0769 0.0000-0.0000  plane waves:    1971
 k-point  3 :   0.1538-0.0000-0.0000  plane waves:    1970
 k-point  4 :   0.2308 0.0000-0.0000  plane waves:    1967
 k-point  5 :   0.3077-0.0000-0.0000  plane waves:    1967
 k-point  6 :   0.3846 0.0000-0.0000  plane waves:    1952
 k-point  7 :   0.4615-0.0000 0.0000  plane waves:    1949
 k-point  8 :   0.0769 0.0769-0.0000  plane waves:    1961
 k-point  9 :   0.1538 0.0769-0.0000  plane waves:    1970
 k-point 10 :   0.2308 0.0769-0.0000  plane waves:    1966
 k-point 11 :   0.3077 0.0769-0.0000  plane waves:    1960
 k-point 12 :   0.3846 0.0769-0.0000  plane waves:    1973
 k-point 13 :   0.4615 0.0769-0.0000  plane waves:    1963
 k-point 14 :  -0.4615 0.0769 0.0000  plane waves:    1974
 k-point 15 :  -0.3846 0.0769 0.0000  plane waves:    1965
 k-point 16 :  -0.3077 0.0769 0.0000  plane waves:    1968
 k-point 17 :  -0.2308 0.0769 0.0000  plane waves:    1962
 k-point 18 :  -0.1538 0.0769 0.0000  plane waves:    1966
 k-point 19 :  -0.0769 0.0769 0.0000  plane waves:    1973
 k-point 20 :   0.1538 0.1538-0.0000  plane waves:    1981
 k-point 21 :   0.2308 0.1538 0.0000  plane waves:    1977
 k-point 22 :   0.3077 0.1538-0.0000  plane waves:    1966
 k-point 23 :   0.3846 0.1538-0.0000  plane waves:    1964
 k-point 24 :   0.4615 0.1538-0.0000  plane waves:    1961
 k-point 25 :  -0.4615 0.1538-0.0000  plane waves:    1974
 k-point 26 :  -0.3846 0.1538 0.0000  plane waves:    1973
 k-point 27 :  -0.3077 0.1538-0.0000  plane waves:    1962
 k-point 28 :  -0.2308 0.1538 0.0000  plane waves:    1964
 k-point 29 :  -0.1538 0.1538-0.0000  plane waves:    1967
 k-point 30 :   0.2308 0.2308-0.0000  plane waves:    1980
 k-point 31 :   0.3077 0.2308 0.0000  plane waves:    1974
 k-point 32 :   0.3846 0.2308-0.0000  plane waves:    1974
 k-point 33 :   0.4615 0.2308-0.0000  plane waves:    1962
 k-point 34 :  -0.4615 0.2308 0.0000  plane waves:    1969
 k-point 35 :  -0.3846 0.2308-0.0000  plane waves:    1975
 k-point 36 :  -0.3077 0.2308 0.0000  plane waves:    1962
 k-point 37 :  -0.2308 0.2308 0.0000  plane waves:    1965
 k-point 38 :   0.3077 0.3077-0.0000  plane waves:    1972
 k-point 39 :   0.3846 0.3077 0.0000  plane waves:    1969
 k-point 40 :   0.4615 0.3077-0.0000  plane waves:    1961
 k-point 41 :  -0.4615 0.3077 0.0000  plane waves:    1968
 k-point 42 :  -0.3846 0.3077 0.0000  plane waves:    1965
 k-point 43 :  -0.3077 0.3077-0.0000  plane waves:    1961
 k-point 44 :   0.3846 0.3846-0.0000  plane waves:    1976
 k-point 45 :   0.4615 0.3846 0.0000  plane waves:    1981
 k-point 46 :  -0.4615 0.3846 0.0000  plane waves:    1970
 k-point 47 :  -0.3846 0.3846 0.0000  plane waves:    1942
 k-point 48 :   0.4615 0.4615-0.0000  plane waves:    1988
 k-point 49 :  -0.4615 0.4615-0.0000  plane waves:    1982
 k-point 50 :   0.2308 0.1538 0.0769  plane waves:    1969
 k-point 51 :   0.3077 0.1538 0.0769  plane waves:    1963
 k-point 52 :   0.3846 0.1538 0.0769  plane waves:    1960
 k-point 53 :   0.4615 0.1538 0.0769  plane waves:    1960
 k-point 54 :  -0.4615 0.1538 0.0769  plane waves:    1964
 k-point 55 :   0.3077 0.2308 0.0769  plane waves:    1977
 k-point 56 :   0.3846 0.2308 0.0769  plane waves:    1968
 k-point 57 :   0.4615 0.2308 0.0769  plane waves:    1967
 k-point 58 :  -0.4615 0.2308 0.0769  plane waves:    1965
 k-point 59 :  -0.3846 0.2308 0.0769  plane waves:    1974
 k-point 60 :  -0.3077 0.2308 0.0769  plane waves:    1966
 k-point 61 :  -0.2308 0.2308 0.0769  plane waves:    1967
 k-point 62 :  -0.1538 0.2308 0.0769  plane waves:    1967
 k-point 63 :   0.3846 0.3077 0.0769  plane waves:    1980
 k-point 64 :   0.4615 0.3077 0.0769  plane waves:    1964
 k-point 65 :  -0.4615 0.3077 0.0769  plane waves:    1976
 k-point 66 :  -0.3846 0.3077 0.0769  plane waves:    1964
 k-point 67 :  -0.3077 0.3077 0.0769  plane waves:    1965
 k-point 68 :  -0.2308 0.3077 0.0769  plane waves:    1972
 k-point 69 :   0.4615 0.3846 0.0769  plane waves:    1970
 k-point 70 :  -0.4615 0.3846 0.0769  plane waves:    1978
 k-point 71 :  -0.3846 0.3846 0.0769  plane waves:    1957
 k-point 72 :  -0.3077 0.3846 0.0769  plane waves:    1956
 k-point 73 :  -0.4615 0.4615 0.0769  plane waves:    1971
 k-point 74 :  -0.3846 0.4615 0.0769  plane waves:    1970
 k-point 75 :   0.4615 0.3077 0.1538  plane waves:    1970
 k-point 76 :  -0.4615 0.3077 0.1538  plane waves:    1973
 k-point 77 :  -0.3846 0.3077 0.1538  plane waves:    1968
 k-point 78 :  -0.4615 0.3846 0.1538  plane waves:    1966
 k-point 79 :  -0.3846 0.3846 0.1538  plane waves:    1955
 k-point 80 :  -0.3077 0.3846 0.1538  plane waves:    1957
 k-point 81 :  -0.2308 0.3846 0.1538  plane waves:    1968
 k-point 82 :  -0.3846 0.4615 0.1538  plane waves:    1955
 k-point 83 :  -0.3077 0.4615 0.1538  plane waves:    1952
 k-point 84 :  -0.3077 0.4615 0.2308  plane waves:    1952

 maximum and minimum number of plane-waves per node :       509      478

 maximum number of plane-waves:      1989
 maximum index in each direction:
   IXMAX=    9   IYMAX=    8   IZMAX=    8
   IXMIN=   -9   IYMIN=   -9   IZMIN=   -8


 parallel 3D FFT for wavefunctions:
    minimum data exchange during FFTs selected (reduces bandwidth)
 parallel 3D FFT for charge:
    minimum data exchange during FFTs selected (reduces bandwidth)


 total amount of memory used by VASP MPI-rank0    73497. kBytes
=======================================================================

   base      :      30000. kBytes
   nonl-proj :      33054. kBytes
   fftplans  :       3843. kBytes
   grid      :       2165. kBytes
   one-center:         49. kBytes
   wavefun   :       4386. kBytes

     INWAV:  cpu time    0.0003: real time    0.0007
 Broyden mixing: mesh for mixing (old mesh)
   NGX = 17   NGY = 17   NGZ = 17
  (NGX  = 72   NGY  = 72   NGZ  = 72)
  gives a total of   4913 points

 initial charge density was supplied:
 charge density of overlapping atoms calculated
 number of electron      39.0000000 magnetization
 keeping initial charge density in first step


--------------------------------------------------------------------------------------------------------


 Maximum index for augmentation-charges        18914 (set IRDMAX)


--------------------------------------------------------------------------------------------------------


 First call to EWALD:  gamma=   0.424
 Maximum number of real-space cells 3x 3x 3
 Maximum number of reciprocal cells 3x 3x 3

    FEWALD:  cpu time    0.0061: real time    0.0066


--------------------------------------- Iteration      1(   1)  ---------------------------------------


    POTLOK:  cpu time    0.0382: real time    0.0948
    SETDIJ:  cpu time    0.0635: real time    0.0636
     EDDAV:  cpu time    1.2317: real time    1.2580
       DOS:  cpu time    0.0041: real time    0.0045
    --------------------------------------------
      LOOP:  cpu time    1.3378: real time    1.4213

 eigenvalue-minimisations  :  4032
 total energy-change (2. order) : 0.3956275E+03  (-0.1888474E+04)
 number of electron      39.0000000 magnetization
 augmentation part       39.0000000 magnetization

 Free energy of the ion-electron system (eV)
  ---------------------------------------------------
  alpha Z        PSCENC =       215.31123953
  Ewald energy   TEWEN  =     -3593.30957942
  -Hartree energ DENC   =      -783.94233873
  -exchange      EXHF   =         0.00000000
  -V(xc)+E(xc)   XCENC  =        90.34504580
  PAW double counting   =      3513.29252893    -3436.88002192
  entropy T*S    EENTRO =        -0.00012332
  eigenvalues    EBANDS =       295.46451113
  atomic energy  EATOM  =      4095.34623897
  Solvation  Ediel_sol  =         0.00000000
  ---------------------------------------------------
  free energy    TOTEN  =       395.62750097 eV

  energy without entropy =      395.62762428  energy(sigma->0) =      395.62756263


--------------------------------------------------------------------------------------------------------




--------------------------------------- Iteration      1(   2)  ---------------------------------------


     EDDAV:  cpu time    1.6162: real time    1.9354
       DOS:  cpu time    0.0030: real time    0.0033
    --------------------------------------------
      LOOP:  cpu time    1.6193: real time    1.9461

 eigenvalue-minimisations  :  4400
 total energy-change (2. order) :-0.3706450E+03  (-0.3637572E+03)
 number of electron      39.0000000 magnetization
 augmentation part       39.0000000 magnetization

 Free energy of the ion-electron system (eV)
  ---------------------------------------------------
  alpha Z        PSCENC =       215.31123953
  Ewald energy   TEWEN  =     -3593.30957942
  -Hartree energ DENC   =      -783.94233873
  -exchange      EXHF   =         0.00000000
  -V(xc)+E(xc)   XCENC  =        90.34504580
  PAW double counting   =      3513.29252893    -3436.88002192
  entropy T*S    EENTRO =        -0.00071403
  eigenvalues    EBANDS =       -75.17988657
  atomic energy  EATOM  =      4095.34623897
  Solvation  Ediel_sol  =         0.00000000
  ---------------------------------------------------
  free energy    TOTEN  =        24.98251256 eV

  energy without entropy =       24.98322659  energy(sigma->0) =       24.98286957


--------------------------------------------------------------------------------------------------------




--------------------------------------- Iteration      1(   3)  ---------------------------------------


     EDDAV:  cpu time    1.6919: real time    2.1533
       DOS:  cpu time    0.0033: real time    0.0038
    --------------------------------------------
      LOOP:  cpu time    1.6951: real time    2.1561

 eigenvalue-minimisations  :  5144
 total energy-change (2. order) :-0.4611659E+02  (-0.4524596E+02)
 number of electron      39.0000000 magnetization
 augmentation part       39.0000000 magnetization

 Free energy of the ion-electron system (eV)
  ---------------------------------------------------
  alpha Z        PSCENC =       215.31123953
  Ewald energy   TEWEN  =     -3593.30957942
  -Hartree energ DENC   =      -783.94233873
  -exchange      EXHF   =         0.00000000
  -V(xc)+E(xc)   XCENC  =        90.34504580
  PAW double counting   =      3513.29252893    -3436.88002192
  entropy T*S    EENTRO =        -0.00077244
  eigenvalues    EBANDS =      -121.29641449
  atomic energy  EATOM  =      4095.34623897
  Solvation  Ediel_sol  =         0.00000000
  ---------------------------------------------------
  free energy    TOTEN  =       -21.13407378 eV

  energy without entropy =      -21.13330134  energy(sigma->0) =      -21.13368756


--------------------------------------------------------------------------------------------------------




--------------------------------------- Iteration      1(   4)  ---------------------------------------


     EDDAV:  cpu time    2.3337: real time    2.6552
       DOS:  cpu time    0.0031: real time    0.0035
    --------------------------------------------
      LOOP:  cpu time    2.3368: real time    2.6589

 eigenvalue-minimisations  :  7544
 total energy-change (2. order) :-0.4808217E+01  (-0.4785828E+01)
 number of electron      39.0000000 magnetization
 augmentation part       39.0000000 magnetization

 Free energy of the ion-electron system (eV)
  ---------------------------------------------------
  alpha Z        PSCENC =       215.31123953
  Ewald energy   TEWEN  =     -3593.30957942
  -Hartree energ DENC   =      -783.94233873
  -exchange      EXHF   =         0.00000000
  -V(xc)+E(xc)   XCENC  =        90.34504580
  PAW double counting   =      3513.29252893    -3436.88002192
  entropy T*S    EENTRO =        -0.00083386
  eigenvalues    EBANDS =      -126.10457036
  atomic energy  EATOM  =      4095.34623897
  Solvation  Ediel_sol  =         0.00000000
  ---------------------------------------------------
  free energy    TOTEN  =       -25.94229106 eV

  energy without entropy =      -25.94145720  energy(sigma->0) =      -25.94187413


--------------------------------------------------------------------------------------------------------




--------------------------------------- Iteration      1(   5)  ---------------------------------------


     EDDAV:  cpu time    1.6695: real time    2.1196
       DOS:  cpu time    0.0031: real time    0.0033
    CHARGE:  cpu time    0.2050: real time    0.2057
    MIXING:  cpu time    0.0045: real time    0.0048
    --------------------------------------------
      LOOP:  cpu time    1.8822: real time    2.3332

 eigenvalue-minimisations  :  5472
 total energy-change (2. order) :-0.1568533E+00  (-0.1566375E+00)
 number of electron      39.0000000 magnetization
 augmentation part        8.8315037 magnetization

 Broyden mixing:
  rms(total) = 0.14849E+01    rms(broyden)= 0.14848E+01
  rms(prec ) = 0.43831E+01
  weight for this iteration     100.00

 Free energy of the ion-electron system (eV)
  ---------------------------------------------------
  alpha Z        PSCENC =       215.31123953
  Ewald energy   TEWEN  =     -3593.30957942
  -Hartree energ DENC   =      -783.94233873
  -exchange      EXHF   =         0.00000000
  -V(xc)+E(xc)   XCENC  =        90.34504580
  PAW double counting   =      3513.29252893    -3436.88002192
  entropy T*S    EENTRO =        -0.00092613
  eigenvalues    EBANDS =      -126.26133137
  atomic energy  EATOM  =      4095.34623897
  Solvation  Ediel_sol  =         0.00000000
  ---------------------------------------------------
  free energy    TOTEN  =       -26.09914435 eV

  energy without entropy =      -26.09821822  energy(sigma->0) =      -26.09868128


--------------------------------------------------------------------------------------------------------




--------------------------------------- Iteration      1(   6)  ---------------------------------------


    POTLOK:  cpu time    0.5397: real time    0.5925
    SETDIJ:  cpu time    0.0629: real time    0.0631
     EDDAV:  cpu time    1.6736: real time    1.6739
       DOS:  cpu time    0.0030: real time    0.0032
    CHARGE:  cpu time    0.1685: real time    0.1686
    MIXING:  cpu time    0.0041: real time    0.0044
    --------------------------------------------
      LOOP:  cpu time    2.4520: real time    2.5017

 eigenvalue-minimisations  :  6072
 total energy-change (2. order) :-0.7254839E+01  (-0.1957275E+02)
 number of electron      39.0000000 magnetization
 augmentation part        7.0135367 magnetization

 Broyden mixing:
  rms(total) = 0.22019E+01    rms(broyden)= 0.22019E+01
  rms(prec ) = 0.59867E+01
  weight for this iteration     100.00

 eigenvalues of (default mixing * dielectric matrix)
  average eigenvalue GAMMA=   0.3513
  0.3513

 Free energy of the ion-electron system (eV)
  ---------------------------------------------------
  alpha Z        PSCENC =       215.31123953
  Ewald energy   TEWEN  =     -3593.30957942
  -Hartree energ DENC   =      -791.58418028
  -exchange      EXHF   =         0.00000000
  -V(xc)+E(xc)   XCENC  =        90.87492986
  PAW double counting   =      3823.30460984    -3747.20933827
  entropy T*S    EENTRO =        -0.00011412
  eigenvalues    EBANDS =      -126.08778922
  atomic energy  EATOM  =      4095.34623897
  Solvation  Ediel_sol  =         0.00000000
  ---------------------------------------------------
  free energy    TOTEN  =       -33.35398311 eV

  energy without entropy =      -33.35386899  energy(sigma->0) =      -33.35392605


--------------------------------------------------------------------------------------------------------




--------------------------------------- Iteration      1(   7)  ---------------------------------------


    POTLOK:  cpu time    0.3695: real time    0.6171
    SETDIJ:  cpu time    0.0637: real time    0.0638
     EDDAV:  cpu time    1.6640: real time    1.6643
       DOS:  cpu time    0.0032: real time    0.0035
    CHARGE:  cpu time    0.1457: real time    0.1464
    MIXING:  cpu time    0.0036: real time    0.0037
    --------------------------------------------
      LOOP:  cpu time    2.2498: real time    2.5037

 eigenvalue-minimisations  :  5880
 total energy-change (2. order) : 0.8716043E+01  (-0.2657319E+01)
 number of electron      39.0000000 magnetization
 augmentation part        7.5720188 magnetization

 Broyden mixing:
  rms(total) = 0.97219E+00    rms(broyden)= 0.97217E+00
  rms(prec ) = 0.27947E+01
  weight for this iteration     100.00

 eigenvalues of (default mixing * dielectric matrix)
  average eigenvalue GAMMA=   0.7634
  0.7634  0.7634

 Free energy of the ion-electron system (eV)
  ---------------------------------------------------
  alpha Z        PSCENC =       215.31123953
  Ewald energy   TEWEN  =     -3593.30957942
  -Hartree energ DENC   =      -778.59833386
  -exchange      EXHF   =         0.00000000
  -V(xc)+E(xc)   XCENC  =        90.25184633
  PAW double counting   =      3924.55800438    -3852.72865132
  entropy T*S    EENTRO =        -0.00081762
  eigenvalues    EBANDS =      -125.46788687
  atomic energy  EATOM  =      4095.34623897
  Solvation  Ediel_sol  =         0.00000000
  ---------------------------------------------------
  free energy    TOTEN  =       -24.63793988 eV

  energy without entropy =      -24.63712226  energy(sigma->0) =      -24.63753107


--------------------------------------------------------------------------------------------------------




--------------------------------------- Iteration      1(   8)  ---------------------------------------


    POTLOK:  cpu time    0.3947: real time    0.6679
    SETDIJ:  cpu time    0.0618: real time    0.0619
     EDDAV:  cpu time    1.6317: real time    1.6320
       DOS:  cpu time    0.0032: real time    0.0034
    CHARGE:  cpu time    0.1512: real time    0.1513
    MIXING:  cpu time    0.0032: real time    0.0036
    --------------------------------------------
      LOOP:  cpu time    2.2458: real time    2.5181

 eigenvalue-minimisations  :  5904
 total energy-change (2. order) : 0.1054937E+00  (-0.2989635E+01)
 number of electron      39.0000000 magnetization
 augmentation part        8.8186863 magnetization

 Broyden mixing:
  rms(total) = 0.78362E+00    rms(broyden)= 0.78359E+00
  rms(prec ) = 0.25543E+01
  weight for this iteration     100.00

 eigenvalues of (default mixing * dielectric matrix)
  average eigenvalue GAMMA=   0.9633
  1.7854  0.5522  0.5522

 Free energy of the ion-electron system (eV)
  ---------------------------------------------------
  alpha Z        PSCENC =       215.31123953
  Ewald energy   TEWEN  =     -3593.30957942
  -Hartree energ DENC   =      -768.52726586
  -exchange      EXHF   =         0.00000000
  -V(xc)+E(xc)   XCENC  =        89.82279040
  PAW double counting   =      4012.37991486    -3943.66112296
  entropy T*S    EENTRO =        -0.00123780
  eigenvalues    EBANDS =      -131.89342386
  atomic energy  EATOM  =      4095.34623897
  Solvation  Ediel_sol  =         0.00000000
  ---------------------------------------------------
  free energy    TOTEN  =       -24.53244614 eV

  energy without entropy =      -24.53120834  energy(sigma->0) =      -24.53182724


--------------------------------------------------------------------------------------------------------




--------------------------------------- Iteration      1(   9)  ---------------------------------------


    POTLOK:  cpu time    0.3037: real time    0.6443
    SETDIJ:  cpu time    0.0613: real time    0.0615
     EDDAV:  cpu time    1.7163: real time    1.7165
       DOS:  cpu time    0.0033: real time    0.0053
    CHARGE:  cpu time    0.1477: real time    0.1479
    MIXING:  cpu time    0.0079: real time    0.0080
    --------------------------------------------
      LOOP:  cpu time    2.2402: real time    2.5842

 eigenvalue-minimisations  :  6248
 total energy-change (2. order) : 0.7675699E+00  (-0.8981040E+00)
 number of electron      39.0000000 magnetization
 augmentation part        7.9872089 magnetization

 Broyden mixing:
  rms(total) = 0.14463E+00    rms(broyden)= 0.14462E+00
  rms(prec ) = 0.31587E+00
  weight for this iteration     100.00

 eigenvalues of (default mixing * dielectric matrix)
  average eigenvalue GAMMA=   0.9633
  2.1519  0.5845  0.5845  0.5321

 Free energy of the ion-electron system (eV)
  ---------------------------------------------------
  alpha Z        PSCENC =       215.31123953
  Ewald energy   TEWEN  =     -3593.30957942
  -Hartree energ DENC   =      -772.22293355
  -exchange      EXHF   =         0.00000000
  -V(xc)+E(xc)   XCENC  =        90.02189758
  PAW double counting   =      4149.15120716    -4081.43782158
  entropy T*S    EENTRO =        -0.00125457
  eigenvalues    EBANDS =      -126.62387039
  atomic energy  EATOM  =      4095.34623897
  Solvation  Ediel_sol  =         0.00000000
  ---------------------------------------------------
  free energy    TOTEN  =       -23.76487628 eV

  energy without entropy =      -23.76362171  energy(sigma->0) =      -23.76424899


--------------------------------------------------------------------------------------------------------




--------------------------------------- Iteration      1(  10)  ---------------------------------------


    POTLOK:  cpu time    0.5223: real time    0.6226
    SETDIJ:  cpu time    0.0571: real time    0.0572
     EDDAV:  cpu time    1.8513: real time    1.8516
       DOS:  cpu time    0.0030: real time    0.0033
    CHARGE:  cpu time    0.1486: real time    0.1487
    MIXING:  cpu time    0.0043: real time    0.0044
    --------------------------------------------
      LOOP:  cpu time    2.5866: real time    2.6900

 eigenvalue-minimisations  :  6776
 total energy-change (2. order) :-0.3670078E-01  (-0.4099082E-01)
 number of electron      39.0000000 magnetization
 augmentation part        7.9597272 magnetization

 Broyden mixing:
  rms(total) = 0.13996E+00    rms(broyden)= 0.13996E+00
  rms(prec ) = 0.45954E+00
  weight for this iteration     100.00

 eigenvalues of (default mixing * dielectric matrix)
  average eigenvalue GAMMA=   0.9551
  1.8902  0.5439  0.5439  1.0863  0.7113

 Free energy of the ion-electron system (eV)
  ---------------------------------------------------
  alpha Z        PSCENC =       215.31123953
  Ewald energy   TEWEN  =     -3593.30957942
  -Hartree energ DENC   =      -770.92141379
  -exchange      EXHF   =         0.00000000
  -V(xc)+E(xc)   XCENC  =        89.98345916
  PAW double counting   =      4210.78666012    -4143.85259005
  entropy T*S    EENTRO =        -0.00129635
  eigenvalues    EBANDS =      -127.14429522
  atomic energy  EATOM  =      4095.34623897
  Solvation  Ediel_sol  =         0.00000000
  ---------------------------------------------------
  free energy    TOTEN  =       -23.80157705 eV

  energy without entropy =      -23.80028070  energy(sigma->0) =      -23.80092888


--------------------------------------------------------------------------------------------------------




--------------------------------------- Iteration      1(  11)  ---------------------------------------


    POTLOK:  cpu time    0.5836: real time    0.6402
    SETDIJ:  cpu time    0.0625: real time    0.0626
     EDDAV:  cpu time    1.6535: real time    1.6536
       DOS:  cpu time    0.0033: real time    0.0036
    CHARGE:  cpu time    0.1495: real time    0.1498
    MIXING:  cpu time    0.0040: real time    0.0042
    --------------------------------------------
      LOOP:  cpu time    2.4563: real time    2.5107

 eigenvalue-minimisations  :  5992
 total energy-change (2. order) : 0.3389066E-01  (-0.2523824E-01)
 number of electron      39.0000000 magnetization
 augmentation part        8.0829399 magnetization

 Broyden mixing:
  rms(total) = 0.29023E-01    rms(broyden)= 0.29014E-01
  rms(prec ) = 0.41505E-01
  weight for this iteration     100.00

 eigenvalues of (default mixing * dielectric matrix)
  average eigenvalue GAMMA=   1.1973
  2.2865  2.2865  0.5467  0.5467  0.8814  0.6356

 Free energy of the ion-electron system (eV)
  ---------------------------------------------------
  alpha Z        PSCENC =       215.31123953
  Ewald energy   TEWEN  =     -3593.30957942
  -Hartree energ DENC   =      -770.21460319
  -exchange      EXHF   =         0.00000000
  -V(xc)+E(xc)   XCENC  =        89.94488512
  PAW double counting   =      4200.47506488    -4133.60969384
  entropy T*S    EENTRO =        -0.00162054
  eigenvalues    EBANDS =      -127.70961792
  atomic energy  EATOM  =      4095.34623897
  Solvation  Ediel_sol  =         0.00000000
  ---------------------------------------------------
  free energy    TOTEN  =       -23.76768640 eV

  energy without entropy =      -23.76606586  energy(sigma->0) =      -23.76687613


--------------------------------------------------------------------------------------------------------




--------------------------------------- Iteration      1(  12)  ---------------------------------------


    POTLOK:  cpu time    0.5754: real time    0.6396
    SETDIJ:  cpu time    0.0603: real time    0.0604
     EDDAV:  cpu time    1.8242: real time    1.8277
       DOS:  cpu time    0.0034: real time    0.0036
    CHARGE:  cpu time    0.1780: real time    0.1782
    MIXING:  cpu time    0.0039: real time    0.0040
    --------------------------------------------
      LOOP:  cpu time    2.6454: real time    2.7135

 eigenvalue-minimisations  :  6696
 total energy-change (2. order) :-0.7060211E-03  (-0.7998660E-03)
 number of electron      39.0000000 magnetization
 augmentation part        8.0860143 magnetization

 Broyden mixing:
  rms(total) = 0.12426E-01    rms(broyden)= 0.12423E-01
  rms(prec ) = 0.32869E-01
  weight for this iteration     100.00

 eigenvalues of (default mixing * dielectric matrix)
  average eigenvalue GAMMA=   1.2397
  2.5920  2.3405  0.5481  0.5481  1.0143  1.0143  0.6204

 Free energy of the ion-electron system (eV)
  ---------------------------------------------------
  alpha Z        PSCENC =       215.31123953
  Ewald energy   TEWEN  =     -3593.30957942
  -Hartree energ DENC   =      -770.16687792
  -exchange      EXHF   =         0.00000000
  -V(xc)+E(xc)   XCENC  =        89.94008809
  PAW double counting   =      4208.97588256    -4142.12526957
  entropy T*S    EENTRO =        -0.00166770
  eigenvalues    EBANDS =      -127.73844696
  atomic energy  EATOM  =      4095.34623897
  Solvation  Ediel_sol  =         0.00000000
  ---------------------------------------------------
  free energy    TOTEN  =       -23.76839242 eV

  energy without entropy =      -23.76672472  energy(sigma->0) =      -23.76755857


--------------------------------------------------------------------------------------------------------




--------------------------------------- Iteration      1(  13)  ---------------------------------------


    POTLOK:  cpu time    0.1904: real time    0.7896
    SETDIJ:  cpu time    0.0610: real time    0.0611
     EDDAV:  cpu time    1.7070: real time    1.7072
       DOS:  cpu time    0.0032: real time    0.0035
    CHARGE:  cpu time    0.1498: real time    0.1501
    MIXING:  cpu time    0.0038: real time    0.0041
    --------------------------------------------
      LOOP:  cpu time    2.1152: real time    2.7145

 eigenvalue-minimisations  :  6216
 total energy-change (2. order) : 0.1317869E-03  (-0.1120750E-03)
 number of electron      39.0000000 magnetization
 augmentation part        8.0786468 magnetization

 Broyden mixing:
  rms(total) = 0.35078E-02    rms(broyden)= 0.35072E-02
  rms(prec ) = 0.90755E-02
  weight for this iteration     100.00

 eigenvalues of (default mixing * dielectric matrix)
  average eigenvalue GAMMA=   1.2747
  2.6232  2.2314  1.7226  0.5481  0.5481  0.9511  0.9511  0.6225

 Free energy of the ion-electron system (eV)
  ---------------------------------------------------
  alpha Z        PSCENC =       215.31123953
  Ewald energy   TEWEN  =     -3593.30957942
  -Hartree energ DENC   =      -770.29909099
  -exchange      EXHF   =         0.00000000
  -V(xc)+E(xc)   XCENC  =        89.94375890
  PAW double counting   =      4209.01266538    -4142.06009406
  entropy T*S    EENTRO =        -0.00165361
  eigenvalues    EBANDS =      -127.71174533
  atomic energy  EATOM  =      4095.34623897
  Solvation  Ediel_sol  =         0.00000000
  ---------------------------------------------------
  free energy    TOTEN  =       -23.76826063 eV

  energy without entropy =      -23.76660702  energy(sigma->0) =      -23.76743383


--------------------------------------------------------------------------------------------------------




--------------------------------------- Iteration      1(  14)  ---------------------------------------


    POTLOK:  cpu time    0.5766: real time    0.6466
    SETDIJ:  cpu time    0.0619: real time    0.0621
     EDDAV:  cpu time    1.6366: real time    1.6368
       DOS:  cpu time    0.0033: real time    0.0036
    --------------------------------------------
      LOOP:  cpu time    2.2782: real time    2.3454

 eigenvalue-minimisations  :  5656
 total energy-change (2. order) : 0.8585894E-06  (-0.9269008E-05)
 number of electron      39.0000000 magnetization
 augmentation part        8.0786468 magnetization

 Free energy of the ion-electron system (eV)
  ---------------------------------------------------
  alpha Z        PSCENC =       215.31123953
  Ewald energy   TEWEN  =     -3593.30957942
  -Hartree energ DENC   =      -770.31041817
  -exchange      EXHF   =         0.00000000
  -V(xc)+E(xc)   XCENC  =        89.94382178
  PAW double counting   =      4210.49276180    -4143.51218696
  entropy T*S    EENTRO =        -0.00165593
  eigenvalues    EBANDS =      -127.72848137
  atomic energy  EATOM  =      4095.34623897
  Solvation  Ediel_sol  =         0.00000000
  ---------------------------------------------------
  free energy    TOTEN  =       -23.76825977 eV

  energy without entropy =      -23.76660385  energy(sigma->0) =      -23.76743181


--------------------------------------------------------------------------------------------------------




 average (electrostatic) potential at core
  the test charge radii are     1.0856  1.2059  1.2087
  (the norm of the test charge is              1.0000)
       1-100.6742       2 -64.5091       3 -83.5421



 E-fermi :  10.0897     XC(G=0): -11.5170     alpha+bet :-16.0434


 k-point     1 :       0.0000    0.0000    0.0000
  band No.  band energies     occupation
      1     -34.0312      2.00000
      2     -12.8307      2.00000
      3     -12.8307      2.00000
      4     -12.8020      2.00000
      5     -12.8020      2.00000
      6     -12.8020      2.00000
      7      -9.3220      2.00000
      8      -9.3220      2.00000
      9      -9.3220      2.00000
     10      -2.4456      2.00000
     11       5.4645      2.00000
     12       5.4645      2.00000
     13       5.4645      2.00000
     14       5.7149      2.00000
     15       5.7149      2.00000
     16       8.4863      2.00000
     17       8.9101      2.00000
     18       8.9101      2.00000
     19       8.9101      2.00000
     20      10.0465      2.00000
     21      10.0465      2.00000
     22      10.0465      2.00000
     23      10.2226      0.00000
     24      10.3315      0.00000

 k-point     2 :       0.0769    0.0000   -0.0000
  band No.  band energies     occupation
      1     -34.0309      2.00000
      2     -12.8323      2.00000
      3     -12.8323      2.00000
      4     -12.8023      2.00000
      5     -12.8018      2.00000
      6     -12.8018      2.00000
      7      -9.3369      2.00000
      8      -9.3184      2.00000
      9      -9.3184      2.00000
     10      -2.3770      2.00000
     11       5.3383      2.00000
     12       5.3426      2.00000
     13       5.3426      2.00000
     14       5.8293      2.00000
     15       5.8293      2.00000
     16       8.0649      2.00000
     17       8.8509      2.00000
     18       8.8509      2.00000
     19       9.1725      2.00000
     20      10.0255      2.00000
     21      10.0379      2.00000
     22      10.0379      2.00000
     23      10.3549      0.00000
     24      10.4043      0.00000

 k-point     3 :       0.1538   -0.0000   -0.0000
  band No.  band energies     occupation
      1     -34.0302      2.00000
      2     -12.8369      2.00000
      3     -12.8369      2.00000
      4     -12.8032      2.00000
      5     -12.8012      2.00000
      6     -12.8012      2.00000
      7      -9.3765      2.00000
      8      -9.3086      2.00000
      9      -9.3086      2.00000
     10      -2.1855      2.00000
     11       5.0163      2.00000
     12       5.1731      2.00000
     13       5.1731      2.00000
     14       5.9659      2.00000
     15       5.9659      2.00000
     16       7.4685      2.00000
     17       8.7233      2.00000
     18       8.7233      2.00000
     19       9.2545      2.00000
     20      10.0354      2.00000
     21      10.0354      2.00000
     22      10.2417      0.00000
     23      10.5418      0.00000
     24      10.5420      0.00000

 k-point     4 :       0.2308    0.0000   -0.0000
  band No.  band energies     occupation
      1     -34.0291      2.00000
      2     -12.8433      2.00000
      3     -12.8433      2.00000
      4     -12.8047      2.00000
      5     -12.8003      2.00000
      6     -12.8003      2.00000
      7      -9.4290      2.00000
      8      -9.2949      2.00000
      9      -9.2949      2.00000
     10      -1.9117      2.00000
     11       4.6142      2.00000
     12       5.0448      2.00000
     13       5.0448      2.00000
     14       6.0173      2.00000
     15       6.0173      2.00000
     16       6.9189      2.00000
     17       8.6130      2.00000
     18       8.6130      2.00000
     19       9.2474      2.00000
     20      10.0506      2.00000
     21      10.0506      2.00000
     22      10.3882      0.00000
     23      10.6189      0.00000
     24      10.6189      0.00000

 k-point     5 :       0.3077   -0.0000   -0.0000
  band No.  band energies     occupation
      1     -34.0280      2.00000
      2     -12.8501      2.00000
      3     -12.8501      2.00000
      4     -12.8065      2.00000
      5     -12.7993      2.00000
      6     -12.7993      2.00000
      7      -9.4807      2.00000
      8      -9.2803      2.00000
      9      -9.2803      2.00000
     10      -1.6152      2.00000
     11       4.2349      2.00000
     12       4.9739      2.00000
     13       4.9739      2.00000
     14       5.9695      2.00000
     15       5.9695      2.00000
     16       6.4832      2.00000
     17       8.5631      2.00000
     18       8.5631      2.00000
     19       9.2833      2.00000
     20      10.0821      1.72034
     21      10.0821      1.72034
     22      10.3454      0.00000
     23      10.4591      0.00000
     24      10.5897      0.00000

 k-point     6 :       0.3846    0.0000   -0.0000
  band No.  band energies     occupation
      1     -34.0271      2.00000
      2     -12.8558      2.00000
      3     -12.8558      2.00000
      4     -12.8083      2.00000
      5     -12.7984      2.00000
      6     -12.7984      2.00000
      7      -9.5205      2.00000
      8      -9.2684      2.00000
      9      -9.2684      2.00000
     10      -1.3643      2.00000
     11       3.9492      2.00000
     12       4.9550      2.00000
     13       4.9550      2.00000
     14       5.8660      2.00000
     15       5.8660      2.00000
     16       6.1889      2.00000
     17       8.5609      2.00000
     18       8.5609      2.00000
     19       9.3574      2.00000
     20      10.1261      0.00000
     21      10.1261      0.00000
     22      10.5089      0.00000
     23      10.5094      0.00000
     24      10.5130      0.00000

 k-point     7 :       0.4615   -0.0000    0.0000
  band No.  band energies     occupation
      1     -34.0266      2.00000
      2     -12.8589      2.00000
      3     -12.8589      2.00000
      4     -12.8093      2.00000
      5     -12.7980      2.00000
      6     -12.7980      2.00000
      7      -9.5418      2.00000
      8      -9.2617      2.00000
      9      -9.2617      2.00000
     10      -1.2204      2.00000
     11       3.7978      2.00000
     12       4.9621      2.00000
     13       4.9621      2.00000
     14       5.7823      2.00000
     15       5.7823      2.00000
     16       6.0421      2.00000
     17       8.5715      2.00000
     18       8.5715      2.00000
     19       9.4218      2.00000
     20      10.1671      0.00000
     21      10.1671      0.00000
     22      10.4409      0.00000
     23      10.4412      0.00000
     24      10.5511      0.00000

 k-point     8 :       0.0769    0.0769   -0.0000
  band No.  band energies     occupation
      1     -34.0308      2.00000
      2     -12.8352      2.00000
      3     -12.8303      2.00000
      4     -12.8025      2.00000
      5     -12.8017      2.00000
      6     -12.8017      2.00000
      7      -9.3297      2.00000
      8      -9.3235      2.00000
      9      -9.3235      2.00000
     10      -2.3556      2.00000
     11       5.0780      2.00000
     12       5.4781      2.00000
     13       5.4781      2.00000
     14       5.7290      2.00000
     15       5.8767      2.00000
     16       8.0455      2.00000
     17       8.7548      2.00000
     18       8.7548      2.00000
     19       9.3340      2.00000
     20       9.9426      2.00000
     21      10.0589      1.99999
     22      10.0589      1.99999
     23      10.3426      0.00000
     24      10.3838      0.00000

 k-point     9 :       0.1538    0.0769   -0.0000
  band No.  band energies     occupation
      1     -34.0303      2.00000
      2     -12.8402      2.00000
      3     -12.8316      2.00000
      4     -12.8032      2.00000
      5     -12.8012      2.00000
      6     -12.8011      2.00000
      7      -9.3600      2.00000
      8      -9.3213      2.00000
      9      -9.3122      2.00000
     10      -2.2099      2.00000
     11       4.7952      2.00000
     12       5.3621      2.00000
     13       5.3870      2.00000
     14       5.8281      2.00000
     15       5.9796      2.00000
     16       7.6446      2.00000
     17       8.6144      2.00000
     18       8.6163      2.00000
[...]
  212              fftbas_plan_mpi                       0.047452                     12   6
  213                dfftw_execute                         0.019340                   36   7
  214                map_backward                          0.003946                   12   7
  215                  map_gather                            0.000622                  6   8
  216                  m_alltoallv_z                         0.002174                  6   8
  217                  map_scatter                           0.000879                  6   8
  218                map_forward                           0.021264                   12   7
  219                  map_gather                            0.011443                  6   8
  220                  m_alltoallv_z                         0.004688                  6   8
  221                  map_scatter                           0.004826                  6   8
  222            M_sumb_d                              0.005258                        6   5
  223          M_sumb_d                              0.000028                          1   4
  224        setdij_                               0.918769                           20   3
  225          fft3d_mpi                             0.168608                         40   4
  226            fftbas_plan_mpi                       0.155550                       40   5
  227              dfftw_execute                         0.067443                    120   6
  228              map_backward                          0.010670                     40   6
  229                map_gather                            0.001820                   20   7
  230                m_alltoallv_z                         0.004911                   20   7
  231                map_scatter                           0.003038                   20   7
  232              map_forward                           0.067440                     40   6
  233                map_gather                            0.039564                   20   7
  234                m_alltoallv_z                         0.012816                   20   7
  235                map_scatter                           0.014081                   20   7
  236          M_sumb_d                              0.011903                         20   4
  237        set_dd_magatom                        0.000004                            1   3
  238        set_dd_paw                            0.007561                            1   3
  239          set_rsgf_all                          0.000004                          1   4
  240          M_sumb_d                              0.007373                          8   4
  241        strkin                                0.000922                            1   3
  242          M_sumb_d                              0.000507                          1   4
  243        strelo                                0.002226                            1   3
  244          M_sumb_d                              0.000440                          2   4
  245        strenl                                0.721604                            1   3
  246          spher                                 0.525177                         19   4
  247          phase                                 0.008841                        189   4
  248          proj1                                 0.159616                       1134   4
  249            crexp_mul_wave                        0.023922                     3402   5
  250            M_sumb_d                              0.041462                     1134   5
  251          M_sumb_d                              0.010612                          1   4
  252        M_sumb_d                              0.000229                            6   3
  253        fft3d_mpi                             0.012695                           11   3
  254          fftbas_plan_mpi                       0.011864                         11   4
  255            dfftw_execute                         0.004220                       33   5
  256            map_forward                           0.002346                       10   5
  257              map_gather                            0.000478                      5   6
  258              m_alltoallv_z                         0.001148                      5   6
  259              map_scatter                           0.000506                      5   6
  260            map_backward                          0.003000                       12   5
  261              map_gather                            0.000636                      6   6
  262              m_alltoallv_z                         0.001218                      6   6
  263              map_scatter                           0.000886                      6   6
  264        ggaall_grid                           0.001301                            1   3
  265        forhar                                0.005149                            2   3
  266          M_sumb_d                              0.000346                          2   4
  267        strehar                               0.002235                            1   3
  268          M_sumb_d                              0.000133                          1   4
  269        chggra                                0.004894                            1   3
  270          fft3d_mpi                             0.003483                          3   4
  271            fftbas_plan_mpi                       0.003252                        3   5
  272              dfftw_execute                         0.001168                      9   6
  273              map_backward                          0.000511                      2   6
  274                map_gather                            0.000098                    1   7
  275                m_alltoallv_z                         0.000210                    1   7
  276                map_scatter                           0.000150                    1   7
  277              map_forward                           0.000841                      4   6
  278                map_gather                            0.000173                    2   7
  279                m_alltoallv_z                         0.000375                    2   7
  280                map_scatter                           0.000203                    2   7
  281          M_sumb_d                              0.000121                          3   4
  282        brmix                                 0.003955                            1   3
  283          M_sumb_d                              0.000283                          6   4
  284          brpre                                 0.000047                          1   4
  285          setg0                                 0.000933                          1   4
  286          broyd                                 0.001678                          1   4
  287            M_sumb_d                              0.000452                       16   5
  288            brget                                 0.000237                       54   5
  289            brsav                                 0.000064                       14   5
  290          M_bcast_z                             0.000121                          1   4
  291          M_bcast_d                             0.000054                          1   4
  292        M_bcast_d                             0.000047                            2   3
  293      potlok                                0.021476                              1   2
  294        fft3d_mpi                             0.014900                           13   3
  295          fftbas_plan_mpi                       0.013930                         13   4
  296            dfftw_execute                         0.004848                       39   5
  297            map_forward                           0.003339                       14   5
  298              map_gather                            0.000583                      8   6
  299              m_alltoallv_z                         0.001750                      8   6
  300              map_scatter                           0.000687                      8   6
  301            map_backward                          0.003101                       12   5
  302              map_gather                            0.000562                      6   6
  303              m_alltoallv_z                         0.001352                      6   6
  304              map_scatter                           0.000911                      6   6
  305        ggaall_grid                           0.001220                            1   3
  306        M_sumb_d                              0.000259                            6   3
  307        M_bcast_d                             0.000088                            1   3
  308      potlok_metagga                        0.000003                              1   2
  309      set_dd_magatom                        0.000003                              1   2
  310      set_dd_paw                            0.001962                              1   2
  311        set_rsgf_all                          0.000004                            1   3
  312        M_sumb_d                              0.000288                            8   3
  313      densta                                0.002621                              1   2
  314        M_sumb_d                              0.000908                           44   3
  315      lprj_proall                           0.000007                              1   2

 Flat profile
 ============

             routine name                   CPU           calls
 ---------------------------------------------------------------
 total_time                             14.764776           1
 elmin                                   9.070247           1
 eddav                                   4.597884          14
 dfftw_execute                           3.492542       45660
 fftbas_plan_mpi                         2.890069       15222
 M_sumb_d                                2.331607       42691
 setdij_                                 1.472116          38
 pdssyex_zheevx                          1.304986         294
 m_alltoallv_z                           1.115959       15241
 M_alltoall_d                            1.011923       50862
 orth1                                   0.744719       10407
 set_charge                              0.717390          10
 proj1                                   0.645783        6420
 M_bcast_z                               0.626036        6009
 spher                                   0.579529          20
 gemm                                    0.537397       20772
 vhamil                                  0.511296        6924
 vnlac0                                  0.457388        6924
 map_forward                             0.450089       16330
 fftwav_mpi                              0.448879        8042
 map_gather                              0.422829       15241
 redis_pw                                0.404855       19638
 map_scatter                             0.376280       15241
 redis_proj                              0.371142       24819
 hamiltmu                                0.363049        3462
 w1_copy                                 0.256529       20772
 map_backward                            0.239931       14110
 crpa_reader                             0.236107           1
 fft3d_mpi                               0.226722       15220
 fftext_mpi                              0.203925        6924
 work_mul_crexp                          0.203695       20772
 crexp_mul_wave                          0.147990       19260
 overl                                   0.133433       12105
 kinhamil                                0.129274        6924
 eccp                                    0.119752        1764
 M_bcast_d                               0.111573        3489
 overl1                                  0.083700        6924
 force_and_stress                        0.063711           1
 apply_precond                           0.061611        5160
 w1_projall                              0.055254        2580
 potlok                                  0.054652          11
 setup_precond                           0.052797        1764
 pw_charge                               0.046147        1118
 lincom                                  0.042030         315
 fornl                                   0.030415           1
 truncate_high_frequency_w1              0.029343        8688
 phase                                   0.024854         526
 densta                                  0.024369          15
 soft_charge                             0.024073          10
 strenl                                  0.017358           1
 ggaall_grid                             0.014913          12
 setg0                                   0.009591          11
 brmix                                   0.008314          10
 broyd                                   0.005956          10
 forhar                                  0.004803           2
 set_dd_paw                              0.004292          12
 depsum                                  0.003413          10
 forloc                                  0.002328           1
 strehar                                 0.002102           1
 orthch                                  0.002073           1
 strelo                                  0.001786           1
 choleski                                0.001697          21
 proj                                    0.001450          21
 brget                                   0.001333         309
 chggra                                  0.001290           1
 brgrid                                  0.000864           1
 brsav                                   0.000697          96
 brpre                                   0.000656          10
 strkin                                  0.000415           1
 fordep                                  0.000121           1
 set_rsgf_all                            0.000069          12
 vectorpot                               0.000064          11
 set_dd_magatom                          0.000045          12
 potlok_metagga                          0.000043          11
 set_kineden                             0.000033           9
 rotate_active_occupied_orbital          0.000015           1
 lprj_proall                             0.000007           1
 redis_pw_over_bands                     0.000004           1
 ---------------------------------------------------------------
  summed up times    52.3963878154755

 Accumulative profile
 ====================

             routine name                   CPU           calls
 ---------------------------------------------------------------
 total_time                             52.396388           1
 elmin                                  34.331645           1
 eddav                                  22.913454          14
 fft3d_mpi                               9.185175       15220
 fftbas_plan_mpi                         8.987698       15222
 hamiltmu                                6.856496        3462
 fftwav_mpi                              4.990608        8042
 kinhamil                                4.284484        6924
 fftext_mpi                              4.155210        6924
 dfftw_execute                           3.492542       45660
 M_sumb_d                                2.331607       42691
 force_and_stress                        2.262025           1
 setdij_                                 1.849028          38
 vnlac0                                  1.613967        6924
 set_charge                              1.612221          10
 map_forward                             1.450290       16330
 pdssyex_zheevx                          1.304986         294
 map_backward                            1.154798       14110
 proj1                                   1.119202        6420
 m_alltoallv_z                           1.115959       15241
 M_alltoall_d                            1.011923       50862
 w1_projall                              0.995264        2580
 redis_pw                                0.946944       19638
 redis_proj                              0.840977       24819
 orth1                                   0.744719       10407
 soft_charge                             0.726707          10
 strenl                                  0.721604           1
 M_bcast_z                               0.626036        6009
 spher                                   0.579529          20
 gemm                                    0.537397       20772
 vhamil                                  0.511296        6924
 map_gather                              0.422829       15241
 map_scatter                             0.376280       15241
 fordep                                  0.287518           1
 w1_copy                                 0.256529       20772
 potlok                                  0.238028          11
 crpa_reader                             0.236107           1
 eccp                                    0.214512        1764
 work_mul_crexp                          0.203695       20772
 crexp_mul_wave                          0.147990       19260
 overl                                   0.133433       12105
 set_dd_paw                              0.126390          12
 M_bcast_d                               0.111573        3489
 setup_precond                           0.092889        1764
 overl1                                  0.083700        6924
 apply_precond                           0.061611        5160
 fornl                                   0.055781           1
 pw_charge                               0.046147        1118
 lincom                                  0.042030         315
 brmix                                   0.041607          10
 densta                                  0.037133          15
 orthch                                  0.036135           1
 depsum                                  0.030114          10
 truncate_high_frequency_w1              0.029343        8688
 phase                                   0.024854         526
 proj                                    0.021027          21
 ggaall_grid                             0.014913          12
 broyd                                   0.011240          10
 setg0                                   0.009591          11
 forhar                                  0.005149           2
 chggra                                  0.004894           1
 forloc                                  0.002384           1
 strehar                                 0.002235           1
 strelo                                  0.002226           1
 choleski                                0.001697          21
 brget                                   0.001333         309
 strkin                                  0.000922           1
 brgrid                                  0.000864           1
 brsav                                   0.000697          96
 brpre                                   0.000656          10
 set_rsgf_all                            0.000069          12
 vectorpot                               0.000064          11
 set_dd_magatom                          0.000045          12
 potlok_metagga                          0.000043          11
 set_kineden                             0.000033           9
 rotate_active_occupied_orbital          0.000015           1
 lprj_proall                             0.000007           1
 redis_pw_over_bands                     0.000004           1
 ---------------------------------------------------------------

Profiling took   1.172304  1.443176  0.005812  0.004410 seconds
Profiling took   1.120835 seconds
