<?xml version="1.0" encoding="ISO-8859-1"?>
<modeling>
 <generator>
  <i name="program" type="string">vasp </i>
  <i name="version" type="string">6.0.8  </i>
  <i name="subversion" type="string">29Jun18 (build Jun 13 2019 12:54:44) complex                          parallel </i>
  <i name="platform" type="string">IFC18_CrayMPICH </i>
  <i name="date" type="string">2021 11 11 </i>
  <i name="time" type="string">21:51:26 </i>
 </generator>
 <incar>
  <i type="int" name="KPAR">     4</i>
  <i type="int" name="NPAR">     4</i>
  <i type="int" name="ISTART">     0</i>
  <i type="string" name="PREC"> ACC</i>
  <i type="string" name="ALGO"> Normal</i>
  <i type="logical" name="ADDGRID"> T  </i>
  <i type="int" name="ISPIN">     1</i>
  <i type="int" name="NELMIN">     5</i>
  <i type="int" name="IBRION">     3</i>
  <i name="EDIFF">      0.00001000</i>
  <i name="EDIFFG">     -0.01000000</i>
  <i type="int" name="NSW">    60</i>
  <i type="int" name="ISIF">     7</i>
  <i name="ENCUT">    520.00000000</i>
  <i name="POTIM">      0.10000000</i>
  <i type="logical" name="LREAL"> F  </i>
  <i type="int" name="ISMEAR">     0</i>
  <i name="SIGMA">      0.01000000</i>
  <i type="logical" name="LWAVE"> F  </i>
  <i type="logical" name="LCHARG"> F  </i>
  <i type="logical" name="LVTOT"> F  </i>
  <i type="string" name="ALGO"> Normal</i>
  <i type="string" name="GGA"> PS</i>
  <i name="EDIFF">      0.00001000</i>
  <i type="int" name="ISPIN">     1</i>
 </incar>
 <structure name="primitive_cell" >
  <crystal>
   <varray name="basis" >
    <v>       0.00000000       3.31764060       3.31764060 </v>
    <v>       3.31764060       0.00000000       3.31764060 </v>
    <v>       3.31764060       3.31764060       0.00000000 </v>
   </varray>
   <i name="volume">     73.03280919 </i>
   <varray name="rec_basis" >
    <v>      -0.15070951       0.15070951       0.15070951 </v>
    <v>       0.15070951      -0.15070951       0.15070951 </v>
    <v>       0.15070951       0.15070951      -0.15070951 </v>
   </varray>
  </crystal>
  <varray name="positions" >
   <v>       0.25000000       0.25000000       0.25000000 </v>
   <v>       0.00000000       0.00000000       0.00000000 </v>
   <v>       0.75000000       0.75000000       0.75000000 </v>
  </varray>
 </structure>
 <varray name="primitive_index" >
  <v type="int" >        1 </v>
  <v type="int" >        2 </v>
  <v type="int" >        3 </v>
 </varray>
 <kpoints>
  <generation param="Gamma">
   <v type="int" name="divisions">      13       13       13 </v>
   <v name="usershift">      0.00000000       0.00000000       0.00000000 </v>
   <v name="genvec1">      0.07692308      -0.00000000       0.00000000 </v>
   <v name="genvec2">     -0.00000000       0.07692308      -0.00000000 </v>
   <v name="genvec3">      0.00000000       0.00000000       0.07692308 </v>
   <v name="shift">      0.00000000       0.00000000       0.00000000 </v>
  </generation>
  <varray name="kpointlist" >
   <v>       0.00000000       0.00000000       0.00000000 </v>
   <v>       0.07692308       0.00000000      -0.00000000 </v>
   <v>       0.15384615      -0.00000000      -0.00000000 </v>
   <v>       0.23076923       0.00000000      -0.00000000 </v>
   <v>       0.30769231      -0.00000000      -0.00000000 </v>
   <v>       0.38461538       0.00000000      -0.00000000 </v>
   <v>       0.46153846      -0.00000000       0.00000000 </v>
   <v>       0.07692308       0.07692308      -0.00000000 </v>
   <v>       0.15384615       0.07692308      -0.00000000 </v>
   <v>       0.23076923       0.07692308      -0.00000000 </v>
   <v>       0.30769231       0.07692308      -0.00000000 </v>
   <v>       0.38461538       0.07692308      -0.00000000 </v>
   <v>       0.46153846       0.07692308      -0.00000000 </v>
   <v>      -0.46153846       0.07692308       0.00000000 </v>
   <v>      -0.38461538       0.07692308       0.00000000 </v>
   <v>      -0.30769231       0.07692308       0.00000000 </v>
   <v>      -0.23076923       0.07692308       0.00000000 </v>
   <v>      -0.15384615       0.07692308       0.00000000 </v>
   <v>      -0.07692308       0.07692308       0.00000000 </v>
   <v>       0.15384615       0.15384615      -0.00000000 </v>
   <v>       0.23076923       0.15384615       0.00000000 </v>
   <v>       0.30769231       0.15384615      -0.00000000 </v>
   <v>       0.38461538       0.15384615      -0.00000000 </v>
   <v>       0.46153846       0.15384615      -0.00000000 </v>
   <v>      -0.46153846       0.15384615      -0.00000000 </v>
   <v>      -0.38461538       0.15384615       0.00000000 </v>
   <v>      -0.30769231       0.15384615      -0.00000000 </v>
   <v>      -0.23076923       0.15384615       0.00000000 </v>
   <v>      -0.15384615       0.15384615      -0.00000000 </v>
   <v>       0.23076923       0.23076923      -0.00000000 </v>
   <v>       0.30769231       0.23076923       0.00000000 </v>
   <v>       0.38461538       0.23076923      -0.00000000 </v>
   <v>       0.46153846       0.23076923      -0.00000000 </v>
   <v>      -0.46153846       0.23076923       0.00000000 </v>
   <v>      -0.38461538       0.23076923      -0.00000000 </v>
   <v>      -0.30769231       0.23076923       0.00000000 </v>
   <v>      -0.23076923       0.23076923       0.00000000 </v>
   <v>       0.30769231       0.30769231      -0.00000000 </v>
   <v>       0.38461538       0.30769231       0.00000000 </v>
   <v>       0.46153846       0.30769231      -0.00000000 </v>
   <v>      -0.46153846       0.30769231       0.00000000 </v>
   <v>      -0.38461538       0.30769231       0.00000000 </v>
   <v>      -0.30769231       0.30769231      -0.00000000 </v>
   <v>       0.38461538       0.38461538      -0.00000000 </v>
   <v>       0.46153846       0.38461538       0.00000000 </v>
   <v>      -0.46153846       0.38461538       0.00000000 </v>
   <v>      -0.38461538       0.38461538       0.00000000 </v>
   <v>       0.46153846       0.46153846      -0.00000000 </v>
   <v>      -0.46153846       0.46153846      -0.00000000 </v>
   <v>       0.23076923       0.15384615       0.07692308 </v>
   <v>       0.30769231       0.15384615       0.07692308 </v>
   <v>       0.38461538       0.15384615       0.07692308 </v>
   <v>       0.46153846       0.15384615       0.07692308 </v>
   <v>      -0.46153846       0.15384615       0.07692308 </v>
   <v>       0.30769231       0.23076923       0.07692308 </v>
   <v>       0.38461538       0.23076923       0.07692308 </v>
   <v>       0.46153846       0.23076923       0.07692308 </v>
   <v>      -0.46153846       0.23076923       0.07692308 </v>
   <v>      -0.38461538       0.23076923       0.07692308 </v>
   <v>      -0.30769231       0.23076923       0.07692308 </v>
   <v>      -0.23076923       0.23076923       0.07692308 </v>
   <v>      -0.15384615       0.23076923       0.07692308 </v>
   <v>       0.38461538       0.30769231       0.07692308 </v>
   <v>       0.46153846       0.30769231       0.07692308 </v>
   <v>      -0.46153846       0.30769231       0.07692308 </v>
   <v>      -0.38461538       0.30769231       0.07692308 </v>
   <v>      -0.30769231       0.30769231       0.07692308 </v>
   <v>      -0.23076923       0.30769231       0.07692308 </v>
   <v>       0.46153846       0.38461538       0.07692308 </v>
   <v>      -0.46153846       0.38461538       0.07692308 </v>
   <v>      -0.38461538       0.38461538       0.07692308 </v>
   <v>      -0.30769231       0.38461538       0.07692308 </v>
   <v>      -0.46153846       0.46153846       0.07692308 </v>
   <v>      -0.38461538       0.46153846       0.07692308 </v>
   <v>       0.46153846       0.30769231       0.15384615 </v>
   <v>      -0.46153846       0.30769231       0.15384615 </v>
   <v>      -0.38461538       0.30769231       0.15384615 </v>
   <v>      -0.46153846       0.38461538       0.15384615 </v>
   <v>      -0.38461538       0.38461538       0.15384615 </v>
   <v>      -0.30769231       0.38461538       0.15384615 </v>
   <v>      -0.23076923       0.38461538       0.15384615 </v>
   <v>      -0.38461538       0.46153846       0.15384615 </v>
   <v>      -0.30769231       0.46153846       0.15384615 </v>
   <v>      -0.30769231       0.46153846       0.23076923 </v>
  </varray>
  <varray name="weights" >
   <v>       0.00045517 </v>
   <v>       0.00364133 </v>
   <v>       0.00364133 </v>
   <v>       0.00364133 </v>
   <v>       0.00364133 </v>
   <v>       0.00364133 </v>
   <v>       0.00364133 </v>
   <v>       0.00273100 </v>
   <v>       0.01092399 </v>
   <v>       0.01092399 </v>
   <v>       0.01092399 </v>
   <v>       0.01092399 </v>
   <v>       0.01092399 </v>
   <v>       0.01092399 </v>
   <v>       0.01092399 </v>
   <v>       0.01092399 </v>
   <v>       0.01092399 </v>
   <v>       0.01092399 </v>
   <v>       0.00546199 </v>
   <v>       0.00273100 </v>
   <v>       0.01092399 </v>
   <v>       0.01092399 </v>
   <v>       0.01092399 </v>
   <v>       0.01092399 </v>
   <v>       0.01092399 </v>
   <v>       0.01092399 </v>
   <v>       0.01092399 </v>
   <v>       0.01092399 </v>
   <v>       0.00546199 </v>
   <v>       0.00273100 </v>
   <v>       0.01092399 </v>
   <v>       0.01092399 </v>
   <v>       0.01092399 </v>
   <v>       0.01092399 </v>
   <v>       0.01092399 </v>
   <v>       0.01092399 </v>
   <v>       0.00546199 </v>
   <v>       0.00273100 </v>
   <v>       0.01092399 </v>
   <v>       0.01092399 </v>
   <v>       0.01092399 </v>
   <v>       0.01092399 </v>
   <v>       0.00546199 </v>
   <v>       0.00273100 </v>
   <v>       0.01092399 </v>
   <v>       0.01092399 </v>
   <v>       0.00546199 </v>
   <v>       0.00273100 </v>
   <v>       0.00546199 </v>
   <v>       0.01092399 </v>
   <v>       0.02184797 </v>
   <v>       0.02184797 </v>
   <v>       0.02184797 </v>
   <v>       0.02184797 </v>
   <v>       0.01092399 </v>
   <v>       0.02184797 </v>
   <v>       0.02184797 </v>
   <v>       0.02184797 </v>
   <v>       0.02184797 </v>
   <v>       0.02184797 </v>
   <v>       0.02184797 </v>
   <v>       0.01092399 </v>
   <v>       0.01092399 </v>
   <v>       0.02184797 </v>
   <v>       0.02184797 </v>
   <v>       0.02184797 </v>
   <v>       0.02184797 </v>
   <v>       0.01092399 </v>
   <v>       0.01092399 </v>
   <v>       0.02184797 </v>
   <v>       0.02184797 </v>
   <v>       0.01092399 </v>
   <v>       0.01092399 </v>
   <v>       0.01092399 </v>
   <v>       0.01092399 </v>
   <v>       0.02184797 </v>
   <v>       0.02184797 </v>
   <v>       0.01092399 </v>
   <v>       0.02184797 </v>
   <v>       0.02184797 </v>
   <v>       0.01092399 </v>
   <v>       0.01092399 </v>
   <v>       0.01092399 </v>
   <v>       0.01092399 </v>
  </varray>
 </kpoints>
 <parameters>
  <separator name="general" >
   <i type="string" name="SYSTEM">unknown system</i>
   <i type="logical" name="LCOMPAT"> F  </i>
  </separator>
  <separator name="electronic" >
   <i type="string" name="PREC">acc</i>
   <i name="ENMAX">    520.00000000</i>
   <i name="ENAUG">    526.41000000</i>
   <i name="EDIFF">      0.00001000</i>
   <i type="int" name="IALGO">    38</i>
   <i type="int" name="IWAVPR">    11</i>
   <i type="int" name="NBANDS">    24</i>
   <i type="int" name="NBANDSLOW">    -1</i>
   <i type="int" name="NBANDSHIGH">    -1</i>
   <i name="NELECT">     39.00000000</i>
   <i type="int" name="TURBO">     0</i>
   <i type="int" name="IRESTART">     0</i>
   <i type="int" name="NREBOOT">     0</i>
   <i type="int" name="NMIN">     0</i>
   <i name="EREF">      0.00000000</i>
   <separator name="electronic smearing" >
    <i type="int" name="ISMEAR">     0</i>
    <i name="SIGMA">      0.01000000</i>
    <i name="KSPACING">      0.50000000</i>
    <i type="logical" name="KGAMMA"> T  </i>
    <i type="logical" name="KBLOWUP"> T  </i>
   </separator>
   <separator name="electronic projectors" >
    <i type="logical" name="LREAL"> F  </i>
    <v name="ROPT">      0.00000000      0.00000000      0.00000000</v>
    <i type="int" name="LMAXPAW">  -100</i>
    <i type="int" name="LMAXMIX">     2</i>
    <i type="logical" name="NLSPLINE"> F  </i>
   </separator>
   <separator name="electronic startup" >
    <i type="int" name="ISTART">     0</i>
    <i type="int" name="ICHARG">     2</i>
    <i type="int" name="INIWAV">     1</i>
   </separator>
   <separator name="electronic spin" >
    <i type="int" name="ISPIN">     1</i>
    <i type="logical" name="LNONCOLLINEAR"> F  </i>
    <v name="MAGMOM">      1.00000000      1.00000000      1.00000000</v>
    <i name="NUPDOWN">     -1.00000000</i>
    <i type="logical" name="LSORBIT"> F  </i>
    <v name="SAXIS">      0.00000000      0.00000000      1.00000000</v>
    <i type="logical" name="LSPIRAL"> F  </i>
    <v name="QSPIRAL">      0.00000000      0.00000000      0.00000000</v>
    <i type="logical" name="LZEROZ"> F  </i>
   </separator>
   <separator name="electronic exchange-correlation" >
    <i type="logical" name="LASPH"> F  </i>
    <i type="logical" name="LMETAGGA"> F  </i>
   </separator>
   <separator name="electronic convergence" >
    <i type="int" name="NELM">    60</i>
    <i type="int" name="NELMDL">    -5</i>
    <i type="int" name="NELMIN">     5</i>
    <i name="ENINI">    520.00000000</i>
    <separator name="electronic convergence detail" >
     <i type="logical" name="LDIAG"> T  </i>
     <i type="logical" name="LSUBROT"> F  </i>
     <i name="WEIMIN">      0.00100000</i>
     <i name="EBREAK">      0.00000010</i>
     <i name="DEPER">      0.30000000</i>
     <i type="int" name="NRMM">     4</i>
     <i name="TIME">      0.40000000</i>
    </separator>
   </separator>
   <separator name="electronic mixer" >
    <i name="AMIX">      0.40000000</i>
    <i name="BMIX">      1.00000000</i>
    <i name="AMIN">      0.10000000</i>
    <i name="AMIX_MAG">      1.60000000</i>
    <i name="BMIX_MAG">      1.00000000</i>
    <separator name="electronic mixer details" >
     <i type="int" name="IMIX">     4</i>
     <i type="logical" name="MIXFIRST"> F  </i>
     <i type="int" name="MAXMIX">   -45</i>
     <i name="WC">    100.00000000</i>
     <i type="int" name="INIMIX">     1</i>
     <i type="int" name="MIXPRE">     1</i>
     <i type="int" name="MREMOVE">     5</i>
    </separator>
   </separator>
   <separator name="electronic dipolcorrection" >
    <i type="logical" name="LDIPOL"> F  </i>
    <i type="logical" name="LMONO"> F  </i>
    <i type="int" name="IDIPOL">     0</i>
    <i name="EPSILON">      1.00000000</i>
    <v name="DIPOL">   -100.00000000   -100.00000000   -100.00000000</v>
    <i name="EFIELD">      0.00000000</i>
   </separator>
  </separator>
  <separator name="grids" >
   <i type="int" name="NGX">    36</i>
   <i type="int" name="NGY">    36</i>
   <i type="int" name="NGZ">    36</i>
   <i type="int" name="NGXF">    72</i>
   <i type="int" name="NGYF">    72</i>
   <i type="int" name="NGZF">    72</i>
   <i type="logical" name="ADDGRID"> T  </i>
  </separator>
  <separator name="ionic" >
   <i type="int" name="NSW">    60</i>
   <i type="int" name="IBRION">     3</i>
   <i type="int" name="MDALGO">     0</i>
   <i type="int" name="ISIF">     7</i>
   <i name="PSTRESS">      0.00000000</i>
   <i name="EDIFFG">     -0.01000000</i>
   <i type="int" name="NFREE">     0</i>
   <i name="POTIM">      0.10000000</i>
   <i name="SMASS">     -3.00000000</i>
   <i name="SCALEE">      1.00000000</i>
  </separator>
  <separator name="ionic md" >
   <i name="TEBEG">      0.00010000</i>
   <i name="TEEND">      0.00010000</i>
   <i type="int" name="NBLOCK">     1</i>
   <i type="int" name="KBLOCK">    60</i>
   <i type="int" name="NPACO">   256</i>
   <i name="APACO">     16.00000000</i>
  </separator>
  <separator name="symmetry" >
   <i type="int" name="ISYM">     2</i>
   <i name="SYMPREC">      0.00001000</i>
  </separator>
  <separator name="dos" >
   <i type="int" name="LORBIT">     0</i>
   <v name="RWIGS">     -1.00000000     -1.00000000     -1.00000000</v>
   <i type="int" name="NEDOS">   301</i>
   <i name="EMIN">     10.00000000</i>
   <i name="EMAX">    -10.00000000</i>
   <i name="EFERMI">      0.00000000</i>
  </separator>
  <separator name="writing" >
   <i type="int" name="NWRITE">     2</i>
   <i type="logical" name="LWAVE"> F  </i>
   <i type="logical" name="LDOWNSAMPLE"> F  </i>
   <i type="logical" name="LCHARG"> F  </i>
   <i type="logical" name="LPARD"> F  </i>
   <i type="logical" name="LVTOT"> F  </i>
   <i type="logical" name="LVHAR"> F  </i>
   <i type="logical" name="LELF"> F  </i>
   <i type="logical" name="LOPTICS"> F  </i>
   <v name="STM">      0.00000000      0.00000000      0.00000000      0.00000000      0.00000000      0.00000000      0.00000000</v>
  </separator>
  <separator name="performance" >
   <i type="int" name="NPAR">     4</i>
   <i type="int" name="NSIM">     4</i>
   <i type="int" name="NBLK">    -1</i>
   <i type="logical" name="LPLANE"> T  </i>
   <i type="logical" name="LSCALAPACK"> T  </i>
   <i type="logical" name="LSCAAWARE"> F  </i>
   <i type="logical" name="LSCALU"> F  </i>
   <i type="logical" name="LASYNC"> F  </i>
   <i type="logical" name="LORBITALREAL"> F  </i>
  </separator>
  <separator name="miscellaneous" >
   <i type="int" name="IDIOT">     3</i>
   <i type="int" name="PHON_NSTRUCT">    -1</i>
   <i type="logical" name="LMUSIC"> F  </i>
   <v name="POMASS">    208.98000000    195.08000000    238.02900000</v>
   <v name="DARWINR">      0.00000000      0.00000000      0.00000000</v>
   <v name="DARWINV">      1.00000000      1.00000000      1.00000000</v>
   <i type="logical" name="LCORR"> T  </i>
  </separator>
  <i type="logical" name="GGA_COMPAT"> T  </i>
  <i type="logical" name="LBERRY"> F  </i>
  <i type="int" name="ICORELEVEL">     0</i>
  <i type="logical" name="LDAU"> F  </i>
  <i type="int" name="I_CONSTRAINED_M">     0</i>
  <separator name="electronic exchange-correlation" >
   <i type="string" name="GGA">PS</i>
   <i type="int" name="VOSKOWN">     0</i>
   <i type="logical" name="LHFCALC"> F  </i>
   <i type="string" name="PRECFOCK"></i>
   <i type="logical" name="LSYMGRAD"> F  </i>
   <i type="logical" name="LHFONE"> F  </i>
   <i type="logical" name="LRHFCALC"> F  </i>
   <i type="logical" name="LTHOMAS"> F  </i>
   <i type="logical" name="LMODELHF"> F  </i>
   <i type="logical" name="LFOCKACE"> F  </i>
   <i name="ENCUT4O">     -1.00000000</i>
   <i type="int" name="EXXOEP">     0</i>
   <i type="int" name="FOURORBIT">     0</i>
   <i name="AEXX">      0.00000000</i>
   <i name="HFALPHA">      0.00000000</i>
   <i name="MCALPHA">      0.00000000</i>
   <i name="ALDAX">      1.00000000</i>
   <i name="AGGAX">      1.00000000</i>
   <i name="ALDAC">      1.00000000</i>
   <i name="AGGAC">      1.00000000</i>
   <i type="int" name="NKREDX">     1</i>
   <i type="int" name="NKREDY">     1</i>
   <i type="int" name="NKREDZ">     1</i>
   <i type="logical" name="SHIFTRED"> F  </i>
   <i type="logical" name="ODDONLY"> F  </i>
   <i type="logical" name="EVENONLY"> F  </i>
   <i type="int" name="LMAXFOCK">     0</i>
   <i type="int" name="NMAXFOCKAE">     0</i>
   <i type="logical" name="LFOCKAEDFT"> F  </i>
   <i name="HFSCREEN">      0.00000000</i>
   <i name="HFSCREENC">      0.00000000</i>
   <i type="int" name="NBANDSGWLOW">     0</i>
  </separator>
  <separator name="vdW DFT" >
   <i type="logical" name="LUSE_VDW"> F  </i>
   <i name="Zab_VDW">     -0.84910000</i>
   <i name="PARAM1">      0.12340000</i>
   <i name="PARAM2">      1.00000000</i>
   <i name="PARAM3">      0.00000000</i>
  </separator>
  <separator name="model GW" >
   <i type="int" name="MODEL_GW">     0</i>
   <i name="MODEL_EPS0">     14.60656184</i>
   <i name="MODEL_ALPHA">      1.00000000</i>
  </separator>
  <separator name="linear response parameters" >
   <i type="logical" name="LEPSILON"> F  </i>
   <i type="logical" name="LRPA"> F  </i>
   <i type="logical" name="LNABLA"> F  </i>
   <i type="logical" name="LVEL"> F  </i>
   <i type="int" name="KINTER">     0</i>
   <i name="CSHIFT">      0.10000000</i>
   <i name="OMEGAMAX">     -1.00000000</i>
   <i name="DEG_THRESHOLD">      0.00200000</i>
   <i name="RTIME">     -0.10000000</i>
   <i name="WPLASMAI">      0.00000000</i>
   <v name="DFIELD">      0.00000000      0.00000000      0.00000000</v>
   <v name="WPLASMA">      0.00000000      0.00000000      0.00000000      0.00000000      0.00000000      0.00000000      0.00000000      0.00000000      0.00000000</v>
  </separator>
  <separator name="orbital magnetization" >
   <i type="logical" name="NUCIND"> F  </i>
   <v name="MAGPOS">      0.00000000      0.00000000      0.00000000</v>
   <i type="logical" name="LNICSALL"> T  </i>
   <i type="logical" name="ORBITALMAG"> F  </i>
   <i type="logical" name="LMAGBLOCH"> F  </i>
   <i type="logical" name="LCHIMAG"> F  </i>
   <i type="logical" name="LGAUGE"> T  </i>
   <i type="int" name="MAGATOM">     0</i>
   <v name="MAGDIPOL">      0.00000000      0.00000000      0.00000000</v>
   <v name="AVECCONST">      0.00000000      0.00000000      0.00000000</v>
  </separator>
  <separator name="response functions" >
   <i type="logical" name="LFINITE_TEMPERATURE"> F  </i>
   <i type="logical" name="LADDER"> F  </i>
   <i type="logical" name="LRPAFORCE"> F  </i>
   <i type="logical" name="LFXC"> F  </i>
   <i type="logical" name="LHARTREE"> T  </i>
   <i type="int" name="IBSE">     0</i>
   <v type="int" name="KPOINT">    -1     0     0     0</v>
   <i type="logical" name="LTCTC"> F  </i>
   <i type="logical" name="LTCTE"> F  </i>
   <i type="logical" name="LTETE"> F  </i>
   <i type="logical" name="LTRIPLET"> F  </i>
   <i type="logical" name="LFXCEPS"> F  </i>
   <i type="logical" name="LFXHEG"> F  </i>
   <i type="int" name="NATURALO">     2</i>
   <i type="logical" name="L2ORDER"> F  </i>
   <i type="logical" name="LDMP1"> F  </i>
   <i type="logical" name="LMP2LT"> F  </i>
   <i type="logical" name="LSMP2LT"> F  </i>
   <i type="logical" name="LUSEW"> F  </i>
   <i name="ENCUTGW">     -2.00000000</i>
   <i name="ENCUTGWSOFT">     -2.00000000</i>
   <i name="ENCUTLF">     -1.00000000</i>
   <i type="int" name="LMAXMP2">    -1</i>
   <i name="SCISSOR">      0.00000000</i>
   <i type="int" name="NOMEGA">     0</i>
   <i type="int" name="NOMEGAR">     0</i>
   <i type="int" name="NBANDSGW">    -1</i>
   <i type="int" name="NBANDSO">    -1</i>
   <i type="int" name="NBANDSV">    -1</i>
   <i type="int" name="NELM">     1</i>
   <i type="int" name="NELMHF">     1</i>
   <i type="int" name="DIM">     3</i>
   <i type="int" name="IESPILON">     4</i>
   <i type="int" name="ANTIRES">     0</i>
   <i name="OMEGAMAX">    -30.00000000</i>
   <i name="OMEGAMIN">    -30.00000000</i>
   <i name="OMEGATL">   -200.00000000</i>
   <i type="int" name="OMEGAGRID">   145</i>
   <i name="CSHIFT">     -0.10000000</i>
   <i type="logical" name="LSELFENERGY"> F  </i>
   <i type="logical" name="LSPECTRAL"> F  </i>
   <i type="logical" name="LSPECTRALGW"> F  </i>
   <i type="logical" name="LSINGLES"> F  </i>
   <i type="logical" name="LFERMIGW"> F  </i>
   <i type="logical" name="ODDONLYGW"> F  </i>
   <i type="logical" name="EVENONLYGW"> F  </i>
   <i type="int" name="NKREDLFX">     1</i>
   <i type="int" name="NKREDLFY">     1</i>
   <i type="int" name="NKREDLFZ">     1</i>
   <i type="int" name="MAXMEM">  2800</i>
   <i type="int" name="TELESCOPE">     0</i>
   <i type="int" name="NTAUPAR">     1</i>
   <i type="int" name="NOMEGAPAR">    -1</i>
   <i name="LAMBDA">      1.00000000</i>
  </separator>
  <separator name="External order field" >
   <i name="OFIELD_KAPPA">      0.00000000</i>
   <v name="OFIELD_K">      0.00000000      0.00000000      0.00000000</v>
   <i name="OFIELD_Q6_NEAR">      0.00000000</i>
   <i name="OFIELD_Q6_FAR">      0.00000000</i>
   <i name="OFIELD_A">      0.00000000</i>
  </separator>
 </parameters>
 <atominfo>
  <atoms>       3 </atoms>
  <types>       3 </types>
  <array name="atoms" >
   <dimension dim="1">ion</dimension>
   <field type="string">element</field>
   <field type="int">atomtype</field>
   <set>
    <rc><c>Bi</c><c>   1</c></rc>
    <rc><c>Pt</c><c>   2</c></rc>
    <rc><c>U </c><c>   3</c></rc>
   </set>
  </array>
  <array name="atomtypes" >
   <dimension dim="1">type</dimension>
   <field type="int">atomspertype</field>
   <field type="string">element</field>
   <field>mass</field>
   <field>valence</field>
   <field type="string">pseudopotential</field>
   <set>
    <rc><c>   1</c><c>Bi</c><c>    208.98000000</c><c>     15.00000000</c><c>  PAW_PBE Bi_d 06Sep2000                </c></rc>
    <rc><c>   1</c><c>Pt</c><c>    195.08000000</c><c>     10.00000000</c><c>  PAW_PBE Pt 04Feb2005                  </c></rc>
    <rc><c>   1</c><c>U </c><c>    238.02900000</c><c>     14.00000000</c><c>  PAW_PBE U 06Sep2000                   </c></rc>
   </set>
  </array>
 </atominfo>
 <structure name="initialpos" >
  <crystal>
   <varray name="basis" >
    <v>       0.00000000       3.31764060       3.31764060 </v>
    <v>       3.31764060       0.00000000       3.31764060 </v>
    <v>       3.31764060       3.31764060       0.00000000 </v>
   </varray>
   <i name="volume">     73.03280919 </i>
   <varray name="rec_basis" >
    <v>      -0.15070951       0.15070951       0.15070951 </v>
    <v>       0.15070951      -0.15070951       0.15070951 </v>
    <v>       0.15070951       0.15070951      -0.15070951 </v>
   </varray>
  </crystal>
  <varray name="positions" >
   <v>       0.25000000       0.25000000       0.25000000 </v>
   <v>       0.00000000       0.00000000       0.00000000 </v>
   <v>       0.75000000       0.75000000       0.75000000 </v>
  </varray>
 </structure>
 <calculation>
  <scstep>
   <time name="dav">    1.23    1.26</time>
   <time name="total">    1.34    1.42</time>
   <energy>
    <i name="alphaZ">    215.31123953 </i>
    <i name="ewald">  -3593.30957942 </i>
    <i name="hartreedc">   -783.94233873 </i>
    <i name="XCdc">     90.34504580 </i>
    <i name="pawpsdc">   3513.29252893 </i>
    <i name="pawaedc">  -3436.88002192 </i>
    <i name="eentropy">     -0.00012332 </i>
    <i name="bandstr">    295.46451113 </i>
    <i name="atom">   4095.34623897 </i>
    <i name="e_fr_energy">    395.62750097 </i>
    <i name="e_wo_entrp">    395.62762428 </i>
    <i name="e_0_energy">    395.62756263 </i>
   </energy>
  </scstep>
  <scstep>
   <time name="dav">    1.62    1.94</time>
   <time name="total">    1.62    1.95</time>
   <energy>
    <i name="e_fr_energy">     24.98251256 </i>
    <i name="e_wo_entrp">     24.98322659 </i>
    <i name="e_0_energy">     24.98286957 </i>
   </energy>
  </scstep>
  <scstep>
   <time name="dav">    1.69    2.15</time>
   <time name="total">    1.70    2.16</time>
   <energy>
    <i name="e_fr_energy">    -21.13407378 </i>
    <i name="e_wo_entrp">    -21.13330134 </i>
    <i name="e_0_energy">    -21.13368756 </i>
   </energy>
  </scstep>
  <scstep>
   <time name="dav">    2.33    2.66</time>
   <time name="total">    2.34    2.66</time>
   <energy>
    <i name="e_fr_energy">    -25.94229106 </i>
    <i name="e_wo_entrp">    -25.94145720 </i>
    <i name="e_0_energy">    -25.94187413 </i>
   </energy>
  </scstep>
  <scstep>
   <time name="dav">    1.67    2.12</time>
   <time name="total">    1.88    2.33</time>
   <energy>
    <i name="e_fr_energy">    -26.09914435 </i>
    <i name="e_wo_entrp">    -26.09821822 </i>
    <i name="e_0_energy">    -26.09868128 </i>
   </energy>
  </scstep>
  <scstep>
   <time name="dav">    1.67    1.67</time>
   <time name="total">    2.45    2.50</time>
   <energy>
    <i name="e_fr_energy">    -33.35398311 </i>
    <i name="e_wo_entrp">    -33.35386899 </i>
    <i name="e_0_energy">    -33.35392605 </i>
   </energy>
  </scstep>
  <scstep>
   <time name="dav">    1.66    1.66</time>
   <time name="total">    2.25    2.50</time>
   <energy>
    <i name="e_fr_energy">    -24.63793988 </i>
    <i name="e_wo_entrp">    -24.63712226 </i>
    <i name="e_0_energy">    -24.63753107 </i>
   </energy>
  </scstep>
  <scstep>
   <time name="dav">    1.63    1.63</time>
   <time name="total">    2.25    2.52</time>
   <energy>
    <i name="e_fr_energy">    -24.53244614 </i>
    <i name="e_wo_entrp">    -24.53120834 </i>
    <i name="e_0_energy">    -24.53182724 </i>
   </energy>
  </scstep>
  <scstep>
   <time name="dav">    1.72    1.72</time>
   <time name="total">    2.24    2.58</time>
   <energy>
    <i name="e_fr_energy">    -23.76487628 </i>
    <i name="e_wo_entrp">    -23.76362171 </i>
    <i name="e_0_energy">    -23.76424899 </i>
   </energy>
  </scstep>
  <scstep>
   <time name="dav">    1.85    1.85</time>
   <time name="total">    2.59    2.69</time>
   <energy>
    <i name="e_fr_energy">    -23.80157705 </i>
    <i name="e_wo_entrp">    -23.80028070 </i>
    <i name="e_0_energy">    -23.80092888 </i>
   </energy>
  </scstep>
  <scstep>
   <time name="dav">    1.65    1.65</time>
   <time name="total">    2.46    2.51</time>
   <energy>
    <i name="e_fr_energy">    -23.76768640 </i>
    <i name="e_wo_entrp">    -23.76606586 </i>
    <i name="e_0_energy">    -23.76687613 </i>
   </energy>
  </scstep>
  <scstep>
   <time name="dav">    1.82    1.83</time>
   <time name="total">    2.65    2.71</time>
   <energy>
    <i name="e_fr_energy">    -23.76839242 </i>
    <i name="e_wo_entrp">    -23.76672472 </i>
    <i name="e_0_energy">    -23.76755857 </i>
   </energy>
  </scstep>
  <scstep>
   <time name="dav">    1.71    1.71</time>
   <time name="total">    2.12    2.71</time>
   <energy>
    <i name="e_fr_energy">    -23.76826063 </i>
    <i name="e_wo_entrp">    -23.76660702 </i>
    <i name="e_0_energy">    -23.76743383 </i>
   </energy>
  </scstep>
  <scstep>
   <time name="dav">    1.64    1.64</time>
   <time name="total">    2.28    2.35</time>
   <energy>
    <i name="alphaZ">    215.31123953 </i>
    <i name="ewald">  -3593.30957942 </i>
    <i name="hartreedc">   -770.31041817 </i>
    <i name="XCdc">     89.94382178 </i>
    <i name="pawpsdc">   4210.49276180 </i>
    <i name="pawaedc">  -4143.51218696 </i>
    <i name="eentropy">     -0.00165593 </i>
    <i name="bandstr">   -127.72848137 </i>
    <i name="atom">   4095.34623897 </i>
    <i name="e_fr_energy">    -23.76825977 </i>
    <i name="e_wo_entrp">    -23.76660385 </i>
    <i name="e_0_energy">    -23.76743181 </i>
   </energy>
  </scstep>
  <structure>
   <crystal>
    <varray name="basis" >
     <v>       0.00000000       3.31764060       3.31764060 </v>
     <v>       3.31764060       0.00000000       3.31764060 </v>
     <v>       3.31764060       3.31764060       0.00000000 </v>
    </varray>
    <i name="volume">     73.03280919 </i>
    <varray name="rec_basis" >
     <v>      -0.15070951       0.15070951       0.15070951 </v>
     <v>       0.15070951      -0.15070951       0.15070951 </v>
     <v>       0.15070951       0.15070951      -0.15070951 </v>
    </varray>
   </crystal>
   <varray name="positions" >
    <v>       0.25000000       0.25000000       0.25000000 </v>
    <v>       0.00000000       0.00000000       0.00000000 </v>
    <v>       0.75000000       0.75000000       0.75000000 </v>
   </varray>
  </structure>
  <varray name="forces" >
   <v>      -0.00000000      -0.00000000      -0.00000000 </v>
   <v>       0.00000000       0.00000000       0.00000000 </v>
   <v>      -0.00000000      -0.00000000       0.00000000 </v>
  </varray>
  <varray name="stress" >
   <v>       0.29728584       0.00000000       0.00000000 </v>
   <v>       0.00000000       0.29728584      -0.00000000 </v>
   <v>       0.00000000       0.00000000       0.29728584 </v>
  </varray>
  <energy>
   <i name="e_fr_energy">    -23.76825977 </i>
   <i name="e_wo_entrp">    -23.76743181 </i>
   <i name="e_0_energy">     -0.00165593 </i>
  </energy>
  <time name="totalsc">   32.60   36.94</time>
  <eigenvalues>
   <array>
    <dimension dim="1">band</dimension>
    <dimension dim="2">kpoint</dimension>
    <dimension dim="3">spin</dimension>
    <field>eigene</field>
    <field>occ</field>
    <set>
     <set comment="spin 1">
      <set comment="kpoint 1">
       <r>  -34.0312    1.0000 </r>
       <r>  -12.8307    1.0000 </r>
       <r>  -12.8307    1.0000 </r>
       <r>  -12.8020    1.0000 </r>
       <r>  -12.8020    1.0000 </r>
       <r>  -12.8020    1.0000 </r>
       <r>   -9.3220    1.0000 </r>
       <r>   -9.3220    1.0000 </r>
       <r>   -9.3220    1.0000 </r>
       <r>   -2.4456    1.0000 </r>
       <r>    5.4645    1.0000 </r>
       <r>    5.4645    1.0000 </r>
       <r>    5.4645    1.0000 </r>
       <r>    5.7149    1.0000 </r>
       <r>    5.7149    1.0000 </r>
       <r>    8.4863    1.0000 </r>
       <r>    8.9101    1.0000 </r>
       <r>    8.9101    1.0000 </r>
       <r>    8.9101    1.0000 </r>
       <r>   10.0465    1.0000 </r>
       <r>   10.0465    1.0000 </r>
       <r>   10.0465    1.0000 </r>
       <r>   10.2226    0.0000 </r>
       <r>   10.3315    0.0000 </r>
      </set>
      <set comment="kpoint 2">
       <r>  -34.0309    1.0000 </r>
       <r>  -12.8323    1.0000 </r>
       <r>  -12.8323    1.0000 </r>
       <r>  -12.8023    1.0000 </r>
       <r>  -12.8018    1.0000 </r>
       <r>  -12.8018    1.0000 </r>
       <r>   -9.3369    1.0000 </r>
       <r>   -9.3184    1.0000 </r>
       <r>   -9.3184    1.0000 </r>
       <r>   -2.3770    1.0000 </r>
       <r>    5.3383    1.0000 </r>
       <r>    5.3426    1.0000 </r>
       <r>    5.3426    1.0000 </r>
       <r>    5.8293    1.0000 </r>
       <r>    5.8293    1.0000 </r>
       <r>    8.0649    1.0000 </r>
       <r>    8.8509    1.0000 </r>
       <r>    8.8509    1.0000 </r>
       <r>    9.1725    1.0000 </r>
       <r>   10.0255    1.0000 </r>
       <r>   10.0379    1.0000 </r>
       <r>   10.0379    1.0000 </r>
       <r>   10.3549    0.0000 </r>
       <r>   10.4043    0.0000 </r>
      </set>
      <set comment="kpoint 3">
       <r>  -34.0302    1.0000 </r>
       <r>  -12.8369    1.0000 </r>
       <r>  -12.8369    1.0000 </r>
       <r>  -12.8032    1.0000 </r>
       <r>  -12.8012    1.0000 </r>
       <r>  -12.8012    1.0000 </r>
       <r>   -9.3765    1.0000 </r>
       <r>   -9.3086    1.0000 </r>
       <r>   -9.3086    1.0000 </r>
       <r>   -2.1855    1.0000 </r>
       <r>    5.0163    1.0000 </r>
       <r>    5.1731    1.0000 </r>
       <r>    5.1731    1.0000 </r>
       <r>    5.9659    1.0000 </r>
       <r>    5.9659    1.0000 </r>
       <r>    7.4685    1.0000 </r>
       <r>    8.7233    1.0000 </r>
       <r>    8.7233    1.0000 </r>
       <r>    9.2545    1.0000 </r>
       <r>   10.0354    1.0000 </r>
       <r>   10.0354    1.0000 </r>
       <r>   10.2417    0.0000 </r>
       <r>   10.5418    0.0000 </r>
       <r>   10.5420    0.0000 </r>
      </set>
      <set comment="kpoint 4">
       <r>  -34.0291    1.0000 </r>
       <r>  -12.8433    1.0000 </r>
       <r>  -12.8433    1.0000 </r>
       <r>  -12.8047    1.0000 </r>
       <r>  -12.8003    1.0000 </r>
       <r>  -12.8003    1.0000 </r>
       <r>   -9.4290    1.0000 </r>
       <r>   -9.2949    1.0000 </r>
       <r>   -9.2949    1.0000 </r>
       <r>   -1.9117    1.0000 </r>
       <r>    4.6142    1.0000 </r>
       <r>    5.0448    1.0000 </r>
       <r>    5.0448    1.0000 </r>
       <r>    6.0173    1.0000 </r>
       <r>    6.0173    1.0000 </r>
       <r>    6.9189    1.0000 </r>
       <r>    8.6130    1.0000 </r>
       <r>    8.6130    1.0000 </r>
       <r>    9.2474    1.0000 </r>
       <r>   10.0506    1.0000 </r>
       <r>   10.0506    1.0000 </r>
       <r>   10.3882    0.0000 </r>
       <r>   10.6189    0.0000 </r>
       <r>   10.6189    0.0000 </r>
      </set>
      <set comment="kpoint 5">
       <r>  -34.0280    1.0000 </r>
       <r>  -12.8501    1.0000 </r>
       <r>  -12.8501    1.0000 </r>
       <r>  -12.8065    1.0000 </r>
       <r>  -12.7993    1.0000 </r>
       <r>  -12.7993    1.0000 </r>
       <r>   -9.4807    1.0000 </r>
       <r>   -9.2803    1.0000 </r>
       <r>   -9.2803    1.0000 </r>
       <r>   -1.6152    1.0000 </r>
       <r>    4.2349    1.0000 </r>
       <r>    4.9739    1.0000 </r>
       <r>    4.9739    1.0000 </r>
       <r>    5.9695    1.0000 </r>
       <r>    5.9695    1.0000 </r>
       <r>    6.4832    1.0000 </r>
       <r>    8.5631    1.0000 </r>
       <r>    8.5631    1.0000 </r>
       <r>    9.2833    1.0000 </r>
       <r>   10.0821    0.8602 </r>
       <r>   10.0821    0.8602 </r>
       <r>   10.3454    0.0000 </r>
       <r>   10.4591    0.0000 </r>
       <r>   10.5897    0.0000 </r>
      </set>
      <set comment="kpoint 6">
       <r>  -34.0271    1.0000 </r>
       <r>  -12.8558    1.0000 </r>
       <r>  -12.8558    1.0000 </r>
       <r>  -12.8083    1.0000 </r>
       <r>  -12.7984    1.0000 </r>
       <r>  -12.7984    1.0000 </r>
       <r>   -9.5205    1.0000 </r>
       <r>   -9.2684    1.0000 </r>
       <r>   -9.2684    1.0000 </r>
       <r>   -1.3643    1.0000 </r>
       <r>    3.9492    1.0000 </r>
       <r>    4.9550    1.0000 </r>
       <r>    4.9550    1.0000 </r>
       <r>    5.8660    1.0000 </r>
       <r>    5.8660    1.0000 </r>
       <r>    6.1889    1.0000 </r>
       <r>    8.5609    1.0000 </r>
       <r>    8.5609    1.0000 </r>
       <r>    9.3574    1.0000 </r>
       <r>   10.1261    0.0000 </r>
       <r>   10.1261    0.0000 </r>
       <r>   10.5089    0.0000 </r>
       <r>   10.5094    0.0000 </r>
       <r>   10.5130    0.0000 </r>
      </set>
      <set comment="kpoint 7">
       <r>  -34.0266    1.0000 </r>
       <r>  -12.8589    1.0000 </r>
       <r>  -12.8589    1.0000 </r>
       <r>  -12.8093    1.0000 </r>
       <r>  -12.7980    1.0000 </r>
       <r>  -12.7980    1.0000 </r>
       <r>   -9.5418    1.0000 </r>
       <r>   -9.2617    1.0000 </r>
       <r>   -9.2617    1.0000 </r>
       <r>   -1.2204    1.0000 </r>
       <r>    3.7978    1.0000 </r>
       <r>    4.9621    1.0000 </r>
       <r>    4.9621    1.0000 </r>
       <r>    5.7823    1.0000 </r>
       <r>    5.7823    1.0000 </r>
       <r>    6.0421    1.0000 </r>
       <r>    8.5715    1.0000 </r>
       <r>    8.5715    1.0000 </r>
       <r>    9.4218    1.0000 </r>
       <r>   10.1671    0.0000 </r>
       <r>   10.1671    0.0000 </r>
       <r>   10.4409    0.0000 </r>
       <r>   10.4412    0.0000 </r>
       <r>   10.5511    0.0000 </r>
      </set>
      <set comment="kpoint 8">
       <r>  -34.0308    1.0000 </r>
       <r>  -12.8352    1.0000 </r>
       <r>  -12.8303    1.0000 </r>
       <r>  -12.8025    1.0000 </r>
       <r>  -12.8017    1.0000 </r>
       <r>  -12.8017    1.0000 </r>
       <r>   -9.3297    1.0000 </r>
       <r>   -9.3235    1.0000 </r>
       <r>   -9.3235    1.0000 </r>
       <r>   -2.3556    1.0000 </r>
       <r>    5.0780    1.0000 </r>
       <r>    5.4781    1.0000 </r>
       <r>    5.4781    1.0000 </r>
       <r>    5.7290    1.0000 </r>
       <r>    5.8767    1.0000 </r>
       <r>    8.0455    1.0000 </r>
       <r>    8.7548    1.0000 </r>
       <r>    8.7548    1.0000 </r>
       <r>    9.3340    1.0000 </r>
       <r>    9.9426    1.0000 </r>
       <r>   10.0589    1.0000 </r>
       <r>   10.0589    1.0000 </r>
       <r>   10.3426    0.0000 </r>
       <r>   10.3838    0.0000 </r>
      </set>
      <set comment="kpoint 9">
       <r>  -34.0303    1.0000 </r>
       <r>  -12.8402    1.0000 </r>
       <r>  -12.8316    1.0000 </r>
       <r>  -12.8032    1.0000 </r>
       <r>  -12.8012    1.0000 </r>
       <r>  -12.8011    1.0000 </r>
       <r>   -9.3600    1.0000 </r>
       <r>   -9.3213    1.0000 </r>
       <r>   -9.3122    1.0000 </r>
       <r>   -2.2099    1.0000 </r>
       <r>    4.7952    1.0000 </r>
       <r>    5.3621    1.0000 </r>
       <r>    5.3870    1.0000 </r>
       <r>    5.8281    1.0000 </r>
       <r>    5.9796    1.0000 </r>
       <r>    7.6446    1.0000 </r>
       <r>    8.6144    1.0000 </r>
       <r>    8.6163    1.0000 </r>
       <r>    9.4350    1.0000 </r>
       <r>   10.0000    1.0000 </r>
       <r>   10.0607    1.0000 </r>
       <r>   10.1593    0.0000 </r>
       <r>   10.3484    0.0000 </r>
       <r>   10.5096    0.0000 </r>
      </set>
      <set comment="kpoint 10">
       <r>  -34.0293    1.0000 </r>
       <r>  -12.8463    1.0000 </r>
       <r>  -12.8360    1.0000 </r>
       <r>  -12.8043    1.0000 </r>
       <r>  -12.8006    1.0000 </r>
       <r>  -12.8002    1.0000 </r>
       <r>   -9.4087    1.0000 </r>
       <r>   -9.3124    1.0000 </r>
       <r>   -9.2970    1.0000 </r>
       <r>   -1.9718    1.0000 </r>
       <r>    4.5125    1.0000 </r>
       <r>    5.1369    1.0000 </r>
       <r>    5.2599    1.0000 </r>
       <r>    5.9074    1.0000 </r>
       <r>    6.0694    1.0000 </r>
       <r>    7.1356    1.0000 </r>
       <r>    8.4726    1.0000 </r>
       <r>    8.5149    1.0000 </r>
       <r>    9.4117    1.0000 </r>
       <r>   10.0319    1.0000 </r>
       <r>   10.0644    0.9998 </r>
       <r>   10.3432    0.0000 </r>
       <r>   10.3514    0.0000 </r>
       <r>   10.5887    0.0000 </r>
      </set>
      <set comment="kpoint 11">
       <r>  -34.0282    1.0000 </r>
       <r>  -12.8520    1.0000 </r>
       <r>  -12.8425    1.0000 </r>
       <r>  -12.8059    1.0000 </r>
       <r>  -12.7999    1.0000 </r>
       <r>  -12.7992    1.0000 </r>
       <r>   -9.4605    1.0000 </r>
       <r>   -9.2989    1.0000 </r>
       <r>   -9.2830    1.0000 </r>
       <r>   -1.6947    1.0000 </r>
       <r>    4.2413    1.0000 </r>
       <r>    4.9625    1.0000 </r>
       <r>    5.1652    1.0000 </r>
       <r>    5.8913    1.0000 </r>
       <r>    6.0750    1.0000 </r>
       <r>    6.6690    1.0000 </r>
       <r>    8.3937    1.0000 </r>
       <r>    8.4841    1.0000 </r>
       <r>    9.3981    1.0000 </r>
       <r>   10.0725    0.9924 </r>
       <r>   10.0813    0.8822 </r>
       <r>   10.3539    0.0000 </r>
       <r>   10.4203    0.0000 </r>
       <r>   10.5829    0.0000 </r>
      </set>
      <set comment="kpoint 12">
       <r>  -34.0272    1.0000 </r>
       <r>  -12.8562    1.0000 </r>
       <r>  -12.8494    1.0000 </r>
       <r>  -12.8075    1.0000 </r>
       <r>  -12.7991    1.0000 </r>
       <r>  -12.7983    1.0000 </r>
       <r>   -9.5038    1.0000 </r>
       <r>   -9.2839    1.0000 </r>
       <r>   -9.2735    1.0000 </r>
       <r>   -1.4420    1.0000 </r>
       <r>    4.0172    1.0000 </r>
       <r>    4.8890    1.0000 </r>
       <r>    5.0983    1.0000 </r>
       <r>    5.8206    1.0000 </r>
       <r>    5.9992    1.0000 </r>
       <r>    6.3149    1.0000 </r>
       <r>    8.3780    1.0000 </r>
       <r>    8.5013    1.0000 </r>
       <r>    9.4274    1.0000 </r>
       <r>   10.1147    0.0002 </r>
       <r>   10.1212    0.0000 </r>
       <r>   10.3545    0.0000 </r>
       <r>   10.4530    0.0000 </r>
       <r>   10.5401    0.0000 </r>
      </set>
      <set comment="kpoint 13">
       <r>  -34.0266    1.0000 </r>
       <r>  -12.8578    1.0000 </r>
       <r>  -12.8552    1.0000 </r>
       <r>  -12.8087    1.0000 </r>
       <r>  -12.7985    1.0000 </r>
       <r>  -12.7978    1.0000 </r>
       <r>   -9.5308    1.0000 </r>
       <r>   -9.2709    1.0000 </r>
       <r>   -9.2703    1.0000 </r>
       <r>   -1.2728    1.0000 </r>
       <r>    3.8786    1.0000 </r>
       <r>    4.9052    1.0000 </r>
       <r>    5.0295    1.0000 </r>
       <r>    5.7798    1.0000 </r>
       <r>    5.8890    1.0000 </r>
       <r>    6.1037    1.0000 </r>
       <r>    8.3894    1.0000 </r>
       <r>    8.5253    1.0000 </r>
       <r>    9.4784    1.0000 </r>
       <r>   10.1600    0.0000 </r>
       <r>   10.1632    0.0000 </r>
       <r>   10.3518    0.0000 </r>
       <r>   10.4324    0.0000 </r>
       <r>   10.5277    0.0000 </r>
      </set>
      <set comment="kpoint 14">
       <r>  -34.0264    1.0000 </r>
       <r>  -12.8586    1.0000 </r>
       <r>  -12.8565    1.0000 </r>
       <r>  -12.8090    1.0000 </r>
       <r>  -12.7982    1.0000 </r>
       <r>  -12.7978    1.0000 </r>
       <r>   -9.5376    1.0000 </r>
       <r>   -9.2742    1.0000 </r>
       <r>   -9.2627    1.0000 </r>
       <r>   -1.2264    1.0000 </r>
       <r>    3.8425    1.0000 </r>
       <r>    4.9424    1.0000 </r>
       <r>    4.9769    1.0000 </r>
       <r>    5.8011    1.0000 </r>
       <r>    5.8241    1.0000 </r>
       <r>    6.0518    1.0000 </r>
       <r>    8.3884    1.0000 </r>
       <r>    8.5341    1.0000 </r>
       <r>    9.4998    1.0000 </r>
       <r>   10.1665    0.0000 </r>
       <r>   10.1909    0.0000 </r>
       <r>   10.3421    0.0000 </r>
       <r>   10.4385    0.0000 </r>
       <r>   10.4534    0.0000 </r>
      </set>
      <set comment="kpoint 15">
       <r>  -34.0268    1.0000 </r>
       <r>  -12.8589    1.0000 </r>
       <r>  -12.8526    1.0000 </r>
       <r>  -12.8083    1.0000 </r>
       <r>  -12.7984    1.0000 </r>
       <r>  -12.7983    1.0000 </r>
       <r>   -9.5235    1.0000 </r>
       <r>   -9.2841    1.0000 </r>
       <r>   -9.2612    1.0000 </r>
       <r>   -1.3138    1.0000 </r>
       <r>    3.9155    1.0000 </r>
       <r>    4.8637    1.0000 </r>
       <r>    5.0655    1.0000 </r>
       <r>    5.7823    1.0000 </r>
       <r>    5.9356    1.0000 </r>
       <r>    6.1601    1.0000 </r>
       <r>    8.3530    1.0000 </r>
       <r>    8.5341    1.0000 </r>
       <r>    9.4685    1.0000 </r>
       <r>   10.1313    0.0000 </r>
       <r>   10.1668    0.0000 </r>
       <r>   10.3462    0.0000 </r>
       <r>   10.4673    0.0000 </r>
       <r>   10.4840    0.0000 </r>
      </set>
      <set comment="kpoint 16">
       <r>  -34.0276    1.0000 </r>
       <r>  -12.8560    1.0000 </r>
       <r>  -12.8469    1.0000 </r>
       <r>  -12.8068    1.0000 </r>
       <r>  -12.7991    1.0000 </r>
       <r>  -12.7990    1.0000 </r>
       <r>   -9.4904    1.0000 </r>
       <r>   -9.2977    1.0000 </r>
       <r>   -9.2667    1.0000 </r>
       <r>   -1.5151    1.0000 </r>
       <r>    4.1003    1.0000 </r>
       <r>    4.8307    1.0000 </r>
       <r>    5.1554    1.0000 </r>
       <r>    5.8305    1.0000 </r>
       <r>    6.0559    1.0000 </r>
       <r>    6.4189    1.0000 </r>
       <r>    8.2930    1.0000 </r>
       <r>    8.5520    1.0000 </r>
       <r>    9.4202    1.0000 </r>
       <r>   10.0932    0.3085 </r>
       <r>   10.1150    0.0002 </r>
       <r>   10.3509    0.0000 </r>
       <r>   10.4633    0.0000 </r>
       <r>   10.5312    0.0000 </r>
      </set>
      <set comment="kpoint 17">
       <r>  -34.0286    1.0000 </r>
       <r>  -12.8505    1.0000 </r>
       <r>  -12.8407    1.0000 </r>
       <r>  -12.8052    1.0000 </r>
       <r>  -12.8000    1.0000 </r>
       <r>  -12.7998    1.0000 </r>
       <r>   -9.4437    1.0000 </r>
       <r>   -9.3117    1.0000 </r>
       <r>   -9.2781    1.0000 </r>
       <r>   -1.7833    1.0000 </r>
       <r>    4.3836    1.0000 </r>
       <r>    4.8647    1.0000 </r>
       <r>    5.2649    1.0000 </r>
       <r>    5.8776    1.0000 </r>
       <r>    6.1229    1.0000 </r>
       <r>    6.8125    1.0000 </r>
       <r>    8.2560    1.0000 </r>
       <r>    8.6175    1.0000 </r>
       <r>    9.3980    1.0000 </r>
       <r>   10.0661    0.9996 </r>
       <r>   10.0676    0.9991 </r>
       <r>   10.3492    0.0000 </r>
       <r>   10.4090    0.0000 </r>
       <r>   10.5922    0.0000 </r>
      </set>
      <set comment="kpoint 18">
       <r>  -34.0297    1.0000 </r>
       <r>  -12.8437    1.0000 </r>
       <r>  -12.8354    1.0000 </r>
       <r>  -12.8038    1.0000 </r>
       <r>  -12.8009    1.0000 </r>
       <r>  -12.8007    1.0000 </r>
       <r>   -9.3931    1.0000 </r>
       <r>   -9.3225    1.0000 </r>
       <r>   -9.2927    1.0000 </r>
       <r>   -2.0553    1.0000 </r>
       <r>    4.7237    1.0000 </r>
       <r>    4.9711    1.0000 </r>
       <r>    5.4034    1.0000 </r>
       <r>    5.8527    1.0000 </r>
       <r>    6.0983    1.0000 </r>
       <r>    7.2949    1.0000 </r>
       <r>    8.3196    1.0000 </r>
       <r>    8.7308    1.0000 </r>
       <r>    9.4075    1.0000 </r>
       <r>   10.0303    1.0000 </r>
       <r>   10.0534    1.0000 </r>
       <r>   10.3146    0.0000 </r>
       <r>   10.3450    0.0000 </r>
       <r>   10.5835    0.0000 </r>
      </set>
      <set comment="kpoint 19">
       <r>  -34.0305    1.0000 </r>
       <r>  -12.8372    1.0000 </r>
       <r>  -12.8324    1.0000 </r>
       <r>  -12.8028    1.0000 </r>
       <r>  -12.8015    1.0000 </r>
       <r>  -12.8014    1.0000 </r>
       <r>   -9.3533    1.0000 </r>
       <r>   -9.3253    1.0000 </r>
       <r>   -9.3073    1.0000 </r>
       <r>   -2.2690    1.0000 </r>
       <r>    5.0604    1.0000 </r>
       <r>    5.1401    1.0000 </r>
       <r>    5.4901    1.0000 </r>
       <r>    5.7889    1.0000 </r>
       <r>    5.9868    1.0000 </r>
       <r>    7.7545    1.0000 </r>
       <r>    8.5562    1.0000 </r>
       <r>    8.8362    1.0000 </r>
       <r>    9.3660    1.0000 </r>
       <r>   10.0181    1.0000 </r>
       <r>   10.0332    1.0000 </r>
       <r>   10.1355    0.0000 </r>
       <r>   10.3391    0.0000 </r>
       <r>   10.4702    0.0000 </r>
      </set>
      <set comment="kpoint 20">
       <r>  -34.0299    1.0000 </r>
       <r>  -12.8445    1.0000 </r>
       <r>  -12.8292    1.0000 </r>
       <r>  -12.8040    1.0000 </r>
       <r>  -12.8007    1.0000 </r>
       <r>  -12.8007    1.0000 </r>
       <r>   -9.3524    1.0000 </r>
       <r>   -9.3277    1.0000 </r>
       <r>   -9.3277    1.0000 </r>
       <r>   -2.1238    1.0000 </r>
       <r>    4.4967    1.0000 </r>
       <r>    5.5043    1.0000 </r>
       <r>    5.5043    1.0000 </r>
       <r>    5.7687    1.0000 </r>
       <r>    5.9227    1.0000 </r>
       <r>    7.6110    1.0000 </r>
       <r>    8.4797    1.0000 </r>
       <r>    8.4797    1.0000 </r>
       <r>    9.4805    1.0000 </r>
       <r>   10.0757    0.9761 </r>
       <r>   10.0757    0.9761 </r>
       <r>   10.0995    0.0820 </r>
       <r>   10.3756    0.0000 </r>
       <r>   10.5682    0.0000 </r>
      </set>
      <set comment="kpoint 21">
       <r>  -34.0291    1.0000 </r>
       <r>  -12.8488    1.0000 </r>
       <r>  -12.8303    1.0000 </r>
       <r>  -12.8050    1.0000 </r>
       <r>  -12.8001    1.0000 </r>
       <r>  -12.7999    1.0000 </r>
       <r>   -9.3885    1.0000 </r>
       <r>   -9.3265    1.0000 </r>
       <r>   -9.3168    1.0000 </r>
       <r>   -1.9497    1.0000 </r>
       <r>    4.2552    1.0000 </r>
       <r>    5.3771    1.0000 </r>
       <r>    5.4459    1.0000 </r>
       <r>    5.8279    1.0000 </r>
       <r>    5.9739    1.0000 </r>
       <r>    7.3343    1.0000 </r>
       <r>    8.3063    1.0000 </r>
       <r>    8.3882    1.0000 </r>
       <r>    9.5046    1.0000 </r>
       <r>   10.0456    1.0000 </r>
       <r>   10.0825    0.8476 </r>
       <r>   10.2713    0.0000 </r>
       <r>   10.3887    0.0000 </r>
       <r>   10.6070    0.0000 </r>
      </set>
      <set comment="kpoint 22">
       <r>  -34.0281    1.0000 </r>
       <r>  -12.8521    1.0000 </r>
       <r>  -12.8347    1.0000 </r>
       <r>  -12.8060    1.0000 </r>
       <r>  -12.7996    1.0000 </r>
       <r>  -12.7988    1.0000 </r>
       <r>   -9.4366    1.0000 </r>
       <r>   -9.3180    1.0000 </r>
       <r>   -9.3034    1.0000 </r>
       <r>   -1.7313    1.0000 </r>
       <r>    4.0982    1.0000 </r>
       <r>    5.1497    1.0000 </r>
       <r>    5.3527    1.0000 </r>
       <r>    5.8441    1.0000 </r>
       <r>    6.0451    1.0000 </r>
       <r>    6.9457    1.0000 </r>
       <r>    8.1348    1.0000 </r>
       <r>    8.3718    1.0000 </r>
       <r>    9.5368    1.0000 </r>
       <r>   10.0639    0.9999 </r>
       <r>   10.0943    0.2570 </r>
       <r>   10.3552    0.0000 </r>
       <r>   10.3900    0.0000 </r>
       <r>   10.6037    0.0000 </r>
      </set>
      <set comment="kpoint 23">
       <r>  -34.0272    1.0000 </r>
       <r>  -12.8537    1.0000 </r>
       <r>  -12.8413    1.0000 </r>
       <r>  -12.8070    1.0000 </r>
       <r>  -12.7994    1.0000 </r>
       <r>  -12.7978    1.0000 </r>
       <r>   -9.4795    1.0000 </r>
       <r>   -9.3042    1.0000 </r>
       <r>   -9.2961    1.0000 </r>
       <r>   -1.5209    1.0000 </r>
       <r>    4.0305    1.0000 </r>
       <r>    4.9738    1.0000 </r>
       <r>    5.2529    1.0000 </r>
       <r>    5.8157    1.0000 </r>
       <r>    6.0490    1.0000 </r>
       <r>    6.5618    1.0000 </r>
       <r>    8.0491    1.0000 </r>
       <r>    8.4026    1.0000 </r>
       <r>    9.5526    1.0000 </r>
       <r>   10.1109    0.0014 </r>
       <r>   10.1201    0.0000 </r>
       <r>   10.3846    0.0000 </r>
       <r>   10.3868    0.0000 </r>
       <r>   10.5731    0.0000 </r>
      </set>
      <set comment="kpoint 24">
       <r>  -34.0265    1.0000 </r>
       <r>  -12.8533    1.0000 </r>
       <r>  -12.8484    1.0000 </r>
       <r>  -12.8077    1.0000 </r>
       <r>  -12.7992    1.0000 </r>
       <r>  -12.7973    1.0000 </r>
       <r>   -9.5085    1.0000 </r>
       <r>   -9.2968    1.0000 </r>
       <r>   -9.2883    1.0000 </r>
       <r>   -1.3644    1.0000 </r>
       <r>    4.0244    1.0000 </r>
       <r>    4.9011    1.0000 </r>
       <r>    5.1244    1.0000 </r>
       <r>    5.8194    1.0000 </r>
       <r>    5.9852    1.0000 </r>
       <r>    6.2789    1.0000 </r>
       <r>    8.0222    1.0000 </r>
       <r>    8.4326    1.0000 </r>
       <r>    9.5822    1.0000 </r>
       <r>   10.1509    0.0000 </r>
       <r>   10.1623    0.0000 </r>
       <r>   10.3701    0.0000 </r>
       <r>   10.4030    0.0000 </r>
       <r>   10.5511    0.0000 </r>
      </set>
      <set comment="kpoint 25">
       <r>  -34.0262    1.0000 </r>
       <r>  -12.8545    1.0000 </r>
       <r>  -12.8510    1.0000 </r>
       <r>  -12.8079    1.0000 </r>
       <r>  -12.7992    1.0000 </r>
       <r>  -12.7973    1.0000 </r>
       <r>   -9.5193    1.0000 </r>
       <r>   -9.3047    1.0000 </r>
       <r>   -9.2738    1.0000 </r>
       <r>   -1.2907    1.0000 </r>
       <r>    4.0283    1.0000 </r>
       <r>    4.9396    1.0000 </r>
       <r>    4.9742    1.0000 </r>
       <r>    5.8883    1.0000 </r>
       <r>    5.8920    1.0000 </r>
       <r>    6.1644    1.0000 </r>
       <r>    8.0019    1.0000 </r>
       <r>    8.4401    1.0000 </r>
       <r>    9.6120    1.0000 </r>
       <r>   10.1533    0.0000 </r>
       <r>   10.2126    0.0000 </r>
       <r>   10.3411    0.0000 </r>
       <r>   10.4324    0.0000 </r>
       <r>   10.5360    0.0000 </r>
      </set>
      <set comment="kpoint 26">
       <r>  -34.0263    1.0000 </r>
       <r>  -12.8581    1.0000 </r>
       <r>  -12.8474    1.0000 </r>
       <r>  -12.8073    1.0000 </r>
       <r>  -12.7993    1.0000 </r>
       <r>  -12.7977    1.0000 </r>
       <r>   -9.5113    1.0000 </r>
       <r>   -9.3174    1.0000 </r>
       <r>   -9.2640    1.0000 </r>
       <r>   -1.3125    1.0000 </r>
       <r>    4.0231    1.0000 </r>
       <r>    4.8412    1.0000 </r>
       <r>    5.0610    1.0000 </r>
       <r>    5.8120    1.0000 </r>
       <r>    6.0110    1.0000 </r>
       <r>    6.2369    1.0000 </r>
       <r>    7.9458    1.0000 </r>
       <r>    8.4380    1.0000 </r>
       <r>    9.6117    1.0000 </r>
       <r>   10.1237    0.0000 </r>
       <r>   10.2267    0.0000 </r>
       <r>   10.3240    0.0000 </r>
       <r>   10.4646    0.0000 </r>
       <r>   10.4745    0.0000 </r>
      </set>
      <set comment="kpoint 27">
       <r>  -34.0269    1.0000 </r>
       <r>  -12.8587    1.0000 </r>
       <r>  -12.8431    1.0000 </r>
       <r>  -12.8063    1.0000 </r>
       <r>  -12.7995    1.0000 </r>
       <r>  -12.7985    1.0000 </r>
       <r>   -9.4867    1.0000 </r>
       <r>   -9.3309    1.0000 </r>
       <r>   -9.2611    1.0000 </r>
       <r>   -1.4298    1.0000 </r>
       <r>    4.0538    1.0000 </r>
       <r>    4.7603    1.0000 </r>
       <r>    5.2223    1.0000 </r>
       <r>    5.7809    1.0000 </r>
       <r>    6.1293    1.0000 </r>
       <r>    6.4714    1.0000 </r>
       <r>    7.8491    1.0000 </r>
       <r>    8.4589    1.0000 </r>
       <r>    9.5846    1.0000 </r>
       <r>   10.0939    0.2788 </r>
       <r>   10.1761    0.0000 </r>
       <r>   10.3493    0.0000 </r>
       <r>   10.4542    0.0000 </r>
       <r>   10.4937    0.0000 </r>
      </set>
      <set comment="kpoint 28">
       <r>  -34.0278    1.0000 </r>
       <r>  -12.8560    1.0000 </r>
       <r>  -12.8391    1.0000 </r>
       <r>  -12.8053    1.0000 </r>
       <r>  -12.7998    1.0000 </r>
       <r>  -12.7994    1.0000 </r>
       <r>   -9.4515    1.0000 </r>
       <r>   -9.3399    1.0000 </r>
       <r>   -9.2659    1.0000 </r>
       <r>   -1.6236    1.0000 </r>
       <r>    4.1783    1.0000 </r>
       <r>    4.7521    1.0000 </r>
       <r>    5.3871    1.0000 </r>
       <r>    5.7738    1.0000 </r>
       <r>    6.1970    1.0000 </r>
       <r>    6.8105    1.0000 </r>
       <r>    7.7728    1.0000 </r>
       <r>    8.5301    1.0000 </r>
       <r>    9.5531    1.0000 </r>
       <r>   10.0762    0.9721 </r>
       <r>   10.1155    0.0001 </r>
       <r>   10.3603    0.0000 </r>
       <r>   10.4217    0.0000 </r>
       <r>   10.5447    0.0000 </r>
      </set>
      <set comment="kpoint 29">
       <r>  -34.0288    1.0000 </r>
       <r>  -12.8506    1.0000 </r>
       <r>  -12.8363    1.0000 </r>
       <r>  -12.8044    1.0000 </r>
       <r>  -12.8003    1.0000 </r>
       <r>  -12.8002    1.0000 </r>
       <r>   -9.4167    1.0000 </r>
       <r>   -9.3379    1.0000 </r>
       <r>   -9.2773    1.0000 </r>
       <r>   -1.8509    1.0000 </r>
       <r>    4.4129    1.0000 </r>
       <r>    4.8241    1.0000 </r>
       <r>    5.5006    1.0000 </r>
       <r>    5.7656    1.0000 </r>
       <r>    6.1849    1.0000 </r>
       <r>    7.1205    1.0000 </r>
       <r>    7.8917    1.0000 </r>
       <r>    8.6419    1.0000 </r>
       <r>    9.5140    1.0000 </r>
       <r>   10.0621    1.0000 </r>
       <r>   10.0659    0.9996 </r>
       <r>   10.3564    0.0000 </r>
       <r>   10.3771    0.0000 </r>
       <r>   10.5948    0.0000 </r>
      </set>
      <set comment="kpoint 30">
       <r>  -34.0285    1.0000 </r>
       <r>  -12.8502    1.0000 </r>
       <r>  -12.8276    1.0000 </r>
       <r>  -12.8061    1.0000 </r>
       <r>  -12.7992    1.0000 </r>
       <r>  -12.7992    1.0000 </r>
       <r>   -9.3881    1.0000 </r>
       <r>   -9.3341    1.0000 </r>
       <r>   -9.3341    1.0000 </r>
       <r>   -1.8568    1.0000 </r>
       <r>    4.0678    1.0000 </r>
       <r>    5.5086    1.0000 </r>
       <r>    5.5086    1.0000 </r>
       <r>    5.8204    1.0000 </r>
       <r>    5.8261    1.0000 </r>
       <r>    7.3007    1.0000 </r>
       <r>    8.3056    1.0000 </r>
       <r>    8.3056    1.0000 </r>
       <r>    9.4595    1.0000 </r>
       <r>   10.0946    0.2450 </r>
       <r>   10.0946    0.2450 </r>
       <r>   10.2333    0.0000 </r>
       <r>   10.4302    0.0000 </r>
       <r>   10.6779    0.0000 </r>
      </set>
      <set comment="kpoint 31">
       <r>  -34.0277    1.0000 </r>
       <r>  -12.8502    1.0000 </r>
       <r>  -12.8286    1.0000 </r>
       <r>  -12.8072    1.0000 </r>
       <r>  -12.7985    1.0000 </r>
       <r>  -12.7981    1.0000 </r>
       <r>   -9.4215    1.0000 </r>
       <r>   -9.3333    1.0000 </r>
       <r>   -9.3293    1.0000 </r>
       <r>   -1.7230    1.0000 </r>
       <r>    3.9984    1.0000 </r>
       <r>    5.3499    1.0000 </r>
       <r>    5.4615    1.0000 </r>
       <r>    5.8522    1.0000 </r>
       <r>    5.8635    1.0000 </r>
       <r>    7.0949    1.0000 </r>
       <r>    8.1495    1.0000 </r>
       <r>    8.2988    1.0000 </r>
       <r>    9.5477    1.0000 </r>
       <r>   10.0808    0.8970 </r>
       <r>   10.1071    0.0068 </r>
       <r>   10.2805    0.0000 </r>
       <r>   10.4491    0.0000 </r>
       <r>   10.6636    0.0000 </r>
      </set>
      <set comment="kpoint 32">
       <r>  -34.0269    1.0000 </r>
       <r>  -12.8487    1.0000 </r>
       <r>  -12.8332    1.0000 </r>
       <r>  -12.8078    1.0000 </r>
       <r>  -12.7983    1.0000 </r>
       <r>  -12.7972    1.0000 </r>
       <r>   -9.4587    1.0000 </r>
       <r>   -9.3253    1.0000 </r>
       <r>   -9.3245    1.0000 </r>
       <r>   -1.5844    1.0000 </r>
       <r>    4.0537    1.0000 </r>
       <r>    5.1275    1.0000 </r>
       <r>    5.3646    1.0000 </r>
       <r>    5.8572    1.0000 </r>
       <r>    5.9509    1.0000 </r>
       <r>    6.8051    1.0000 </r>
       <r>    7.9159    1.0000 </r>
       <r>    8.3369    1.0000 </r>
       <r>    9.6419    1.0000 </r>
       <r>   10.0935    0.2974 </r>
       <r>   10.1288    0.0000 </r>
       <r>   10.3184    0.0000 </r>
       <r>   10.4456    0.0000 </r>
       <r>   10.6188    0.0000 </r>
      </set>
      <set comment="kpoint 33">
       <r>  -34.0262    1.0000 </r>
       <r>  -12.8462    1.0000 </r>
       <r>  -12.8399    1.0000 </r>
       <r>  -12.8078    1.0000 </r>
       <r>  -12.7988    1.0000 </r>
       <r>  -12.7965    1.0000 </r>
       <r>   -9.4844    1.0000 </r>
       <r>   -9.3301    1.0000 </r>
       <r>   -9.3097    1.0000 </r>
       <r>   -1.4691    1.0000 </r>
       <r>    4.1936    1.0000 </r>
       <r>    4.9747    1.0000 </r>
       <r>    5.2203    1.0000 </r>
       <r>    5.8856    1.0000 </r>
       <r>    5.9763    1.0000 </r>
       <r>    6.5170    1.0000 </r>
       <r>    7.7405    1.0000 </r>
       <r>    8.3642    1.0000 </r>
       <r>    9.6823    1.0000 </r>
       <r>   10.1263    0.0000 </r>
       <r>   10.1645    0.0000 </r>
       <r>   10.3578    0.0000 </r>
       <r>   10.4249    0.0000 </r>
       <r>   10.5729    0.0000 </r>
      </set>
      <set comment="kpoint 34">
       <r>  -34.0258    1.0000 </r>
       <r>  -12.8473    1.0000 </r>
       <r>  -12.8435    1.0000 </r>
       <r>  -12.8072    1.0000 </r>
       <r>  -12.7996    1.0000 </r>
       <r>  -12.7965    1.0000 </r>
       <r>   -9.4938    1.0000 </r>
       <r>   -9.3431    1.0000 </r>
       <r>   -9.2922    1.0000 </r>
       <r>   -1.3922    1.0000 </r>
       <r>    4.3129    1.0000 </r>
       <r>    4.9220    1.0000 </r>
       <r>    5.0477    1.0000 </r>
       <r>    5.9202    1.0000 </r>
       <r>    5.9624    1.0000 </r>
       <r>    6.3617    1.0000 </r>
       <r>    7.6241    1.0000 </r>
       <r>    8.3578    1.0000 </r>
       <r>    9.7098    1.0000 </r>
       <r>   10.1285    0.0000 </r>
       <r>   10.2127    0.0000 </r>
       <r>   10.3831    0.0000 </r>
       <r>   10.4161    0.0000 </r>
       <r>   10.5385    0.0000 </r>
      </set>
      <set comment="kpoint 35">
       <r>  -34.0259    1.0000 </r>
       <r>  -12.8537    1.0000 </r>
       <r>  -12.8411    1.0000 </r>
       <r>  -12.8059    1.0000 </r>
       <r>  -12.8005    1.0000 </r>
       <r>  -12.7969    1.0000 </r>
       <r>   -9.4873    1.0000 </r>
       <r>   -9.3596    1.0000 </r>
       <r>   -9.2761    1.0000 </r>
       <r>   -1.3622    1.0000 </r>
       <r>    4.2905    1.0000 </r>
       <r>    4.8859    1.0000 </r>
       <r>    4.9838    1.0000 </r>
       <r>    5.8477    1.0000 </r>
       <r>    6.0689    1.0000 </r>
       <r>    6.4055    1.0000 </r>
       <r>    7.5267    1.0000 </r>
       <r>    8.3393    1.0000 </r>
       <r>    9.7230    1.0000 </r>
       <r>   10.1006    0.0623 </r>
       <r>   10.2625    0.0000 </r>
       <r>   10.3260    0.0000 </r>
       <r>   10.4544    0.0000 </r>
       <r>   10.5103    0.0000 </r>
      </set>
      <set comment="kpoint 36">
       <r>  -34.0263    1.0000 </r>
       <r>  -12.8577    1.0000 </r>
       <r>  -12.8394    1.0000 </r>
       <r>  -12.8049    1.0000 </r>
       <r>  -12.8009    1.0000 </r>
       <r>  -12.7977    1.0000 </r>
       <r>   -9.4713    1.0000 </r>
       <r>   -9.3710    1.0000 </r>
       <r>   -9.2648    1.0000 </r>
       <r>   -1.3891    1.0000 </r>
       <r>    4.1724    1.0000 </r>
       <r>    4.7690    1.0000 </r>
       <r>    5.1257    1.0000 </r>
       <r>    5.8072    1.0000 </r>
       <r>    6.1662    1.0000 </r>
       <r>    6.6039    1.0000 </r>
       <r>    7.4312    1.0000 </r>
       <r>    8.3503    1.0000 </r>
       <r>    9.7025    1.0000 </r>
       <r>   10.0773    0.9605 </r>
       <r>   10.2451    0.0000 </r>
       <r>   10.3259    0.0000 </r>
       <r>   10.4491    0.0000 </r>
       <r>   10.4917    0.0000 </r>
      </set>
      <set comment="kpoint 37">
       <r>  -34.0270    1.0000 </r>
       <r>  -12.8586    1.0000 </r>
       <r>  -12.8387    1.0000 </r>
       <r>  -12.8050    1.0000 </r>
       <r>  -12.8003    1.0000 </r>
       <r>  -12.7986    1.0000 </r>
       <r>   -9.4578    1.0000 </r>
       <r>   -9.3649    1.0000 </r>
       <r>   -9.2611    1.0000 </r>
       <r>   -1.4800    1.0000 </r>
       <r>    4.1067    1.0000 </r>
       <r>    4.7204    1.0000 </r>
       <r>    5.2910    1.0000 </r>
       <r>    5.7792    1.0000 </r>
       <r>    6.2149    1.0000 </r>
       <r>    6.7974    1.0000 </r>
       <r>    7.4491    1.0000 </r>
       <r>    8.4192    1.0000 </r>
       <r>    9.6456    1.0000 </r>
       <r>   10.0744    0.9848 </r>
       <r>   10.1800    0.0000 </r>
       <r>   10.3556    0.0000 </r>
       <r>   10.4348    0.0000 </r>
       <r>   10.5021    0.0000 </r>
      </set>
      <set comment="kpoint 38">
       <r>  -34.0271    1.0000 </r>
       <r>  -12.8466    1.0000 </r>
       <r>  -12.8259    1.0000 </r>
       <r>  -12.8084    1.0000 </r>
       <r>  -12.7973    1.0000 </r>
       <r>  -12.7973    1.0000 </r>
       <r>   -9.4313    1.0000 </r>
       <r>   -9.3413    1.0000 </r>
       <r>   -9.3413    1.0000 </r>
       <r>   -1.6822    1.0000 </r>
       <r>    4.0179    1.0000 </r>
       <r>    5.4699    1.0000 </r>
       <r>    5.4699    1.0000 </r>
       <r>    5.6488    1.0000 </r>
       <r>    5.8889    1.0000 </r>
       <r>    6.9987    1.0000 </r>
       <r>    8.3015    1.0000 </r>
       <r>    8.3015    1.0000 </r>
       <r>    9.5368    1.0000 </r>
       <r>   10.1201    0.0000 </r>
       <r>   10.1201    0.0000 </r>
       <r>   10.2254    0.0000 </r>
       <r>   10.5026    0.0000 </r>
       <r>   10.7550    0.0000 </r>
      </set>
      <set comment="kpoint 39">
       <r>  -34.0265    1.0000 </r>
       <r>  -12.8422    1.0000 </r>
       <r>  -12.8271    1.0000 </r>
       <r>  -12.8093    1.0000 </r>
       <r>  -12.7967    1.0000 </r>
       <r>  -12.7963    1.0000 </r>
       <r>   -9.4565    1.0000 </r>
       <r>   -9.3435    1.0000 </r>
       <r>   -9.3402    1.0000 </r>
       <r>   -1.6252    1.0000 </r>
       <r>    4.1654    1.0000 </r>
       <r>    5.2829    1.0000 </r>
       <r>    5.4126    1.0000 </r>
       <r>    5.7256    1.0000 </r>
       <r>    5.9113    1.0000 </r>
       <r>    6.7905    1.0000 </r>
       <r>    8.1675    1.0000 </r>
       <r>    8.3488    1.0000 </r>
       <r>    9.6730    1.0000 </r>
       <r>   10.1043    0.0194 </r>
       <r>   10.1386    0.0000 </r>
       <r>   10.2473    0.0000 </r>
       <r>   10.5236    0.0000 </r>
       <r>   10.6890    0.0000 </r>
      </set>
      <set comment="kpoint 40">
       <r>  -34.0259    1.0000 </r>
       <r>  -12.8381    1.0000 </r>
       <r>  -12.8318    1.0000 </r>
       <r>  -12.8093    1.0000 </r>
       <r>  -12.7971    1.0000 </r>
       <r>  -12.7957    1.0000 </r>
       <r>   -9.4746    1.0000 </r>
       <r>   -9.3521    1.0000 </r>
       <r>   -9.3303    1.0000 </r>
       <r>   -1.5634    1.0000 </r>
       <r>    4.4000    1.0000 </r>
       <r>    5.0885    1.0000 </r>
       <r>    5.2992    1.0000 </r>
       <r>    5.8430    1.0000 </r>
       <r>    5.9430    1.0000 </r>
       <r>    6.5535    1.0000 </r>
       <r>    7.8500    1.0000 </r>
       <r>    8.3739    1.0000 </r>
       <r>    9.7790    1.0000 </r>
       <r>   10.1024    0.0367 </r>
       <r>   10.1671    0.0000 </r>
       <r>   10.3038    0.0000 </r>
       <r>   10.5109    0.0000 </r>
       <r>   10.6043    0.0000 </r>
      </set>
      <set comment="kpoint 41">
       <r>  -34.0255    1.0000 </r>
       <r>  -12.8388    1.0000 </r>
       <r>  -12.8355    1.0000 </r>
       <r>  -12.8082    1.0000 </r>
       <r>  -12.7983    1.0000 </r>
       <r>  -12.7956    1.0000 </r>
       <r>   -9.4766    1.0000 </r>
       <r>   -9.3709    1.0000 </r>
       <r>   -9.3139    1.0000 </r>
       <r>   -1.5012    1.0000 </r>
       <r>    4.6193    1.0000 </r>
       <r>    4.9678    1.0000 </r>
       <r>    5.1450    1.0000 </r>
       <r>    5.8803    1.0000 </r>
       <r>    6.0062    1.0000 </r>
       <r>    6.4116    1.0000 </r>
       <r>    7.5297    1.0000 </r>
       <r>    8.3479    1.0000 </r>
       <r>    9.8055    1.0000 </r>
       <r>   10.1051    0.0147 </r>
       <r>   10.2046    0.0000 </r>
       <r>   10.3872    0.0000 </r>
       <r>   10.4626    0.0000 </r>
       <r>   10.5368    0.0000 </r>
      </set>
      <set comment="kpoint 42">
       <r>  -34.0255    1.0000 </r>
       <r>  -12.8466    1.0000 </r>
       <r>  -12.8350    1.0000 </r>
       <r>  -12.8062    1.0000 </r>
       <r>  -12.8002    1.0000 </r>
       <r>  -12.7961    1.0000 </r>
       <r>   -9.4634    1.0000 </r>
       <r>   -9.3949    1.0000 </r>
       <r>   -9.2946    1.0000 </r>
       <r>   -1.4425    1.0000 </r>
       <r>    4.6506    1.0000 </r>
       <r>    4.9226    1.0000 </r>
       <r>    4.9837    1.0000 </r>
       <r>    5.8416    1.0000 </r>
       <r>    6.0865    1.0000 </r>
       <r>    6.4858    1.0000 </r>
       <r>    7.2901    1.0000 </r>
       <r>    8.3020    1.0000 </r>
       <r>    9.8071    1.0000 </r>
       <r>   10.0829    0.8335 </r>
       <r>   10.2456    0.0000 </r>
       <r>   10.3896    0.0000 </r>
       <r>   10.4467    0.0000 </r>
       <r>   10.5262    0.0000 </r>
      </set>
      <set comment="kpoint 43">
       <r>  -34.0258    1.0000 </r>
       <r>  -12.8534    1.0000 </r>
       <r>  -12.8365    1.0000 </r>
       <r>  -12.8040    1.0000 </r>
       <r>  -12.8020    1.0000 </r>
       <r>  -12.7968    1.0000 </r>
       <r>   -9.4546    1.0000 </r>
       <r>   -9.4020    1.0000 </r>
       <r>   -9.2769    1.0000 </r>
       <r>   -1.3986    1.0000 </r>
       <r>    4.4216    1.0000 </r>
       <r>    4.8494    1.0000 </r>
       <r>    5.0001    1.0000 </r>
       <r>    5.8252    1.0000 </r>
       <r>    6.1499    1.0000 </r>
       <r>    6.6412    1.0000 </r>
       <r>    7.2036    1.0000 </r>
       <r>    8.2917    1.0000 </r>
       <r>    9.7787    1.0000 </r>
       <r>   10.0654    0.9997 </r>
       <r>   10.2825    0.0000 </r>
       <r>   10.3213    0.0000 </r>
       <r>   10.4526    0.0000 </r>
       <r>   10.5208    0.0000 </r>
      </set>
      <set comment="kpoint 44">
       <r>  -34.0260    1.0000 </r>
       <r>  -12.8359    1.0000 </r>
       <r>  -12.8245    1.0000 </r>
       <r>  -12.8104    1.0000 </r>
       <r>  -12.7955    1.0000 </r>
       <r>  -12.7955    1.0000 </r>
       <r>   -9.4721    1.0000 </r>
       <r>   -9.3477    1.0000 </r>
       <r>   -9.3477    1.0000 </r>
       <r>   -1.6412    1.0000 </r>
       <r>    4.3812    1.0000 </r>
       <r>    5.4082    1.0000 </r>
       <r>    5.4082    1.0000 </r>
       <r>    5.4912    1.0000 </r>
       <r>    5.9426    1.0000 </r>
       <r>    6.5945    1.0000 </r>
       <r>    8.4134    1.0000 </r>
       <r>    8.4134    1.0000 </r>
       <r>    9.7239    1.0000 </r>
       <r>   10.1524    0.0000 </r>
       <r>   10.1524    0.0000 </r>
       <r>   10.1840    0.0000 </r>
       <r>   10.5805    0.0000 </r>
       <r>   10.7973    0.0000 </r>
      </set>
      <set comment="kpoint 45">
       <r>  -34.0256    1.0000 </r>
       <r>  -12.8310    1.0000 </r>
       <r>  -12.8260    1.0000 </r>
       <r>  -12.8107    1.0000 </r>
       <r>  -12.7953    1.0000 </r>
       <r>  -12.7950    1.0000 </r>
       <r>   -9.4852    1.0000 </r>
       <r>   -9.3538    1.0000 </r>
       <r>   -9.3453    1.0000 </r>
       <r>   -1.6306    1.0000 </r>
       <r>    4.6587    1.0000 </r>
       <r>    5.2232    1.0000 </r>
       <r>    5.3514    1.0000 </r>
       <r>    5.6189    1.0000 </r>
       <r>    5.9673    1.0000 </r>
       <r>    6.3491    1.0000 </r>
       <r>    8.2693    1.0000 </r>
       <r>    8.4522    1.0000 </r>
       <r>    9.8632    1.0000 </r>
       <r>   10.1109    0.0014 </r>
       <r>   10.1720    0.0000 </r>
       <r>   10.2442    0.0000 </r>
       <r>   10.5982    0.0000 </r>
       <r>   10.6129    0.0000 </r>
      </set>
      <set comment="kpoint 46">
       <r>  -34.0253    1.0000 </r>
       <r>  -12.8310    1.0000 </r>
       <r>  -12.8290    1.0000 </r>
       <r>  -12.8100    1.0000 </r>
       <r>  -12.7963    1.0000 </r>
       <r>  -12.7949    1.0000 </r>
       <r>   -9.4834    1.0000 </r>
       <r>   -9.3701    1.0000 </r>
       <r>   -9.3337    1.0000 </r>
       <r>   -1.5916    1.0000 </r>
       <r>    4.8659    1.0000 </r>
       <r>    5.0987    1.0000 </r>
       <r>    5.2453    1.0000 </r>
       <r>    5.7602    1.0000 </r>
       <r>    6.0094    1.0000 </r>
       <r>    6.1844    1.0000 </r>
       <r>    7.8718    1.0000 </r>
       <r>    8.4174    1.0000 </r>
       <r>    9.9044    1.0000 </r>
       <r>   10.0937    0.2847 </r>
       <r>   10.1964    0.0000 </r>
       <r>   10.3559    0.0000 </r>
       <r>   10.5089    0.0000 </r>
       <r>   10.5777    0.0000 </r>
      </set>
      <set comment="kpoint 47">
       <r>  -34.0253    1.0000 </r>
       <r>  -12.8384    1.0000 </r>
       <r>  -12.8305    1.0000 </r>
       <r>  -12.8082    1.0000 </r>
       <r>  -12.7982    1.0000 </r>
       <r>  -12.7953    1.0000 </r>
       <r>   -9.4678    1.0000 </r>
       <r>   -9.3928    1.0000 </r>
       <r>   -9.3154    1.0000 </r>
       <r>   -1.5258    1.0000 </r>
       <r>    4.8892    1.0000 </r>
       <r>    4.9798    1.0000 </r>
       <r>    5.1127    1.0000 </r>
       <r>    5.8064    1.0000 </r>
       <r>    6.0593    1.0000 </r>
       <r>    6.3044    1.0000 </r>
       <r>    7.4665    1.0000 </r>
       <r>    8.3430    1.0000 </r>
       <r>    9.8675    1.0000 </r>
       <r>   10.0854    0.7312 </r>
       <r>   10.2217    0.0000 </r>
       <r>   10.4393    0.0000 </r>
       <r>   10.4790    0.0000 </r>
       <r>   10.4798    0.0000 </r>
      </set>
      <set comment="kpoint 48">
       <r>  -34.0254    1.0000 </r>
       <r>  -12.8266    1.0000 </r>
       <r>  -12.8237    1.0000 </r>
       <r>  -12.8115    1.0000 </r>
       <r>  -12.7945    1.0000 </r>
       <r>  -12.7945    1.0000 </r>
       <r>   -9.4973    1.0000 </r>
       <r>   -9.3514    1.0000 </r>
       <r>   -9.3514    1.0000 </r>
       <r>   -1.6601    1.0000 </r>
       <r>    4.9277    1.0000 </r>
       <r>    5.3640    1.0000 </r>
       <r>    5.3640    1.0000 </r>
       <r>    5.4074    1.0000 </r>
       <r>    5.9736    1.0000 </r>
       <r>    6.1036    1.0000 </r>
       <r>    8.5195    1.0000 </r>
       <r>    8.5195    1.0000 </r>
       <r>    9.9549    1.0000 </r>
       <r>   10.1683    0.0000 </r>
       <r>   10.1794    0.0000 </r>
       <r>   10.1794    0.0000 </r>
       <r>   10.5236    0.0000 </r>
       <r>   10.6362    0.0000 </r>
      </set>
      <set comment="kpoint 49">
       <r>  -34.0253    1.0000 </r>
       <r>  -12.8258    1.0000 </r>
       <r>  -12.8255    1.0000 </r>
       <r>  -12.8113    1.0000 </r>
       <r>  -12.7949    1.0000 </r>
       <r>  -12.7944    1.0000 </r>
       <r>   -9.4965    1.0000 </r>
       <r>   -9.3575    1.0000 </r>
       <r>   -9.3472    1.0000 </r>
       <r>   -1.6470    1.0000 </r>
       <r>    5.0148    1.0000 </r>
       <r>    5.2399    1.0000 </r>
       <r>    5.3258    1.0000 </r>
       <r>    5.5778    1.0000 </r>
       <r>    5.9890    1.0000 </r>
       <r>    5.9998    1.0000 </r>
       <r>    8.3239    1.0000 </r>
       <r>    8.5027    1.0000 </r>
       <r>    9.9862    1.0000 </r>
       <r>   10.1070    0.0072 </r>
       <r>   10.1880    0.0000 </r>
       <r>   10.2912    0.0000 </r>
       <r>   10.4615    0.0000 </r>
       <r>   10.6368    0.0000 </r>
      </set>
      <set comment="kpoint 50">
       <r>  -34.0296    1.0000 </r>
       <r>  -12.8457    1.0000 </r>
       <r>  -12.8323    1.0000 </r>
       <r>  -12.8040    1.0000 </r>
       <r>  -12.8007    1.0000 </r>
       <r>  -12.8005    1.0000 </r>
       <r>   -9.3826    1.0000 </r>
       <r>   -9.3304    1.0000 </r>
       <r>   -9.3005    1.0000 </r>
       <r>   -2.0465    1.0000 </r>
       <r>    4.5104    1.0000 </r>
       <r>    5.1733    1.0000 </r>
       <r>    5.5096    1.0000 </r>
       <r>    5.7903    1.0000 </r>
       <r>    6.0632    1.0000 </r>
       <r>    7.4044    1.0000 </r>
       <r>    8.2377    1.0000 </r>
       <r>    8.6197    1.0000 </r>
       <r>    9.5004    1.0000 </r>
       <r>   10.0201    1.0000 </r>
       <r>   10.0692    0.9981 </r>
       <r>   10.2776    0.0000 </r>
       <r>   10.3609    0.0000 </r>
       <r>   10.5808    0.0000 </r>
      </set>
      <set comment="kpoint 51">
       <r>  -34.0286    1.0000 </r>
       <r>  -12.8511    1.0000 </r>
       <r>  -12.8357    1.0000 </r>
       <r>  -12.8050    1.0000 </r>
       <r>  -12.8001    1.0000 </r>
       <r>  -12.7997    1.0000 </r>
       <r>   -9.4237    1.0000 </r>
       <r>   -9.3296    1.0000 </r>
       <r>   -9.2857    1.0000 </r>
       <r>   -1.8182    1.0000 </r>
       <r>    4.2703    1.0000 </r>
       <r>    4.9894    1.0000 </r>
       <r>    5.4282    1.0000 </r>
       <r>    5.8127    1.0000 </r>
       <r>    6.1273    1.0000 </r>
       <r>    7.0425    1.0000 </r>
       <r>    8.0312    1.0000 </r>
       <r>    8.5446    1.0000 </r>
       <r>    9.5161    1.0000 </r>
       <r>   10.0521    1.0000 </r>
       <r>   10.0808    0.8971 </r>
       <r>   10.3662    0.0000 </r>
       <r>   10.3701    0.0000 </r>
       <r>   10.5956    0.0000 </r>
      </set>
      <set comment="kpoint 52">
       <r>  -34.0276    1.0000 </r>
       <r>  -12.8553    1.0000 </r>
       <r>  -12.8409    1.0000 </r>
       <r>  -12.8062    1.0000 </r>
       <r>  -12.7996    1.0000 </r>
       <r>  -12.7987    1.0000 </r>
       <r>   -9.4683    1.0000 </r>
       <r>   -9.3199    1.0000 </r>
       <r>   -9.2746    1.0000 </r>
       <r>   -1.5797    1.0000 </r>
       <r>    4.0979    1.0000 </r>
       <r>    4.8709    1.0000 </r>
       <r>    5.2971    1.0000 </r>
       <r>    5.8054    1.0000 </r>
       <r>    6.1159    1.0000 </r>
       <r>    6.6405    1.0000 </r>
       <r>    8.0129    1.0000 </r>
       <r>    8.4853    1.0000 </r>
       <r>    9.5238    1.0000 </r>
       <r>   10.0866    0.6677 </r>
       <r>   10.1151    0.0002 </r>
       <r>   10.3661    0.0000 </r>
       <r>   10.4138    0.0000 </r>
       <r>   10.5579    0.0000 </r>
      </set>
      <set comment="kpoint 53">
       <r>  -34.0268    1.0000 </r>
       <r>  -12.8571    1.0000 </r>
       <r>  -12.8467    1.0000 </r>
       <r>  -12.8073    1.0000 </r>
       <r>  -12.7992    1.0000 </r>
       <r>  -12.7979    1.0000 </r>
       <r>   -9.5037    1.0000 </r>
       <r>   -9.3072    1.0000 </r>
       <r>   -9.2695    1.0000 </r>
       <r>   -1.3872    1.0000 </r>
       <r>    4.0031    1.0000 </r>
       <r>    4.8409    1.0000 </r>
       <r>    5.1631    1.0000 </r>
       <r>    5.7897    1.0000 </r>
       <r>    6.0348    1.0000 </r>
       <r>    6.3207    1.0000 </r>
[...]
       <r>    9.8314    1.0000 </r>
       <r>   10.1124    0.0007 </r>
       <r>   10.3002    0.0000 </r>
       <r>   10.3560    0.0000 </r>
       <r>   10.4484    0.0000 </r>
       <r>   10.5339    0.0000 </r>
      </set>
      <set comment="kpoint 81">
       <r>  -34.0256    1.0000 </r>
       <r>  -12.8494    1.0000 </r>
       <r>  -12.8324    1.0000 </r>
       <r>  -12.8053    1.0000 </r>
       <r>  -12.8018    1.0000 </r>
       <r>  -12.7955    1.0000 </r>
       <r>   -9.4550    1.0000 </r>
       <r>   -9.3953    1.0000 </r>
       <r>   -9.2995    1.0000 </r>
       <r>   -1.4481    1.0000 </r>
       <r>    4.5610    1.0000 </r>
       <r>    4.7957    1.0000 </r>
       <r>    5.2279    1.0000 </r>
       <r>    5.8650    1.0000 </r>
       <r>    6.0926    1.0000 </r>
       <r>    6.6007    1.0000 </r>
       <r>    6.9967    1.0000 </r>
       <r>    8.4478    1.0000 </r>
       <r>    9.8091    1.0000 </r>
       <r>   10.0960    0.1860 </r>
       <r>   10.2894    0.0000 </r>
       <r>   10.3455    0.0000 </r>
       <r>   10.4250    0.0000 </r>
       <r>   10.5383    0.0000 </r>
      </set>
      <set comment="kpoint 82">
       <r>  -34.0253    1.0000 </r>
       <r>  -12.8392    1.0000 </r>
       <r>  -12.8259    1.0000 </r>
       <r>  -12.8088    1.0000 </r>
       <r>  -12.7988    1.0000 </r>
       <r>  -12.7944    1.0000 </r>
       <r>   -9.4700    1.0000 </r>
       <r>   -9.3776    1.0000 </r>
       <r>   -9.3336    1.0000 </r>
       <r>   -1.5511    1.0000 </r>
       <r>    4.7855    1.0000 </r>
       <r>    5.0277    1.0000 </r>
       <r>    5.3532    1.0000 </r>
       <r>    5.8113    1.0000 </r>
       <r>    6.0700    1.0000 </r>
       <r>    6.2251    1.0000 </r>
       <r>    7.2755    1.0000 </r>
       <r>    8.5681    1.0000 </r>
       <r>    9.8890    1.0000 </r>
       <r>   10.1116    0.0010 </r>
       <r>   10.2386    0.0000 </r>
       <r>   10.4054    0.0000 </r>
       <r>   10.4819    0.0000 </r>
       <r>   10.5260    0.0000 </r>
      </set>
      <set comment="kpoint 83">
       <r>  -34.0252    1.0000 </r>
       <r>  -12.8434    1.0000 </r>
       <r>  -12.8260    1.0000 </r>
       <r>  -12.8071    1.0000 </r>
       <r>  -12.8008    1.0000 </r>
       <r>  -12.7944    1.0000 </r>
       <r>   -9.4563    1.0000 </r>
       <r>   -9.3940    1.0000 </r>
       <r>   -9.3265    1.0000 </r>
       <r>   -1.5164    1.0000 </r>
       <r>    4.7517    1.0000 </r>
       <r>    5.0416    1.0000 </r>
       <r>    5.3189    1.0000 </r>
       <r>    5.8342    1.0000 </r>
       <r>    6.1076    1.0000 </r>
       <r>    6.3131    1.0000 </r>
       <r>    6.9397    1.0000 </r>
       <r>    8.5595    1.0000 </r>
       <r>    9.8706    1.0000 </r>
       <r>   10.1227    0.0000 </r>
       <r>   10.2731    0.0000 </r>
       <r>   10.4182    0.0000 </r>
       <r>   10.4646    0.0000 </r>
       <r>   10.4868    0.0000 </r>
      </set>
      <set comment="kpoint 84">
       <r>  -34.0253    1.0000 </r>
       <r>  -12.8459    1.0000 </r>
       <r>  -12.8261    1.0000 </r>
       <r>  -12.8058    1.0000 </r>
       <r>  -12.8024    1.0000 </r>
       <r>  -12.7943    1.0000 </r>
       <r>   -9.4482    1.0000 </r>
       <r>   -9.3998    1.0000 </r>
       <r>   -9.3250    1.0000 </r>
       <r>   -1.4987    1.0000 </r>
       <r>    4.7160    1.0000 </r>
       <r>    5.0043    1.0000 </r>
       <r>    5.3371    1.0000 </r>
       <r>    5.8544    1.0000 </r>
       <r>    6.1412    1.0000 </r>
       <r>    6.4482    1.0000 </r>
       <r>    6.6819    1.0000 </r>
       <r>    8.5778    1.0000 </r>
       <r>    9.8590    1.0000 </r>
       <r>   10.1324    0.0000 </r>
       <r>   10.3097    0.0000 </r>
       <r>   10.3714    0.0000 </r>
       <r>   10.4522    0.0000 </r>
       <r>   10.5134    0.0000 </r>
      </set>
     </set>
    </set>
   </array>
  </eigenvalues>
  <separator name="orbital magnetization" >
   <v name="MAGDIPOLOUT">      0.00000000      0.00000000      0.00000000</v>
  </separator>
  <dos>
   <i name="efermi">     10.08970847 </i>
   <total>
    <array>
     <dimension dim="1">gridpoints</dimension>
     <dimension dim="2">spin</dimension>
     <field>energy</field>
     <field>total</field>
     <field>integrated</field>
     <set>
      <set comment="spin 1">
       <r>   -36.2726     0.0000     0.0000 </r>
       <r>   -36.1082     0.0000     0.0000 </r>
       <r>   -35.9439     0.0000     0.0000 </r>
       <r>   -35.7795     0.0000     0.0000 </r>
       <r>   -35.6151     0.0000     0.0000 </r>
       <r>   -35.4508     0.0000     0.0000 </r>
       <r>   -35.2864     0.0000     0.0000 </r>
       <r>   -35.1220     0.0000     0.0000 </r>
       <r>   -34.9577     0.0000     0.0000 </r>
       <r>   -34.7933     0.0000     0.0000 </r>
       <r>   -34.6289     0.0000     0.0000 </r>
       <r>   -34.4645     0.0000     0.0000 </r>
       <r>   -34.3002     0.0000     0.0000 </r>
       <r>   -34.1358     0.0000     0.0000 </r>
       <r>   -33.9714    12.1676     2.0000 </r>
       <r>   -33.8071     0.0000     2.0000 </r>
       <r>   -33.6427     0.0000     2.0000 </r>
       <r>   -33.4783     0.0000     2.0000 </r>
       <r>   -33.3139     0.0000     2.0000 </r>
       <r>   -33.1496     0.0000     2.0000 </r>
       <r>   -32.9852     0.0000     2.0000 </r>
       <r>   -32.8208     0.0000     2.0000 </r>
       <r>   -32.6565     0.0000     2.0000 </r>
       <r>   -32.4921     0.0000     2.0000 </r>
       <r>   -32.3277     0.0000     2.0000 </r>
       <r>   -32.1633     0.0000     2.0000 </r>
       <r>   -31.9990     0.0000     2.0000 </r>
       <r>   -31.8346     0.0000     2.0000 </r>
       <r>   -31.6702     0.0000     2.0000 </r>
       <r>   -31.5059     0.0000     2.0000 </r>
       <r>   -31.3415     0.0000     2.0000 </r>
       <r>   -31.1771     0.0000     2.0000 </r>
       <r>   -31.0127     0.0000     2.0000 </r>
       <r>   -30.8484     0.0000     2.0000 </r>
       <r>   -30.6840     0.0000     2.0000 </r>
       <r>   -30.5196     0.0000     2.0000 </r>
       <r>   -30.3553     0.0000     2.0000 </r>
       <r>   -30.1909     0.0000     2.0000 </r>
       <r>   -30.0265     0.0000     2.0000 </r>
       <r>   -29.8621     0.0000     2.0000 </r>
       <r>   -29.6978     0.0000     2.0000 </r>
       <r>   -29.5334     0.0000     2.0000 </r>
       <r>   -29.3690     0.0000     2.0000 </r>
       <r>   -29.2047     0.0000     2.0000 </r>
       <r>   -29.0403     0.0000     2.0000 </r>
       <r>   -28.8759     0.0000     2.0000 </r>
       <r>   -28.7116     0.0000     2.0000 </r>
       <r>   -28.5472     0.0000     2.0000 </r>
       <r>   -28.3828     0.0000     2.0000 </r>
       <r>   -28.2184     0.0000     2.0000 </r>
       <r>   -28.0541     0.0000     2.0000 </r>
       <r>   -27.8897     0.0000     2.0000 </r>
       <r>   -27.7253     0.0000     2.0000 </r>
       <r>   -27.5610     0.0000     2.0000 </r>
       <r>   -27.3966     0.0000     2.0000 </r>
       <r>   -27.2322     0.0000     2.0000 </r>
       <r>   -27.0678     0.0000     2.0000 </r>
       <r>   -26.9035     0.0000     2.0000 </r>
       <r>   -26.7391     0.0000     2.0000 </r>
       <r>   -26.5747     0.0000     2.0000 </r>
       <r>   -26.4104     0.0000     2.0000 </r>
       <r>   -26.2460     0.0000     2.0000 </r>
       <r>   -26.0816     0.0000     2.0000 </r>
       <r>   -25.9172     0.0000     2.0000 </r>
       <r>   -25.7529     0.0000     2.0000 </r>
       <r>   -25.5885     0.0000     2.0000 </r>
       <r>   -25.4241     0.0000     2.0000 </r>
       <r>   -25.2598     0.0000     2.0000 </r>
       <r>   -25.0954     0.0000     2.0000 </r>
       <r>   -24.9310     0.0000     2.0000 </r>
       <r>   -24.7666     0.0000     2.0000 </r>
       <r>   -24.6023     0.0000     2.0000 </r>
       <r>   -24.4379     0.0000     2.0000 </r>
       <r>   -24.2735     0.0000     2.0000 </r>
       <r>   -24.1092     0.0000     2.0000 </r>
       <r>   -23.9448     0.0000     2.0000 </r>
       <r>   -23.7804     0.0000     2.0000 </r>
       <r>   -23.6160     0.0000     2.0000 </r>
       <r>   -23.4517     0.0000     2.0000 </r>
       <r>   -23.2873     0.0000     2.0000 </r>
       <r>   -23.1229     0.0000     2.0000 </r>
       <r>   -22.9586     0.0000     2.0000 </r>
       <r>   -22.7942     0.0000     2.0000 </r>
       <r>   -22.6298     0.0000     2.0000 </r>
       <r>   -22.4655     0.0000     2.0000 </r>
       <r>   -22.3011     0.0000     2.0000 </r>
       <r>   -22.1367     0.0000     2.0000 </r>
       <r>   -21.9723     0.0000     2.0000 </r>
       <r>   -21.8080     0.0000     2.0000 </r>
       <r>   -21.6436     0.0000     2.0000 </r>
       <r>   -21.4792     0.0000     2.0000 </r>
       <r>   -21.3149     0.0000     2.0000 </r>
       <r>   -21.1505     0.0000     2.0000 </r>
       <r>   -20.9861     0.0000     2.0000 </r>
       <r>   -20.8217     0.0000     2.0000 </r>
       <r>   -20.6574     0.0000     2.0000 </r>
       <r>   -20.4930     0.0000     2.0000 </r>
       <r>   -20.3286     0.0000     2.0000 </r>
       <r>   -20.1643     0.0000     2.0000 </r>
       <r>   -19.9999     0.0000     2.0000 </r>
       <r>   -19.8355     0.0000     2.0000 </r>
       <r>   -19.6711     0.0000     2.0000 </r>
       <r>   -19.5068     0.0000     2.0000 </r>
       <r>   -19.3424     0.0000     2.0000 </r>
       <r>   -19.1780     0.0000     2.0000 </r>
       <r>   -19.0137     0.0000     2.0000 </r>
       <r>   -18.8493     0.0000     2.0000 </r>
       <r>   -18.6849     0.0000     2.0000 </r>
       <r>   -18.5205     0.0000     2.0000 </r>
       <r>   -18.3562     0.0000     2.0000 </r>
       <r>   -18.1918     0.0000     2.0000 </r>
       <r>   -18.0274     0.0000     2.0000 </r>
       <r>   -17.8631     0.0000     2.0000 </r>
       <r>   -17.6987     0.0000     2.0000 </r>
       <r>   -17.5343     0.0000     2.0000 </r>
       <r>   -17.3699     0.0000     2.0000 </r>
       <r>   -17.2056     0.0000     2.0000 </r>
       <r>   -17.0412     0.0000     2.0000 </r>
       <r>   -16.8768     0.0000     2.0000 </r>
       <r>   -16.7125     0.0000     2.0000 </r>
       <r>   -16.5481     0.0000     2.0000 </r>
       <r>   -16.3837     0.0000     2.0000 </r>
       <r>   -16.2194     0.0000     2.0000 </r>
       <r>   -16.0550     0.0000     2.0000 </r>
       <r>   -15.8906     0.0000     2.0000 </r>
       <r>   -15.7262     0.0000     2.0000 </r>
       <r>   -15.5619     0.0000     2.0000 </r>
       <r>   -15.3975     0.0000     2.0000 </r>
       <r>   -15.2331     0.0000     2.0000 </r>
       <r>   -15.0688     0.0000     2.0000 </r>
       <r>   -14.9044     0.0000     2.0000 </r>
       <r>   -14.7400     0.0000     2.0000 </r>
       <r>   -14.5756     0.0000     2.0000 </r>
       <r>   -14.4113     0.0000     2.0000 </r>
       <r>   -14.2469     0.0000     2.0000 </r>
       <r>   -14.0825     0.0000     2.0000 </r>
       <r>   -13.9182     0.0000     2.0000 </r>
       <r>   -13.7538     0.0000     2.0000 </r>
       <r>   -13.5894     0.0000     2.0000 </r>
       <r>   -13.4250     0.0000     2.0000 </r>
       <r>   -13.2607     0.0000     2.0000 </r>
       <r>   -13.0963     0.0000     2.0000 </r>
       <r>   -12.9319     0.0000     2.0000 </r>
       <r>   -12.7676    52.2311    11.9999 </r>
       <r>   -12.6032     0.0000    12.0000 </r>
       <r>   -12.4388     0.0000    12.0000 </r>
       <r>   -12.2744     0.0000    12.0000 </r>
       <r>   -12.1101     0.0000    12.0000 </r>
       <r>   -11.9457     0.0000    12.0000 </r>
       <r>   -11.7813     0.0000    12.0000 </r>
       <r>   -11.6170     0.0000    12.0000 </r>
       <r>   -11.4526     0.0000    12.0000 </r>
       <r>   -11.2882     0.0000    12.0000 </r>
       <r>   -11.1239     0.0000    12.0000 </r>
       <r>   -10.9595     0.0000    12.0000 </r>
       <r>   -10.7951     0.0000    12.0000 </r>
       <r>   -10.6307     0.0000    12.0000 </r>
       <r>   -10.4664     0.0000    12.0000 </r>
       <r>   -10.3020     0.0000    12.0000 </r>
       <r>   -10.1376     0.0000    12.0000 </r>
       <r>    -9.9733     0.0000    12.0000 </r>
       <r>    -9.8089     0.0000    12.0000 </r>
       <r>    -9.6445     0.0000    12.0000 </r>
       <r>    -9.4801     4.1031    12.6744 </r>
       <r>    -9.3158    13.0610    16.1150 </r>
       <r>    -9.1514     0.0000    18.0000 </r>
       <r>    -8.9870     0.0000    18.0000 </r>
       <r>    -8.8227     0.0000    18.0000 </r>
       <r>    -8.6583     0.0000    18.0000 </r>
       <r>    -8.4939     0.0000    18.0000 </r>
       <r>    -8.3295     0.0000    18.0000 </r>
       <r>    -8.1652     0.0000    18.0000 </r>
       <r>    -8.0008     0.0000    18.0000 </r>
       <r>    -7.8364     0.0000    18.0000 </r>
       <r>    -7.6721     0.0000    18.0000 </r>
       <r>    -7.5077     0.0000    18.0000 </r>
       <r>    -7.3433     0.0000    18.0000 </r>
       <r>    -7.1789     0.0000    18.0000 </r>
       <r>    -7.0146     0.0000    18.0000 </r>
       <r>    -6.8502     0.0000    18.0000 </r>
       <r>    -6.6858     0.0000    18.0000 </r>
       <r>    -6.5215     0.0000    18.0000 </r>
       <r>    -6.3571     0.0000    18.0000 </r>
       <r>    -6.1927     0.0000    18.0000 </r>
       <r>    -6.0283     0.0000    18.0000 </r>
       <r>    -5.8640     0.0000    18.0000 </r>
       <r>    -5.6996     0.0000    18.0000 </r>
       <r>    -5.5352     0.0000    18.0000 </r>
       <r>    -5.3709     0.0000    18.0000 </r>
       <r>    -5.2065     0.0000    18.0000 </r>
       <r>    -5.0421     0.0000    18.0000 </r>
       <r>    -4.8778     0.0000    18.0000 </r>
       <r>    -4.7134     0.0000    18.0000 </r>
       <r>    -4.5490     0.0000    18.0000 </r>
       <r>    -4.3846     0.0000    18.0000 </r>
       <r>    -4.2203     0.0000    18.0000 </r>
       <r>    -4.0559     0.0000    18.0000 </r>
       <r>    -3.8915     0.0000    18.0000 </r>
       <r>    -3.7272     0.0000    18.0000 </r>
       <r>    -3.5628     0.0000    18.0000 </r>
       <r>    -3.3984     0.0000    18.0000 </r>
       <r>    -3.2340     0.0000    18.0000 </r>
       <r>    -3.0697     0.0000    18.0000 </r>
       <r>    -2.9053     0.0000    18.0000 </r>
       <r>    -2.7409     0.0000    18.0000 </r>
       <r>    -2.5766     0.0000    18.0000 </r>
       <r>    -2.4122     0.0055    18.0009 </r>
       <r>    -2.2478     0.0664    18.0246 </r>
       <r>    -2.0834     0.0332    18.0592 </r>
       <r>    -1.9191     0.2724    18.1476 </r>
       <r>    -1.7547     0.5317    18.2576 </r>
       <r>    -1.5903     1.5300    18.5801 </r>
       <r>    -1.4260     2.8365    19.4248 </r>
       <r>    -1.2616     1.0551    19.9695 </r>
       <r>    -1.0972     0.0000    20.0000 </r>
       <r>    -0.9328     0.0000    20.0000 </r>
       <r>    -0.7685     0.0000    20.0000 </r>
       <r>    -0.6041     0.0000    20.0000 </r>
       <r>    -0.4397     0.0000    20.0000 </r>
       <r>    -0.2754     0.0000    20.0000 </r>
       <r>    -0.1110     0.0000    20.0000 </r>
       <r>     0.0534     0.0000    20.0000 </r>
       <r>     0.2178     0.0000    20.0000 </r>
       <r>     0.3821     0.0000    20.0000 </r>
       <r>     0.5465     0.0000    20.0000 </r>
       <r>     0.7109     0.0000    20.0000 </r>
       <r>     0.8752     0.0000    20.0000 </r>
       <r>     1.0396     0.0000    20.0000 </r>
       <r>     1.2040     0.0000    20.0000 </r>
       <r>     1.3683     0.0000    20.0000 </r>
       <r>     1.5327     0.0000    20.0000 </r>
       <r>     1.6971     0.0000    20.0000 </r>
       <r>     1.8615     0.0000    20.0000 </r>
       <r>     2.0258     0.0000    20.0000 </r>
       <r>     2.1902     0.0000    20.0000 </r>
       <r>     2.3546     0.0000    20.0000 </r>
       <r>     2.5189     0.0000    20.0000 </r>
       <r>     2.6833     0.0000    20.0000 </r>
       <r>     2.8477     0.0000    20.0000 </r>
       <r>     3.0121     0.0000    20.0000 </r>
       <r>     3.1764     0.0000    20.0000 </r>
       <r>     3.3408     0.0000    20.0000 </r>
       <r>     3.5052     0.0000    20.0000 </r>
       <r>     3.6695     0.0000    20.0000 </r>
       <r>     3.8339     0.0592    20.0097 </r>
       <r>     3.9983     0.4424    20.1455 </r>
       <r>     4.1627     1.8567    20.7239 </r>
       <r>     4.3270     0.9274    21.1356 </r>
       <r>     4.4914     1.0715    21.3832 </r>
       <r>     4.6558     0.4139    21.5646 </r>
       <r>     4.8201     2.5928    22.1813 </r>
       <r>     4.9845     3.1584    23.3776 </r>
       <r>     5.1489     2.7192    24.3159 </r>
       <r>     5.3133     2.6760    25.2027 </r>
       <r>     5.4776     1.5358    25.9111 </r>
       <r>     5.6420     0.2326    26.0492 </r>
       <r>     5.8064     2.7946    26.5540 </r>
       <r>     5.9707     2.5436    28.4135 </r>
       <r>     6.1351     4.1841    29.9194 </r>
       <r>     6.2995     0.6680    30.3374 </r>
       <r>     6.4638     1.6075    30.8742 </r>
       <r>     6.6282     1.6404    31.3238 </r>
       <r>     6.7926     0.1115    31.5477 </r>
       <r>     6.9570     1.0958    31.8296 </r>
       <r>     7.1213     0.8364    31.9964 </r>
       <r>     7.2857     0.6538    32.1630 </r>
       <r>     7.4501     0.3030    32.4604 </r>
       <r>     7.6144     0.3043    32.6426 </r>
       <r>     7.7788     1.1033    33.0416 </r>
       <r>     7.9432     0.3795    33.1958 </r>
       <r>     8.1076     1.2476    33.5460 </r>
       <r>     8.2719     0.3501    33.6734 </r>
       <r>     8.4363     5.4461    34.9371 </r>
       <r>     8.6007     1.8049    35.8142 </r>
       <r>     8.7650     0.2830    35.9719 </r>
       <r>     8.9294     0.1052    36.0009 </r>
       <r>     9.0938     0.0000    36.0009 </r>
       <r>     9.2582     0.0724    36.0201 </r>
       <r>     9.4225     0.7773    36.1633 </r>
       <r>     9.5869     1.9870    36.6607 </r>
       <r>     9.7513     2.0036    37.3025 </r>
       <r>     9.9156     1.2802    37.9428 </r>
       <r>    10.0800     4.0668    38.6958 </r>
       <r>    10.2444     5.6836    41.6934 </r>
       <r>    10.4088    10.7604    44.3313 </r>
       <r>    10.5731     8.6025    47.3384 </r>
       <r>    10.7375     0.4322    47.9891 </r>
       <r>    10.9019     0.0000    48.0000 </r>
       <r>    11.0662     0.0000    48.0000 </r>
       <r>    11.2306     0.0000    48.0000 </r>
       <r>    11.3950     0.0000    48.0000 </r>
       <r>    11.5594     0.0000    48.0000 </r>
       <r>    11.7237     0.0000    48.0000 </r>
       <r>    11.8881     0.0000    48.0000 </r>
       <r>    12.0525     0.0000    48.0000 </r>
       <r>    12.2168     0.0000    48.0000 </r>
       <r>    12.3812     0.0000    48.0000 </r>
       <r>    12.5456     0.0000    48.0000 </r>
       <r>    12.7099     0.0000    48.0000 </r>
       <r>    12.8743     0.0000    48.0000 </r>
       <r>    13.0387     0.0000    48.0000 </r>
      </set>
     </set>
    </array>
   </total>
  </dos>
 </calculation>
 <structure name="finalpos" >
  <crystal>
   <varray name="basis" >
    <v>       0.00000000       3.31764060       3.31764060 </v>
    <v>       3.31764060       0.00000000       3.31764060 </v>
    <v>       3.31764060       3.31764060       0.00000000 </v>
   </varray>
   <i name="volume">     73.03280919 </i>
   <varray name="rec_basis" >
    <v>      -0.15070951       0.15070951       0.15070951 </v>
    <v>       0.15070951      -0.15070951       0.15070951 </v>
    <v>       0.15070951       0.15070951      -0.15070951 </v>
   </varray>
  </crystal>
  <varray name="positions" >
   <v>       0.25000000       0.25000000       0.25000000 </v>
   <v>       0.00000000       0.00000000       0.00000000 </v>
   <v>       0.75000000       0.75000000       0.75000000 </v>
  </varray>
 </structure>
</modeling>
