   2   2   0   0
  0.2732806E+02  0.4259755E-09  0.4259755E-09  0.4259755E-09  0.0000000E+00
  1.000000000000000E-004
  CAR 
 unknown system                          
     12.26675118     -9.46356261  301      2.49716427      1.00000000
     -9.464  0.0000E+00  0.0000E+00
     -9.391  0.0000E+00  0.0000E+00
     -9.319  0.0000E+00  0.0000E+00
     -9.246  0.0000E+00  0.0000E+00
     -9.174  0.0000E+00  0.0000E+00
     -9.101  0.0000E+00  0.0000E+00
     -9.029  0.0000E+00  0.0000E+00
     -8.957  0.0000E+00  0.0000E+00
     -8.884  0.0000E+00  0.0000E+00
     -8.812  0.0000E+00  0.0000E+00
     -8.739  0.0000E+00  0.0000E+00
     -8.667  0.0000E+00  0.0000E+00
     -8.594  0.0000E+00  0.0000E+00
     -8.522  0.0000E+00  0.0000E+00
     -8.449  0.1055E+00  0.1443E-02
     -8.377  0.2372E+00  0.1448E-01
     -8.305  0.3295E+00  0.3537E-01
     -8.232  0.4123E+00  0.6239E-01
     -8.160  0.4889E+00  0.9497E-01
     -8.087  0.5651E+00  0.1332E+00
     -8.015  0.6462E+00  0.1770E+00
     -7.942  0.7321E+00  0.2269E+00
     -7.870  0.8267E+00  0.2833E+00
     -7.798  0.9378E+00  0.3471E+00
     -7.725  0.1065E+01  0.4196E+00
     -7.653  0.1230E+01  0.5023E+00
     -7.580  0.1441E+01  0.5987E+00
     -7.508  0.1774E+01  0.7137E+00
     -7.435  0.2503E+01  0.8667E+00
     -7.363  0.2600E+01  0.1054E+01
     -7.291  0.2668E+01  0.1244E+01
     -7.218  0.2762E+01  0.1440E+01
     -7.146  0.3008E+01  0.1649E+01
     -7.073  0.3866E+01  0.1891E+01
     -7.001  0.0000E+00  0.2000E+01
     -6.928  0.0000E+00  0.2000E+01
     -6.856  0.0000E+00  0.2000E+01
     -6.783  0.0000E+00  0.2000E+01
     -6.711  0.0000E+00  0.2000E+01
     -6.639  0.0000E+00  0.2000E+01
     -6.566  0.0000E+00  0.2000E+01
     -6.494  0.0000E+00  0.2000E+01
     -6.421  0.0000E+00  0.2000E+01
     -6.349  0.0000E+00  0.2000E+01
     -6.276  0.0000E+00  0.2000E+01
     -6.204  0.0000E+00  0.2000E+01
     -6.132  0.0000E+00  0.2000E+01
     -6.059  0.0000E+00  0.2000E+01
     -5.987  0.0000E+00  0.2000E+01
     -5.914  0.0000E+00  0.2000E+01
     -5.842  0.0000E+00  0.2000E+01
     -5.769  0.0000E+00  0.2000E+01
     -5.697  0.0000E+00  0.2000E+01
     -5.625  0.0000E+00  0.2000E+01
     -5.552  0.0000E+00  0.2000E+01
     -5.480  0.0000E+00  0.2000E+01
     -5.407  0.0000E+00  0.2000E+01
     -5.335  0.0000E+00  0.2000E+01
     -5.262  0.0000E+00  0.2000E+01
     -5.190  0.0000E+00  0.2000E+01
     -5.117  0.0000E+00  0.2000E+01
     -5.045  0.0000E+00  0.2000E+01
     -4.973  0.0000E+00  0.2000E+01
     -4.900  0.0000E+00  0.2000E+01
     -4.828  0.0000E+00  0.2000E+01
     -4.755  0.0000E+00  0.2000E+01
     -4.683  0.0000E+00  0.2000E+01
     -4.610  0.0000E+00  0.2000E+01
     -4.538  0.0000E+00  0.2000E+01
     -4.466  0.0000E+00  0.2000E+01
     -4.393  0.0000E+00  0.2000E+01
     -4.321  0.0000E+00  0.2000E+01
     -4.248  0.0000E+00  0.2000E+01
     -4.176  0.0000E+00  0.2000E+01
     -4.103  0.0000E+00  0.2000E+01
     -4.031  0.0000E+00  0.2000E+01
     -3.959  0.0000E+00  0.2000E+01
     -3.886  0.0000E+00  0.2000E+01
     -3.814  0.0000E+00  0.2000E+01
     -3.741  0.0000E+00  0.2000E+01
     -3.669  0.0000E+00  0.2000E+01
     -3.596  0.0000E+00  0.2000E+01
     -3.524  0.0000E+00  0.2000E+01
     -3.452  0.0000E+00  0.2000E+01
     -3.379  0.0000E+00  0.2000E+01
     -3.307  0.0000E+00  0.2000E+01
     -3.234  0.0000E+00  0.2000E+01
     -3.162  0.0000E+00  0.2000E+01
     -3.089  0.0000E+00  0.2000E+01
     -3.017  0.0000E+00  0.2000E+01
     -2.944  0.0000E+00  0.2000E+01
     -2.872  0.0000E+00  0.2000E+01
     -2.800  0.0000E+00  0.2000E+01
     -2.727  0.0000E+00  0.2000E+01
     -2.655  0.0000E+00  0.2000E+01
     -2.582  0.0000E+00  0.2000E+01
     -2.510  0.0000E+00  0.2000E+01
     -2.437  0.0000E+00  0.2000E+01
     -2.365  0.5631E+00  0.2009E+01
     -2.293  0.1552E+01  0.2088E+01
     -2.220  0.3160E+01  0.2249E+01
     -2.148  0.4640E+01  0.2640E+01
     -2.075  0.2303E+01  0.2871E+01
     -2.003  0.1655E+01  0.3013E+01
     -1.930  0.1308E+01  0.3118E+01
     -1.858  0.1081E+01  0.3204E+01
     -1.786  0.9125E+00  0.3276E+01
     -1.713  0.8084E+00  0.3338E+01
     -1.641  0.7074E+00  0.3393E+01
     -1.568  0.6264E+00  0.3441E+01
     -1.496  0.5752E+00  0.3484E+01
     -1.423  0.5236E+00  0.3524E+01
     -1.351  0.4733E+00  0.3560E+01
     -1.278  0.4294E+00  0.3593E+01
     -1.206  0.4014E+00  0.3623E+01
     -1.134  0.3727E+00  0.3651E+01
     -1.061  0.3444E+00  0.3677E+01
     -0.989  0.3138E+00  0.3701E+01
     -0.916  0.2908E+00  0.3722E+01
     -0.844  0.2744E+00  0.3743E+01
     -0.771  0.2578E+00  0.3762E+01
     -0.699  0.2396E+00  0.3780E+01
     -0.627  0.2219E+00  0.3797E+01
     -0.554  0.2025E+00  0.3812E+01
     -0.482  0.1916E+00  0.3826E+01
     -0.409  0.1810E+00  0.3840E+01
     -0.337  0.4899E+00  0.3858E+01
     -0.264  0.1004E+01  0.3915E+01
     -0.192  0.1829E+01  0.4007E+01
     -0.120  0.1730E+01  0.4137E+01
     -0.047  0.1480E+01  0.4253E+01
      0.025  0.1393E+01  0.4357E+01
      0.098  0.1361E+01  0.4457E+01
      0.170  0.1302E+01  0.4555E+01
      0.243  0.1248E+01  0.4647E+01
      0.315  0.1366E+01  0.4744E+01
      0.388  0.1500E+01  0.4848E+01
      0.460  0.1533E+01  0.4957E+01
      0.532  0.1611E+01  0.5072E+01
      0.605  0.1853E+01  0.5197E+01
      0.677  0.2189E+01  0.5345E+01
      0.750  0.2139E+01  0.5503E+01
      0.822  0.2134E+01  0.5658E+01
      0.895  0.2070E+01  0.5810E+01
      0.967  0.2077E+01  0.5960E+01
      1.039  0.2043E+01  0.6109E+01
      1.112  0.2007E+01  0.6256E+01
      1.184  0.1996E+01  0.6401E+01
      1.257  0.1979E+01  0.6545E+01
      1.329  0.1957E+01  0.6687E+01
      1.402  0.1929E+01  0.6829E+01
      1.474  0.1904E+01  0.6967E+01
      1.546  0.1917E+01  0.7105E+01
      1.619  0.1919E+01  0.7244E+01
      1.691  0.1892E+01  0.7383E+01
      1.764  0.1558E+01  0.7513E+01
      1.836  0.1230E+01  0.7613E+01
      1.909  0.1052E+01  0.7696E+01
      1.981  0.8944E+00  0.7766E+01
      2.054  0.7665E+00  0.7826E+01
      2.126  0.6597E+00  0.7877E+01
      2.198  0.5427E+00  0.7921E+01
      2.271  0.4561E+00  0.7957E+01
      2.343  0.3066E+00  0.7984E+01
      2.416  0.9263E-01  0.7999E+01
      2.488  0.0000E+00  0.8000E+01
      2.561  0.0000E+00  0.8000E+01
      2.633  0.0000E+00  0.8000E+01
      2.705  0.0000E+00  0.8000E+01
      2.778  0.0000E+00  0.8000E+01
      2.850  0.0000E+00  0.8000E+01
      2.923  0.0000E+00  0.8000E+01
      2.995  0.0000E+00  0.8000E+01
      3.068  0.0000E+00  0.8000E+01
      3.140  0.2122E-05  0.8000E+01
      3.212  0.2510E-03  0.8000E+01
      3.285  0.9139E-03  0.8000E+01
      3.357  0.1991E-02  0.8000E+01
      3.430  0.3482E-02  0.8000E+01
      3.502  0.5386E-02  0.8001E+01
      3.575  0.8165E-02  0.8001E+01
      3.647  0.1113E-01  0.8002E+01
      3.719  0.1373E-01  0.8003E+01
      3.792  0.1649E-01  0.8004E+01
      3.864  0.1943E-01  0.8005E+01
      3.937  0.2283E-01  0.8007E+01
      4.009  0.5938E-01  0.8009E+01
      4.082  0.1239E+00  0.8016E+01
      4.154  0.1890E+00  0.8028E+01
      4.227  0.3086E+00  0.8045E+01
      4.299  0.4267E+00  0.8072E+01
      4.371  0.5751E+00  0.8108E+01
      4.444  0.7012E+00  0.8154E+01
      4.516  0.7811E+00  0.8209E+01
      4.589  0.8762E+00  0.8269E+01
      4.661  0.9772E+00  0.8336E+01
      4.734  0.1115E+01  0.8411E+01
      4.806  0.1287E+01  0.8498E+01
      4.878  0.1414E+01  0.8596E+01
      4.951  0.1622E+01  0.8705E+01
      5.023  0.2002E+01  0.8835E+01
      5.096  0.2297E+01  0.8992E+01
      5.168  0.2169E+01  0.9157E+01
      5.241  0.2097E+01  0.9311E+01
      5.313  0.1848E+01  0.9457E+01
      5.385  0.1650E+01  0.9582E+01
      5.458  0.1412E+01  0.9694E+01
      5.530  0.1177E+01  0.9788E+01
      5.603  0.1246E+01  0.9872E+01
      5.675  0.1240E+01  0.9961E+01
      5.748  0.1138E+01  0.1004E+02
      5.820  0.1041E+01  0.1013E+02
      5.893  0.9540E+00  0.1020E+02
      5.965  0.9734E+00  0.1027E+02
      6.037  0.8982E+00  0.1034E+02
      6.110  0.8759E+00  0.1040E+02
      6.182  0.8663E+00  0.1046E+02
      6.255  0.8869E+00  0.1053E+02
      6.327  0.9263E+00  0.1059E+02
      6.400  0.9796E+00  0.1066E+02
      6.472  0.1071E+01  0.1073E+02
      6.544  0.1251E+01  0.1082E+02
      6.617  0.1970E+01  0.1093E+02
      6.689  0.2542E+01  0.1111E+02
      6.762  0.2544E+01  0.1130E+02
      6.834  0.2200E+01  0.1147E+02
      6.907  0.2032E+01  0.1162E+02
      6.979  0.1703E+01  0.1176E+02
      7.051  0.1513E+01  0.1188E+02
      7.124  0.1506E+01  0.1199E+02
      7.196  0.1347E+01  0.1209E+02
      7.269  0.1214E+01  0.1218E+02
      7.341  0.1155E+01  0.1227E+02
      7.414  0.1291E+01  0.1236E+02
      7.486  0.1495E+01  0.1246E+02
      7.559  0.1783E+01  0.1258E+02
      7.631  0.2205E+01  0.1272E+02
      7.703  0.2442E+01  0.1289E+02
      7.776  0.2227E+01  0.1306E+02
      7.848  0.2097E+01  0.1322E+02
      7.921  0.1808E+01  0.1336E+02
      7.993  0.1667E+01  0.1348E+02
      8.066  0.1498E+01  0.1359E+02
      8.138  0.1475E+01  0.1370E+02
      8.210  0.1435E+01  0.1381E+02
      8.283  0.1471E+01  0.1391E+02
      8.355  0.1479E+01  0.1402E+02
      8.428  0.1189E+01  0.1412E+02
      8.500  0.1012E+01  0.1419E+02
      8.573  0.9773E+00  0.1426E+02
      8.645  0.1004E+01  0.1434E+02
      8.717  0.1032E+01  0.1441E+02
      8.790  0.1077E+01  0.1449E+02
      8.862  0.1141E+01  0.1457E+02
      8.935  0.1124E+01  0.1465E+02
      9.007  0.1137E+01  0.1473E+02
      9.080  0.1202E+01  0.1482E+02
      9.152  0.1269E+01  0.1490E+02
      9.225  0.1351E+01  0.1500E+02
      9.297  0.1391E+01  0.1510E+02
      9.369  0.1249E+01  0.1520E+02
      9.442  0.1244E+01  0.1529E+02
      9.514  0.1102E+01  0.1537E+02
      9.587  0.8869E+00  0.1544E+02
      9.659  0.8114E+00  0.1550E+02
      9.732  0.7845E+00  0.1556E+02
      9.804  0.1080E+01  0.1563E+02
      9.876  0.4694E+00  0.1567E+02
      9.949  0.4376E+00  0.1570E+02
     10.021  0.4051E+00  0.1573E+02
     10.094  0.3738E+00  0.1576E+02
     10.166  0.3715E+00  0.1579E+02
     10.239  0.3535E+00  0.1581E+02
     10.311  0.3147E+00  0.1584E+02
     10.383  0.2822E+00  0.1586E+02
     10.456  0.2543E+00  0.1588E+02
     10.528  0.2307E+00  0.1590E+02
     10.601  0.2154E+00  0.1591E+02
     10.673  0.1952E+00  0.1593E+02
     10.746  0.1807E+00  0.1594E+02
     10.818  0.1708E+00  0.1596E+02
     10.890  0.1500E+00  0.1597E+02
     10.963  0.1251E+00  0.1598E+02
     11.035  0.9510E-01  0.1598E+02
     11.108  0.7075E-01  0.1599E+02
     11.180  0.5194E-01  0.1599E+02
     11.253  0.5103E-01  0.1600E+02
     11.325  0.0000E+00  0.1600E+02
     11.398  0.0000E+00  0.1600E+02
     11.470  0.0000E+00  0.1600E+02
     11.542  0.0000E+00  0.1600E+02
     11.615  0.0000E+00  0.1600E+02
     11.687  0.0000E+00  0.1600E+02
     11.760  0.0000E+00  0.1600E+02
     11.832  0.0000E+00  0.1600E+02
     11.905  0.0000E+00  0.1600E+02
     11.977  0.0000E+00  0.1600E+02
     12.049  0.0000E+00  0.1600E+02
     12.122  0.0000E+00  0.1600E+02
     12.194  0.0000E+00  0.1600E+02
     12.267  0.0000E+00  0.1600E+02
