    2    2    1    1
  0.2732806E+02  0.4259755E-09  0.4259755E-09  0.4259755E-09  0.0000000E+00
  1.000000000000000E-004
  CAR 
 unknown system                          
      8    220      8
 
  0.0000000E+00  0.0000000E+00  0.0000000E+00  0.1457938E-03
    1       -8.475821   1.000000
    2        2.439684   1.000000
    3        2.439684   1.000000
    4        2.439684   1.000000
    5        3.132686   0.000000
    6        6.412448   0.000000
    7        6.412448   0.000000
    8        6.412448   0.000000
 
  0.5263158E-01  0.0000000E+00  0.0000000E+00  0.1166351E-02
    1       -8.454572   1.000000
    2        1.967449   1.000000
    3        2.413864   1.000000
    4        2.413864   1.000000
    5        3.539741   0.000000
    6        6.426012   0.000000
    7        6.459497   0.000000
    8        6.459497   0.000000
 
  0.1052632E+00  0.0000000E+00  0.0000000E+00  0.1166351E-02
    1       -8.391689   1.000000
    2        1.249946   1.000000
    3        2.342527   1.000000
    4        2.342527   1.000000
    5        4.025868   0.000000
    6        6.530350   0.000000
    7        6.586892   0.000000
    8        6.586893   0.000000
 
  0.1578947E+00  0.0000000E+00  0.0000000E+00  0.1166351E-02
    1       -8.290159   1.000000
    2        0.521846   1.000000
    3        2.240679   1.000000
    4        2.240679   1.000000
    5        4.293240   0.000000
    6        6.756235   0.000000
    7        6.756235   0.000000
    8        6.846629   0.000000
 
  0.2105263E+00  0.0000000E+00  0.0000000E+00  0.1166351E-02
    1       -8.155326   1.000000
    2       -0.176641   1.000000
    3        2.125585   1.000000
    4        2.125585   1.000000
    5        4.338205   0.000000
    6        6.913751   0.000000
    7        6.913751   0.000000
    8        7.390257   0.000000
 
  0.2631579E+00  0.0000000E+00  0.0000000E+00  0.1166351E-02
    1       -7.995909   1.000000
    2       -0.821341   1.000000
    3        2.012107   1.000000
    4        2.012107   1.000000
    5        4.264505   0.000000
    6        7.011758   0.000000
    7        7.011758   0.000000
    8        8.063759   0.000000
 
  0.3157895E+00  0.0000000E+00  0.0000000E+00  0.1166351E-02
    1       -7.824997   1.000000
    2       -1.389520   1.000000
    3        1.911247   1.000000
    4        1.911247   1.000000
    5        4.155489   0.000000
    6        7.037248   0.000000
    7        7.037248   0.000000
    8        8.758445   0.000000
 
  0.3684211E+00  0.0000000E+00  0.0000000E+00  0.1166351E-02
    1       -7.661367   1.000000
    2       -1.856021   1.000000
    3        1.830426   1.000000
    4        1.830426   1.000000
    5        4.053493   0.000000
    6        7.014354   0.000000
    7        7.014354   0.000000
    8        9.339827   0.000000
 
  0.4210526E+00  0.0000000E+00  0.0000000E+00  0.1166351E-02
    1       -7.529240   1.000000
    2       -2.192260   1.000000
    3        1.774333   1.000000
    4        1.774333   1.000000
    5        3.978262   0.000000
    6        6.977847   0.000000
    7        6.977847   0.000000
    8        9.658799   0.000000
 
  0.4736842E+00  0.0000000E+00  0.0000000E+00  0.1166351E-02
    1       -7.454334   1.000000
    2       -2.369867   1.000000
    3        1.745675   1.000000
    4        1.745675   1.000000
    5        3.938856   0.000000
    6        6.953394   0.000000
    7        6.953394   0.000000
    8        9.756977   0.000000
 
  0.5263158E-01  0.5263158E-01  0.0000000E+00  0.8747631E-03
    1       -8.447475   1.000000
    2        1.919533   1.000000
    3        2.358122   1.000000
    4        2.358122   1.000000
    5        3.667969   0.000000
    6        6.294145   0.000000
    7        6.540933   0.000000
    8        6.540933   0.000000
 
  0.1052632E+00  0.5263158E-01  0.0000000E+00  0.3499052E-02
    1       -8.398426   1.000000
    2        1.378132   1.000000
    3        2.262137   1.000000
    4        2.304652   1.000000
    5        4.093100   0.000000
    6        6.230910   0.000000
    7        6.700508   0.000000
    8        6.704127   0.000000
 
  0.1578947E+00  0.5263158E-01  0.0000000E+00  0.3499052E-02
    1       -8.309700   1.000000
    2        0.702644   1.000000
    3        2.143804   1.000000
    4        2.229871   1.000000
    5        4.421087   0.000000
    6        6.303641   0.000000
    7        6.899142   0.000000
    8        6.966320   0.000000
 
  0.2105263E+00  0.5263158E-01  0.0000000E+00  0.3499052E-02
    1       -8.185753   1.000000
    2        0.019745   1.000000
    3        2.020776   1.000000
    4        2.120015   1.000000
    5        4.533086   0.000000
    6        6.510504   0.000000
    7        7.083508   0.000000
    8        7.347092   0.000000
 
  0.2631579E+00  0.5263158E-01  0.0000000E+00  0.3499052E-02
    1       -8.034107   1.000000
    2       -0.628136   1.000000
    3        1.907102   1.000000
    4        1.992192   1.000000
    5        4.491895   0.000000
    6        6.721165   0.000000
    7        7.202356   0.000000
    8        7.845551   0.000000
 
  0.3157895E+00  0.5263158E-01  0.0000000E+00  0.3499052E-02
    1       -7.866195   1.000000
    2       -1.213079   1.000000
    3        1.812623   1.000000
    4        1.863363   1.000000
    5        4.392834   0.000000
    6        6.837011   0.000000
    7        7.234520   0.000000
    8        8.426163   0.000000
 
  0.3684211E+00  0.5263158E-01  0.0000000E+00  0.3499052E-02
    1       -7.698785   1.000000
    2       -1.708695   1.000000
    3        1.743606   1.000000
    4        1.746289   1.000000
    5        4.289571   0.000000
    6        6.868627   0.000000
    7        7.199608   0.000000
    8        9.017772   0.000000
 
  0.4210526E+00  0.5263158E-01  0.0000000E+00  0.3499052E-02
    1       -7.554294   1.000000
    2       -2.086387   1.000000
    3        1.649763   1.000000
    4        1.703595   1.000000
    5        4.206862   0.000000
    6        6.865645   0.000000
    7        7.135030   0.000000
    8        9.501563   0.000000
 
  0.4736842E+00  0.5263158E-01  0.0000000E+00  0.3499052E-02
    1       -7.458531   1.000000
    2       -2.316590   1.000000
    3        1.579631   1.000000
    4        1.694089   1.000000
    5        4.156093   0.000000
    6        6.866528   0.000000
    7        7.072056   0.000000
    8        9.757715   0.000000
 
 -0.4736842E+00  0.5263158E-01  0.0000000E+00  0.3499052E-02
    1       -7.432832   1.000000
    2       -2.375920   1.000000
    3        1.539674   1.000000
    4        1.715002   1.000000
    5        4.142181   0.000000
    6        6.890650   0.000000
    7        7.028609   0.000000
    8        9.818101   0.000000
 
 -0.4210526E+00  0.5263158E-01  0.0000000E+00  0.3499052E-02
    1       -7.483648   1.000000
    2       -2.257490   1.000000
    3        1.532153   1.000000
    4        1.764885   1.000000
    5        4.166265   0.000000
    6        6.941966   0.000000
    7        7.009822   0.000000
    8        9.726788   0.000000
 
 -0.3684211E+00  0.5263158E-01  0.0000000E+00  0.3499052E-02
    1       -7.598542   1.000000
    2       -1.974752   1.000000
    3        1.558035   1.000000
    4        1.840920   1.000000
    5        4.226139   0.000000
    6        7.008533   0.000000
    7        7.010616   0.000000
    8        9.414598   0.000000
 
 -0.3157895E+00  0.5263158E-01  0.0000000E+00  0.3499052E-02
    1       -7.753511   1.000000
    2       -1.554410   1.000000
    3        1.616980   1.000000
    4        1.938676   1.000000
    5        4.315029   0.000000
    6        7.004450   0.000000
    7        7.070017   0.000000
    8        8.874271   0.000000
 
 -0.2631579E+00  0.5263158E-01  0.0000000E+00  0.3499052E-02
    1       -7.923308   1.000000
    2       -1.026459   1.000000
    3        1.707102   1.000000
    4        2.051589   1.000000
    5        4.417523   0.000000
    6        6.966589   0.000000
    7        7.070160   0.000000
    8        8.251212   0.000000
 
 -0.2105263E+00  0.5263158E-01  0.0000000E+00  0.3499052E-02
    1       -8.087349   1.000000
    2       -0.419147   1.000000
    3        1.824540   1.000000
    4        2.170242   1.000000
    5        4.499879   0.000000
    6        6.870038   0.000000
    7        6.938685   0.000000
    8        7.690340   0.000000
 
 -0.1578947E+00  0.5263158E-01  0.0000000E+00  0.3499052E-02
    1       -8.230776   1.000000
    2        0.239975   1.000000
    3        1.963061   1.000000
    4        2.281710   1.000000
    5        4.492062   0.000000
    6        6.666756   0.000000
    7        6.723823   0.000000
    8        7.275504   0.000000
 
 -0.1052632E+00  0.5263158E-01  0.0000000E+00  0.3499052E-02
    1       -8.343593   1.000000
    2        0.917144   1.000000
    3        2.114566   1.000000
    4        2.369790   1.000000
    5        4.295129   0.000000
    6        6.440332   0.000000
    7        6.573799   0.000000
    8        6.951983   0.000000
 
 -0.5263158E-01  0.5263158E-01  0.0000000E+00  0.1749526E-02
    1       -8.419415   1.000000
    2        1.548395   1.000000
    3        2.273531   1.000000
    4        2.417688   1.000000
    5        3.902422   0.000000
    6        6.383436   0.000000
    7        6.473586   0.000000
    8        6.672538   0.000000
 
  0.1052632E+00  0.1052632E+00  0.0000000E+00  0.8747631E-03
    1       -8.363497   1.000000
    2        1.189281   1.000000
    3        2.144700   1.000000
    4        2.144701   1.000000
    5        4.425305   0.000000
    6        5.998856   0.000000
    7        6.894166   0.000000
    8        6.894166   0.000000
 
  0.1578947E+00  0.1052632E+00  0.0000000E+00  0.3499052E-02
    1       -8.288477   1.000000
    2        0.710270   1.000000
    3        2.010321   1.000000
    4        2.037002   1.000000
    5        4.766374   0.000000
    6        5.898054   0.000000
    7        7.128917   0.000000
    8        7.152906   0.000000
 
  0.2105263E+00  0.1052632E+00  0.0000000E+00  0.3499052E-02
    1       -8.177075   1.000000
    2        0.119459   1.000000
    3        1.877098   1.000000
    4        1.919328   1.000000
    5        4.947494   0.000000
    6        5.986462   0.000000
    7        7.352540   0.000000
    8        7.452732   0.000000
 
  0.2631579E+00  0.1052632E+00  0.0000000E+00  0.3499052E-02
    1       -8.035731   1.000000
    2       -0.484418   1.000000
    3        1.758775   1.000000
    4        1.771002   1.000000
    5        4.942264   0.000000
    6        6.243637   0.000000
    7        7.510034   0.000000
    8        7.717929   0.000000
 
  0.3157895E+00  0.1052632E+00  0.0000000E+00  0.3499052E-02
    1       -7.874410   1.000000
    2       -1.053510   1.000000
    3        1.607785   1.000000
    4        1.664702   1.000000
    5        4.853774   0.000000
    6        6.506274   0.000000
    7        7.569114   0.000000
    8        7.986457   0.000000
 
  0.3684211E+00  0.1052632E+00  0.0000000E+00  0.3499052E-02
    1       -7.707895   1.000000
    2       -1.554034   1.000000
    3        1.448680   1.000000
    4        1.600695   1.000000
    5        4.751751   0.000000
    6        6.653240   0.000000
    7        7.540464   0.000000
    8        8.388077   0.000000
 
  0.4210526E+00  0.1052632E+00  0.0000000E+00  0.3499052E-02
    1       -7.556438   1.000000
    2       -1.954724   1.000000
    3        1.307949   1.000000
    4        1.569867   1.000000
    5        4.665159   0.000000
    6        6.702555   0.000000
    7        7.461966   0.000000
    8        8.921638   0.000000
 
  0.4736842E+00  0.1052632E+00  0.0000000E+00  0.3499052E-02
    1       -7.444659   1.000000
    2       -2.224408   1.000000
    3        1.195227   1.000000
    4        1.573216   1.000000
    5        4.606785   0.000000
    6        6.724080   0.000000
    7        7.370361   0.000000
    8        9.462267   0.000000
 
 -0.4736842E+00  0.1052632E+00  0.0000000E+00  0.3499052E-02
    1       -7.395667   1.000000
    2       -2.336356   1.000000
    3        1.116975   1.000000
    4        1.609989   1.000000
    5        4.582349   0.000000
    6        6.759710   0.000000
    7        7.289202   0.000000
    8        9.808734   0.000000
 
 -0.4210526E+00  0.1052632E+00  0.0000000E+00  0.3499052E-02
    1       -7.421257   1.000000
    2       -2.277594   1.000000
    3        1.077648   1.000000
    4        1.677824   1.000000
    5        4.593521   0.000000
    6        6.824024   0.000000
    7        7.228368   0.000000
    8        9.789903   0.000000
 
 -0.3684211E+00  0.1052632E+00  0.0000000E+00  0.3499052E-02
    1       -7.515102   1.000000
    2       -2.055512   1.000000
    3        1.080462   1.000000
    4        1.772650   1.000000
    5        4.638532   0.000000
    6        6.913111   0.000000
    7        7.185015   0.000000
    8        9.412221   0.000000
 
 -0.3157895E+00  0.1052632E+00  0.0000000E+00  0.3499052E-02
    1       -7.656584   1.000000
    2       -1.694440   1.000000
    3        1.127914   1.000000
    4        1.888406   1.000000
    5        4.711183   0.000000
    6        7.002278   0.000000
    7        7.143052   0.000000
    8        8.841335   0.000000
 
 -0.2631579E+00  0.1052632E+00  0.0000000E+00  0.3499052E-02
    1       -7.820686   1.000000
    2       -1.226628   1.000000
    3        1.222214   1.000000
    4        2.016474   1.000000
    5        4.796932   0.000000
    6        7.027526   0.000000
    7        7.075022   0.000000
    8        8.274608   0.000000
 
 -0.2105263E+00  0.1052632E+00  0.0000000E+00  0.3499052E-02
    1       -7.985492   1.000000
    2       -0.686842   1.000000
    3        1.365966   1.000000
    4        2.145008   1.000000
    5        4.862793   0.000000
    6        6.879357   0.000000
    7        6.957998   0.000000
    8        7.871697   0.000000
 
 -0.1578947E+00  0.1052632E+00  0.0000000E+00  0.3499052E-02
    1       -8.134506   1.000000
    2       -0.114016   1.000000
    3        1.563058   1.000000
    4        2.258536   1.000000
    5        4.838685   0.000000
    6        6.600822   0.000000
    7        6.802613   0.000000
    8        7.614179   0.000000
 
 -0.1052632E+00  0.1052632E+00  0.0000000E+00  0.1749526E-02
    1       -8.256362   1.000000
    2        0.441972   1.000000
    3        1.817585   1.000000
    4        2.339008   1.000000
    5        4.637450   0.000000
    6        6.430069   0.000000
    7        6.656685   0.000000
    8        7.321693   0.000000
 
  0.1578947E+00  0.1578947E+00  0.0000000E+00  0.8747631E-03
    1       -8.227459   1.000000
    2        0.475696   1.000000
    3        1.862168   1.000000
    4        1.862168   1.000000
    5        5.099945   0.000000
    6        5.640295   0.000000
    7        7.406636   0.000000
    8        7.406636   0.000000
 
  0.2105263E+00  0.1578947E+00  0.0000000E+00  0.3499052E-02
    1       -8.129665   1.000000
    2        0.052843   1.000000
    3        1.716840   1.000000
    4        1.718189   1.000000
    5        5.292606   0.000000
    6        5.582039   0.000000
    7        7.675641   0.000000
    8        7.681492   0.000000
 
  0.2631579E+00  0.1578947E+00  0.0000000E+00  0.3499052E-02
    1       -8.000588   1.000000
    2       -0.449418   1.000000
    3        1.546390   1.000000
    4        1.592306   1.000000
    5        5.277477   0.000000
    6        5.793321   0.000000
    7        7.779043   0.000000
    8        7.895407   0.000000
 
  0.3157895E+00  0.1578947E+00  0.0000000E+00  0.3499052E-02
    1       -7.848925   1.000000
    2       -0.958942   1.000000
    3        1.346762   1.000000
    4        1.493925   1.000000
    5        5.190441   0.000000
    6        6.135151   0.000000
    7        7.759095   0.000000
    8        8.003388   0.000000
 
  0.3684211E+00  0.1578947E+00  0.0000000E+00  0.3499052E-02
    1       -7.687657   1.000000
    2       -1.430048   1.000000
    3        1.140335   1.000000
    4        1.428868   1.000000
    5        5.096371   0.000000
    6        6.471864   0.000000
    7        7.832884   0.000000
    8        8.002127   0.000000
 
  0.4210526E+00  0.1578947E+00  0.0000000E+00  0.3499052E-02
    1       -7.534794   1.000000
    2       -1.826245   1.000000
    3        0.948913   1.000000
    4        1.400264   1.000000
    5        5.018403   0.000000
    6        6.670458   0.000000
    7        7.926636   0.000000
    8        8.162067   0.000000
 
  0.4736842E+00  0.1578947E+00  0.0000000E+00  0.3499052E-02
    1       -7.412966   1.000000
    2       -2.113886   1.000000
    3        0.787667   1.000000
    4        1.409097   1.000000
    5        4.969183   0.000000
    6        6.740441   0.000000
    7        7.818954   0.000000
    8        8.718249   0.000000
 
 -0.4736842E+00  0.1578947E+00  0.0000000E+00  0.3499052E-02
    1       -7.345289   1.000000
    2       -2.263654   1.000000
    3        0.666621   1.000000
    4        1.454497   1.000000
    5        4.954496   0.000000
    6        6.776293   0.000000
    7        7.708742   0.000000
    8        9.333499   0.000000
 
 -0.4210526E+00  0.1578947E+00  0.0000000E+00  0.3499052E-02
    1       -7.347042   1.000000
    2       -2.257901   1.000000
    3        0.592978   1.000000
    4        1.533801   1.000000
    5        4.975026   0.000000
    6        6.827643   0.000000
    7        7.610338   0.000000
    8        9.679042   0.000000
 
 -0.3684211E+00  0.1578947E+00  0.0000000E+00  0.3499052E-02
    1       -7.417752   1.000000
    2       -2.098487   1.000000
    3        0.572900   1.000000
    4        1.642349   1.000000
    5        5.026958   0.000000
    6        6.907274   0.000000
    7        7.523856   0.000000
    8        9.364986   0.000000
 
 -0.3157895E+00  0.1578947E+00  0.0000000E+00  0.3499052E-02
    1       -7.541478   1.000000
    2       -1.807178   1.000000
    3        0.613027   1.000000
    4        1.773088   1.000000
    5        5.100884   0.000000
    6        7.002396   0.000000
    7        7.435038   0.000000
    8        8.755112   0.000000
 
 -0.2631579E+00  0.1578947E+00  0.0000000E+00  0.3499052E-02
    1       -7.695019   1.000000
    2       -1.419134   1.000000
    3        0.721985   1.000000
    4        1.915881   1.000000
    5        5.176833   0.000000
    6        7.054126   0.000000
    7        7.317998   0.000000
    8        8.180455   0.000000
 
 -0.2105263E+00  0.1578947E+00  0.0000000E+00  0.3499052E-02
    1       -7.856005   1.000000
    2       -0.977105   1.000000
    3        0.911481   1.000000
    4        2.056770   1.000000
    5        5.210403   0.000000
    6        6.927015   0.000000
    7        7.154311   0.000000
    8        7.859064   0.000000
 
 -0.1578947E+00  0.1578947E+00  0.0000000E+00  0.1749526E-02
    1       -8.006740   1.000000
    2       -0.527931   1.000000
    3        1.193363   1.000000
    4        2.177768   1.000000
    5        5.115949   0.000000
    6        6.689659   0.000000
    7        6.964067   0.000000
    8        7.765292   0.000000
 
  0.2105263E+00  0.2105263E+00  0.0000000E+00  0.8747631E-03
    1       -8.045901   1.000000
    2       -0.198384   1.000000
    3        1.563980   1.000000
    4        1.563980   1.000000
    5        5.205025   0.000000
    6        5.600690   0.000000
    7        8.020925   0.000000
    8        8.020925   0.000000
 
  0.2631579E+00  0.2105263E+00  0.0000000E+00  0.3499052E-02
    1       -7.930477   1.000000
    2       -0.569101   1.000000
    3        1.399558   1.000000
    4        1.429068   1.000000
    5        5.118427   0.000000
    6        5.679033   0.000000
    7        8.158534   0.000000
    8        8.311006   0.000000
 
  0.3157895E+00  0.2105263E+00  0.0000000E+00  0.3499052E-02
    1       -7.791038   1.000000
    2       -0.983657   1.000000
    3        1.183984   1.000000
    4        1.323284   1.000000
    5        5.113946   0.000000
    6        5.823516   0.000000
    7        8.034404   0.000000
    8        8.493710   0.000000
 
  0.3684211E+00  0.2105263E+00  0.0000000E+00  0.3499052E-02
    1       -7.638992   1.000000
    2       -1.389295   1.000000
    3        0.934570   1.000000
    4        1.252783   1.000000
    5        5.087938   0.000000
    6        6.148021   0.000000
    7        7.898873   0.000000
    8        8.545795   0.000000
 
  0.4210526E+00  0.2105263E+00  0.0000000E+00  0.3499052E-02
    1       -7.490245   1.000000
    2       -1.746770   1.000000
    3        0.685824   1.000000
    4        1.220961   1.000000
    5        5.045970   0.000000
    6        6.586915   0.000000
    7        7.855546   0.000000
    8        8.493676   0.000000
 
  0.4736842E+00  0.2105263E+00  0.0000000E+00  0.3499052E-02
    1       -7.365077   1.000000
    2       -2.021910   1.000000
    3        0.465119   1.000000
    4        1.229038   1.000000
    5        5.022767   0.000000
    6        6.949854   0.000000
    7        8.048581   0.000000
    8        8.384068   0.000000
 
 -0.4736842E+00  0.2105263E+00  0.0000000E+00  0.3499052E-02
    1       -7.285194   1.000000
    2       -2.184931   1.000000
    3        0.290375   1.000000
    4        1.276346   1.000000
    5        5.034962   0.000000
    6        7.099416   0.000000
    7        8.253913   0.000000
    8        8.566867   0.000000
 
 -0.4210526E+00  0.2105263E+00  0.0000000E+00  0.3499052E-02
    1       -7.267254   1.000000
    2       -2.216211   1.000000
    3        0.174012   1.000000
    4        1.360346   1.000000
    5        5.086231   0.000000
    6        7.152418   0.000000
    7        8.122123   0.000000
    8        9.180996   0.000000
 
 -0.3684211E+00  0.2105263E+00  0.0000000E+00  0.3499052E-02
    1       -7.315187   1.000000
    2       -2.114363   1.000000
    3        0.127006   1.000000
    4        1.476350   1.000000
    5        5.171370   0.000000
    6        7.202500   0.000000
    7        7.989934   0.000000
    8        9.256162   0.000000
 
 -0.3157895E+00  0.2105263E+00  0.0000000E+00  0.3499052E-02
    1       -7.418247   1.000000
    2       -1.899656   1.000000
    3        0.162103   1.000000
    4        1.617018   1.000000
    5        5.275485   0.000000
    6        7.270857   0.000000
    7        7.841239   0.000000
    8        8.669830   0.000000
 
 -0.2631579E+00  0.2105263E+00  0.0000000E+00  0.3499052E-02
    1       -7.556464   1.000000
    2       -1.609818   1.000000
    3        0.295651   1.000000
    4        1.771545   1.000000
    5        5.366745   0.000000
    6        7.319437   0.000000
    7        7.649342   0.000000
    8        8.067845   0.000000
 
 -0.2105263E+00  0.2105263E+00  0.0000000E+00  0.1749526E-02
    1       -7.708457   1.000000
    2       -1.289981   1.000000
    3        0.544398   1.000000
    4        1.924747   1.000000
    5        5.378382   0.000000
    6        7.161932   0.000000
    7        7.406738   0.000000
    8        7.812224   0.000000
 
  0.2631579E+00  0.2631579E+00  0.0000000E+00  0.8747631E-03
    1       -7.829433   1.000000
    2       -0.821213   1.000000
    3        1.284715   1.000000
    4        1.284715   1.000000
    5        4.880351   0.000000
    6        5.620488   0.000000
    7        8.697617   0.000000
    8        8.697634   0.000000
 
  0.3157895E+00  0.2631579E+00  0.0000000E+00  0.3499052E-02
    1       -7.704231   1.000000
    2       -1.139461   1.000000
    3        1.115384   1.000000
    4        1.169811   1.000000
    5        4.813842   0.000000
    6        5.568200   0.000000
    7        8.706253   0.000000
    8        8.986192   0.000000
 
  0.3684211E+00  0.2631579E+00  0.0000000E+00  0.3499052E-02
    1       -7.564975   1.000000
    2       -1.466581   1.000000
    3        0.867920   1.000000
    4        1.091059   1.000000
    5        4.848808   0.000000
    6        5.668659   0.000000
    7        8.548057   0.000000
    8        9.126675   0.000000
 
  0.4210526E+00  0.2631579E+00  0.0000000E+00  0.3499052E-02
    1       -7.425732   1.000000
    2       -1.762470   1.000000
    3        0.579508   1.000000
    4        1.052286   1.000000
    5        4.865287   0.000000
    6        6.019432   0.000000
    7        8.402804   0.000000
    8        9.125709   0.000000
 
  0.4736842E+00  0.2631579E+00  0.0000000E+00  0.3499052E-02
    1       -7.304337   1.000000
    2       -1.996118   1.000000
    3        0.297834   1.000000
    4        1.055095   1.000000
    5        4.870374   0.000000
    6        6.556368   0.000000
    7        8.305695   0.000000
    8        9.031616   0.000000
 
 -0.4736842E+00  0.2631579E+00  0.0000000E+00  0.3499052E-02
    1       -7.220211   1.000000
    2       -2.142312   1.000000
    3        0.058636   1.000000
    4        1.099172   1.000000
    5        4.902023   0.000000
    6        7.148864   0.000000
    7        8.316331   0.000000
    8        8.890460   0.000000
 
 -0.4210526E+00  0.2631579E+00  0.0000000E+00  0.3499052E-02
    1       -7.189353   1.000000
    2       -2.185239   1.000000
    3       -0.112997   1.000000
    4        1.182311   1.000000
    5        4.974347   0.000000
    6        7.575096   0.000000
    7        8.591705   0.000000
    8        8.726203   0.000000
 
 -0.3684211E+00  0.2631579E+00  0.0000000E+00  0.3499052E-02
    1       -7.217986   1.000000
    2       -2.125846   1.000000
    3       -0.195980   1.000000
    4        1.300145   1.000000
    5        5.085672   0.000000
    6        7.732511   0.000000
    7        8.538324   0.000000
    8        8.993570   0.000000
 
 -0.3157895E+00  0.2631579E+00  0.0000000E+00  0.3499052E-02
    1       -7.299763   1.000000
    2       -1.986109   1.000000
    3       -0.168094   1.000000
    4        1.445573   1.000000
    5        5.220911   0.000000
    6        7.796399   0.000000
    7        8.304237   0.000000
    8        8.616667   0.000000
 
 -0.2631579E+00  0.2631579E+00  0.0000000E+00  0.1749526E-02
    1       -7.418908   1.000000
    2       -1.802992   1.000000
    3       -0.007284   1.000000
    4        1.607860   1.000000
    5        5.342489   0.000000
    6        7.747561   0.000000
    7        8.000682   0.000000
    8        8.079134   0.000000
 
  0.3157895E+00  0.3157895E+00  0.0000000E+00  0.8747631E-03
    1       -7.594575   1.000000
    2       -1.378188   1.000000
    3        1.045071   1.000000
    4        1.045071   1.000000
    5        4.596389   0.000000
    6        5.369798   0.000000
    7        9.408895   0.000000
    8        9.409367   0.000000
 
  0.3684211E+00  0.3157895E+00  0.0000000E+00  0.3499052E-02
    1       -7.471166   1.000000
    2       -1.638765   1.000000
    3        0.881664   1.000000
    4        0.956485   1.000000
    5        4.560895   0.000000
    6        5.286383   0.000000
    7        9.397828   0.000000
    8        9.683251   0.000000
 
  0.4210526E+00  0.3157895E+00  0.0000000E+00  0.3499052E-02
    1       -7.346538   1.000000
    2       -1.876132   1.000000
    3        0.618001   1.000000
    4        0.908427   1.000000
    5        4.620160   0.000000
    6        5.425116   0.000000
    7        9.248610   0.000000
    8        9.775667   0.000000
 
  0.4736842E+00  0.3157895E+00  0.0000000E+00  0.3499052E-02
    1       -7.236175   1.000000
    2       -2.059910   1.000000
    3        0.308986   1.000000
    4        0.902962   1.000000
    5        4.663594   0.000000
    6        5.842793   0.000000
    7        9.107931   0.000000
    8        9.722786   0.000000
 
 -0.4736842E+00  0.3157895E+00  0.0000000E+00  0.3499052E-02
    1       -7.156730   1.000000
    2       -2.170346   1.000000
    3        0.014817   1.000000
    4        0.940214   1.000000
    5        4.711573   0.000000
    6        6.453541   0.000000
    7        8.998772   0.000000
    8        9.580307   0.000000
 
 -0.4210526E+00  0.3157895E+00  0.0000000E+00  0.3499052E-02
    1       -7.121958   1.000000
    2       -2.199977   1.000000
    3       -0.217412   1.000000
    4        1.018417   1.000000
    5        4.794910   0.000000
    6        7.157876   0.000000
    7        8.943496   0.000000
    8        9.377848   0.000000
 
 -0.3684211E+00  0.3157895E+00  0.0000000E+00  0.3499052E-02
    1       -7.138040   1.000000
    2       -2.159053   1.000000
    3       -0.348131   1.000000
    4        1.133685   1.000000
    5        4.919327   0.000000
    6        7.822923   0.000000
    7        8.970186   0.000000
    8        9.109277   0.000000
 
 -0.3157895E+00  0.3157895E+00  0.0000000E+00  0.1749526E-02
    1       -7.201231   1.000000
    2       -2.076719   1.000000
    3       -0.340148   1.000000
    4        1.279461   1.000000
    5        5.073200   0.000000
    6        8.148563   0.000000
    7        8.748756   0.000000
    8        8.778522   0.000000
 
  0.3684211E+00  0.3684211E+00  0.0000000E+00  0.8747631E-03
    1       -7.365942   1.000000
    2       -1.846860   1.000000
    3        0.857350   1.000000
    4        0.857351   1.000000
    5        4.377309   0.000000
    6        5.062119   0.000000
    7       10.126930   0.000000
    8       10.128159   0.000000
 
  0.4210526E+00  0.3684211E+00  0.0000000E+00  0.3499052E-02
    1       -7.260476   1.000000
    2       -2.039048   1.000000
    3        0.708744   1.000000
    4        0.798689   1.000000
    5        4.374588   0.000000
    6        5.013734   0.000000
    7       10.145330   0.000000
    8       10.370266   0.000000
 
  0.4736842E+00  0.3684211E+00  0.0000000E+00  0.3499052E-02
    1       -7.168158   1.000000
    2       -2.181474   1.000000
    3        0.445938   1.000000
    4        0.783086   1.000000
    5        4.455633   0.000000
    6        5.225804   0.000000
    7       10.008712   0.000000
    8       10.400360   0.000000
 