 running on   48 total cores
 distrk:  each k-point on   12 cores,    4 groups
 distr:  one band on   12 cores,    1 groups
 using from now: INCAR     
 vasp.5.4.4.18Apr17-6-g9f103f2a35 (build Nov 04 2020 14:40:39) complex          
  
 POSCAR found type information on POSCAR  Al As
 POSCAR found :  2 types and       2 ions
 scaLAPACK will be used

 ----------------------------------------------------------------------------- 
|                                                                             |
|           W    W    AA    RRRRR   N    N  II  N    N   GGGG   !!!           |
|           W    W   A  A   R    R  NN   N  II  NN   N  G    G  !!!           |
|           W    W  A    A  R    R  N N  N  II  N N  N  G       !!!           |
|           W WW W  AAAAAA  RRRRR   N  N N  II  N  N N  G  GGG   !            |
|           WW  WW  A    A  R   R   N   NN  II  N   NN  G    G                |
|           W    W  A    A  R    R  N    N  II  N    N   GGGG   !!!           |
|                                                                             |
|      You have enabled k-point parallelism (KPAR>1).                         |
|      This developmental code was originally  written by Paul Kent at ORNL,  |
|      and carefully double checked in Vienna.                                |
|      GW as well as linear response parallelism added by Martijn Marsman     |
|      and Georg Kresse.                                                      |
|      Carefully verify results versus KPAR=1.                                |
|      Report problems to Paul Kent and Vienna.                               |
|                                                                             |
 ----------------------------------------------------------------------------- 

 LDA part: xc-table for Pade appr. of Perdew
 POSCAR found type information on POSCAR  Al As
 POSCAR found :  2 types and       2 ions
 generate k-points for:   19   19   19
 POSCAR, INCAR and KPOINTS ok, starting setup
 FFT: planning ...
 WAVECAR not read
 entering main loop
       N       E                     dE             d eps       ncg     rms          rms(c)
DAV:   1     0.139082527548E+02    0.13908E+02   -0.29345E+03  3528   0.730E+02
DAV:   2    -0.869033883186E+01   -0.22599E+02   -0.22222E+02  4800   0.858E+01
DAV:   3    -0.937030578244E+01   -0.67997E+00   -0.67997E+00  4480   0.196E+01
DAV:   4    -0.937374992837E+01   -0.34441E-02   -0.34441E-02  5480   0.155E+00
DAV:   5    -0.937376146351E+01   -0.11535E-04   -0.11535E-04  4632   0.732E-02    0.246E+00
RMM:   6    -0.919955981737E+01    0.17420E+00   -0.21960E-01  3529   0.234E+00    0.133E+00
RMM:   7    -0.917976658052E+01    0.19793E-01   -0.87676E-02  3725   0.159E+00    0.494E-01
RMM:   8    -0.918036054046E+01   -0.59396E-03   -0.58572E-03  3746   0.623E-01    0.456E-02
RMM:   9    -0.918066150240E+01   -0.30096E-03   -0.48309E-04  4064   0.150E-01    0.264E-02
RMM:  10    -0.918071265662E+01   -0.51154E-04   -0.11273E-04  3881   0.759E-02    0.503E-03
RMM:  11    -0.918071711731E+01   -0.44607E-05   -0.17759E-05  4178   0.246E-02    0.556E-03
RMM:  12    -0.918071501023E+01    0.21071E-05   -0.48708E-06  4054   0.114E-02    0.503E-04
RMM:  13    -0.918071513625E+01   -0.12601E-06   -0.87161E-08  2494   0.245E-03
   1 F= -.91807151E+01 E0= -.91807151E+01  d E =0.000000E+00
