unknown system                          
           1
     0.000000    3.012102    3.012102
     3.012102    0.000000    3.012102
     3.012102    3.012102    0.000000
   Al   As
   1   1
Direct configuration=     1
   0.00000000  0.00000000  0.00000000
   0.75000000  0.75000000  0.75000000
