   3   3   0   0
  0.2571035E+02  0.4778022E-09  0.4778022E-09  0.4778022E-09  0.5000000E-15
  1.000000000000000E-004
  CAR
 unknown system
     13.33649172    -33.06897625  301      8.99324327      1.00000000
    -33.069  0.0000E+00  0.0000E+00
    -32.914  0.0000E+00  0.0000E+00
    -32.760  0.0000E+00  0.0000E+00
    -32.605  0.0000E+00  0.0000E+00
    -32.450  0.0000E+00  0.0000E+00
    -32.296  0.0000E+00  0.0000E+00
    -32.141  0.0000E+00  0.0000E+00
    -31.986  0.0000E+00  0.0000E+00
    -31.831  0.0000E+00  0.0000E+00
    -31.677  0.0000E+00  0.0000E+00
    -31.522  0.0000E+00  0.0000E+00
    -31.367  0.0000E+00  0.0000E+00
    -31.213  0.0000E+00  0.0000E+00
    -31.058  0.0000E+00  0.0000E+00
    -30.903  0.1293E+02  0.2000E+01
    -30.749  0.0000E+00  0.2000E+01
    -30.594  0.0000E+00  0.2000E+01
    -30.439  0.0000E+00  0.2000E+01
    -30.285  0.0000E+00  0.2000E+01
    -30.130  0.0000E+00  0.2000E+01
    -29.975  0.0000E+00  0.2000E+01
    -29.821  0.0000E+00  0.2000E+01
    -29.666  0.0000E+00  0.2000E+01
    -29.511  0.0000E+00  0.2000E+01
    -29.357  0.0000E+00  0.2000E+01
    -29.202  0.0000E+00  0.2000E+01
    -29.047  0.0000E+00  0.2000E+01
    -28.892  0.0000E+00  0.2000E+01
    -28.738  0.0000E+00  0.2000E+01
    -28.583  0.0000E+00  0.2000E+01
    -28.428  0.0000E+00  0.2000E+01
    -28.274  0.0000E+00  0.2000E+01
    -28.119  0.0000E+00  0.2000E+01
    -27.964  0.0000E+00  0.2000E+01
    -27.810  0.0000E+00  0.2000E+01
    -27.655  0.0000E+00  0.2000E+01
    -27.500  0.0000E+00  0.2000E+01
    -27.346  0.0000E+00  0.2000E+01
    -27.191  0.0000E+00  0.2000E+01
    -27.036  0.0000E+00  0.2000E+01
    -26.882  0.0000E+00  0.2000E+01
    -26.727  0.0000E+00  0.2000E+01
    -26.572  0.0000E+00  0.2000E+01
    -26.418  0.0000E+00  0.2000E+01
    -26.263  0.0000E+00  0.2000E+01
    -26.108  0.0000E+00  0.2000E+01
    -25.953  0.0000E+00  0.2000E+01
    -25.799  0.0000E+00  0.2000E+01
    -25.644  0.0000E+00  0.2000E+01
    -25.489  0.0000E+00  0.2000E+01
    -25.335  0.0000E+00  0.2000E+01
    -25.180  0.0000E+00  0.2000E+01
    -25.025  0.0000E+00  0.2000E+01
    -24.871  0.0000E+00  0.2000E+01
    -24.716  0.0000E+00  0.2000E+01
    -24.561  0.0000E+00  0.2000E+01
    -24.407  0.0000E+00  0.2000E+01
    -24.252  0.0000E+00  0.2000E+01
    -24.097  0.0000E+00  0.2000E+01
    -23.943  0.0000E+00  0.2000E+01
    -23.788  0.0000E+00  0.2000E+01
    -23.633  0.0000E+00  0.2000E+01
    -23.479  0.0000E+00  0.2000E+01
    -23.324  0.0000E+00  0.2000E+01
    -23.169  0.0000E+00  0.2000E+01
    -23.014  0.0000E+00  0.2000E+01
    -22.860  0.0000E+00  0.2000E+01
    -22.705  0.0000E+00  0.2000E+01
    -22.550  0.0000E+00  0.2000E+01
    -22.396  0.0000E+00  0.2000E+01
    -22.241  0.0000E+00  0.2000E+01
    -22.086  0.0000E+00  0.2000E+01
    -21.932  0.0000E+00  0.2000E+01
    -21.777  0.0000E+00  0.2000E+01
    -21.622  0.0000E+00  0.2000E+01
    -21.468  0.0000E+00  0.2000E+01
    -21.313  0.0000E+00  0.2000E+01
    -21.158  0.0000E+00  0.2000E+01
    -21.004  0.0000E+00  0.2000E+01
    -20.849  0.0000E+00  0.2000E+01
    -20.694  0.0000E+00  0.2000E+01
    -20.539  0.0000E+00  0.2000E+01
    -20.385  0.0000E+00  0.2000E+01
    -20.230  0.0000E+00  0.2000E+01
    -20.075  0.0000E+00  0.2000E+01
    -19.921  0.0000E+00  0.2000E+01
    -19.766  0.0000E+00  0.2000E+01
    -19.611  0.0000E+00  0.2000E+01
    -19.457  0.0000E+00  0.2000E+01
    -19.302  0.0000E+00  0.2000E+01
    -19.147  0.0000E+00  0.2000E+01
    -18.993  0.0000E+00  0.2000E+01
    -18.838  0.0000E+00  0.2000E+01
    -18.683  0.0000E+00  0.2000E+01
    -18.529  0.0000E+00  0.2000E+01
    -18.374  0.0000E+00  0.2000E+01
    -18.219  0.0000E+00  0.2000E+01
    -18.065  0.0000E+00  0.2000E+01
    -17.910  0.0000E+00  0.2000E+01
    -17.755  0.0000E+00  0.2000E+01
    -17.600  0.0000E+00  0.2000E+01
    -17.446  0.0000E+00  0.2000E+01
    -17.291  0.0000E+00  0.2000E+01
    -17.136  0.0000E+00  0.2000E+01
    -16.982  0.0000E+00  0.2000E+01
    -16.827  0.0000E+00  0.2000E+01
    -16.672  0.0000E+00  0.2000E+01
    -16.518  0.0000E+00  0.2000E+01
    -16.363  0.0000E+00  0.2000E+01
    -16.208  0.0000E+00  0.2000E+01
    -16.054  0.0000E+00  0.2000E+01
    -15.899  0.0000E+00  0.2000E+01
    -15.744  0.0000E+00  0.2000E+01
    -15.590  0.0000E+00  0.2000E+01
    -15.435  0.0000E+00  0.2000E+01
    -15.280  0.0000E+00  0.2000E+01
    -15.126  0.0000E+00  0.2000E+01
    -14.971  0.0000E+00  0.2000E+01
    -14.816  0.0000E+00  0.2000E+01
    -14.661  0.0000E+00  0.2000E+01
    -14.507  0.0000E+00  0.2000E+01
    -14.352  0.0000E+00  0.2000E+01
    -14.197  0.0000E+00  0.2000E+01
    -14.043  0.2591E+02  0.6008E+01
    -13.888  0.0000E+00  0.1200E+02
    -13.733  0.0000E+00  0.1200E+02
    -13.579  0.0000E+00  0.1200E+02
    -13.424  0.0000E+00  0.1200E+02
    -13.269  0.0000E+00  0.1200E+02
    -13.115  0.0000E+00  0.1200E+02
    -12.960  0.0000E+00  0.1200E+02
    -12.805  0.0000E+00  0.1200E+02
    -12.651  0.0000E+00  0.1200E+02
    -12.496  0.0000E+00  0.1200E+02
    -12.341  0.0000E+00  0.1200E+02
    -12.187  0.0000E+00  0.1200E+02
    -12.032  0.0000E+00  0.1200E+02
    -11.877  0.0000E+00  0.1200E+02
    -11.722  0.0000E+00  0.1200E+02
    -11.568  0.0000E+00  0.1200E+02
    -11.413  0.0000E+00  0.1200E+02
    -11.258  0.0000E+00  0.1200E+02
    -11.104  0.0000E+00  0.1200E+02
    -10.949  0.0000E+00  0.1200E+02
    -10.794  0.0000E+00  0.1200E+02
    -10.640  0.0000E+00  0.1200E+02
    -10.485  0.0000E+00  0.1200E+02
    -10.330  0.0000E+00  0.1200E+02
    -10.176  0.0000E+00  0.1200E+02
    -10.021  0.0000E+00  0.1200E+02
     -9.866  0.0000E+00  0.1200E+02
     -9.712  0.0000E+00  0.1200E+02
     -9.557  0.0000E+00  0.1200E+02
     -9.402  0.0000E+00  0.1200E+02
     -9.248  0.2050E+01  0.1232E+02
     -9.093  0.3559E+01  0.1424E+02
     -8.938  0.1252E+02  0.1800E+02
     -8.783  0.0000E+00  0.1800E+02
     -8.629  0.0000E+00  0.1800E+02
     -8.474  0.0000E+00  0.1800E+02
     -8.319  0.0000E+00  0.1800E+02
     -8.165  0.0000E+00  0.1800E+02
     -8.010  0.0000E+00  0.1800E+02
     -7.855  0.0000E+00  0.1800E+02
     -7.701  0.0000E+00  0.1800E+02
     -7.546  0.0000E+00  0.1800E+02
     -7.391  0.0000E+00  0.1800E+02
     -7.237  0.0000E+00  0.1800E+02
     -7.082  0.0000E+00  0.1800E+02
     -6.927  0.0000E+00  0.1800E+02
     -6.773  0.0000E+00  0.1800E+02
     -6.618  0.0000E+00  0.1800E+02
     -6.463  0.0000E+00  0.1800E+02
     -6.308  0.0000E+00  0.1800E+02
     -6.154  0.0000E+00  0.1800E+02
     -5.999  0.0000E+00  0.1800E+02
     -5.844  0.0000E+00  0.1800E+02
     -5.690  0.0000E+00  0.1800E+02
     -5.535  0.0000E+00  0.1800E+02
     -5.380  0.0000E+00  0.1800E+02
     -5.226  0.0000E+00  0.1800E+02
     -5.071  0.0000E+00  0.1800E+02
     -4.916  0.0000E+00  0.1800E+02
     -4.762  0.0000E+00  0.1800E+02
     -4.607  0.0000E+00  0.1800E+02
     -4.452  0.0000E+00  0.1800E+02
     -4.298  0.0000E+00  0.1800E+02
     -4.143  0.0000E+00  0.1800E+02
     -3.988  0.0000E+00  0.1800E+02
     -3.834  0.0000E+00  0.1800E+02
     -3.679  0.0000E+00  0.1800E+02
     -3.524  0.2152E-11  0.1800E+02
     -3.369  0.8233E-01  0.1801E+02
     -3.215  0.1774E+00  0.1805E+02
     -3.060  0.2825E+00  0.1810E+02
     -2.905  0.8914E-01  0.1816E+02
     -2.751  0.1126E+01  0.1841E+02
     -2.596  0.2629E+01  0.1912E+02
     -2.441  0.1966E+01  0.1983E+02
     -2.287  0.3279E+00  0.2000E+02
     -2.132  0.0000E+00  0.2000E+02
     -1.977  0.0000E+00  0.2000E+02
     -1.823  0.0000E+00  0.2000E+02
     -1.668  0.0000E+00  0.2000E+02
     -1.513  0.0000E+00  0.2000E+02
     -1.359  0.0000E+00  0.2000E+02
     -1.204  0.0000E+00  0.2000E+02
     -1.049  0.0000E+00  0.2000E+02
     -0.895  0.0000E+00  0.2000E+02
     -0.740  0.0000E+00  0.2000E+02
     -0.585  0.0000E+00  0.2000E+02
     -0.430  0.0000E+00  0.2000E+02
     -0.276  0.0000E+00  0.2000E+02
     -0.121  0.0000E+00  0.2000E+02
      0.034  0.0000E+00  0.2000E+02
      0.188  0.0000E+00  0.2000E+02
      0.343  0.0000E+00  0.2000E+02
      0.498  0.0000E+00  0.2000E+02
      0.652  0.0000E+00  0.2000E+02
      0.807  0.0000E+00  0.2000E+02
      0.962  0.0000E+00  0.2000E+02
      1.116  0.0000E+00  0.2000E+02
      1.271  0.0000E+00  0.2000E+02
      1.426  0.0000E+00  0.2000E+02
      1.580  0.0000E+00  0.2000E+02
      1.735  0.0000E+00  0.2000E+02
      1.890  0.0000E+00  0.2000E+02
      2.044  0.0000E+00  0.2000E+02
      2.199  0.0000E+00  0.2000E+02
      2.354  0.0000E+00  0.2000E+02
      2.509  0.0000E+00  0.2000E+02
      2.663  0.0000E+00  0.2000E+02
      2.818  0.1800E+00  0.2003E+02
      2.973  0.3428E+00  0.2013E+02
      3.127  0.2118E+01  0.2069E+02
      3.282  0.1516E+01  0.2108E+02
      3.437  0.9539E+00  0.2128E+02
      3.591  0.4239E+00  0.2150E+02
      3.746  0.1858E+01  0.2183E+02
      3.901  0.4000E+01  0.2297E+02
      4.055  0.2852E+01  0.2388E+02
      4.210  0.2540E+01  0.2467E+02
      4.365  0.2649E+01  0.2547E+02
      4.519  0.9470E+00  0.2591E+02
      4.674  0.1416E+00  0.2607E+02
      4.829  0.4668E+01  0.2684E+02
      4.984  0.3308E+01  0.2842E+02
      5.138  0.4484E+01  0.2983E+02
      5.293  0.1286E+01  0.3039E+02
      5.448  0.2080E+01  0.3091E+02
      5.602  0.1770E+01  0.3139E+02
      5.757  0.6816E+00  0.3166E+02
      5.912  0.8849E+00  0.3188E+02
      6.066  0.2850E+00  0.3204E+02
      6.221  0.1691E+01  0.3234E+02
      6.376  0.6307E+00  0.3254E+02
      6.530  0.7227E+00  0.3278E+02
      6.685  0.4029E+00  0.3311E+02
      6.840  0.1239E+01  0.3336E+02
      6.994  0.7064E+00  0.3359E+02
      7.149  0.1260E+01  0.3385E+02
      7.304  0.3895E+01  0.3523E+02
      7.458  0.1333E+01  0.3584E+02
      7.613  0.2440E+00  0.3596E+02
      7.768  0.1647E+00  0.3600E+02
      7.923  0.0000E+00  0.3600E+02
      8.077  0.8377E-12  0.3600E+02
      8.232  0.9409E-16  0.3601E+02
      8.387  0.7946E-01  0.3603E+02
      8.541  0.1755E+00  0.3606E+02
      8.696  0.1055E+01  0.3623E+02
      8.851  0.1049E+01  0.3647E+02
      9.005  0.2201E+01  0.3705E+02
      9.160  0.7400E+00  0.3749E+02
      9.315  0.1537E+01  0.3792E+02
      9.469  0.5653E+00  0.3812E+02
      9.624  0.2531E+00  0.3828E+02
      9.779  0.2812E+00  0.3836E+02
      9.933  0.7111E+00  0.3865E+02
     10.088  0.2102E+01  0.3921E+02
     10.243  0.1872E+01  0.3987E+02
     10.397  0.1772E+01  0.4051E+02
     10.552  0.1780E+01  0.4098E+02
     10.707  0.4163E+01  0.4198E+02
     10.862  0.3934E+01  0.4326E+02
     11.016  0.1053E+02  0.4581E+02
     11.171  0.5851E+01  0.4710E+02
     11.326  0.0000E+00  0.4800E+02
     11.480  0.0000E+00  0.4800E+02
     11.635  0.0000E+00  0.4800E+02
     11.790  0.0000E+00  0.4800E+02
     11.944  0.0000E+00  0.4800E+02
     12.099  0.0000E+00  0.4800E+02
     12.254  0.0000E+00  0.4800E+02
     12.408  0.0000E+00  0.4800E+02
     12.563  0.0000E+00  0.4800E+02
     12.718  0.0000E+00  0.4800E+02
     12.872  0.0000E+00  0.4800E+02
     13.027  0.0000E+00  0.4800E+02
     13.182  0.0000E+00  0.4800E+02
     13.336  0.0000E+00  0.4800E+02
