 vasp.6.0.8 29Jun18 (build Jun 13 2019 12:54:44) complex

 executed on      IFC18_CrayMPICH date 2021.12.05  14:21:47
 running   64 mpi-ranks, with    1 threads/rank
 distrk:  each k-point on   16 cores,    4 groups
 distr:  one band on NCORES_PER_BAND=   4 cores,    4 groups


--------------------------------------------------------------------------------------------------------


 INCAR:
 POTCAR:    PAW_PBE Th 07Sep2000
 POTCAR:    PAW_PBE Bi_d 06Sep2000
 POTCAR:    PAW_PBE Pt 04Feb2005
 POTCAR:    PAW_PBE Th 07Sep2000
   VRHFIN =Th:  [Xe,5d,4f]
   LEXCH  = PE
   EATOM  =   984.7553 eV,   72.3775 Ry

   TITEL  = PAW_PBE Th 07Sep2000
   LULTRA =        F    use ultrasoft PP ?
   IUNSCR =        1    unscreen: 0-lin 1-nonlin 2-no
   RPACOR =    2.200    partial core radius
   POMASS =  232.039; ZVAL   =   12.000    mass and valenz
   RCORE  =    2.800    outmost cutoff radius
   RWIGS  =    3.000; RWIGS  =    1.588    wigner-seitz radius (au A)
   ENMAX  =  247.306; ENMIN  =  185.480 eV
   RCLOC  =    2.211    cutoff for local pot
   LCOR   =        T    correct aug charges
   LPAW   =        T    paw PP
   EAUG   =  535.431
   DEXC   =    0.000
   RMAX   =    2.862    core radius for proj-oper
   RAUG   =    1.300    factor for augmentation sphere
   RDEP   =    2.926    radius for radial grids
   RDEPT  =    2.250    core radius for aug-charge

   Atomic configuration
   18 entries
     n  l   j            E        occ.
     1  0  0.50   -109990.1879   2.0000
     2  0  0.50    -20388.0147   2.0000
     2  1  1.50    -17049.6156   6.0000
     3  0  0.50     -5106.5436   2.0000
     3  1  1.50     -4175.1262   6.0000
     3  2  2.50     -3342.8437  10.0000
     4  0  0.50     -1280.8211   2.0000
     4  1  1.50      -976.4859   6.0000
     4  2  2.50      -661.8358  10.0000
     4  3  3.50      -324.9124  14.0000
     5  0  0.50      -278.7726   2.0000
     5  1  1.50      -186.2212   6.0000
     5  2  2.50       -86.9031  10.0000
     6  0  0.50       -43.3059   2.0000
     7  0  0.50        -4.0783   2.0000
     6  1  1.50       -21.4071   6.0000
     6  2  1.50        -2.3664   1.0000
     5  3  2.50        -1.2804   1.0000
   Description
     l       E           TYP  RCUT    TYP  RCUT
     0    -43.3059201     23  2.800
     0     -4.0782900     23  2.800
     1    -21.4071032     23  2.500
     1    -22.7676858     23  2.500
     2     -2.3664170     23  2.500
     2      3.0546543     23  2.500
     3     -1.2803910     23  2.800
     3      0.1360583     23  2.800
  local pseudopotential read in
  partial core-charges read in
  partial kinetic energy density read in
  atomic valenz-charges read in
  non local Contribution for L=           0  read in
    real space projection operators read in
  non local Contribution for L=           0  read in
    real space projection operators read in
  non local Contribution for L=           1  read in
    real space projection operators read in
  non local Contribution for L=           1  read in
    real space projection operators read in
  non local Contribution for L=           2  read in
    real space projection operators read in
  non local Contribution for L=           2  read in
    real space projection operators read in
  non local Contribution for L=           3  read in
    real space projection operators read in
  non local Contribution for L=           3  read in
    real space projection operators read in
    PAW grid and wavefunctions read in

   number of l-projection  operators is LMAX  =           8
   number of lm-projection operators is LMMAX =          32

 POTCAR:    PAW_PBE Bi_d 06Sep2000
   VRHFIN =Bi:
   LEXCH  = PE
   EATOM  =  1959.2045 eV,  143.9975 Ry

   TITEL  = PAW_PBE Bi_d 06Sep2000
   LULTRA =        F    use ultrasoft PP ?
   IUNSCR =        1    unscreen: 0-lin 1-nonlin 2-no
   RPACOR =    2.200    partial core radius
   POMASS =  208.980; ZVAL   =   15.000    mass and valenz
   RCORE  =    2.500    outmost cutoff radius
   RWIGS  =    3.090; RWIGS  =    1.635    wigner-seitz radius (au A)
   ENMAX  =  242.839; ENMIN  =  182.129 eV
   ICORE  =        3    local potential
   LCOR   =        T    correct aug charges
   LPAW   =        T    paw PP
   EAUG   =  442.899
   DEXC   =    0.000
   RMAX   =    2.551    core radius for proj-oper
   RAUG   =    1.300    factor for augmentation sphere
   RDEP   =    2.650    radius for radial grids
   RDEPT  =    2.039    core radius for aug-charge

   Atomic configuration
   16 entries
     n  l   j            E        occ.
     1  0  0.50    -90639.6581   2.0000
     2  0  0.50    -16282.4666   2.0000
     2  1  1.50    -13922.8286   6.0000
     3  0  0.50     -3930.4763   2.0000
     3  1  1.50     -3256.7013   6.0000
     3  2  2.50     -2581.6168  10.0000
     4  0  0.50      -902.2614   2.0000
     4  1  1.50      -681.5915   6.0000
     4  2  2.50      -429.8249  10.0000
     4  3  3.50      -152.6004  14.0000
     5  0  0.50      -157.7156   2.0000
     5  1  1.50       -95.8054   6.0000
     5  2  2.50       -27.0806  10.0000
     6  0  0.50       -14.4732   2.0000
     6  1  1.50        -4.5702   3.0000
     5  3  2.50        -2.7212   0.0000
   Description
     l       E           TYP  RCUT    TYP  RCUT
     2    -27.0805982     23  2.500
     2     -1.3605826     23  2.500
     0    -14.4732271     23  2.500
     0      6.8029130     23  2.500
     1     -4.5701651     23  2.500
     1     13.6058260     23  2.500
     3     -1.3605826      7  2.500
  local pseudopotential read in
  partial core-charges read in
  partial kinetic energy density read in
  atomic valenz-charges read in
  non local Contribution for L=           2  read in
    real space projection operators read in
  non local Contribution for L=           2  read in
    real space projection operators read in
  non local Contribution for L=           0  read in
    real space projection operators read in
  non local Contribution for L=           0  read in
    real space projection operators read in
  non local Contribution for L=           1  read in
    real space projection operators read in
  non local Contribution for L=           1  read in
    real space projection operators read in
    PAW grid and wavefunctions read in

   number of l-projection  operators is LMAX  =           6
   number of lm-projection operators is LMMAX =          18

 POTCAR:    PAW_PBE Pt 04Feb2005
   VRHFIN =Pt: s1d9
   LEXCH  = PE
   EATOM  =   729.1176 eV,   53.5886 Ry

   TITEL  = PAW_PBE Pt 04Feb2005
   LULTRA =        F    use ultrasoft PP ?
   IUNSCR =        1    unscreen: 0-lin 1-nonlin 2-no
   RPACOR =    2.330    partial core radius
   POMASS =  195.080; ZVAL   =   10.000    mass and valenz
   RCORE  =    2.600    outmost cutoff radius
   RWIGS  =    2.750; RWIGS  =    1.455    wigner-seitz radius (au A)
   ENMAX  =  230.283; ENMIN  =  172.712 eV
   ICORE  =        3    local potential
   LCOR   =        T    correct aug charges
   LPAW   =        T    paw PP
   EAUG   =  358.966
   DEXC   =    0.000
   RMAX   =    2.658    core radius for proj-oper
   RAUG   =    1.300    factor for augmentation sphere
   RDEP   =    2.761    radius for radial grids
   RDEPT  =    2.203    core radius for aug-charge

   Atomic configuration
   16 entries
     n  l   j            E        occ.
     1  0  0.50    -78401.1885   2.0000
     2  0  0.50    -13770.7750   2.0000
     2  1  1.50    -11931.0468   6.0000
     3  0  0.50     -3234.7234   2.0000
     3  1  1.50     -2699.2216   6.0000
     3  2  2.50     -2119.5714  10.0000
     4  0  0.50      -695.1528   2.0000
     4  1  1.50      -519.6034   6.0000
     4  2  2.50      -306.6786  10.0000
     4  3  3.50       -70.1041  14.0000
     5  0  0.50      -101.7747   2.0000
     5  1  1.50       -55.9873   6.0000
     5  2  2.50        -6.1423   9.0000
     6  0  0.50        -5.6573   1.0000
     6  1  1.50        -6.8029   0.0000
     5  3  2.50        -1.3606   0.0000
   Description
     l       E           TYP  RCUT    TYP  RCUT
     2     -6.1423404     23  2.500
     2     -7.5029230     23  2.500
     0     -5.6573207     23  2.500
     0      0.7416693     23  2.500
     1     -2.7211652     23  2.600
     1     20.4087390     23  2.600
     3     -1.3605826     23  2.500
  local pseudopotential read in
  partial core-charges read in
  partial kinetic energy density read in
  atomic valenz-charges read in
  non local Contribution for L=           2  read in
    real space projection operators read in
  non local Contribution for L=           2  read in
    real space projection operators read in
  non local Contribution for L=           0  read in
    real space projection operators read in
  non local Contribution for L=           0  read in
    real space projection operators read in
  non local Contribution for L=           1  read in
    real space projection operators read in
  non local Contribution for L=           1  read in
    real space projection operators read in
    PAW grid and wavefunctions read in

   number of l-projection  operators is LMAX  =           6
   number of lm-projection operators is LMMAX =          18

 WARNING: PSMAXN for non-local potential too small
          PSMAXN should be >   13.5545592237991       NTYP=           1

 -----------------------------------------------------------------------------
|                                                                             |
|  ADVICE TO THIS USER RUNNING 'VASP/VAMP'   (HEAR YOUR MASTER'S VOICE ...):  |
|                                                                             |
|      You enforced a specific xc-type in the INCAR file,                     |
|      a different type was found on the POTCAR file                          |
|          I HOPE YOU KNOW, WHAT YOU ARE  DOING                               |
|                                                                             |
 -----------------------------------------------------------------------------

  PAW_PBE Th 07Sep2000                  :
 energy of atom  1       EATOM= -984.7553
 kinetic energy error for atom=    0.0005 (will be added to EATOM!!)
  PAW_PBE Bi_d 06Sep2000                :
 energy of atom  2       EATOM=-1959.2045
 kinetic energy error for atom=    0.0012 (will be added to EATOM!!)
  PAW_PBE Pt 04Feb2005                  :
 energy of atom  3       EATOM= -729.1176
 kinetic energy error for atom=    0.0010 (will be added to EATOM!!)


 POSCAR: Th1 Bi1 Pt1
  positions in direct lattice
  No initial velocities read in
 exchange correlation table for  LEXCH =       14
   RHO(1)=    0.500       N(1)  =     2000
   RHO(2)=  100.500       N(2)  =     4000



--------------------------------------------------------------------------------------------------------


 ion  position               nearest neighbor table
   1  0.250  0.250  0.250-   3 2.93   3 2.93   3 2.93   3 2.93   2 3.38   2 3.38   2 3.38   2 3.38
                             2 3.38   2 3.38
   2  0.750  0.750  0.750-   3 2.93   3 2.93   3 2.93   3 2.93   1 3.38   1 3.38   1 3.38   1 3.38
                             1 3.38   1 3.38
   3  0.000  0.000  0.000-   2 2.93   2 2.93   1 2.93   2 2.93   1 2.93   1 2.93   1 2.93   2 2.93


  LATTYP: Found a face centered cubic cell.
 ALAT       =     6.7571428949

  Lattice vectors:

 A1 = (   0.0000000000,   3.3785714475,   3.3785714475)
 A2 = (   3.3785714475,   0.0000000000,   3.3785714475)
 A3 = (   3.3785714475,   3.3785714475,   0.0000000000)


Analysis of symmetry for initial positions (statically):
=====================================================================
 Subroutine PRICEL returns:
 Original cell was already a primitive cell.


 Routine SETGRP: Setting up the symmetry group for a
 face centered cubic supercell.


 Subroutine GETGRP returns: Found 24 space group operations
 (whereof 24 operations were pure point group operations)
 out of a pool of 48 trial point group operations.


The static configuration has the point symmetry T_d .


Analysis of symmetry for dynamics (positions and initial velocities):
=====================================================================
 Subroutine PRICEL returns:
 Original cell was already a primitive cell.


 Routine SETGRP: Setting up the symmetry group for a
 face centered cubic supercell.


 Subroutine GETGRP returns: Found 24 space group operations
 (whereof 24 operations were pure point group operations)
 out of a pool of 48 trial point group operations.


The dynamic configuration has the point symmetry T_d .


 Subroutine INISYM returns: Found 24 space group operations
 (whereof 24 operations are pure point group operations),
 and found     1 'primitive' translations


----------------------------------------------------------------------------------------

                                     Primitive cell

  volume of cell :      77.1311

  direct lattice vectors                    reciprocal lattice vectors
     0.000000000  3.378571447  3.378571447    -0.147991543  0.147991543  0.147991543
     3.378571447  0.000000000  3.378571447     0.147991543 -0.147991543  0.147991543
     3.378571447  3.378571447  0.000000000     0.147991543  0.147991543 -0.147991543

  length of vectors
     4.778021562  4.778021562  4.778021562     0.256328871  0.256328871  0.256328871

  position of ions in fractional coordinates (direct lattice)
     0.250000000  0.250000000  0.250000000
     0.750000000  0.750000000  0.750000000
     0.000000000  0.000000000  0.000000000

  ion indices of the primitive-cell ions
   primitive index   ion index
                 1           1
                 2           2
                 3           3

----------------------------------------------------------------------------------------



 KPOINTS: KPOINTS

Automatic generation of k-mesh.
Space group operators:
 irot       det(A)        alpha          n_x          n_y          n_z        tau_x        tau_y        tau_z
    1     1.000000     0.000001     1.000000     0.000000     0.000000     0.000000     0.000000     0.000000
    2     1.000000   120.000000    -0.577350    -0.577350    -0.577350     0.000000     0.000000     0.000000
    3     1.000000   120.000000     0.577350     0.577350     0.577350     0.000000     0.000000     0.000000
    4    -1.000000    90.000000    -0.000000    -0.000000    -1.000000     0.000000     0.000000     0.000000
    5    -1.000000   179.999999     0.000000     0.707107     0.707107     0.000000     0.000000     0.000000
    6    -1.000000    90.000000    -0.000000     1.000000    -0.000000     0.000000     0.000000     0.000000
    7     1.000000   179.999999    -0.000000     0.000000     1.000000     0.000000     0.000000     0.000000
    8     1.000000   120.000000    -0.577350     0.577350     0.577350     0.000000     0.000000     0.000000
    9     1.000000   120.000000    -0.577350     0.577350    -0.577350     0.000000     0.000000     0.000000
   10    -1.000000    90.000000     0.000000     0.000000     1.000000     0.000000     0.000000     0.000000
   11    -1.000000    90.000000    -1.000000     0.000000    -0.000000     0.000000     0.000000     0.000000
   12    -1.000000   179.999999     0.707107     0.000000     0.707107     0.000000     0.000000     0.000000
   13     1.000000   120.000000     0.577350    -0.577350     0.577350     0.000000     0.000000     0.000000
   14     1.000000   120.000000    -0.577350    -0.577350     0.577350     0.000000     0.000000     0.000000
   15     1.000000   179.999999     1.000000     0.000000     0.000000     0.000000     0.000000     0.000000
   16    -1.000000    90.000000     0.000000    -1.000000     0.000000     0.000000     0.000000     0.000000
   17    -1.000000   179.999999     0.707107     0.707107    -0.000000     0.000000     0.000000     0.000000
   18    -1.000000    90.000000     1.000000     0.000000     0.000000     0.000000     0.000000     0.000000
   19     1.000000   120.000000     0.577350    -0.577350    -0.577350     0.000000     0.000000     0.000000
   20     1.000000   179.999999     0.000000    -1.000000    -0.000000     0.000000     0.000000     0.000000
   21     1.000000   120.000000     0.577350     0.577350    -0.577350     0.000000     0.000000     0.000000
   22    -1.000000   179.999999    -0.000000    -0.707107     0.707107     0.000000     0.000000     0.000000
   23    -1.000000   179.999999     0.707107    -0.707107     0.000000     0.000000     0.000000     0.000000
   24    -1.000000   179.999999    -0.707107     0.000000     0.707107     0.000000     0.000000     0.000000

 Subroutine IBZKPT returns following result:
 ===========================================

 Found     84 irreducible k-points:

 Following reciprocal coordinates:
            Coordinates               Weight
  0.000000  0.000000  0.000000      1.000000
  0.076923  0.000000 -0.000000      8.000000
  0.153846 -0.000000  0.000000      8.000000
  0.230769  0.000000 -0.000000      8.000000
  0.307692 -0.000000  0.000000      8.000000
  0.384615  0.000000 -0.000000      8.000000
  0.461538 -0.000000  0.000000      8.000000
  0.076923  0.076923  0.000000      6.000000
  0.153846  0.076923  0.000000     24.000000
  0.230769  0.076923  0.000000     24.000000
  0.307692  0.076923 -0.000000     24.000000
  0.384615  0.076923  0.000000     24.000000
  0.461538  0.076923  0.000000     24.000000
 -0.461538  0.076923  0.000000     24.000000
 -0.384615  0.076923  0.000000     24.000000
 -0.307692  0.076923  0.000000     24.000000
 -0.230769  0.076923  0.000000     24.000000
 -0.153846  0.076923  0.000000     24.000000
 -0.076923  0.076923  0.000000     12.000000
  0.153846  0.153846  0.000000      6.000000
  0.230769  0.153846  0.000000     24.000000
  0.307692  0.153846  0.000000     24.000000
  0.384615  0.153846 -0.000000     24.000000
  0.461538  0.153846 -0.000000     24.000000
 -0.461538  0.153846 -0.000000     24.000000
 -0.384615  0.153846  0.000000     24.000000
 -0.307692  0.153846 -0.000000     24.000000
 -0.230769  0.153846 -0.000000     24.000000
 -0.153846  0.153846 -0.000000     12.000000
  0.230769  0.230769  0.000000      6.000000
  0.307692  0.230769  0.000000     24.000000
  0.384615  0.230769  0.000000     24.000000
  0.461538  0.230769  0.000000     24.000000
 -0.461538  0.230769 -0.000000     24.000000
 -0.384615  0.230769 -0.000000     24.000000
 -0.307692  0.230769  0.000000     24.000000
 -0.230769  0.230769  0.000000     12.000000
  0.307692  0.307692  0.000000      6.000000
  0.384615  0.307692  0.000000     24.000000
  0.461538  0.307692  0.000000     24.000000
 -0.461538  0.307692  0.000000     24.000000
 -0.384615  0.307692  0.000000     24.000000
 -0.307692  0.307692 -0.000000     12.000000
  0.384615  0.384615  0.000000      6.000000
  0.461538  0.384615  0.000000     24.000000
 -0.461538  0.384615 -0.000000     24.000000
 -0.384615  0.384615  0.000000     12.000000
  0.461538  0.461538  0.000000      6.000000
 -0.461538  0.461538 -0.000000     12.000000
  0.230769  0.153846  0.076923     24.000000
  0.307692  0.153846  0.076923     48.000000
  0.384615  0.153846  0.076923     48.000000
  0.461538  0.153846  0.076923     48.000000
 -0.461538  0.153846  0.076923     48.000000
  0.307692  0.230769  0.076923     24.000000
  0.384615  0.230769  0.076923     48.000000
  0.461538  0.230769  0.076923     48.000000
 -0.461538  0.230769  0.076923     48.000000
 -0.384615  0.230769  0.076923     48.000000
 -0.307692  0.230769  0.076923     48.000000
 -0.230769  0.230769  0.076923     48.000000
 -0.153846  0.230769  0.076923     24.000000
  0.384615  0.307692  0.076923     24.000000
  0.461538  0.307692  0.076923     48.000000
 -0.461538  0.307692  0.076923     48.000000
 -0.384615  0.307692  0.076923     48.000000
 -0.307692  0.307692  0.076923     48.000000
 -0.230769  0.307692  0.076923     24.000000
  0.461538  0.384615  0.076923     24.000000
 -0.461538  0.384615  0.076923     48.000000
 -0.384615  0.384615  0.076923     48.000000
 -0.307692  0.384615  0.076923     24.000000
 -0.461538  0.461538  0.076923     24.000000
 -0.384615  0.461538  0.076923     24.000000
  0.461538  0.307692  0.153846     24.000000
 -0.461538  0.307692  0.153846     48.000000
 -0.384615  0.307692  0.153846     48.000000
 -0.461538  0.384615  0.153846     24.000000
 -0.384615  0.384615  0.153846     48.000000
 -0.307692  0.384615  0.153846     48.000000
 -0.230769  0.384615  0.153846     24.000000
 -0.384615  0.461538  0.153846     24.000000
 -0.307692  0.461538  0.153846     24.000000
 -0.307692  0.461538  0.230769     24.000000

 Following cartesian coordinates:
            Coordinates               Weight
  0.000000  0.000000  0.000000      1.000000
 -0.011230  0.011230  0.011230      8.000000
 -0.022460  0.022460  0.022460      8.000000
 -0.033690  0.033690  0.033690      8.000000
 -0.044920  0.044920  0.044920      8.000000
 -0.056151  0.056151  0.056151      8.000000
 -0.067381  0.067381  0.067381      8.000000
 -0.000000  0.000000  0.022460      6.000000
 -0.011230  0.011230  0.033690     24.000000
 -0.022460  0.022460  0.044920     24.000000
 -0.033690  0.033690  0.056151     24.000000
 -0.044920  0.044920  0.067381     24.000000
 -0.056151  0.056151  0.078611     24.000000
  0.078611 -0.078611 -0.056151     24.000000
  0.067381 -0.067381 -0.044920     24.000000
  0.056151 -0.056151 -0.033690     24.000000
  0.044920 -0.044920 -0.022460     24.000000
  0.033690 -0.033690 -0.011230     24.000000
  0.022460 -0.022460 -0.000000     12.000000
 -0.000000  0.000000  0.044920      6.000000
 -0.011230  0.011230  0.056151     24.000000
 -0.022460  0.022460  0.067381     24.000000
 -0.033690  0.033690  0.078611     24.000000
 -0.044920  0.044920  0.089841     24.000000
  0.089841 -0.089841 -0.044920     24.000000
  0.078611 -0.078611 -0.033690     24.000000
  0.067381 -0.067381 -0.022460     24.000000
  0.056151 -0.056151 -0.011230     24.000000
  0.044920 -0.044920  0.000000     12.000000
  0.000000  0.000000  0.067381      6.000000
 -0.011230  0.011230  0.078611     24.000000
 -0.022460  0.022460  0.089841     24.000000
 -0.033690  0.033690  0.101071     24.000000
  0.101071 -0.101071 -0.033690     24.000000
  0.089841 -0.089841 -0.022460     24.000000
  0.078611 -0.078611 -0.011230     24.000000
  0.067381 -0.067381 -0.000000     12.000000
 -0.000000  0.000000  0.089841      6.000000
 -0.011230  0.011230  0.101071     24.000000
 -0.022460  0.022460  0.112301     24.000000
  0.112301 -0.112301 -0.022460     24.000000
  0.101071 -0.101071 -0.011230     24.000000
  0.089841 -0.089841  0.000000     12.000000
 -0.000000  0.000000  0.112301      6.000000
 -0.011230  0.011230  0.123531     24.000000
  0.123531 -0.123531 -0.011230     24.000000
  0.112301 -0.112301 -0.000000     12.000000
 -0.000000  0.000000  0.134761      6.000000
  0.134761 -0.134761 -0.000000     12.000000
  0.000000  0.022460  0.044920     24.000000
 -0.011230  0.033690  0.056151     48.000000
 -0.022460  0.044920  0.067381     48.000000
 -0.033690  0.056151  0.078611     48.000000
  0.101071 -0.078611 -0.056151     48.000000
  0.000000  0.022460  0.067381     24.000000
 -0.011230  0.033690  0.078611     48.000000
 -0.022460  0.044920  0.089841     48.000000
  0.112301 -0.089841 -0.044920     48.000000
  0.101071 -0.078611 -0.033690     48.000000
  0.089841 -0.067381 -0.022460     48.000000
  0.078611 -0.056151 -0.011230     48.000000
  0.067381 -0.044920  0.000000     24.000000
  0.000000  0.022460  0.089841     24.000000
 -0.011230  0.033690  0.101071     48.000000
  0.123531 -0.101071 -0.033690     48.000000
  0.112301 -0.089841 -0.022460     48.000000
  0.101071 -0.078611 -0.011230     48.000000
  0.089841 -0.067381 -0.000000     24.000000
  0.000000  0.022460  0.112301     24.000000
  0.134761 -0.112301 -0.022460     48.000000
  0.123531 -0.101071 -0.011230     48.000000
  0.112301 -0.089841  0.000000     24.000000
  0.145991 -0.123531 -0.011230     24.000000
  0.134761 -0.112301 -0.000000     24.000000
 -0.000000  0.044920  0.089841     24.000000
  0.134761 -0.089841 -0.044920     48.000000
  0.123531 -0.078611 -0.033690     48.000000
  0.145991 -0.101071 -0.033690     24.000000
  0.134761 -0.089841 -0.022460     48.000000
  0.123531 -0.078611 -0.011230     48.000000
  0.112301 -0.067381  0.000000     24.000000
  0.145991 -0.101071 -0.011230     24.000000
  0.134761 -0.089841  0.000000     24.000000
  0.145991 -0.078611 -0.011230     24.000000



--------------------------------------------------------------------------------------------------------




 Dimension of arrays:
   k-points           NKPTS =     84   k-points in BZ     NKDIM =     84   number of bands    NBANDS=     24
   number of dos      NEDOS =    301   number of ions     NIONS =      3
   non local maximal  LDIM  =      8   non local SUM 2l+1 LMDIM =     32
   total plane-waves  NPLWV =  74088
   max r-space proj   IRMAX =      1   max aug-charges    IRDMAX= 465568
   dimension x,y,z NGX =    42 NGY =   42 NGZ =   42
   dimension x,y,z NGXF=    84 NGYF=   84 NGZF=   84
   support grid    NGXF=   168 NGYF=  168 NGZF=  168
   ions per type =               1   1   1
   NGX,Y,Z   is equivalent  to a cutoff of  14.61, 14.61, 14.61 a.u.
   NGXF,Y,Z  is equivalent  to a cutoff of  29.23, 29.23, 29.23 a.u.

 SYSTEM =  unknown system
 POSCAR =  Th1 Bi1 Pt1

 Startparameter for this run:
   NWRITE =      2    write-flag & timer
   PREC   = acc       normal or accurate (medium, high low for compatibility)
   ISTART =      0    job   : 0-new  1-cont  2-samecut
   ICHARG =      2    charge: 1-file 2-atom 10-const
   ISPIN  =      1    spin polarized calculation?
   LNONCOLLINEAR =      F non collinear calculations
   LSORBIT =      F    spin-orbit coupling
   INIWAV =      1    electr: 0-lowe 1-rand  2-diag
   LASPH  =      F    aspherical Exc in radial PAW
   METAGGA=      F    non-selfconsistent MetaGGA calc.

 Electronic Relaxation 1
   ENCUT  =  700.0 eV  51.45 Ry    7.17 a.u.  10.31 10.31 10.31*2*pi/ulx,y,z
   ENINI  =  700.0     initial cutoff
   ENAUG  =  535.4 eV  augmentation charge cutoff
   NELM   =     60;   NELMIN=  5; NELMDL= -5     # of ELM steps
   EDIFF  = 0.1E-06   stopping-criterion for ELM
   LREAL  =      F    real-space projection
   NLSPLINE    = F    spline interpolate recip. space projectors
   LCOMPAT=      F    compatible to vasp.4.4
   GGA_COMPAT  = T    GGA compatible to vasp.4.4-vasp.4.6
   LMAXPAW     = -100 max onsite density
   LMAXMIX     =    2 max onsite mixed and CHGCAR
   VOSKOWN=      0    Vosko Wilk Nusair interpolation
   ROPT   =    0.00000   0.00000   0.00000
 Ionic relaxation
   EDIFFG = 0.1E-05   stopping-criterion for IOM
   NSW    =      0    number of steps for IOM
   NBLOCK =      1;   KBLOCK =      1    inner block; outer block
   IBRION =     -1    ionic relax: 0-MD 1-quasi-New 2-CG
   NFREE  =      0    steps in history (QN), initial steepest desc. (CG)
   ISIF   =      3    stress and relaxation
   IWAVPR =     10    prediction:  0-non 1-charg 2-wave 3-comb
   ISYM   =      2    0-nonsym 1-usesym 2-fastsym
   LCORR  =      T    Harris-Foulkes like correction to forces

   POTIM  = 0.5000    time-step for ionic-motion
   TEIN   =    0.0    initial temperature
   TEBEG  =    0.0;   TEEND  =   0.0 temperature during run
   SMASS  =  -3.00    Nose mass-parameter (am)
   estimated Nose-frequenzy (Omega)   =  0.10E-29 period in steps = 0.13E+47 mass=  -0.522E-27a.u.
   SCALEE = 1.0000    scale energy and forces
   NPACO  =    256;   APACO  = 16.0  distance and # of slots for P.C.
   PSTRESS=    0.0 pullay stress

  Mass of Ions in am
   POMASS = 232.04208.98195.08
  Ionic Valenz
   ZVAL   =  12.00 15.00 10.00
  Atomic Wigner-Seitz radii
   RWIGS  =  -1.00 -1.00 -1.00
  virtual crystal weights
   VCA    =   1.00  1.00  1.00
   NELECT =      37.0000    total number of electrons
   NUPDOWN=      -1.0000    fix difference up-down

 DOS related values:
   EMIN   =  10.00;   EMAX   =-10.00  energy-range for DOS
   EFERMI =   0.00
   ISMEAR =     0;   SIGMA  =   0.01  broadening in eV -4-tet -1-fermi 0-gaus

 Electronic relaxation 2 (details)
   IALGO  =     38    algorithm
   LDIAG  =      T    sub-space diagonalisation (order eigenvalues)
   LSUBROT=      F    optimize rotation matrix (better conditioning)
   TURBO    =      0    0=normal 1=particle mesh
   IRESTART =      0    0=no restart 2=restart with 2 vectors
   NREBOOT  =      0    no. of reboots
   NMIN     =      0    reboot dimension
   EREF     =   0.00    reference energy to select bands
   IMIX   =      4    mixing-type and parameters
     AMIX     =   0.40;   BMIX     =  1.00
     AMIX_MAG =   1.60;   BMIX_MAG =  1.00
     AMIN     =   0.10
     WC   =   100.;   INIMIX=   1;  MIXPRE=   1;  MAXMIX= -45

 Intra band minimization:
   WEIMIN = 0.0000     energy-eigenvalue tresh-hold
   EBREAK =  0.10E-08  absolut break condition
   DEPER  =   0.30     relativ break condition

   TIME   =   0.40     timestep for ELM

  volume/ion in A,a.u.               =      25.71       173.50
  Fermi-wavevector in a.u.,A,eV,Ry     =   1.281540  2.421760 22.345471  1.642346
  Thomas-Fermi vector in A             =   2.413904

 Write flags
   LWAVE        =      F    write WAVECAR
   LDOWNSAMPLE  =      F    k-point downsampling of WAVECAR
   LCHARG       =      F    write CHGCAR
   LVTOT        =      F    write LOCPOT, total local potential
   LVHAR        =      F    write LOCPOT, Hartree potential only
   LELF         =      F    write electronic localiz. function (ELF)
   LORBIT       =      0    0 simple, 1 ext, 2 COOP (PROOUT), +10 PAW based schemes


 Dipole corrections
   LMONO  =      F    monopole corrections only (constant potential shift)
   LDIPOL =      F    correct potential (dipole corrections)
   IDIPOL =      0    1-x, 2-y, 3-z, 4-all directions
   EPSILON=  1.0000000 bulk dielectric constant

 Exchange correlation treatment:
   GGA     =    PS    GGA type
   LEXCH   =    14    internal setting for exchange type
   VOSKOWN=      0    Vosko Wilk Nusair interpolation
   LHFCALC =     F    Hartree Fock is set to
   LHFONE  =     F    Hartree Fock one center treatment
   AEXX    =    0.0000 exact exchange contribution

 Linear response parameters
   LEPSILON=     F    determine dielectric tensor
   LRPA    =     F    only Hartree local field effects (RPA)
   LNABLA  =     F    use nabla operator in PAW spheres
   LVEL    =     F    velocity operator in full k-point grid
   LINTERFAST=   F  fast interpolation
   KINTER  =     0    interpolate to denser k-point grid
   CSHIFT  =0.1000    complex shift for real part using Kramers Kronig
   OMEGAMAX=  -1.0    maximum frequency
   DEG_THRESHOLD= 0.2000000E-02 threshold for treating states as degnerate
   RTIME   =   -0.100 relaxation time in fs
  (WPLASMAI=    0.000 imaginary part of plasma frequency in eV, 0.658/RTIME)
   DFIELD  = 0.0000000 0.0000000 0.0000000 field for delta impulse in time

 Orbital magnetization related:
   ORBITALMAG=     F  switch on orbital magnetization
   LCHIMAG   =     F  perturbation theory with respect to B field
   DQ        =  0.001000  dq finite difference perturbation B field
   LLRAUG    =     F  two centre corrections for induced B field



--------------------------------------------------------------------------------------------------------


 Static calculation
 charge density and potential will be updated during run
 non-spin polarized calculation
 Variant of blocked Davidson
 Davidson routine will perform the subspace rotation
 perform sub-space diagonalisation
    after iterative eigenvector-optimisation
 modified Broyden-mixing scheme, WC =      100.0
 initial mixing is a Kerker type mixing with AMIX =  0.4000 and BMIX =      1.0000
 Hartree-type preconditioning will be used
 using additional bands            5
 reciprocal scheme for non local part
 use partial core corrections
 calculate Harris-corrections to forces
   (improved forces if not selfconsistent)
 use gradient corrections
 use of overlap-Matrix (Vanderbilt PP)
 Gauss-broadening in eV      SIGMA  =   0.01


--------------------------------------------------------------------------------------------------------


  energy-cutoff  :      700.00
  volume of cell :       77.13
      direct lattice vectors                 reciprocal lattice vectors
     0.000000000  3.378571447  3.378571447    -0.147991543  0.147991543  0.147991543
     3.378571447  0.000000000  3.378571447     0.147991543 -0.147991543  0.147991543
     3.378571447  3.378571447  0.000000000     0.147991543  0.147991543 -0.147991543

  length of vectors
     4.778021562  4.778021562  4.778021562     0.256328871  0.256328871  0.256328871



 k-points in units of 2pi/SCALE and weight: KPOINTS
   0.00000000  0.00000000  0.00000000       0.000
  -0.01123011  0.01123011  0.01123011       0.004
  -0.02246022  0.02246022  0.02246022       0.004
  -0.03369033  0.03369033  0.03369033       0.004
  -0.04492043  0.04492043  0.04492043       0.004
  -0.05615054  0.05615054  0.05615054       0.004
  -0.06738065  0.06738065  0.06738065       0.004
  -0.00000000  0.00000000  0.02246022       0.003
  -0.01123011  0.01123011  0.03369033       0.011
  -0.02246022  0.02246022  0.04492043       0.011
  -0.03369033  0.03369033  0.05615054       0.011
  -0.04492043  0.04492043  0.06738065       0.011
  -0.05615054  0.05615054  0.07861076       0.011
   0.07861076 -0.07861076 -0.05615054       0.011
   0.06738065 -0.06738065 -0.04492043       0.011
   0.05615054 -0.05615054 -0.03369033       0.011
   0.04492043 -0.04492043 -0.02246022       0.011
   0.03369033 -0.03369033 -0.01123011       0.011
   0.02246022 -0.02246022 -0.00000000       0.005
  -0.00000000  0.00000000  0.04492043       0.003
  -0.01123011  0.01123011  0.05615054       0.011
  -0.02246022  0.02246022  0.06738065       0.011
  -0.03369033  0.03369033  0.07861076       0.011
  -0.04492043  0.04492043  0.08984087       0.011
   0.08984087 -0.08984087 -0.04492043       0.011
   0.07861076 -0.07861076 -0.03369033       0.011
   0.06738065 -0.06738065 -0.02246022       0.011
   0.05615054 -0.05615054 -0.01123011       0.011
   0.04492043 -0.04492043  0.00000000       0.005
   0.00000000  0.00000000  0.06738065       0.003
  -0.01123011  0.01123011  0.07861076       0.011
  -0.02246022  0.02246022  0.08984087       0.011
  -0.03369033  0.03369033  0.10107098       0.011
   0.10107098 -0.10107098 -0.03369033       0.011
   0.08984087 -0.08984087 -0.02246022       0.011
   0.07861076 -0.07861076 -0.01123011       0.011
   0.06738065 -0.06738065 -0.00000000       0.005
  -0.00000000  0.00000000  0.08984087       0.003
  -0.01123011  0.01123011  0.10107098       0.011
  -0.02246022  0.02246022  0.11230109       0.011
   0.11230109 -0.11230109 -0.02246022       0.011
   0.10107098 -0.10107098 -0.01123011       0.011
   0.08984087 -0.08984087  0.00000000       0.005
  -0.00000000  0.00000000  0.11230109       0.003
  -0.01123011  0.01123011  0.12353119       0.011
   0.12353119 -0.12353119 -0.01123011       0.011
   0.11230109 -0.11230109 -0.00000000       0.005
  -0.00000000  0.00000000  0.13476130       0.003
   0.13476130 -0.13476130 -0.00000000       0.005
   0.00000000  0.02246022  0.04492043       0.011
  -0.01123011  0.03369033  0.05615054       0.022
  -0.02246022  0.04492043  0.06738065       0.022
  -0.03369033  0.05615054  0.07861076       0.022
   0.10107098 -0.07861076 -0.05615054       0.022
   0.00000000  0.02246022  0.06738065       0.011
  -0.01123011  0.03369033  0.07861076       0.022
  -0.02246022  0.04492043  0.08984087       0.022
   0.11230109 -0.08984087 -0.04492043       0.022
   0.10107098 -0.07861076 -0.03369033       0.022
   0.08984087 -0.06738065 -0.02246022       0.022
   0.07861076 -0.05615054 -0.01123011       0.022
   0.06738065 -0.04492043  0.00000000       0.011
   0.00000000  0.02246022  0.08984087       0.011
  -0.01123011  0.03369033  0.10107098       0.022
   0.12353119 -0.10107098 -0.03369033       0.022
   0.11230109 -0.08984087 -0.02246022       0.022
   0.10107098 -0.07861076 -0.01123011       0.022
   0.08984087 -0.06738065 -0.00000000       0.011
   0.00000000  0.02246022  0.11230109       0.011
   0.13476130 -0.11230109 -0.02246022       0.022
   0.12353119 -0.10107098 -0.01123011       0.022
   0.11230109 -0.08984087  0.00000000       0.011
   0.14599141 -0.12353119 -0.01123011       0.011
   0.13476130 -0.11230109 -0.00000000       0.011
  -0.00000000  0.04492043  0.08984087       0.011
   0.13476130 -0.08984087 -0.04492043       0.022
   0.12353119 -0.07861076 -0.03369033       0.022
   0.14599141 -0.10107098 -0.03369033       0.011
   0.13476130 -0.08984087 -0.02246022       0.022
   0.12353119 -0.07861076 -0.01123011       0.022
   0.11230109 -0.06738065  0.00000000       0.011
   0.14599141 -0.10107098 -0.01123011       0.011
   0.13476130 -0.08984087  0.00000000       0.011
   0.14599141 -0.07861076 -0.01123011       0.011

 k-points in reciprocal lattice and weights: KPOINTS
   0.00000000  0.00000000  0.00000000       0.000
   0.07692308  0.00000000 -0.00000000       0.004
   0.15384615 -0.00000000  0.00000000       0.004
   0.23076923  0.00000000 -0.00000000       0.004
   0.30769231 -0.00000000  0.00000000       0.004
   0.38461538  0.00000000 -0.00000000       0.004
   0.46153846 -0.00000000  0.00000000       0.004
   0.07692308  0.07692308  0.00000000       0.003
   0.15384615  0.07692308  0.00000000       0.011
   0.23076923  0.07692308  0.00000000       0.011
   0.30769231  0.07692308 -0.00000000       0.011
   0.38461538  0.07692308  0.00000000       0.011
   0.46153846  0.07692308  0.00000000       0.011
  -0.46153846  0.07692308  0.00000000       0.011
  -0.38461538  0.07692308  0.00000000       0.011
  -0.30769231  0.07692308  0.00000000       0.011
  -0.23076923  0.07692308  0.00000000       0.011
  -0.15384615  0.07692308  0.00000000       0.011
  -0.07692308  0.07692308  0.00000000       0.005
   0.15384615  0.15384615  0.00000000       0.003
   0.23076923  0.15384615  0.00000000       0.011
   0.30769231  0.15384615  0.00000000       0.011
   0.38461538  0.15384615 -0.00000000       0.011
   0.46153846  0.15384615 -0.00000000       0.011
  -0.46153846  0.15384615 -0.00000000       0.011
  -0.38461538  0.15384615  0.00000000       0.011
  -0.30769231  0.15384615 -0.00000000       0.011
  -0.23076923  0.15384615 -0.00000000       0.011
  -0.15384615  0.15384615 -0.00000000       0.005
   0.23076923  0.23076923  0.00000000       0.003
   0.30769231  0.23076923  0.00000000       0.011
   0.38461538  0.23076923  0.00000000       0.011
   0.46153846  0.23076923  0.00000000       0.011
  -0.46153846  0.23076923 -0.00000000       0.011
  -0.38461538  0.23076923 -0.00000000       0.011
  -0.30769231  0.23076923  0.00000000       0.011
  -0.23076923  0.23076923  0.00000000       0.005
   0.30769231  0.30769231  0.00000000       0.003
   0.38461538  0.30769231  0.00000000       0.011
   0.46153846  0.30769231  0.00000000       0.011
  -0.46153846  0.30769231  0.00000000       0.011
  -0.38461538  0.30769231  0.00000000       0.011
  -0.30769231  0.30769231 -0.00000000       0.005
   0.38461538  0.38461538  0.00000000       0.003
   0.46153846  0.38461538  0.00000000       0.011
  -0.46153846  0.38461538 -0.00000000       0.011
  -0.38461538  0.38461538  0.00000000       0.005
   0.46153846  0.46153846  0.00000000       0.003
  -0.46153846  0.46153846 -0.00000000       0.005
   0.23076923  0.15384615  0.07692308       0.011
   0.30769231  0.15384615  0.07692308       0.022
   0.38461538  0.15384615  0.07692308       0.022
   0.46153846  0.15384615  0.07692308       0.022
  -0.46153846  0.15384615  0.07692308       0.022
   0.30769231  0.23076923  0.07692308       0.011
   0.38461538  0.23076923  0.07692308       0.022
   0.46153846  0.23076923  0.07692308       0.022
  -0.46153846  0.23076923  0.07692308       0.022
  -0.38461538  0.23076923  0.07692308       0.022
  -0.30769231  0.23076923  0.07692308       0.022
  -0.23076923  0.23076923  0.07692308       0.022
  -0.15384615  0.23076923  0.07692308       0.011
   0.38461538  0.30769231  0.07692308       0.011
   0.46153846  0.30769231  0.07692308       0.022
  -0.46153846  0.30769231  0.07692308       0.022
  -0.38461538  0.30769231  0.07692308       0.022
  -0.30769231  0.30769231  0.07692308       0.022
  -0.23076923  0.30769231  0.07692308       0.011
   0.46153846  0.38461538  0.07692308       0.011
  -0.46153846  0.38461538  0.07692308       0.022
  -0.38461538  0.38461538  0.07692308       0.022
  -0.30769231  0.38461538  0.07692308       0.011
  -0.46153846  0.46153846  0.07692308       0.011
  -0.38461538  0.46153846  0.07692308       0.011
   0.46153846  0.30769231  0.15384615       0.011
  -0.46153846  0.30769231  0.15384615       0.022
  -0.38461538  0.30769231  0.15384615       0.022
  -0.46153846  0.38461538  0.15384615       0.011
  -0.38461538  0.38461538  0.15384615       0.022
  -0.30769231  0.38461538  0.15384615       0.022
  -0.23076923  0.38461538  0.15384615       0.011
  -0.38461538  0.46153846  0.15384615       0.011
  -0.30769231  0.46153846  0.15384615       0.011
  -0.30769231  0.46153846  0.23076923       0.011

 position of ions in fractional coordinates (direct lattice)
   0.25000000  0.25000000  0.25000000
   0.75000000  0.75000000  0.75000000
   0.00000000  0.00000000  0.00000000

 position of ions in cartesian coordinates  (Angst):
   1.68928572  1.68928572  1.68928572
   5.06785717  5.06785717  5.06785717
   0.00000000  0.00000000  0.00000000



--------------------------------------------------------------------------------------------------------


 k-point  1 :   0.0000 0.0000 0.0000  plane waves:    3287
 k-point  2 :   0.0769 0.0000-0.0000  plane waves:    3245
 k-point  3 :   0.1538-0.0000 0.0000  plane waves:    3254
 k-point  4 :   0.2308 0.0000-0.0000  plane waves:    3257
 k-point  5 :   0.3077-0.0000 0.0000  plane waves:    3245
 k-point  6 :   0.3846 0.0000-0.0000  plane waves:    3248
 k-point  7 :   0.4615-0.0000 0.0000  plane waves:    3235
 k-point  8 :   0.0769 0.0769 0.0000  plane waves:    3239
 k-point  9 :   0.1538 0.0769 0.0000  plane waves:    3253
 k-point 10 :   0.2308 0.0769 0.0000  plane waves:    3259
 k-point 11 :   0.3077 0.0769-0.0000  plane waves:    3245
 k-point 12 :   0.3846 0.0769 0.0000  plane waves:    3252
 k-point 13 :   0.4615 0.0769 0.0000  plane waves:    3237
 k-point 14 :  -0.4615 0.0769 0.0000  plane waves:    3242
 k-point 15 :  -0.3846 0.0769 0.0000  plane waves:    3237
 k-point 16 :  -0.3077 0.0769 0.0000  plane waves:    3247
 k-point 17 :  -0.2308 0.0769 0.0000  plane waves:    3247
 k-point 18 :  -0.1538 0.0769 0.0000  plane waves:    3264
 k-point 19 :  -0.0769 0.0769 0.0000  plane waves:    3247
 k-point 20 :   0.1538 0.1538 0.0000  plane waves:    3251
 k-point 21 :   0.2308 0.1538 0.0000  plane waves:    3247
 k-point 22 :   0.3077 0.1538 0.0000  plane waves:    3242
 k-point 23 :   0.3846 0.1538-0.0000  plane waves:    3254
 k-point 24 :   0.4615 0.1538-0.0000  plane waves:    3238
 k-point 25 :  -0.4615 0.1538-0.0000  plane waves:    3239
 k-point 26 :  -0.3846 0.1538 0.0000  plane waves:    3235
 k-point 27 :  -0.3077 0.1538-0.0000  plane waves:    3244
 k-point 28 :  -0.2308 0.1538-0.0000  plane waves:    3245
 k-point 29 :  -0.1538 0.1538-0.0000  plane waves:    3250
 k-point 30 :   0.2308 0.2308 0.0000  plane waves:    3223
 k-point 31 :   0.3077 0.2308 0.0000  plane waves:    3245
 k-point 32 :   0.3846 0.2308 0.0000  plane waves:    3238
 k-point 33 :   0.4615 0.2308 0.0000  plane waves:    3244
 k-point 34 :  -0.4615 0.2308-0.0000  plane waves:    3242
 k-point 35 :  -0.3846 0.2308-0.0000  plane waves:    3229
 k-point 36 :  -0.3077 0.2308 0.0000  plane waves:    3233
 k-point 37 :  -0.2308 0.2308 0.0000  plane waves:    3238
 k-point 38 :   0.3077 0.3077 0.0000  plane waves:    3254
 k-point 39 :   0.3846 0.3077 0.0000  plane waves:    3244
 k-point 40 :   0.4615 0.3077 0.0000  plane waves:    3241
 k-point 41 :  -0.4615 0.3077 0.0000  plane waves:    3239
 k-point 42 :  -0.3846 0.3077 0.0000  plane waves:    3228
 k-point 43 :  -0.3077 0.3077-0.0000  plane waves:    3234
 k-point 44 :   0.3846 0.3846 0.0000  plane waves:    3242
 k-point 45 :   0.4615 0.3846 0.0000  plane waves:    3260
 k-point 46 :  -0.4615 0.3846-0.0000  plane waves:    3247
 k-point 47 :  -0.3846 0.3846 0.0000  plane waves:    3226
 k-point 48 :   0.4615 0.4615 0.0000  plane waves:    3262
 k-point 49 :  -0.4615 0.4615-0.0000  plane waves:    3266
 k-point 50 :   0.2308 0.1538 0.0769  plane waves:    3246
 k-point 51 :   0.3077 0.1538 0.0769  plane waves:    3245
 k-point 52 :   0.3846 0.1538 0.0769  plane waves:    3250
 k-point 53 :   0.4615 0.1538 0.0769  plane waves:    3248
 k-point 54 :  -0.4615 0.1538 0.0769  plane waves:    3236
 k-point 55 :   0.3077 0.2308 0.0769  plane waves:    3243
 k-point 56 :   0.3846 0.2308 0.0769  plane waves:    3242
 k-point 57 :   0.4615 0.2308 0.0769  plane waves:    3251
 k-point 58 :  -0.4615 0.2308 0.0769  plane waves:    3243
 k-point 59 :  -0.3846 0.2308 0.0769  plane waves:    3236
 k-point 60 :  -0.3077 0.2308 0.0769  plane waves:    3239
 k-point 61 :  -0.2308 0.2308 0.0769  plane waves:    3241
 k-point 62 :  -0.1538 0.2308 0.0769  plane waves:    3248
 k-point 63 :   0.3846 0.3077 0.0769  plane waves:    3253
 k-point 64 :   0.4615 0.3077 0.0769  plane waves:    3242
 k-point 65 :  -0.4615 0.3077 0.0769  plane waves:    3243
 k-point 66 :  -0.3846 0.3077 0.0769  plane waves:    3233
 k-point 67 :  -0.3077 0.3077 0.0769  plane waves:    3234
 k-point 68 :  -0.2308 0.3077 0.0769  plane waves:    3233
 k-point 69 :   0.4615 0.3846 0.0769  plane waves:    3247
 k-point 70 :  -0.4615 0.3846 0.0769  plane waves:    3242
 k-point 71 :  -0.3846 0.3846 0.0769  plane waves:    3240
 k-point 72 :  -0.3077 0.3846 0.0769  plane waves:    3241
 k-point 73 :  -0.4615 0.4615 0.0769  plane waves:    3250
 k-point 74 :  -0.3846 0.4615 0.0769  plane waves:    3249
 k-point 75 :   0.4615 0.3077 0.1538  plane waves:    3241
 k-point 76 :  -0.4615 0.3077 0.1538  plane waves:    3242
 k-point 77 :  -0.3846 0.3077 0.1538  plane waves:    3234
 k-point 78 :  -0.4615 0.3846 0.1538  plane waves:    3244
 k-point 79 :  -0.3846 0.3846 0.1538  plane waves:    3243
 k-point 80 :  -0.3077 0.3846 0.1538  plane waves:    3239
 k-point 81 :  -0.2308 0.3846 0.1538  plane waves:    3247
 k-point 82 :  -0.3846 0.4615 0.1538  plane waves:    3241
 k-point 83 :  -0.3077 0.4615 0.1538  plane waves:    3239
 k-point 84 :  -0.3077 0.4615 0.2308  plane waves:    3244

 maximum and minimum number of plane-waves per node :       833      793

 maximum number of plane-waves:      3287
 maximum index in each direction:
   IXMAX=   10   IYMAX=   10   IZMAX=   10
   IXMIN=  -10   IYMIN=  -10   IZMIN=  -10


 parallel 3D FFT for wavefunctions:
    minimum data exchange during FFTs selected (reduces bandwidth)
 parallel 3D FFT for charge:
    minimum data exchange during FFTs selected (reduces bandwidth)


 total amount of memory used by VASP MPI-rank0    99971. kBytes
=======================================================================

   base      :      30000. kBytes
   nonl-proj :      53197. kBytes
   fftplans  :       6282. kBytes
   grid      :       3541. kBytes
   one-center:         49. kBytes
   wavefun   :       6902. kBytes

     INWAV:  cpu time    0.0002: real time    0.0065
 Broyden mixing: mesh for mixing (old mesh)
   NGX = 21   NGY = 21   NGZ = 21
  (NGX  = 84   NGY  = 84   NGZ  = 84)
  gives a total of   9261 points

 initial charge density was supplied:
 charge density of overlapping atoms calculated
 number of electron      37.0000000 magnetization
 keeping initial charge density in first step


--------------------------------------------------------------------------------------------------------


 Maximum index for augmentation-charges        31554 (set IRDMAX)


--------------------------------------------------------------------------------------------------------


 First call to EWALD:  gamma=   0.416
 Maximum number of real-space cells 3x 3x 3
 Maximum number of reciprocal cells 3x 3x 3

    FEWALD:  cpu time    0.0063: real time    0.0068


--------------------------------------- Iteration      1(   1)  ---------------------------------------


    POTLOK:  cpu time    0.0535: real time    0.1125
    SETDIJ:  cpu time    0.0995: real time    0.0996
     EDDAV:  cpu time    1.5255: real time    1.5620
       DOS:  cpu time    0.0040: real time    0.0047
    --------------------------------------------
      LOOP:  cpu time    1.6828: real time    1.7795

 eigenvalue-minimisations  :  4032
 total energy-change (2. order) : 0.4456703E+03  (-0.2063096E+04)
 number of electron      37.0000000 magnetization
 augmentation part       37.0000000 magnetization

 Free energy of the ion-electron system (eV)
  ---------------------------------------------------
  alpha Z        PSCENC =       222.75802064
  Ewald energy   TEWEN  =     -3170.62418095
  -Hartree energ DENC   =      -738.22768141
  -exchange      EXHF   =         0.00000000
  -V(xc)+E(xc)   XCENC  =        68.75038694
  PAW double counting   =      3147.30828992    -3070.62761383
  entropy T*S    EENTRO =        -0.00012366
  eigenvalues    EBANDS =       311.65979534
  atomic energy  EATOM  =      3674.67342263
  Solvation  Ediel_sol  =         0.00000000
  ---------------------------------------------------
  free energy    TOTEN  =       445.67031561 eV

  energy without entropy =      445.67043927  energy(sigma->0) =      445.67037744


--------------------------------------------------------------------------------------------------------




--------------------------------------- Iteration      1(   2)  ---------------------------------------


     EDDAV:  cpu time    1.5695: real time    1.6036
       DOS:  cpu time    0.0030: real time    0.0037
    --------------------------------------------
      LOOP:  cpu time    1.5725: real time    1.6083

 eigenvalue-minimisations  :  4192
 total energy-change (2. order) :-0.4007065E+03  (-0.3922433E+03)
 number of electron      37.0000000 magnetization
 augmentation part       37.0000000 magnetization

 Free energy of the ion-electron system (eV)
  ---------------------------------------------------
  alpha Z        PSCENC =       222.75802064
  Ewald energy   TEWEN  =     -3170.62418095
  -Hartree energ DENC   =      -738.22768141
  -exchange      EXHF   =         0.00000000
  -V(xc)+E(xc)   XCENC  =        68.75038694
  PAW double counting   =      3147.30828992    -3070.62761383
  entropy T*S    EENTRO =        -0.00014069
  eigenvalues    EBANDS =       -89.04666187
  atomic energy  EATOM  =      3674.67342263
  Solvation  Ediel_sol  =         0.00000000
  ---------------------------------------------------
  free energy    TOTEN  =        44.96384137 eV

  energy without entropy =       44.96398206  energy(sigma->0) =       44.96391172


--------------------------------------------------------------------------------------------------------




--------------------------------------- Iteration      1(   3)  ---------------------------------------


     EDDAV:  cpu time    1.9267: real time    1.9480
       DOS:  cpu time    0.0030: real time    0.0032
    --------------------------------------------
      LOOP:  cpu time    1.9297: real time    1.9522

 eigenvalue-minimisations  :  5568
 total energy-change (2. order) :-0.6356428E+02  (-0.6274633E+02)
 number of electron      37.0000000 magnetization
 augmentation part       37.0000000 magnetization

 Free energy of the ion-electron system (eV)
  ---------------------------------------------------
  alpha Z        PSCENC =       222.75802064
  Ewald energy   TEWEN  =     -3170.62418095
  -Hartree energ DENC   =      -738.22768141
  -exchange      EXHF   =         0.00000000
  -V(xc)+E(xc)   XCENC  =        68.75038694
  PAW double counting   =      3147.30828992    -3070.62761383
  entropy T*S    EENTRO =        -0.00027832
  eigenvalues    EBANDS =      -152.61080620
  atomic energy  EATOM  =      3674.67342263
  Solvation  Ediel_sol  =         0.00000000
  ---------------------------------------------------
  free energy    TOTEN  =       -18.60044058 eV

  energy without entropy =      -18.60016226  energy(sigma->0) =      -18.60030142


--------------------------------------------------------------------------------------------------------




--------------------------------------- Iteration      1(   4)  ---------------------------------------


     EDDAV:  cpu time    2.4015: real time    2.4175
       DOS:  cpu time    0.0029: real time    0.0034
    --------------------------------------------
      LOOP:  cpu time    2.4044: real time    2.4204

 eigenvalue-minimisations  :  7384
 total energy-change (2. order) :-0.4145049E+01  (-0.4133744E+01)
 number of electron      37.0000000 magnetization
 augmentation part       37.0000000 magnetization

 Free energy of the ion-electron system (eV)
  ---------------------------------------------------
  alpha Z        PSCENC =       222.75802064
  Ewald energy   TEWEN  =     -3170.62418095
  -Hartree energ DENC   =      -738.22768141
  -exchange      EXHF   =         0.00000000
  -V(xc)+E(xc)   XCENC  =        68.75038694
  PAW double counting   =      3147.30828992    -3070.62761383
  entropy T*S    EENTRO =        -0.00010593
  eigenvalues    EBANDS =      -156.75602792
  atomic energy  EATOM  =      3674.67342263
  Solvation  Ediel_sol  =         0.00000000
  ---------------------------------------------------
  free energy    TOTEN  =       -22.74548992 eV

  energy without entropy =      -22.74538398  energy(sigma->0) =      -22.74543695


--------------------------------------------------------------------------------------------------------




--------------------------------------- Iteration      1(   5)  ---------------------------------------


     EDDAV:  cpu time    1.9201: real time    1.9445
       DOS:  cpu time    0.0028: real time    0.0032
    CHARGE:  cpu time    0.3460: real time    0.3467
    MIXING:  cpu time    0.0053: real time    0.0056
    --------------------------------------------
      LOOP:  cpu time    2.2743: real time    2.2999

 eigenvalue-minimisations  :  5512
 total energy-change (2. order) :-0.1071693E+00  (-0.1071442E+00)
 number of electron      37.0000000 magnetization
 augmentation part        5.9662413 magnetization

 Broyden mixing:
  rms(total) = 0.35376E+01    rms(broyden)= 0.35376E+01
  rms(prec ) = 0.38262E+01
  weight for this iteration     100.00

 Free energy of the ion-electron system (eV)
  ---------------------------------------------------
  alpha Z        PSCENC =       222.75802064
  Ewald energy   TEWEN  =     -3170.62418095
  -Hartree energ DENC   =      -738.22768141
  -exchange      EXHF   =         0.00000000
  -V(xc)+E(xc)   XCENC  =        68.75038694
  PAW double counting   =      3147.30828992    -3070.62761383
  entropy T*S    EENTRO =        -0.00011027
  eigenvalues    EBANDS =      -156.86319290
  atomic energy  EATOM  =      3674.67342263
  Solvation  Ediel_sol  =         0.00000000
  ---------------------------------------------------
  free energy    TOTEN  =       -22.85265924 eV

  energy without entropy =      -22.85254896  energy(sigma->0) =      -22.85260410


--------------------------------------------------------------------------------------------------------




--------------------------------------- Iteration      1(   6)  ---------------------------------------


    POTLOK:  cpu time    0.0533: real time    0.0729
    SETDIJ:  cpu time    0.0931: real time    0.0932
     EDDAV:  cpu time    1.7644: real time    1.7646
       DOS:  cpu time    0.0030: real time    0.0033
    CHARGE:  cpu time    0.3108: real time    0.3131
    MIXING:  cpu time    0.0045: real time    0.0055
    --------------------------------------------
      LOOP:  cpu time    2.2290: real time    2.2561

 eigenvalue-minimisations  :  5024
 total energy-change (2. order) : 0.8665144E+00  (-0.1625016E+00)
 number of electron      37.0000000 magnetization
 augmentation part        6.0420708 magnetization

 Broyden mixing:
  rms(total) = 0.21444E+01    rms(broyden)= 0.21444E+01
  rms(prec ) = 0.22482E+01
  weight for this iteration     100.00

 eigenvalues of (default mixing * dielectric matrix)
  average eigenvalue GAMMA=   2.4860
  2.4860

 Free energy of the ion-electron system (eV)
  ---------------------------------------------------
  alpha Z        PSCENC =       222.75802064
  Ewald energy   TEWEN  =     -3170.62418095
  -Hartree energ DENC   =      -722.53368033
  -exchange      EXHF   =         0.00000000
  -V(xc)+E(xc)   XCENC  =        68.28814092
  PAW double counting   =      3489.96135506    -3417.97145120
  entropy T*S    EENTRO =        -0.00022883
  eigenvalues    EBANDS =      -166.53754281
  atomic energy  EATOM  =      3674.67342263
  Solvation  Ediel_sol  =         0.00000000
  ---------------------------------------------------
  free energy    TOTEN  =       -21.98614487 eV

  energy without entropy =      -21.98591604  energy(sigma->0) =      -21.98603046


--------------------------------------------------------------------------------------------------------




--------------------------------------- Iteration      1(   7)  ---------------------------------------


    POTLOK:  cpu time    0.0625: real time    0.1055
    SETDIJ:  cpu time    0.0869: real time    0.0870
     EDDAV:  cpu time    2.0460: real time    2.0463
       DOS:  cpu time    0.0032: real time    0.0056
    CHARGE:  cpu time    0.2877: real time    0.2881
    MIXING:  cpu time    0.0043: real time    0.0052
    --------------------------------------------
      LOOP:  cpu time    2.4907: real time    2.5373

 eigenvalue-minimisations  :  6112
 total energy-change (2. order) : 0.1273300E+00  (-0.2176323E+00)
 number of electron      37.0000000 magnetization
 augmentation part        5.9804436 magnetization

 Broyden mixing:
  rms(total) = 0.63046E+00    rms(broyden)= 0.63046E+00
  rms(prec ) = 0.74203E+00
  weight for this iteration     100.00

 eigenvalues of (default mixing * dielectric matrix)
  average eigenvalue GAMMA=   2.0766
  1.0393  3.1138

 Free energy of the ion-electron system (eV)
  ---------------------------------------------------
  alpha Z        PSCENC =       222.75802064
  Ewald energy   TEWEN  =     -3170.62418095
  -Hartree energ DENC   =      -709.83391360
  -exchange      EXHF   =         0.00000000
  -V(xc)+E(xc)   XCENC  =        68.07508720
  PAW double counting   =      3951.36194720    -3884.60758443
  entropy T*S    EENTRO =        -0.00034114
  eigenvalues    EBANDS =      -173.66127246
  atomic energy  EATOM  =      3674.67342263
  Solvation  Ediel_sol  =         0.00000000
  ---------------------------------------------------
  free energy    TOTEN  =       -21.85881491 eV

  energy without entropy =      -21.85847377  energy(sigma->0) =      -21.85864434


--------------------------------------------------------------------------------------------------------




--------------------------------------- Iteration      1(   8)  ---------------------------------------


    POTLOK:  cpu time    0.0439: real time    0.0851
    SETDIJ:  cpu time    0.0915: real time    0.0920
     EDDAV:  cpu time    1.7879: real time    1.7882
       DOS:  cpu time    0.0029: real time    0.0032
    CHARGE:  cpu time    0.2884: real time    0.2885
    MIXING:  cpu time    0.0041: real time    0.0067
    --------------------------------------------
      LOOP:  cpu time    2.2187: real time    2.2645

 eigenvalue-minimisations  :  5200
 total energy-change (2. order) : 0.4303660E-01  (-0.3166889E-01)
 number of electron      37.0000000 magnetization
 augmentation part        5.9448096 magnetization

 Broyden mixing:
  rms(total) = 0.41797E+00    rms(broyden)= 0.41797E+00
  rms(prec ) = 0.46083E+00
  weight for this iteration     100.00

 eigenvalues of (default mixing * dielectric matrix)
  average eigenvalue GAMMA=   1.9408
  3.6182  1.4578  0.7463

 Free energy of the ion-electron system (eV)
  ---------------------------------------------------
  alpha Z        PSCENC =       222.75802064
  Ewald energy   TEWEN  =     -3170.62418095
  -Hartree energ DENC   =      -709.65427600
  -exchange      EXHF   =         0.00000000
  -V(xc)+E(xc)   XCENC  =        68.07603160
  PAW double counting   =      3992.17813003    -3925.59729512
  entropy T*S    EENTRO =        -0.00025281
  eigenvalues    EBANDS =      -173.62537832
  atomic energy  EATOM  =      3674.67342263
  Solvation  Ediel_sol  =         0.00000000
  ---------------------------------------------------
  free energy    TOTEN  =       -21.81577830 eV

  energy without entropy =      -21.81552549  energy(sigma->0) =      -21.81565190


--------------------------------------------------------------------------------------------------------




--------------------------------------- Iteration      1(   9)  ---------------------------------------


    POTLOK:  cpu time    0.0489: real time    0.0770
    SETDIJ:  cpu time    0.0899: real time    0.0900
     EDDAV:  cpu time    2.0167: real time    2.0172
       DOS:  cpu time    0.0031: real time    0.0034
    CHARGE:  cpu time    0.2884: real time    0.2898
    MIXING:  cpu time    0.0047: real time    0.0050
    --------------------------------------------
      LOOP:  cpu time    2.4518: real time    2.4798

 eigenvalue-minimisations  :  6008
 total energy-change (2. order) : 0.7843061E-02  (-0.1837539E-01)
 number of electron      37.0000000 magnetization
 augmentation part        5.9433381 magnetization

 Broyden mixing:
  rms(total) = 0.35490E+00    rms(broyden)= 0.35490E+00
  rms(prec ) = 0.36609E+00
  weight for this iteration     100.00

 eigenvalues of (default mixing * dielectric matrix)
  average eigenvalue GAMMA=   1.4184
  2.4275  1.2701  1.2701  0.7058

 Free energy of the ion-electron system (eV)
  ---------------------------------------------------
  alpha Z        PSCENC =       222.75802064
  Ewald energy   TEWEN  =     -3170.62418095
  -Hartree energ DENC   =      -711.89003493
  -exchange      EXHF   =         0.00000000
  -V(xc)+E(xc)   XCENC  =        68.10420130
  PAW double counting   =      4074.15007719    -4007.49040481
  entropy T*S    EENTRO =        -0.00018581
  eigenvalues    EBANDS =      -171.48885051
  atomic energy  EATOM  =      3674.67342263
  Solvation  Ediel_sol  =         0.00000000
  ---------------------------------------------------
  free energy    TOTEN  =       -21.80793524 eV

  energy without entropy =      -21.80774943  energy(sigma->0) =      -21.80784234


--------------------------------------------------------------------------------------------------------




--------------------------------------- Iteration      1(  10)  ---------------------------------------


    POTLOK:  cpu time    0.0363: real time    0.0608
    SETDIJ:  cpu time    0.0931: real time    0.0932
     EDDAV:  cpu time    1.7924: real time    1.7926
       DOS:  cpu time    0.0031: real time    0.0032
    CHARGE:  cpu time    0.2887: real time    0.2889
    MIXING:  cpu time    0.0049: real time    0.0050
    --------------------------------------------
      LOOP:  cpu time    2.2184: real time    2.2435

 eigenvalue-minimisations  :  5120
 total energy-change (2. order) : 0.5548612E-02  (-0.3108146E-02)
 number of electron      37.0000000 magnetization
 augmentation part        5.9476225 magnetization

 Broyden mixing:
  rms(total) = 0.67315E-01    rms(broyden)= 0.67315E-01
  rms(prec ) = 0.69071E-01
  weight for this iteration     100.00

 eigenvalues of (default mixing * dielectric matrix)
  average eigenvalue GAMMA=   1.4212
  2.3626  1.5920  1.5920  0.8672  0.6923

 Free energy of the ion-electron system (eV)
  ---------------------------------------------------
  alpha Z        PSCENC =       222.75802064
  Ewald energy   TEWEN  =     -3170.62418095
  -Hartree energ DENC   =      -712.14268517
  -exchange      EXHF   =         0.00000000
  -V(xc)+E(xc)   XCENC  =        68.09664053
  PAW double counting   =      4003.24161482    -3936.16847819
  entropy T*S    EENTRO =        -0.00021669
  eigenvalues    EBANDS =      -171.63652425
  atomic energy  EATOM  =      3674.67342263
  Solvation  Ediel_sol  =         0.00000000
  ---------------------------------------------------
  free energy    TOTEN  =       -21.80238663 eV

  energy without entropy =      -21.80216994  energy(sigma->0) =      -21.80227828


--------------------------------------------------------------------------------------------------------




--------------------------------------- Iteration      1(  11)  ---------------------------------------


    POTLOK:  cpu time    0.0362: real time    0.0742
    SETDIJ:  cpu time    0.0914: real time    0.0916
     EDDAV:  cpu time    1.9666: real time    1.9668
       DOS:  cpu time    0.0031: real time    0.0034
    CHARGE:  cpu time    0.2890: real time    0.2893
    MIXING:  cpu time    0.0052: real time    0.0053
    --------------------------------------------
      LOOP:  cpu time    2.3915: real time    2.4295

 eigenvalue-minimisations  :  5840
 total energy-change (2. order) :-0.1918704E-03  (-0.2026173E-03)
 number of electron      37.0000000 magnetization
 augmentation part        5.9479436 magnetization

 Broyden mixing:
  rms(total) = 0.42103E-01    rms(broyden)= 0.42103E-01
  rms(prec ) = 0.44901E-01
  weight for this iteration     100.00

 eigenvalues of (default mixing * dielectric matrix)
  average eigenvalue GAMMA=   1.3753
  2.5691  1.9306  1.2680  0.6638  0.9100  0.9100

 Free energy of the ion-electron system (eV)
  ---------------------------------------------------
  alpha Z        PSCENC =       222.75802064
  Ewald energy   TEWEN  =     -3170.62418095
  -Hartree energ DENC   =      -712.25275059
  -exchange      EXHF   =         0.00000000
  -V(xc)+E(xc)   XCENC  =        68.09038867
  PAW double counting   =      4012.23454971    -3945.12190017
  entropy T*S    EENTRO =        -0.00021964
  eigenvalues    EBANDS =      -171.55990880
  atomic energy  EATOM  =      3674.67342263
  Solvation  Ediel_sol  =         0.00000000
  ---------------------------------------------------
  free energy    TOTEN  =       -21.80257850 eV

  energy without entropy =      -21.80235886  energy(sigma->0) =      -21.80246868


--------------------------------------------------------------------------------------------------------




--------------------------------------- Iteration      1(  12)  ---------------------------------------


    POTLOK:  cpu time    0.0441: real time    0.0637
    SETDIJ:  cpu time    0.0912: real time    0.0913
     EDDAV:  cpu time    1.9310: real time    1.9312
       DOS:  cpu time    0.0030: real time    0.0032
    CHARGE:  cpu time    0.2878: real time    0.2881
    MIXING:  cpu time    0.0062: real time    0.0063
    --------------------------------------------
      LOOP:  cpu time    2.3633: real time    2.3835

 eigenvalue-minimisations  :  5624
 total energy-change (2. order) : 0.8654200E-04  (-0.3634079E-04)
 number of electron      37.0000000 magnetization
 augmentation part        5.9485827 magnetization

 Broyden mixing:
  rms(total) = 0.12699E-01    rms(broyden)= 0.12699E-01
  rms(prec ) = 0.13674E-01
  weight for this iteration     100.00

 eigenvalues of (default mixing * dielectric matrix)
  average eigenvalue GAMMA=   1.4248
  2.5627  2.2385  0.6720  1.2071  1.2071  1.0431  1.0431

 Free energy of the ion-electron system (eV)
  ---------------------------------------------------
  alpha Z        PSCENC =       222.75802064
  Ewald energy   TEWEN  =     -3170.62418095
  -Hartree energ DENC   =      -712.24323715
  -exchange      EXHF   =         0.00000000
  -V(xc)+E(xc)   XCENC  =        68.08822790
  PAW double counting   =      4015.98479336    -3948.84809777
  entropy T*S    EENTRO =        -0.00021162
  eigenvalues    EBANDS =      -171.59122900
  atomic energy  EATOM  =      3674.67342263
  Solvation  Ediel_sol  =         0.00000000
  ---------------------------------------------------
  free energy    TOTEN  =       -21.80249196 eV

  energy without entropy =      -21.80228034  energy(sigma->0) =      -21.80238615


--------------------------------------------------------------------------------------------------------




--------------------------------------- Iteration      1(  13)  ---------------------------------------


    POTLOK:  cpu time    0.0455: real time    0.0638
    SETDIJ:  cpu time    0.0918: real time    0.0919
     EDDAV:  cpu time    2.1419: real time    2.1421
       DOS:  cpu time    0.0032: real time    0.0034
    CHARGE:  cpu time    0.2890: real time    0.2892
    MIXING:  cpu time    0.0053: real time    0.0056
    --------------------------------------------
      LOOP:  cpu time    2.5767: real time    2.5963

 eigenvalue-minimisations  :  6432
 total energy-change (2. order) : 0.1652301E-05  (-0.1316795E-04)
 number of electron      37.0000000 magnetization
 augmentation part        5.9495134 magnetization

 Broyden mixing:
  rms(total) = 0.37140E-02    rms(broyden)= 0.37140E-02
  rms(prec ) = 0.41158E-02
  weight for this iteration     100.00

 eigenvalues of (default mixing * dielectric matrix)
  average eigenvalue GAMMA=   1.3972
  2.6192  2.0743  1.5921  1.3385  0.6757  0.9209  0.9784  0.9784

 Free energy of the ion-electron system (eV)
  ---------------------------------------------------
  alpha Z        PSCENC =       222.75802064
  Ewald energy   TEWEN  =     -3170.62418095
  -Hartree energ DENC   =      -712.24170804
  -exchange      EXHF   =         0.00000000
  -V(xc)+E(xc)   XCENC  =        68.08575322
  PAW double counting   =      4017.69978220    -3950.52670474
  entropy T*S    EENTRO =        -0.00020818
  eigenvalues    EBANDS =      -171.62666709
  atomic energy  EATOM  =      3674.67342263
  Solvation  Ediel_sol  =         0.00000000
  ---------------------------------------------------
  free energy    TOTEN  =       -21.80249031 eV

  energy without entropy =      -21.80228213  energy(sigma->0) =      -21.80238622


--------------------------------------------------------------------------------------------------------




--------------------------------------- Iteration      1(  14)  ---------------------------------------


    POTLOK:  cpu time    0.0359: real time    0.0633
    SETDIJ:  cpu time    0.0919: real time    0.0920
     EDDAV:  cpu time    1.8173: real time    1.8175
       DOS:  cpu time    0.0031: real time    0.0033
    CHARGE:  cpu time    0.2896: real time    0.2897
    MIXING:  cpu time    0.0057: real time    0.0058
    --------------------------------------------
      LOOP:  cpu time    2.2435: real time    2.2729

 eigenvalue-minimisations  :  5144
 total energy-change (2. order) : 0.1010571E-05  (-0.7842419E-06)
 number of electron      37.0000000 magnetization
 augmentation part        5.9497570 magnetization

 Broyden mixing:
  rms(total) = 0.23418E-02    rms(broyden)= 0.23418E-02
  rms(prec ) = 0.24710E-02
  weight for this iteration     100.00

 eigenvalues of (default mixing * dielectric matrix)
  average eigenvalue GAMMA=   1.4484
  2.6422  2.0438  2.0438  1.6218  1.0757  1.0757  0.6733  0.9297  0.9297

 Free energy of the ion-electron system (eV)
  ---------------------------------------------------
  alpha Z        PSCENC =       222.75802064
  Ewald energy   TEWEN  =     -3170.62418095
  -Hartree energ DENC   =      -712.23658570
  -exchange      EXHF   =         0.00000000
  -V(xc)+E(xc)   XCENC  =        68.08587951
  PAW double counting   =      4017.62159424    -3950.44928059
  entropy T*S    EENTRO =        -0.00020908
  eigenvalues    EBANDS =      -171.63114999
  atomic energy  EATOM  =      3674.67342263
  Solvation  Ediel_sol  =         0.00000000
  ---------------------------------------------------
  free energy    TOTEN  =       -21.80248930 eV

  energy without entropy =      -21.80228021  energy(sigma->0) =      -21.80238475


--------------------------------------------------------------------------------------------------------




--------------------------------------- Iteration      1(  15)  ---------------------------------------


    POTLOK:  cpu time    0.0384: real time    0.0703
    SETDIJ:  cpu time    0.0936: real time    0.0937
     EDDAV:  cpu time    2.1262: real time    2.1265
       DOS:  cpu time    0.0030: real time    0.0034
    CHARGE:  cpu time    0.2886: real time    0.2887
    MIXING:  cpu time    0.0072: real time    0.0074
    --------------------------------------------
      LOOP:  cpu time    2.5569: real time    2.5891

 eigenvalue-minimisations  :  6384
 total energy-change (2. order) : 0.2696588E-06  (-0.1276253E-06)
 number of electron      37.0000000 magnetization
 augmentation part        5.9495841 magnetization

 Broyden mixing:
  rms(total) = 0.19211E-03    rms(broyden)= 0.19195E-03
  rms(prec ) = 0.25032E-03
  weight for this iteration     100.00

 eigenvalues of (default mixing * dielectric matrix)
  average eigenvalue GAMMA=   1.4309
  2.6715  2.3185  2.1518  1.5284  1.0510  1.0510  1.0973  0.6730  0.8833  0.8833

 Free energy of the ion-electron system (eV)
  ---------------------------------------------------
  alpha Z        PSCENC =       222.75802064
  Ewald energy   TEWEN  =     -3170.62418095
  -Hartree energ DENC   =      -712.23893970
  -exchange      EXHF   =         0.00000000
  -V(xc)+E(xc)   XCENC  =        68.08627862
  PAW double counting   =      4017.40433928    -3950.23206803
  entropy T*S    EENTRO =        -0.00020944
  eigenvalues    EBANDS =      -171.62915208
  atomic energy  EATOM  =      3674.67342263
  Solvation  Ediel_sol  =         0.00000000
  ---------------------------------------------------
  free energy    TOTEN  =       -21.80248903 eV

  energy without entropy =      -21.80227958  energy(sigma->0) =      -21.80238431


--------------------------------------------------------------------------------------------------------




--------------------------------------- Iteration      1(  16)  ---------------------------------------


    POTLOK:  cpu time    0.0422: real time    0.0720
    SETDIJ:  cpu time    0.0878: real time    0.0879
     EDDAV:  cpu time    1.3753: real time    1.3756
       DOS:  cpu time    0.0030: real time    0.0033
    --------------------------------------------
      LOOP:  cpu time    1.5082: real time    1.5366

 eigenvalue-minimisations  :  3392
 total energy-change (2. order) : 0.2351908E-07  (-0.1251946E-07)
 number of electron      37.0000000 magnetization
 augmentation part        5.9495841 magnetization

 Free energy of the ion-electron system (eV)
  ---------------------------------------------------
  alpha Z        PSCENC =       222.75802064
  Ewald energy   TEWEN  =     -3170.62418095
  -Hartree energ DENC   =      -712.23855988
  -exchange      EXHF   =         0.00000000
  -V(xc)+E(xc)   XCENC  =        68.08626043
  PAW double counting   =      4017.39790754    -3950.22537662
  entropy T*S    EENTRO =        -0.00020957
  eigenvalues    EBANDS =      -171.62977323
  atomic energy  EATOM  =      3674.67342263
  Solvation  Ediel_sol  =         0.00000000
  ---------------------------------------------------
  free energy    TOTEN  =       -21.80248900 eV

  energy without entropy =      -21.80227943  energy(sigma->0) =      -21.80238422


--------------------------------------------------------------------------------------------------------




 average (electrostatic) potential at core
  the test charge radii are     1.1985  1.0856  1.2059
  (the norm of the test charge is              1.0000)
       1 -56.5260       2-101.9032       3 -65.4240



 E-fermi :   8.9932     XC(G=0): -11.2357     alpha+bet :-14.5859


 k-point     1 :       0.0000    0.0000    0.0000
  band No.  band energies     occupation
      1     -30.9596      2.00000
      2     -14.0598      2.00000
      3     -14.0598      2.00000
      4     -14.0235      2.00000
      5     -14.0235      2.00000
      6     -14.0235      2.00000
      7      -9.0106      2.00000
      8      -9.0106      2.00000
      9      -9.0106      2.00000
     10      -3.4806      2.00000
     11       4.5141      2.00000
     12       4.5141      2.00000
     13       4.5141      2.00000
     14       4.6884      2.00000
     15       4.6884      2.00000
     16       7.2573      2.00000
     17       7.8293      2.00000
     18       7.8293      2.00000
     19       7.8293      2.00000
     20       9.2159      0.00000
     21       9.2159      0.00000
     22       9.2159      0.00000
     23      10.0811      0.00000
     24      11.1056      0.00000

 k-point     2 :       0.0769    0.0000   -0.0000
  band No.  band energies     occupation
      1     -30.9592      2.00000
      2     -14.0607      2.00000
      3     -14.0607      2.00000
      4     -14.0237      2.00000
      5     -14.0234      2.00000
      6     -14.0234      2.00000
      7      -9.0312      2.00000
      8      -9.0079      2.00000
      9      -9.0079      2.00000
     10      -3.4113      2.00000
     11       4.3637      2.00000
     12       4.3637      2.00000
     13       4.3813      2.00000
     14       4.8300      2.00000
     15       4.8300      2.00000
     16       6.8219      2.00000
     17       7.7456      2.00000
     18       7.7456      2.00000
     19       8.1240      2.00000
     20       9.3158      0.00000
     21       9.3158      0.00000
     22       9.3320      0.00000
     23      10.3224      0.00000
     24      11.1126      0.00000

 k-point     3 :       0.1538   -0.0000    0.0000
  band No.  band energies     occupation
      1     -30.9581      2.00000
      2     -14.0631      2.00000
      3     -14.0631      2.00000
      4     -14.0243      2.00000
      5     -14.0229      2.00000
      6     -14.0229      2.00000
      7      -9.0856      2.00000
      8      -9.0003      2.00000
      9      -9.0003      2.00000
     10      -3.2200      2.00000
     11       4.0414      2.00000
     12       4.1783      2.00000
     13       4.1783      2.00000
     14       4.9778      2.00000
     15       4.9778      2.00000
     16       6.2334      2.00000
     17       7.5746      2.00000
     18       7.5746      2.00000
     19       8.2874      2.00000
     20       9.5526      0.00000
     21       9.5526      0.00000
     22       9.8460      0.00000
     23      10.7615      0.00000
     24      11.1236      0.00000

 k-point     4 :       0.2308    0.0000   -0.0000
  band No.  band energies     occupation
      1     -30.9565      2.00000
      2     -14.0666      2.00000
      3     -14.0666      2.00000
      4     -14.0252      2.00000
      5     -14.0221      2.00000
      6     -14.0221      2.00000
      7      -9.1568      2.00000
      8      -8.9897      2.00000
      9      -8.9897      2.00000
     10      -2.9513      2.00000
     11       3.6164      2.00000
     12       4.0383      2.00000
     13       4.0383      2.00000
     14       5.0302      2.00000
     15       5.0302      2.00000
     16       5.7415      2.00000
     17       7.4321      2.00000
     18       7.4321      2.00000
     19       8.3538      2.00000
     20       9.8397      0.00000
     21       9.8397      0.00000
     22      10.5155      0.00000
     23      11.1132      0.00000
     24      11.1143      0.00000

 k-point     5 :       0.3077   -0.0000    0.0000
  band No.  band energies     occupation
      1     -30.9548      2.00000
      2     -14.0703      2.00000
      3     -14.0703      2.00000
      4     -14.0263      2.00000
      5     -14.0213      2.00000
      6     -14.0213      2.00000
      7      -9.2260      2.00000
      8      -8.9785      2.00000
      9      -8.9785      2.00000
     10      -2.6670      2.00000
     11       3.2170      2.00000
[...]
  212              fftbas_plan_mpi                       0.080484                     12   6
  213                dfftw_execute                         0.034615                   36   7
  214                map_backward                          0.005288                   12   7
  215                  map_gather                            0.001173                  6   8
  216                  m_alltoallv_z                         0.002644                  6   8
  217                  map_scatter                           0.001193                  6   8
  218                map_forward                           0.037415                   12   7
  219                  map_gather                            0.019173                  6   8
  220                  m_alltoallv_z                         0.006219                  6   8
  221                  map_scatter                           0.011675                  6   8
  222            M_sumb_d                              0.006045                        6   5
  223          M_sumb_d                              0.000031                          1   4
  224        setdij_                               1.556132                           20   3
  225          fft3d_mpi                             0.280682                         40   4
  226            fftbas_plan_mpi                       0.258132                       40   5
  227              dfftw_execute                         0.116207                    120   6
  228              map_backward                          0.014842                     40   6
  229                map_gather                            0.004273                   20   7
  230                m_alltoallv_z                         0.005992                   20   7
  231                map_scatter                           0.003625                   20   7
  232              map_forward                           0.117247                     40   6
  233                map_gather                            0.057407                   20   7
  234                m_alltoallv_z                         0.019866                   20   7
  235                map_scatter                           0.038987                   20   7
  236          M_sumb_d                              0.013649                         20   4
  237        set_dd_magatom                        0.000003                            1   3
  238        set_dd_paw                            0.010963                            1   3
  239          set_rsgf_all                          0.000004                          1   4
  240          M_sumb_d                              0.010805                          8   4
  241        strkin                                0.001015                            1   3
  242          M_sumb_d                              0.000329                          1   4
  243        strelo                                0.003088                            1   3
  244          M_sumb_d                              0.000342                          2   4
  245        strenl                                1.135359                            1   3
  246          spher                                 0.836492                         19   4
  247          phase                                 0.013248                        189   4
  248          proj1                                 0.259164                       1134   4
  249            crexp_mul_wave                        0.034588                     3402   5
  250            M_sumb_d                              0.079417                     1134   5
  251          M_sumb_d                              0.003546                          1   4
  252        M_sumb_d                              0.000210                            6   3
  253        fft3d_mpi                             0.018160                           11   3
  254          fftbas_plan_mpi                       0.016713                         11   4
  255            dfftw_execute                         0.006372                       33   5
  256            map_forward                           0.003692                       10   5
  257              map_gather                            0.000638                      5   6
  258              m_alltoallv_z                         0.001744                      5   6
  259              map_scatter                           0.001072                      5   6
  260            map_backward                          0.004208                       12   5
  261              map_gather                            0.001160                      6   6
  262              m_alltoallv_z                         0.001698                      6   6
  263              map_scatter                           0.001066                      6   6
  264        ggaall_grid                           0.002034                            1   3
  265        forhar                                0.007245                            2   3
  266          M_sumb_d                              0.000157                          2   4
  267        strehar                               0.003173                            1   3
  268          M_sumb_d                              0.000190                          1   4
  269        chggra                                0.007480                            1   3
  270          fft3d_mpi                             0.004927                          3   4
  271            fftbas_plan_mpi                       0.004563                        3   5
  272              dfftw_execute                         0.001799                      9   6
  273              map_backward                          0.000699                      2   6
  274                map_gather                            0.000215                    1   7
  275                m_alltoallv_z                         0.000252                    1   7
  276                map_scatter                           0.000177                    1   7
  277              map_forward                           0.001343                      4   6
  278                map_gather                            0.000267                    2   7
  279                m_alltoallv_z                         0.000505                    2   7
  280                map_scatter                           0.000472                    2   7
  281          M_sumb_d                              0.000128                          3   4
  282        brmix                                 0.020883                            1   3
  283          M_sumb_d                              0.000261                          6   4
  284          brpre                                 0.000049                          1   4
  285          setg0                                 0.001701                          1   4
  286          broyd                                 0.017532                          1   4
  287            M_sumb_d                              0.000789                       18   5
  288            brget                                 0.000353                       64   5
  289            brsav                                 0.000083                       16   5
  290          M_bcast_z                             0.000170                          1   4
  291          M_bcast_d                             0.000056                          1   4
  292        M_bcast_d                             0.000423                            2   3
  293      potlok                                0.030863                              1   2
  294        fft3d_mpi                             0.020706                           13   3
  295          fftbas_plan_mpi                       0.019171                         13   4
  296            dfftw_execute                         0.007231                       39   5
  297            map_forward                           0.004971                       14   5
  298              map_gather                            0.000852                      8   6
  299              m_alltoallv_z                         0.002000                      8   6
  300              map_scatter                           0.001750                      8   6
  301            map_backward                          0.004130                       12   5
  302              map_gather                            0.001300                      6   6
  303              m_alltoallv_z                         0.001452                      6   6
  304              map_scatter                           0.001091                      6   6
  305        ggaall_grid                           0.002078                            1   3
  306        M_sumb_d                              0.000236                            6   3
  307        M_bcast_d                             0.000116                            1   3
  308      potlok_metagga                        0.000004                              1   2
  309      set_dd_magatom                        0.000004                              1   2
  310      set_dd_paw                            0.000472                              1   2
  311        set_rsgf_all                          0.000004                            1   3
  312        M_sumb_d                              0.000275                            8   3
  313      densta                                0.002449                              1   2
  314        M_sumb_d                              0.000885                           41   3
  315      lprj_proall                           0.000007                              1   2

 Flat profile
 ============

             routine name                   CPU           calls
 ---------------------------------------------------------------
 total_time                             13.114669           1
 dfftw_execute                           6.010065       49464
 eddav                                   5.084046          16
 fftbas_plan_mpi                         3.663239       16490
 M_sumb_d                                2.715999       45930
 setdij_                                 2.604065          40
 set_charge                              2.113861          12
 m_alltoallv_z                           1.685244       16513
 pdssyex_zheevx                          1.487540         336
 elmin                                   1.416351           1
 M_alltoall_d                            1.200251       54936
 spher                                   0.969348          20
 proj1                                   0.956238        6714
 orth1                                   0.925920       11226
 vhamil                                  0.899449        7470
 gemm                                    0.838700       22410
 fftwav_mpi                              0.738842        8730
 map_forward                             0.725306       17738
 map_scatter                             0.679168       16513
 map_gather                              0.676427       16513
 vnlac0                                  0.503725        7470
 M_bcast_z                               0.489479        6286
 redis_pw                                0.464349       21108
 hamiltmu                                0.415407        3735
 redis_proj                              0.408549       26583
 w1_copy                                 0.331461       22410
 fft3d_mpi                               0.282669       16488
 work_mul_crexp                          0.280519       22410
 map_backward                            0.267857       15238
 fftext_mpi                              0.252031        7470
 crpa_reader                             0.225882           1
 crexp_mul_wave                          0.210027       20142
 eccp                                    0.207497        2016
 kinhamil                                0.156478        7470
 overl                                   0.148521       12945
 M_bcast_d                               0.122398        3767
 potlok                                  0.104043          13
 pw_charge                               0.097544        1260
 overl1                                  0.090862        7470
 apply_precond                           0.080884        5454
 setup_precond                           0.069176        2016
 lincom                                  0.063816         357
 force_and_stress                        0.062675           1
 w1_projall                              0.060064        2727
 fornl                                   0.048918           1
 phase                                   0.039691         568
 soft_charge                             0.032658          12
 truncate_high_frequency_w1              0.032230        9486
 ggaall_grid                             0.028333          14
 densta                                  0.025417          17
 broyd                                   0.024098          12
 strenl                                  0.022908           1
 setg0                                   0.017151          13
 brmix                                   0.014937          12
 forhar                                  0.007088           2
 depsum                                  0.005302          12
 forloc                                  0.003445           1
 strehar                                 0.002983           1
 strelo                                  0.002746           1
 chggra                                  0.002424           1
 set_dd_paw                              0.002389          14
 brget                                   0.002389         432
 orthch                                  0.002114           1
 brgrid                                  0.001980           1
 choleski                                0.001855          21
 proj                                    0.001624          21
 brsav                                   0.001086         128
 brpre                                   0.000725          12
 strkin                                  0.000686           1
 fordep                                  0.000126           1
 vectorpot                               0.000070          13
 set_rsgf_all                            0.000064          14
 potlok_metagga                          0.000053          13
 set_dd_magatom                          0.000052          14
 set_kineden                             0.000037          11
 rotate_active_occupied_orbital          0.000015           1
 lprj_proall                             0.000007           1
 redis_pw_over_bands                     0.000003           1
 ---------------------------------------------------------------
  summed up times    54.2262470722198

 Accumulative profile
 ====================

             routine name                   CPU           calls
 ---------------------------------------------------------------
 total_time                             54.226247           1
 elmin                                  36.297802           1
 eddav                                  30.063619          16
 fft3d_mpi                              13.907387       16488
 fftbas_plan_mpi                        13.707306       16490
 hamiltmu                                9.552816        3735
 fftwav_mpi                              7.867706        8730
 kinhamil                                6.053454        7470
 dfftw_execute                           6.010065       49464
 fftext_mpi                              5.896976        7470
 force_and_stress                        3.658508           1
 set_charge                              3.539044          12
 setdij_                                 3.232369          40
 M_sumb_d                                2.715999       45930
 map_forward                             2.482937       17738
 vnlac0                                  2.093645        7470
 m_alltoallv_z                           1.685244       16513
 proj1                                   1.625109        6714
 map_backward                            1.551065       15238
 pdssyex_zheevx                          1.487540         336
 w1_projall                              1.397984        2727
 soft_charge                             1.225821          12
 M_alltoall_d                            1.200251       54936
 redis_pw                                1.145053       21108
 strenl                                  1.135359           1
 spher                                   0.969348          20
 redis_proj                              0.928097       26583
 orth1                                   0.925920       11226
 vhamil                                  0.899449        7470
 gemm                                    0.838700       22410
 map_scatter                             0.679168       16513
 map_gather                              0.676427       16513
 M_bcast_z                               0.489479        6286
 fordep                                  0.472529           1
 potlok                                  0.402349          13
 w1_copy                                 0.331461       22410
 eccp                                    0.325445        2016
 work_mul_crexp                          0.280519       22410
 crpa_reader                             0.225882           1
 crexp_mul_wave                          0.210027       20142
 set_dd_paw                              0.153126          14
 overl                                   0.148521       12945
 M_bcast_d                               0.122398        3767
 setup_precond                           0.119608        2016
 pw_charge                               0.097544        1260
 overl1                                  0.090862        7470
 apply_precond                           0.080884        5454
 brmix                                   0.076354          12
 fornl                                   0.065159           1
 lincom                                  0.063816         357
 phase                                   0.039691         568
 densta                                  0.038611          17
 orthch                                  0.035838           1
 broyd                                   0.032389          12
 truncate_high_frequency_w1              0.032230        9486
 proj                                    0.029649          21
 ggaall_grid                             0.028333          14
 setg0                                   0.017151          13
 depsum                                  0.008904          12
 chggra                                  0.007480           1
 forhar                                  0.007245           2
 forloc                                  0.003508           1
 strehar                                 0.003173           1
 strelo                                  0.003088           1
 brget                                   0.002389         432
 brgrid                                  0.001980           1
 choleski                                0.001855          21
 brsav                                   0.001086         128
 strkin                                  0.001015           1
 brpre                                   0.000725          12
 vectorpot                               0.000070          13
 set_rsgf_all                            0.000064          14
 potlok_metagga                          0.000053          13
 set_dd_magatom                          0.000052          14
 set_kineden                             0.000037          11
 rotate_active_occupied_orbital          0.000015           1
 lprj_proall                             0.000007           1
 redis_pw_over_bands                     0.000003           1
 ---------------------------------------------------------------

Profiling took   1.313513  1.565738  0.006111  0.004589 seconds
Profiling took   1.276810 seconds
