 ----------------------------------------------------
    OOO  PPPP  EEEEE N   N M   M PPPP
   O   O P   P E     NN  N MM MM P   P
   O   O PPPP  EEEEE N N N M M M PPPP   -- VERSION
   O   O P     E     N  NN M   M P
    OOO  P     EEEEE N   N M   M P
 ----------------------------------------------------
 running   64 mpi-ranks, with    1 threads/rank
 distrk:  each k-point on   16 cores,    4 groups
 distr:  one band on    4 cores,    4 groups
 using from now: INCAR
 vasp.6.0.8 29Jun18 (build Jun 13 2019 12:54:44) complex

 POSCAR found type information on POSCAR  Th Bi Pt
 POSCAR found :  3 types and       3 ions
 scaLAPACK will be used
 WARNING: PSMAXN for non-local potential too small

 -----------------------------------------------------------------------------
|                                                                             |
|  ADVICE TO THIS USER RUNNING 'VASP/VAMP'   (HEAR YOUR MASTER'S VOICE ...):  |
|                                                                             |
|      You enforced a specific xc-type in the INCAR file,                     |
|      a different type was found on the POTCAR file                          |
|          I HOPE YOU KNOW, WHAT YOU ARE  DOING                               |
|                                                                             |
 -----------------------------------------------------------------------------

 LDA part: xc-table for Pade appr. of Perdew
 POSCAR, INCAR and KPOINTS ok, starting setup
 FFT: planning ...
 WAVECAR not read
 entering main loop
       N       E                     dE             d eps       ncg     rms          rms(c)
 ELPA: falling back to scaLAPACK
 ELPA: falling back to scaLAPACK
 ELPA: falling back to scaLAPACK
 ELPA: falling back to scaLAPACK
DAV:   1     0.445670315605E+03    0.44567E+03   -0.20631E+04  4032   0.204E+03
DAV:   2     0.449638413714E+02   -0.40071E+03   -0.39224E+03  4192   0.499E+02
DAV:   3    -0.186004405824E+02   -0.63564E+02   -0.62746E+02  5568   0.168E+02
DAV:   4    -0.227454899173E+02   -0.41450E+01   -0.41337E+01  7384   0.435E+01
DAV:   5    -0.228526592394E+02   -0.10717E+00   -0.10714E+00  5512   0.552E+00    0.354E+01
DAV:   6    -0.219861448747E+02    0.86651E+00   -0.16250E+00  5024   0.832E+00    0.214E+01
DAV:   7    -0.218588149076E+02    0.12733E+00   -0.21763E+00  6112   0.818E+00    0.630E+00
DAV:   8    -0.218157783029E+02    0.43037E-01   -0.31669E-01  5200   0.288E+00    0.418E+00
DAV:   9    -0.218079352417E+02    0.78431E-02   -0.18375E-01  6008   0.217E+00    0.355E+00
DAV:  10    -0.218023866300E+02    0.55486E-02   -0.31081E-02  5120   0.102E+00    0.673E-01
DAV:  11    -0.218025785004E+02   -0.19187E-03   -0.20262E-03  5840   0.264E-01    0.421E-01
DAV:  12    -0.218024919584E+02    0.86542E-04   -0.36341E-04  5624   0.110E-01    0.127E-01
DAV:  13    -0.218024903061E+02    0.16523E-05   -0.13168E-04  6432   0.609E-02    0.371E-02
DAV:  14    -0.218024892956E+02    0.10106E-05   -0.78424E-06  5144   0.170E-02    0.234E-02
DAV:  15    -0.218024890259E+02    0.26966E-06   -0.12763E-06  6384   0.672E-03    0.192E-03
DAV:  16    -0.218024890024E+02    0.23519E-07   -0.12519E-07  3392   0.209E-03
   1 F= -.21802489E+02 E0= -.21802384E+02  d E =-.209570E-03
