<?xml version="1.0" encoding="ISO-8859-1"?>
<modeling>
 <generator>
  <i name="program" type="string">vasp </i>
  <i name="version" type="string">6.0.8  </i>
  <i name="subversion" type="string">29Jun18 (build Jun 13 2019 12:54:44) complex                          parallel </i>
  <i name="platform" type="string">IFC18_CrayMPICH </i>
  <i name="date" type="string">2021 12 05 </i>
  <i name="time" type="string">14:21:47 </i>
 </generator>
 <incar>
  <i type="int" name="KPAR">     4</i>
  <i type="int" name="NPAR">     4</i>
  <i type="int" name="ISTART">     0</i>
  <i type="string" name="PREC"> ACC</i>
  <i type="string" name="ALGO"> Normal</i>
  <i type="logical" name="ADDGRID"> T  </i>
  <i type="int" name="ISPIN">     1</i>
  <i type="int" name="NELMIN">     5</i>
  <i type="int" name="IBRION">    -1</i>
  <i name="EDIFF">      0.00000010</i>
  <i type="int" name="NSW">     0</i>
  <i type="int" name="ISIF">     3</i>
  <i name="ENCUT">    700.00000000</i>
  <i type="logical" name="LREAL"> F  </i>
  <i type="int" name="ISMEAR">     0</i>
  <i name="SIGMA">      0.01000000</i>
  <i type="logical" name="LWAVE"> F  </i>
  <i type="logical" name="LCHARG"> F  </i>
  <i type="logical" name="LVTOT"> F  </i>
  <i type="string" name="ALGO"> Normal</i>
  <i type="string" name="GGA"> PS</i>
  <i name="EDIFF">      0.00000010</i>
  <i type="int" name="ISPIN">     1</i>
 </incar>
 <structure name="primitive_cell" >
  <crystal>
   <varray name="basis" >
    <v>       0.00000000       3.37857145       3.37857145 </v>
    <v>       3.37857145       0.00000000       3.37857145 </v>
    <v>       3.37857145       3.37857145       0.00000000 </v>
   </varray>
   <i name="volume">     77.13106325 </i>
   <varray name="rec_basis" >
    <v>      -0.14799154       0.14799154       0.14799154 </v>
    <v>       0.14799154      -0.14799154       0.14799154 </v>
    <v>       0.14799154       0.14799154      -0.14799154 </v>
   </varray>
  </crystal>
  <varray name="positions" >
   <v>       0.25000000       0.25000000       0.25000000 </v>
   <v>       0.75000000       0.75000000       0.75000000 </v>
   <v>       0.00000000       0.00000000       0.00000000 </v>
  </varray>
 </structure>
 <varray name="primitive_index" >
  <v type="int" >        1 </v>
  <v type="int" >        2 </v>
  <v type="int" >        3 </v>
 </varray>
 <kpoints>
  <generation param="Gamma">
   <v type="int" name="divisions">      13       13       13 </v>
   <v name="usershift">      0.00000000       0.00000000       0.00000000 </v>
   <v name="genvec1">      0.07692308       0.00000000      -0.00000000 </v>
   <v name="genvec2">      0.00000000       0.07692308       0.00000000 </v>
   <v name="genvec3">     -0.00000000      -0.00000000       0.07692308 </v>
   <v name="shift">      0.00000000       0.00000000       0.00000000 </v>
  </generation>
  <varray name="kpointlist" >
   <v>       0.00000000       0.00000000       0.00000000 </v>
   <v>       0.07692308       0.00000000      -0.00000000 </v>
   <v>       0.15384615      -0.00000000       0.00000000 </v>
   <v>       0.23076923       0.00000000      -0.00000000 </v>
   <v>       0.30769231      -0.00000000       0.00000000 </v>
   <v>       0.38461538       0.00000000      -0.00000000 </v>
   <v>       0.46153846      -0.00000000       0.00000000 </v>
   <v>       0.07692308       0.07692308       0.00000000 </v>
   <v>       0.15384615       0.07692308       0.00000000 </v>
   <v>       0.23076923       0.07692308       0.00000000 </v>
   <v>       0.30769231       0.07692308      -0.00000000 </v>
   <v>       0.38461538       0.07692308       0.00000000 </v>
   <v>       0.46153846       0.07692308       0.00000000 </v>
   <v>      -0.46153846       0.07692308       0.00000000 </v>
   <v>      -0.38461538       0.07692308       0.00000000 </v>
   <v>      -0.30769231       0.07692308       0.00000000 </v>
   <v>      -0.23076923       0.07692308       0.00000000 </v>
   <v>      -0.15384615       0.07692308       0.00000000 </v>
   <v>      -0.07692308       0.07692308       0.00000000 </v>
   <v>       0.15384615       0.15384615       0.00000000 </v>
   <v>       0.23076923       0.15384615       0.00000000 </v>
   <v>       0.30769231       0.15384615       0.00000000 </v>
   <v>       0.38461538       0.15384615      -0.00000000 </v>
   <v>       0.46153846       0.15384615      -0.00000000 </v>
   <v>      -0.46153846       0.15384615      -0.00000000 </v>
   <v>      -0.38461538       0.15384615       0.00000000 </v>
   <v>      -0.30769231       0.15384615      -0.00000000 </v>
   <v>      -0.23076923       0.15384615      -0.00000000 </v>
   <v>      -0.15384615       0.15384615      -0.00000000 </v>
   <v>       0.23076923       0.23076923       0.00000000 </v>
   <v>       0.30769231       0.23076923       0.00000000 </v>
   <v>       0.38461538       0.23076923       0.00000000 </v>
   <v>       0.46153846       0.23076923       0.00000000 </v>
   <v>      -0.46153846       0.23076923      -0.00000000 </v>
   <v>      -0.38461538       0.23076923      -0.00000000 </v>
   <v>      -0.30769231       0.23076923       0.00000000 </v>
   <v>      -0.23076923       0.23076923       0.00000000 </v>
   <v>       0.30769231       0.30769231       0.00000000 </v>
   <v>       0.38461538       0.30769231       0.00000000 </v>
   <v>       0.46153846       0.30769231       0.00000000 </v>
   <v>      -0.46153846       0.30769231       0.00000000 </v>
   <v>      -0.38461538       0.30769231       0.00000000 </v>
   <v>      -0.30769231       0.30769231      -0.00000000 </v>
   <v>       0.38461538       0.38461538       0.00000000 </v>
   <v>       0.46153846       0.38461538       0.00000000 </v>
   <v>      -0.46153846       0.38461538      -0.00000000 </v>
   <v>      -0.38461538       0.38461538       0.00000000 </v>
   <v>       0.46153846       0.46153846       0.00000000 </v>
   <v>      -0.46153846       0.46153846      -0.00000000 </v>
   <v>       0.23076923       0.15384615       0.07692308 </v>
   <v>       0.30769231       0.15384615       0.07692308 </v>
   <v>       0.38461538       0.15384615       0.07692308 </v>
   <v>       0.46153846       0.15384615       0.07692308 </v>
   <v>      -0.46153846       0.15384615       0.07692308 </v>
   <v>       0.30769231       0.23076923       0.07692308 </v>
   <v>       0.38461538       0.23076923       0.07692308 </v>
   <v>       0.46153846       0.23076923       0.07692308 </v>
   <v>      -0.46153846       0.23076923       0.07692308 </v>
   <v>      -0.38461538       0.23076923       0.07692308 </v>
   <v>      -0.30769231       0.23076923       0.07692308 </v>
   <v>      -0.23076923       0.23076923       0.07692308 </v>
   <v>      -0.15384615       0.23076923       0.07692308 </v>
   <v>       0.38461538       0.30769231       0.07692308 </v>
   <v>       0.46153846       0.30769231       0.07692308 </v>
   <v>      -0.46153846       0.30769231       0.07692308 </v>
   <v>      -0.38461538       0.30769231       0.07692308 </v>
   <v>      -0.30769231       0.30769231       0.07692308 </v>
   <v>      -0.23076923       0.30769231       0.07692308 </v>
   <v>       0.46153846       0.38461538       0.07692308 </v>
   <v>      -0.46153846       0.38461538       0.07692308 </v>
   <v>      -0.38461538       0.38461538       0.07692308 </v>
   <v>      -0.30769231       0.38461538       0.07692308 </v>
   <v>      -0.46153846       0.46153846       0.07692308 </v>
   <v>      -0.38461538       0.46153846       0.07692308 </v>
   <v>       0.46153846       0.30769231       0.15384615 </v>
   <v>      -0.46153846       0.30769231       0.15384615 </v>
   <v>      -0.38461538       0.30769231       0.15384615 </v>
   <v>      -0.46153846       0.38461538       0.15384615 </v>
   <v>      -0.38461538       0.38461538       0.15384615 </v>
   <v>      -0.30769231       0.38461538       0.15384615 </v>
   <v>      -0.23076923       0.38461538       0.15384615 </v>
   <v>      -0.38461538       0.46153846       0.15384615 </v>
   <v>      -0.30769231       0.46153846       0.15384615 </v>
   <v>      -0.30769231       0.46153846       0.23076923 </v>
  </varray>
  <varray name="weights" >
   <v>       0.00045517 </v>
   <v>       0.00364133 </v>
   <v>       0.00364133 </v>
   <v>       0.00364133 </v>
   <v>       0.00364133 </v>
   <v>       0.00364133 </v>
   <v>       0.00364133 </v>
   <v>       0.00273100 </v>
   <v>       0.01092399 </v>
   <v>       0.01092399 </v>
   <v>       0.01092399 </v>
   <v>       0.01092399 </v>
   <v>       0.01092399 </v>
   <v>       0.01092399 </v>
   <v>       0.01092399 </v>
   <v>       0.01092399 </v>
   <v>       0.01092399 </v>
   <v>       0.01092399 </v>
   <v>       0.00546199 </v>
   <v>       0.00273100 </v>
   <v>       0.01092399 </v>
   <v>       0.01092399 </v>
   <v>       0.01092399 </v>
   <v>       0.01092399 </v>
   <v>       0.01092399 </v>
   <v>       0.01092399 </v>
   <v>       0.01092399 </v>
   <v>       0.01092399 </v>
   <v>       0.00546199 </v>
   <v>       0.00273100 </v>
   <v>       0.01092399 </v>
   <v>       0.01092399 </v>
   <v>       0.01092399 </v>
   <v>       0.01092399 </v>
   <v>       0.01092399 </v>
   <v>       0.01092399 </v>
   <v>       0.00546199 </v>
   <v>       0.00273100 </v>
   <v>       0.01092399 </v>
   <v>       0.01092399 </v>
   <v>       0.01092399 </v>
   <v>       0.01092399 </v>
   <v>       0.00546199 </v>
   <v>       0.00273100 </v>
   <v>       0.01092399 </v>
   <v>       0.01092399 </v>
   <v>       0.00546199 </v>
   <v>       0.00273100 </v>
   <v>       0.00546199 </v>
   <v>       0.01092399 </v>
   <v>       0.02184797 </v>
   <v>       0.02184797 </v>
   <v>       0.02184797 </v>
   <v>       0.02184797 </v>
   <v>       0.01092399 </v>
   <v>       0.02184797 </v>
   <v>       0.02184797 </v>
   <v>       0.02184797 </v>
   <v>       0.02184797 </v>
   <v>       0.02184797 </v>
   <v>       0.02184797 </v>
   <v>       0.01092399 </v>
   <v>       0.01092399 </v>
   <v>       0.02184797 </v>
   <v>       0.02184797 </v>
   <v>       0.02184797 </v>
   <v>       0.02184797 </v>
   <v>       0.01092399 </v>
   <v>       0.01092399 </v>
   <v>       0.02184797 </v>
   <v>       0.02184797 </v>
   <v>       0.01092399 </v>
   <v>       0.01092399 </v>
   <v>       0.01092399 </v>
   <v>       0.01092399 </v>
   <v>       0.02184797 </v>
   <v>       0.02184797 </v>
   <v>       0.01092399 </v>
   <v>       0.02184797 </v>
   <v>       0.02184797 </v>
   <v>       0.01092399 </v>
   <v>       0.01092399 </v>
   <v>       0.01092399 </v>
   <v>       0.01092399 </v>
  </varray>
 </kpoints>
 <parameters>
  <separator name="general" >
   <i type="string" name="SYSTEM">unknown system</i>
   <i type="logical" name="LCOMPAT"> F  </i>
  </separator>
  <separator name="electronic" >
   <i type="string" name="PREC">acc</i>
   <i name="ENMAX">    700.00000000</i>
   <i name="ENAUG">    535.43100000</i>
   <i name="EDIFF">      0.00000010</i>
   <i type="int" name="IALGO">    38</i>
   <i type="int" name="IWAVPR">    10</i>
   <i type="int" name="NBANDS">    24</i>
   <i type="int" name="NBANDSLOW">    -1</i>
   <i type="int" name="NBANDSHIGH">    -1</i>
   <i name="NELECT">     37.00000000</i>
   <i type="int" name="TURBO">     0</i>
   <i type="int" name="IRESTART">     0</i>
   <i type="int" name="NREBOOT">     0</i>
   <i type="int" name="NMIN">     0</i>
   <i name="EREF">      0.00000000</i>
   <separator name="electronic smearing" >
    <i type="int" name="ISMEAR">     0</i>
    <i name="SIGMA">      0.01000000</i>
    <i name="KSPACING">      0.50000000</i>
    <i type="logical" name="KGAMMA"> T  </i>
    <i type="logical" name="KBLOWUP"> T  </i>
   </separator>
   <separator name="electronic projectors" >
    <i type="logical" name="LREAL"> F  </i>
    <v name="ROPT">      0.00000000      0.00000000      0.00000000</v>
    <i type="int" name="LMAXPAW">  -100</i>
    <i type="int" name="LMAXMIX">     2</i>
    <i type="logical" name="NLSPLINE"> F  </i>
   </separator>
   <separator name="electronic startup" >
    <i type="int" name="ISTART">     0</i>
    <i type="int" name="ICHARG">     2</i>
    <i type="int" name="INIWAV">     1</i>
   </separator>
   <separator name="electronic spin" >
    <i type="int" name="ISPIN">     1</i>
    <i type="logical" name="LNONCOLLINEAR"> F  </i>
    <v name="MAGMOM">      1.00000000      1.00000000      1.00000000</v>
    <i name="NUPDOWN">     -1.00000000</i>
    <i type="logical" name="LSORBIT"> F  </i>
    <v name="SAXIS">      0.00000000      0.00000000      1.00000000</v>
    <i type="logical" name="LSPIRAL"> F  </i>
    <v name="QSPIRAL">      0.00000000      0.00000000      0.00000000</v>
    <i type="logical" name="LZEROZ"> F  </i>
   </separator>
   <separator name="electronic exchange-correlation" >
    <i type="logical" name="LASPH"> F  </i>
    <i type="logical" name="LMETAGGA"> F  </i>
   </separator>
   <separator name="electronic convergence" >
    <i type="int" name="NELM">    60</i>
    <i type="int" name="NELMDL">    -5</i>
    <i type="int" name="NELMIN">     5</i>
    <i name="ENINI">    700.00000000</i>
    <separator name="electronic convergence detail" >
     <i type="logical" name="LDIAG"> T  </i>
     <i type="logical" name="LSUBROT"> F  </i>
     <i name="WEIMIN">      0.00000000</i>
     <i name="EBREAK">      0.00000000</i>
     <i name="DEPER">      0.30000000</i>
     <i type="int" name="NRMM">     4</i>
     <i name="TIME">      0.40000000</i>
    </separator>
   </separator>
   <separator name="electronic mixer" >
    <i name="AMIX">      0.40000000</i>
    <i name="BMIX">      1.00000000</i>
    <i name="AMIN">      0.10000000</i>
    <i name="AMIX_MAG">      1.60000000</i>
    <i name="BMIX_MAG">      1.00000000</i>
    <separator name="electronic mixer details" >
     <i type="int" name="IMIX">     4</i>
     <i type="logical" name="MIXFIRST"> F  </i>
     <i type="int" name="MAXMIX">   -45</i>
     <i name="WC">    100.00000000</i>
     <i type="int" name="INIMIX">     1</i>
     <i type="int" name="MIXPRE">     1</i>
     <i type="int" name="MREMOVE">     5</i>
    </separator>
   </separator>
   <separator name="electronic dipolcorrection" >
    <i type="logical" name="LDIPOL"> F  </i>
    <i type="logical" name="LMONO"> F  </i>
    <i type="int" name="IDIPOL">     0</i>
    <i name="EPSILON">      1.00000000</i>
    <v name="DIPOL">   -100.00000000   -100.00000000   -100.00000000</v>
    <i name="EFIELD">      0.00000000</i>
   </separator>
  </separator>
  <separator name="grids" >
   <i type="int" name="NGX">    42</i>
   <i type="int" name="NGY">    42</i>
   <i type="int" name="NGZ">    42</i>
   <i type="int" name="NGXF">    84</i>
   <i type="int" name="NGYF">    84</i>
   <i type="int" name="NGZF">    84</i>
   <i type="logical" name="ADDGRID"> T  </i>
  </separator>
  <separator name="ionic" >
   <i type="int" name="NSW">     0</i>
   <i type="int" name="IBRION">    -1</i>
   <i type="int" name="MDALGO">     0</i>
   <i type="int" name="ISIF">     3</i>
   <i name="PSTRESS">      0.00000000</i>
   <i name="EDIFFG">      0.00000100</i>
   <i type="int" name="NFREE">     0</i>
   <i name="POTIM">      0.50000000</i>
   <i name="SMASS">     -3.00000000</i>
   <i name="SCALEE">      1.00000000</i>
  </separator>
  <separator name="ionic md" >
   <i name="TEBEG">      0.00010000</i>
   <i name="TEEND">      0.00010000</i>
   <i type="int" name="NBLOCK">     1</i>
   <i type="int" name="KBLOCK">     1</i>
   <i type="int" name="NPACO">   256</i>
   <i name="APACO">     16.00000000</i>
  </separator>
  <separator name="symmetry" >
   <i type="int" name="ISYM">     2</i>
   <i name="SYMPREC">      0.00001000</i>
  </separator>
  <separator name="dos" >
   <i type="int" name="LORBIT">     0</i>
   <v name="RWIGS">     -1.00000000     -1.00000000     -1.00000000</v>
   <i type="int" name="NEDOS">   301</i>
   <i name="EMIN">     10.00000000</i>
   <i name="EMAX">    -10.00000000</i>
   <i name="EFERMI">      0.00000000</i>
  </separator>
  <separator name="writing" >
   <i type="int" name="NWRITE">     2</i>
   <i type="logical" name="LWAVE"> F  </i>
   <i type="logical" name="LDOWNSAMPLE"> F  </i>
   <i type="logical" name="LCHARG"> F  </i>
   <i type="logical" name="LPARD"> F  </i>
   <i type="logical" name="LVTOT"> F  </i>
   <i type="logical" name="LVHAR"> F  </i>
   <i type="logical" name="LELF"> F  </i>
   <i type="logical" name="LOPTICS"> F  </i>
   <v name="STM">      0.00000000      0.00000000      0.00000000      0.00000000      0.00000000      0.00000000      0.00000000</v>
  </separator>
  <separator name="performance" >
   <i type="int" name="NPAR">     4</i>
   <i type="int" name="NSIM">     4</i>
   <i type="int" name="NBLK">    -1</i>
   <i type="logical" name="LPLANE"> T  </i>
   <i type="logical" name="LSCALAPACK"> T  </i>
   <i type="logical" name="LSCAAWARE"> F  </i>
   <i type="logical" name="LSCALU"> F  </i>
   <i type="logical" name="LASYNC"> F  </i>
   <i type="logical" name="LORBITALREAL"> F  </i>
  </separator>
  <separator name="miscellaneous" >
   <i type="int" name="IDIOT">     3</i>
   <i type="int" name="PHON_NSTRUCT">    -1</i>
   <i type="logical" name="LMUSIC"> F  </i>
   <v name="POMASS">    232.03900000    208.98000000    195.08000000</v>
   <v name="DARWINR">      0.00000000      0.00000000      0.00000000</v>
   <v name="DARWINV">      1.00000000      1.00000000      1.00000000</v>
   <i type="logical" name="LCORR"> T  </i>
  </separator>
  <i type="logical" name="GGA_COMPAT"> T  </i>
  <i type="logical" name="LBERRY"> F  </i>
  <i type="int" name="ICORELEVEL">     0</i>
  <i type="logical" name="LDAU"> F  </i>
  <i type="int" name="I_CONSTRAINED_M">     0</i>
  <separator name="electronic exchange-correlation" >
   <i type="string" name="GGA">PS</i>
   <i type="int" name="VOSKOWN">     0</i>
   <i type="logical" name="LHFCALC"> F  </i>
   <i type="string" name="PRECFOCK"></i>
   <i type="logical" name="LSYMGRAD"> F  </i>
   <i type="logical" name="LHFONE"> F  </i>
   <i type="logical" name="LRHFCALC"> F  </i>
   <i type="logical" name="LTHOMAS"> F  </i>
   <i type="logical" name="LMODELHF"> F  </i>
   <i type="logical" name="LFOCKACE"> F  </i>
   <i name="ENCUT4O">     -1.00000000</i>
   <i type="int" name="EXXOEP">     0</i>
   <i type="int" name="FOURORBIT">     0</i>
   <i name="AEXX">      0.00000000</i>
   <i name="HFALPHA">      0.00000000</i>
   <i name="MCALPHA">      0.00000000</i>
   <i name="ALDAX">      1.00000000</i>
   <i name="AGGAX">      1.00000000</i>
   <i name="ALDAC">      1.00000000</i>
   <i name="AGGAC">      1.00000000</i>
   <i type="int" name="NKREDX">     1</i>
   <i type="int" name="NKREDY">     1</i>
   <i type="int" name="NKREDZ">     1</i>
   <i type="logical" name="SHIFTRED"> F  </i>
   <i type="logical" name="ODDONLY"> F  </i>
   <i type="logical" name="EVENONLY"> F  </i>
   <i type="int" name="LMAXFOCK">     0</i>
   <i type="int" name="NMAXFOCKAE">     0</i>
   <i type="logical" name="LFOCKAEDFT"> F  </i>
   <i name="HFSCREEN">      0.00000000</i>
   <i name="HFSCREENC">      0.00000000</i>
   <i type="int" name="NBANDSGWLOW">     0</i>
  </separator>
  <separator name="vdW DFT" >
   <i type="logical" name="LUSE_VDW"> F  </i>
   <i name="Zab_VDW">     -0.84910000</i>
   <i name="PARAM1">      0.12340000</i>
   <i name="PARAM2">      1.00000000</i>
   <i name="PARAM3">      0.00000000</i>
  </separator>
  <separator name="model GW" >
   <i type="int" name="MODEL_GW">     0</i>
   <i name="MODEL_EPS0">     15.42621265</i>
   <i name="MODEL_ALPHA">      1.00000000</i>
  </separator>
  <separator name="linear response parameters" >
   <i type="logical" name="LEPSILON"> F  </i>
   <i type="logical" name="LRPA"> F  </i>
   <i type="logical" name="LNABLA"> F  </i>
   <i type="logical" name="LVEL"> F  </i>
   <i type="int" name="KINTER">     0</i>
   <i name="CSHIFT">      0.10000000</i>
   <i name="OMEGAMAX">     -1.00000000</i>
   <i name="DEG_THRESHOLD">      0.00200000</i>
   <i name="RTIME">     -0.10000000</i>
   <i name="WPLASMAI">      0.00000000</i>
   <v name="DFIELD">      0.00000000      0.00000000      0.00000000</v>
   <v name="WPLASMA">      0.00000000      0.00000000      0.00000000      0.00000000      0.00000000      0.00000000      0.00000000      0.00000000      0.00000000</v>
  </separator>
  <separator name="orbital magnetization" >
   <i type="logical" name="NUCIND"> F  </i>
   <v name="MAGPOS">      0.00000000      0.00000000      0.00000000</v>
   <i type="logical" name="LNICSALL"> T  </i>
   <i type="logical" name="ORBITALMAG"> F  </i>
   <i type="logical" name="LMAGBLOCH"> F  </i>
   <i type="logical" name="LCHIMAG"> F  </i>
   <i type="logical" name="LGAUGE"> T  </i>
   <i type="int" name="MAGATOM">     0</i>
   <v name="MAGDIPOL">      0.00000000      0.00000000      0.00000000</v>
   <v name="AVECCONST">      0.00000000      0.00000000      0.00000000</v>
  </separator>
  <separator name="response functions" >
   <i type="logical" name="LFINITE_TEMPERATURE"> F  </i>
   <i type="logical" name="LADDER"> F  </i>
   <i type="logical" name="LRPAFORCE"> F  </i>
   <i type="logical" name="LFXC"> F  </i>
   <i type="logical" name="LHARTREE"> T  </i>
   <i type="int" name="IBSE">     0</i>
   <v type="int" name="KPOINT">    -1     0     0     0</v>
   <i type="logical" name="LTCTC"> F  </i>
   <i type="logical" name="LTCTE"> F  </i>
   <i type="logical" name="LTETE"> F  </i>
   <i type="logical" name="LTRIPLET"> F  </i>
   <i type="logical" name="LFXCEPS"> F  </i>
   <i type="logical" name="LFXHEG"> F  </i>
   <i type="int" name="NATURALO">     2</i>
   <i type="logical" name="L2ORDER"> F  </i>
   <i type="logical" name="LDMP1"> F  </i>
   <i type="logical" name="LMP2LT"> F  </i>
   <i type="logical" name="LSMP2LT"> F  </i>
   <i type="logical" name="LUSEW"> F  </i>
   <i name="ENCUTGW">     -2.00000000</i>
   <i name="ENCUTGWSOFT">     -2.00000000</i>
   <i name="ENCUTLF">     -1.00000000</i>
   <i type="int" name="LMAXMP2">    -1</i>
   <i name="SCISSOR">      0.00000000</i>
   <i type="int" name="NOMEGA">     0</i>
   <i type="int" name="NOMEGAR">     0</i>
   <i type="int" name="NBANDSGW">    -1</i>
   <i type="int" name="NBANDSO">    -1</i>
   <i type="int" name="NBANDSV">    -1</i>
   <i type="int" name="NELM">     1</i>
   <i type="int" name="NELMHF">     1</i>
   <i type="int" name="DIM">     3</i>
   <i type="int" name="IESPILON">     4</i>
   <i type="int" name="ANTIRES">     0</i>
   <i name="OMEGAMAX">    -30.00000000</i>
   <i name="OMEGAMIN">    -30.00000000</i>
   <i name="OMEGATL">   -200.00000000</i>
   <i type="int" name="OMEGAGRID">   145</i>
   <i name="CSHIFT">     -0.10000000</i>
   <i type="logical" name="LSELFENERGY"> F  </i>
   <i type="logical" name="LSPECTRAL"> F  </i>
   <i type="logical" name="LSPECTRALGW"> F  </i>
   <i type="logical" name="LSINGLES"> F  </i>
   <i type="logical" name="LFERMIGW"> F  </i>
   <i type="logical" name="ODDONLYGW"> F  </i>
   <i type="logical" name="EVENONLYGW"> F  </i>
   <i type="int" name="NKREDLFX">     1</i>
   <i type="int" name="NKREDLFY">     1</i>
   <i type="int" name="NKREDLFZ">     1</i>
   <i type="int" name="MAXMEM">  2800</i>
   <i type="int" name="TELESCOPE">     0</i>
   <i type="int" name="NTAUPAR">     1</i>
   <i type="int" name="NOMEGAPAR">    -1</i>
   <i name="LAMBDA">      1.00000000</i>
  </separator>
  <separator name="External order field" >
   <i name="OFIELD_KAPPA">      0.00000000</i>
   <v name="OFIELD_K">      0.00000000      0.00000000      0.00000000</v>
   <i name="OFIELD_Q6_NEAR">      0.00000000</i>
   <i name="OFIELD_Q6_FAR">      0.00000000</i>
   <i name="OFIELD_A">      0.00000000</i>
  </separator>
 </parameters>
 <atominfo>
  <atoms>       3 </atoms>
  <types>       3 </types>
  <array name="atoms" >
   <dimension dim="1">ion</dimension>
   <field type="string">element</field>
   <field type="int">atomtype</field>
   <set>
    <rc><c>Th</c><c>   1</c></rc>
    <rc><c>Bi</c><c>   2</c></rc>
    <rc><c>Pt</c><c>   3</c></rc>
   </set>
  </array>
  <array name="atomtypes" >
   <dimension dim="1">type</dimension>
   <field type="int">atomspertype</field>
   <field type="string">element</field>
   <field>mass</field>
   <field>valence</field>
   <field type="string">pseudopotential</field>
   <set>
    <rc><c>   1</c><c>Th</c><c>    232.03900000</c><c>     12.00000000</c><c>  PAW_PBE Th 07Sep2000                  </c></rc>
    <rc><c>   1</c><c>Bi</c><c>    208.98000000</c><c>     15.00000000</c><c>  PAW_PBE Bi_d 06Sep2000                </c></rc>
    <rc><c>   1</c><c>Pt</c><c>    195.08000000</c><c>     10.00000000</c><c>  PAW_PBE Pt 04Feb2005                  </c></rc>
   </set>
  </array>
 </atominfo>
 <structure name="initialpos" >
  <crystal>
   <varray name="basis" >
    <v>       0.00000000       3.37857145       3.37857145 </v>
    <v>       3.37857145       0.00000000       3.37857145 </v>
    <v>       3.37857145       3.37857145       0.00000000 </v>
   </varray>
   <i name="volume">     77.13106325 </i>
   <varray name="rec_basis" >
    <v>      -0.14799154       0.14799154       0.14799154 </v>
    <v>       0.14799154      -0.14799154       0.14799154 </v>
    <v>       0.14799154       0.14799154      -0.14799154 </v>
   </varray>
  </crystal>
  <varray name="positions" >
   <v>       0.25000000       0.25000000       0.25000000 </v>
   <v>       0.75000000       0.75000000       0.75000000 </v>
   <v>       0.00000000       0.00000000       0.00000000 </v>
  </varray>
 </structure>
 <calculation>
  <scstep>
   <time name="dav">    1.53    1.56</time>
   <time name="total">    1.68    1.78</time>
   <energy>
    <i name="alphaZ">    222.75802064 </i>
    <i name="ewald">  -3170.62418095 </i>
    <i name="hartreedc">   -738.22768141 </i>
    <i name="XCdc">     68.75038694 </i>
    <i name="pawpsdc">   3147.30828992 </i>
    <i name="pawaedc">  -3070.62761383 </i>
    <i name="eentropy">     -0.00012366 </i>
    <i name="bandstr">    311.65979534 </i>
    <i name="atom">   3674.67342263 </i>
    <i name="e_fr_energy">    445.67031561 </i>
    <i name="e_wo_entrp">    445.67043927 </i>
    <i name="e_0_energy">    445.67037744 </i>
   </energy>
  </scstep>
  <scstep>
   <time name="dav">    1.57    1.60</time>
   <time name="total">    1.57    1.61</time>
   <energy>
    <i name="e_fr_energy">     44.96384137 </i>
    <i name="e_wo_entrp">     44.96398206 </i>
    <i name="e_0_energy">     44.96391172 </i>
   </energy>
  </scstep>
  <scstep>
   <time name="dav">    1.93    1.95</time>
   <time name="total">    1.93    1.95</time>
   <energy>
    <i name="e_fr_energy">    -18.60044058 </i>
    <i name="e_wo_entrp">    -18.60016226 </i>
    <i name="e_0_energy">    -18.60030142 </i>
   </energy>
  </scstep>
  <scstep>
   <time name="dav">    2.40    2.42</time>
   <time name="total">    2.40    2.42</time>
   <energy>
    <i name="e_fr_energy">    -22.74548992 </i>
    <i name="e_wo_entrp">    -22.74538398 </i>
    <i name="e_0_energy">    -22.74543695 </i>
   </energy>
  </scstep>
  <scstep>
   <time name="dav">    1.92    1.94</time>
   <time name="total">    2.27    2.30</time>
   <energy>
    <i name="e_fr_energy">    -22.85265924 </i>
    <i name="e_wo_entrp">    -22.85254896 </i>
    <i name="e_0_energy">    -22.85260410 </i>
   </energy>
  </scstep>
  <scstep>
   <time name="dav">    1.76    1.76</time>
   <time name="total">    2.23    2.26</time>
   <energy>
    <i name="e_fr_energy">    -21.98614487 </i>
    <i name="e_wo_entrp">    -21.98591604 </i>
    <i name="e_0_energy">    -21.98603046 </i>
   </energy>
  </scstep>
  <scstep>
   <time name="dav">    2.05    2.05</time>
   <time name="total">    2.49    2.54</time>
   <energy>
    <i name="e_fr_energy">    -21.85881491 </i>
    <i name="e_wo_entrp">    -21.85847377 </i>
    <i name="e_0_energy">    -21.85864434 </i>
   </energy>
  </scstep>
  <scstep>
   <time name="dav">    1.79    1.79</time>
   <time name="total">    2.22    2.26</time>
   <energy>
    <i name="e_fr_energy">    -21.81577830 </i>
    <i name="e_wo_entrp">    -21.81552549 </i>
    <i name="e_0_energy">    -21.81565190 </i>
   </energy>
  </scstep>
  <scstep>
   <time name="dav">    2.02    2.02</time>
   <time name="total">    2.45    2.48</time>
   <energy>
    <i name="e_fr_energy">    -21.80793524 </i>
    <i name="e_wo_entrp">    -21.80774943 </i>
    <i name="e_0_energy">    -21.80784234 </i>
   </energy>
  </scstep>
  <scstep>
   <time name="dav">    1.79    1.79</time>
   <time name="total">    2.22    2.24</time>
   <energy>
    <i name="e_fr_energy">    -21.80238663 </i>
    <i name="e_wo_entrp">    -21.80216994 </i>
    <i name="e_0_energy">    -21.80227828 </i>
   </energy>
  </scstep>
  <scstep>
   <time name="dav">    1.97    1.97</time>
   <time name="total">    2.39    2.43</time>
   <energy>
    <i name="e_fr_energy">    -21.80257850 </i>
    <i name="e_wo_entrp">    -21.80235886 </i>
    <i name="e_0_energy">    -21.80246868 </i>
   </energy>
  </scstep>
  <scstep>
   <time name="dav">    1.93    1.93</time>
   <time name="total">    2.36    2.38</time>
   <energy>
    <i name="e_fr_energy">    -21.80249196 </i>
    <i name="e_wo_entrp">    -21.80228034 </i>
    <i name="e_0_energy">    -21.80238615 </i>
   </energy>
  </scstep>
  <scstep>
   <time name="dav">    2.14    2.14</time>
   <time name="total">    2.58    2.60</time>
   <energy>
    <i name="e_fr_energy">    -21.80249031 </i>
    <i name="e_wo_entrp">    -21.80228213 </i>
    <i name="e_0_energy">    -21.80238622 </i>
   </energy>
  </scstep>
  <scstep>
   <time name="dav">    1.82    1.82</time>
   <time name="total">    2.24    2.27</time>
   <energy>
    <i name="e_fr_energy">    -21.80248930 </i>
    <i name="e_wo_entrp">    -21.80228021 </i>
    <i name="e_0_energy">    -21.80238475 </i>
   </energy>
  </scstep>
  <scstep>
   <time name="dav">    2.13    2.13</time>
   <time name="total">    2.56    2.59</time>
   <energy>
    <i name="e_fr_energy">    -21.80248903 </i>
    <i name="e_wo_entrp">    -21.80227958 </i>
    <i name="e_0_energy">    -21.80238431 </i>
   </energy>
  </scstep>
  <scstep>
   <time name="dav">    1.38    1.38</time>
   <time name="total">    1.51    1.54</time>
   <energy>
    <i name="alphaZ">    222.75802064 </i>
    <i name="ewald">  -3170.62418095 </i>
    <i name="hartreedc">   -712.23855988 </i>
    <i name="XCdc">     68.08626043 </i>
    <i name="pawpsdc">   4017.39790754 </i>
    <i name="pawaedc">  -3950.22537662 </i>
    <i name="eentropy">     -0.00020957 </i>
    <i name="bandstr">   -171.62977323 </i>
    <i name="atom">   3674.67342263 </i>
    <i name="e_fr_energy">    -21.80248900 </i>
    <i name="e_wo_entrp">    -21.80227943 </i>
    <i name="e_0_energy">    -21.80238422 </i>
   </energy>
  </scstep>
  <structure>
   <crystal>
    <varray name="basis" >
     <v>       0.00000000       3.37857145       3.37857145 </v>
     <v>       3.37857145       0.00000000       3.37857145 </v>
     <v>       3.37857145       3.37857145       0.00000000 </v>
    </varray>
    <i name="volume">     77.13106325 </i>
    <varray name="rec_basis" >
     <v>      -0.14799154       0.14799154       0.14799154 </v>
     <v>       0.14799154      -0.14799154       0.14799154 </v>
     <v>       0.14799154       0.14799154      -0.14799154 </v>
    </varray>
   </crystal>
   <varray name="positions" >
    <v>       0.25000000       0.25000000       0.25000000 </v>
    <v>       0.75000000       0.75000000       0.75000000 </v>
    <v>       0.00000000       0.00000000       0.00000000 </v>
   </varray>
  </structure>
  <varray name="forces" >
   <v>      -0.00000000      -0.00000000      -0.00000000 </v>
   <v>      -0.00000000      -0.00000000      -0.00000000 </v>
   <v>       0.00000000       0.00000000       0.00000000 </v>
  </varray>
  <varray name="stress" >
   <v>      48.08763153       0.00000000       0.00000000 </v>
   <v>       0.00000000      48.08763153       0.00000000 </v>
   <v>      -0.00000000       0.00000000      48.08763153 </v>
  </varray>
  <energy>
   <i name="e_fr_energy">    -21.80248900 </i>
   <i name="e_wo_entrp">    -21.80238422 </i>
   <i name="e_0_energy">     -0.00020957 </i>
  </energy>
  <time name="totalsc">   39.01   40.17</time>
  <eigenvalues>
   <array>
    <dimension dim="1">band</dimension>
    <dimension dim="2">kpoint</dimension>
    <dimension dim="3">spin</dimension>
    <field>eigene</field>
    <field>occ</field>
    <set>
     <set comment="spin 1">
      <set comment="kpoint 1">
       <r>  -30.9596    1.0000 </r>
       <r>  -14.0598    1.0000 </r>
       <r>  -14.0598    1.0000 </r>
       <r>  -14.0235    1.0000 </r>
       <r>  -14.0235    1.0000 </r>
       <r>  -14.0235    1.0000 </r>
       <r>   -9.0106    1.0000 </r>
       <r>   -9.0106    1.0000 </r>
       <r>   -9.0106    1.0000 </r>
       <r>   -3.4806    1.0000 </r>
       <r>    4.5141    1.0000 </r>
       <r>    4.5141    1.0000 </r>
       <r>    4.5141    1.0000 </r>
       <r>    4.6884    1.0000 </r>
       <r>    4.6884    1.0000 </r>
       <r>    7.2573    1.0000 </r>
       <r>    7.8293    1.0000 </r>
       <r>    7.8293    1.0000 </r>
       <r>    7.8293    1.0000 </r>
       <r>    9.2159    0.0000 </r>
       <r>    9.2159    0.0000 </r>
       <r>    9.2159    0.0000 </r>
       <r>   10.0811    0.0000 </r>
       <r>   11.1056    0.0000 </r>
      </set>
      <set comment="kpoint 2">
       <r>  -30.9592    1.0000 </r>
       <r>  -14.0607    1.0000 </r>
       <r>  -14.0607    1.0000 </r>
       <r>  -14.0237    1.0000 </r>
       <r>  -14.0234    1.0000 </r>
       <r>  -14.0234    1.0000 </r>
       <r>   -9.0312    1.0000 </r>
       <r>   -9.0079    1.0000 </r>
       <r>   -9.0079    1.0000 </r>
       <r>   -3.4113    1.0000 </r>
       <r>    4.3637    1.0000 </r>
       <r>    4.3637    1.0000 </r>
       <r>    4.3813    1.0000 </r>
       <r>    4.8300    1.0000 </r>
       <r>    4.8300    1.0000 </r>
       <r>    6.8219    1.0000 </r>
       <r>    7.7456    1.0000 </r>
       <r>    7.7456    1.0000 </r>
       <r>    8.1240    1.0000 </r>
       <r>    9.3158    0.0000 </r>
       <r>    9.3158    0.0000 </r>
       <r>    9.3320    0.0000 </r>
       <r>   10.3224    0.0000 </r>
       <r>   11.1126    0.0000 </r>
      </set>
      <set comment="kpoint 3">
       <r>  -30.9581    1.0000 </r>
       <r>  -14.0631    1.0000 </r>
       <r>  -14.0631    1.0000 </r>
       <r>  -14.0243    1.0000 </r>
       <r>  -14.0229    1.0000 </r>
       <r>  -14.0229    1.0000 </r>
       <r>   -9.0856    1.0000 </r>
       <r>   -9.0003    1.0000 </r>
       <r>   -9.0003    1.0000 </r>
       <r>   -3.2200    1.0000 </r>
       <r>    4.0414    1.0000 </r>
       <r>    4.1783    1.0000 </r>
       <r>    4.1783    1.0000 </r>
       <r>    4.9778    1.0000 </r>
       <r>    4.9778    1.0000 </r>
       <r>    6.2334    1.0000 </r>
       <r>    7.5746    1.0000 </r>
       <r>    7.5746    1.0000 </r>
       <r>    8.2874    1.0000 </r>
       <r>    9.5526    0.0000 </r>
       <r>    9.5526    0.0000 </r>
       <r>    9.8460    0.0000 </r>
       <r>   10.7615    0.0000 </r>
       <r>   11.1236    0.0000 </r>
      </set>
      <set comment="kpoint 4">
       <r>  -30.9565    1.0000 </r>
       <r>  -14.0666    1.0000 </r>
       <r>  -14.0666    1.0000 </r>
       <r>  -14.0252    1.0000 </r>
       <r>  -14.0221    1.0000 </r>
       <r>  -14.0221    1.0000 </r>
       <r>   -9.1568    1.0000 </r>
       <r>   -8.9897    1.0000 </r>
       <r>   -8.9897    1.0000 </r>
       <r>   -2.9513    1.0000 </r>
       <r>    3.6164    1.0000 </r>
       <r>    4.0383    1.0000 </r>
       <r>    4.0383    1.0000 </r>
       <r>    5.0302    1.0000 </r>
       <r>    5.0302    1.0000 </r>
       <r>    5.7415    1.0000 </r>
       <r>    7.4321    1.0000 </r>
       <r>    7.4321    1.0000 </r>
       <r>    8.3538    1.0000 </r>
       <r>    9.8397    0.0000 </r>
       <r>    9.8397    0.0000 </r>
       <r>   10.5155    0.0000 </r>
       <r>   11.1132    0.0000 </r>
       <r>   11.1143    0.0000 </r>
      </set>
      <set comment="kpoint 5">
       <r>  -30.9548    1.0000 </r>
       <r>  -14.0703    1.0000 </r>
       <r>  -14.0703    1.0000 </r>
       <r>  -14.0263    1.0000 </r>
       <r>  -14.0213    1.0000 </r>
       <r>  -14.0213    1.0000 </r>
       <r>   -9.2260    1.0000 </r>
       <r>   -8.9785    1.0000 </r>
       <r>   -8.9785    1.0000 </r>
       <r>   -2.6670    1.0000 </r>
       <r>    3.2170    1.0000 </r>
       <r>    3.9566    1.0000 </r>
       <r>    3.9566    1.0000 </r>
       <r>    4.9778    1.0000 </r>
       <r>    4.9778    1.0000 </r>
       <r>    5.3858    1.0000 </r>
       <r>    7.3650    1.0000 </r>
       <r>    7.3650    1.0000 </r>
       <r>    8.4620    1.0000 </r>
       <r>   10.1220    0.0000 </r>
       <r>   10.1220    0.0000 </r>
       <r>   10.9926    0.0000 </r>
       <r>   11.0803    0.0000 </r>
       <r>   11.0805    0.0000 </r>
      </set>
      <set comment="kpoint 6">
       <r>  -30.9534    1.0000 </r>
       <r>  -14.0734    1.0000 </r>
       <r>  -14.0734    1.0000 </r>
       <r>  -14.0273    1.0000 </r>
       <r>  -14.0206    1.0000 </r>
       <r>  -14.0206    1.0000 </r>
       <r>   -9.2791    1.0000 </r>
       <r>   -8.9693    1.0000 </r>
       <r>   -8.9693    1.0000 </r>
       <r>   -2.4319    1.0000 </r>
       <r>    2.9180    1.0000 </r>
       <r>    3.9276    1.0000 </r>
       <r>    3.9276    1.0000 </r>
       <r>    4.8703    1.0000 </r>
       <r>    4.8703    1.0000 </r>
       <r>    5.1660    1.0000 </r>
       <r>    7.3544    1.0000 </r>
       <r>    7.3544    1.0000 </r>
       <r>    8.6272    1.0000 </r>
       <r>   10.3479    0.0000 </r>
       <r>   10.3479    0.0000 </r>
       <r>   11.0472    0.0000 </r>
       <r>   11.0472    0.0000 </r>
       <r>   11.1203    0.0000 </r>
      </set>
      <set comment="kpoint 7">
       <r>  -30.9526    1.0000 </r>
       <r>  -14.0751    1.0000 </r>
       <r>  -14.0751    1.0000 </r>
       <r>  -14.0279    1.0000 </r>
       <r>  -14.0202    1.0000 </r>
       <r>  -14.0202    1.0000 </r>
       <r>   -9.3074    1.0000 </r>
       <r>   -8.9641    1.0000 </r>
       <r>   -8.9641    1.0000 </r>
       <r>   -2.2995    1.0000 </r>
       <r>    2.7603    1.0000 </r>
       <r>    3.9277    1.0000 </r>
       <r>    3.9277    1.0000 </r>
       <r>    4.7859    1.0000 </r>
       <r>    4.7859    1.0000 </r>
       <r>    5.0644    1.0000 </r>
       <r>    7.3611    1.0000 </r>
       <r>    7.3611    1.0000 </r>
       <r>    8.7826    1.0000 </r>
       <r>   10.4724    0.0000 </r>
       <r>   10.4724    0.0000 </r>
       <r>   10.9708    0.0000 </r>
       <r>   11.0249    0.0000 </r>
       <r>   11.0249    0.0000 </r>
      </set>
      <set comment="kpoint 8">
       <r>  -30.9591    1.0000 </r>
       <r>  -14.0623    1.0000 </r>
       <r>  -14.0595    1.0000 </r>
       <r>  -14.0239    1.0000 </r>
       <r>  -14.0232    1.0000 </r>
       <r>  -14.0232    1.0000 </r>
       <r>   -9.0265    1.0000 </r>
       <r>   -9.0127    1.0000 </r>
       <r>   -9.0127    1.0000 </r>
       <r>   -3.3901    1.0000 </r>
       <r>    4.0909    1.0000 </r>
       <r>    4.5271    1.0000 </r>
       <r>    4.5271    1.0000 </r>
       <r>    4.7054    1.0000 </r>
       <r>    4.8745    1.0000 </r>
       <r>    6.8037    1.0000 </r>
       <r>    7.6214    1.0000 </r>
       <r>    7.6214    1.0000 </r>
       <r>    8.3768    1.0000 </r>
       <r>    9.0306    0.0000 </r>
       <r>    9.4873    0.0000 </r>
       <r>    9.4873    0.0000 </r>
       <r>   10.3659    0.0000 </r>
       <r>   11.0847    0.0000 </r>
      </set>
      <set comment="kpoint 9">
       <r>  -30.9582    1.0000 </r>
       <r>  -14.0651    1.0000 </r>
       <r>  -14.0601    1.0000 </r>
       <r>  -14.0244    1.0000 </r>
       <r>  -14.0228    1.0000 </r>
       <r>  -14.0228    1.0000 </r>
       <r>   -9.0668    1.0000 </r>
       <r>   -9.0119    1.0000 </r>
       <r>   -9.0046    1.0000 </r>
       <r>   -3.2452    1.0000 </r>
       <r>    3.7993    1.0000 </r>
       <r>    4.3933    1.0000 </r>
       <r>    4.4108    1.0000 </r>
       <r>    4.8292    1.0000 </r>
       <r>    4.9858    1.0000 </r>
       <r>    6.4074    1.0000 </r>
       <r>    7.4458    1.0000 </r>
       <r>    7.4518    1.0000 </r>
       <r>    8.6425    1.0000 </r>
       <r>    9.0649    0.0000 </r>
       <r>    9.7365    0.0000 </r>
       <r>    9.8458    0.0000 </r>
       <r>   10.6886    0.0000 </r>
       <r>   11.0646    0.0000 </r>
      </set>
      <set comment="kpoint 10">
       <r>  -30.9568    1.0000 </r>
       <r>  -14.0683    1.0000 </r>
       <r>  -14.0624    1.0000 </r>
       <r>  -14.0251    1.0000 </r>
       <r>  -14.0223    1.0000 </r>
       <r>  -14.0220    1.0000 </r>
       <r>   -9.1317    1.0000 </r>
       <r>   -9.0056    1.0000 </r>
       <r>   -8.9925    1.0000 </r>
       <r>   -3.0122    1.0000 </r>
       <r>    3.5107    1.0000 </r>
       <r>    4.1425    1.0000 </r>
       <r>    4.2678    1.0000 </r>
       <r>    4.9164    1.0000 </r>
       <r>    5.0807    1.0000 </r>
       <r>    5.9410    1.0000 </r>
       <r>    7.2807    1.0000 </r>
       <r>    7.3312    1.0000 </r>
       <r>    8.6552    1.0000 </r>
       <r>    9.4396    0.0000 </r>
       <r>    9.9922    0.0000 </r>
       <r>   10.3730    0.0000 </r>
       <r>   11.0316    0.0000 </r>
       <r>   11.0488    0.0000 </r>
      </set>
      <set comment="kpoint 11">
       <r>  -30.9551    1.0000 </r>
       <r>  -14.0714    1.0000 </r>
       <r>  -14.0659    1.0000 </r>
       <r>  -14.0259    1.0000 </r>
       <r>  -14.0217    1.0000 </r>
       <r>  -14.0212    1.0000 </r>
       <r>   -9.2003    1.0000 </r>
       <r>   -8.9954    1.0000 </r>
       <r>   -8.9819    1.0000 </r>
       <r>   -2.7467    1.0000 </r>
       <r>    3.2312    1.0000 </r>
       <r>    3.9485    1.0000 </r>
       <r>    4.1598    1.0000 </r>
       <r>    4.8983    1.0000 </r>
       <r>    5.0851    1.0000 </r>
       <r>    5.5455    1.0000 </r>
       <r>    7.1946    1.0000 </r>
       <r>    7.2914    1.0000 </r>
       <r>    8.6382    1.0000 </r>
       <r>    9.8688    0.0000 </r>
       <r>   10.2255    0.0000 </r>
       <r>   10.8449    0.0000 </r>
       <r>   11.0350    0.0000 </r>
       <r>   11.1163    0.0000 </r>
      </set>
      <set comment="kpoint 12">
       <r>  -30.9536    1.0000 </r>
       <r>  -14.0736    1.0000 </r>
       <r>  -14.0697    1.0000 </r>
       <r>  -14.0268    1.0000 </r>
       <r>  -14.0211    1.0000 </r>
       <r>  -14.0205    1.0000 </r>
       <r>   -9.2572    1.0000 </r>
       <r>   -8.9835    1.0000 </r>
       <r>   -8.9752    1.0000 </r>
       <r>   -2.5103    1.0000 </r>
       <r>    2.9954    1.0000 </r>
       <r>    3.8644    1.0000 </r>
       <r>    4.0794    1.0000 </r>
       <r>    4.8250    1.0000 </r>
       <r>    5.0069    1.0000 </r>
       <r>    5.2660    1.0000 </r>
       <r>    7.1806    1.0000 </r>
       <r>    7.3026    1.0000 </r>
       <r>    8.7029    1.0000 </r>
       <r>   10.2040    0.0000 </r>
       <r>   10.4096    0.0000 </r>
       <r>   10.9876    0.0000 </r>
       <r>   11.0207    0.0000 </r>
       <r>   11.1644    0.0000 </r>
      </set>
      <set comment="kpoint 13">
       <r>  -30.9526    1.0000 </r>
       <r>  -14.0744    1.0000 </r>
       <r>  -14.0730    1.0000 </r>
       <r>  -14.0275    1.0000 </r>
       <r>  -14.0206    1.0000 </r>
       <r>  -14.0201    1.0000 </r>
       <r>   -9.2925    1.0000 </r>
       <r>   -8.9738    1.0000 </r>
       <r>   -8.9727    1.0000 </r>
       <r>   -2.3551    1.0000 </r>
       <r>    2.8465    1.0000 </r>
       <r>    3.8760    1.0000 </r>
       <r>    3.9998    1.0000 </r>
       <r>    4.7841    1.0000 </r>
       <r>    4.8948    1.0000 </r>
       <r>    5.1107    1.0000 </r>
       <r>    7.1963    1.0000 </r>
       <r>    7.3204    1.0000 </r>
       <r>    8.8286    1.0000 </r>
       <r>   10.3719    0.0000 </r>
       <r>   10.5129    0.0000 </r>
       <r>   10.9592    0.0000 </r>
       <r>   11.0056    0.0000 </r>
       <r>   11.1283    0.0000 </r>
      </set>
      <set comment="kpoint 14">
       <r>  -30.9524    1.0000 </r>
       <r>  -14.0749    1.0000 </r>
       <r>  -14.0736    1.0000 </r>
       <r>  -14.0276    1.0000 </r>
       <r>  -14.0205    1.0000 </r>
       <r>  -14.0201    1.0000 </r>
       <r>   -9.3015    1.0000 </r>
       <r>   -8.9780    1.0000 </r>
       <r>   -8.9654    1.0000 </r>
       <r>   -2.3127    1.0000 </r>
       <r>    2.8068    1.0000 </r>
       <r>    3.9092    1.0000 </r>
       <r>    3.9478    1.0000 </r>
       <r>    4.8058    1.0000 </r>
       <r>    4.8286    1.0000 </r>
       <r>    5.0753    1.0000 </r>
       <r>    7.1990    1.0000 </r>
       <r>    7.3247    1.0000 </r>
       <r>    8.8916    1.0000 </r>
       <r>   10.4023    0.0000 </r>
       <r>   10.5069    0.0000 </r>
       <r>   10.9601    0.0000 </r>
       <r>   11.0010    0.0000 </r>
       <r>   11.0801    0.0000 </r>
      </set>
      <set comment="kpoint 15">
       <r>  -30.9529    1.0000 </r>
       <r>  -14.0752    1.0000 </r>
       <r>  -14.0713    1.0000 </r>
       <r>  -14.0272    1.0000 </r>
       <r>  -14.0206    1.0000 </r>
       <r>  -14.0204    1.0000 </r>
       <r>   -9.2831    1.0000 </r>
       <r>   -8.9865    1.0000 </r>
       <r>   -8.9632    1.0000 </r>
       <r>   -2.3917    1.0000 </r>
       <r>    2.8846    1.0000 </r>
       <r>    3.8336    1.0000 </r>
       <r>    4.0423    1.0000 </r>
       <r>    4.7863    1.0000 </r>
       <r>    4.9414    1.0000 </r>
       <r>    5.1521    1.0000 </r>
       <r>    7.1653    1.0000 </r>
       <r>    7.3238    1.0000 </r>
       <r>    8.8100    1.0000 </r>
       <r>   10.3735    0.0000 </r>
       <r>   10.4302    0.0000 </r>
       <r>   10.9774    0.0000 </r>
       <r>   11.0154    0.0000 </r>
       <r>   11.1550    0.0000 </r>
      </set>
      <set comment="kpoint 16">
       <r>  -30.9541    1.0000 </r>
       <r>  -14.0736    1.0000 </r>
       <r>  -14.0682    1.0000 </r>
       <r>  -14.0264    1.0000 </r>
       <r>  -14.0211    1.0000 </r>
       <r>  -14.0210    1.0000 </r>
       <r>   -9.2399    1.0000 </r>
       <r>   -8.9974    1.0000 </r>
       <r>   -8.9668    1.0000 </r>
       <r>   -2.5770    1.0000 </r>
       <r>    3.0801    1.0000 </r>
       <r>    3.8067    1.0000 </r>
       <r>    4.1446    1.0000 </r>
       <r>    4.8343    1.0000 </r>
       <r>    5.0661    1.0000 </r>
       <r>    5.3448    1.0000 </r>
       <r>    7.1012    1.0000 </r>
       <r>    7.3471    1.0000 </r>
       <r>    8.7040    1.0000 </r>
       <r>   10.1278    0.0000 </r>
       <r>   10.3238    0.0000 </r>
       <r>   10.9686    0.0000 </r>
       <r>   11.0396    0.0000 </r>
       <r>   11.1554    0.0000 </r>
      </set>
      <set comment="kpoint 17">
       <r>  -30.9557    1.0000 </r>
       <r>  -14.0707    1.0000 </r>
       <r>  -14.0649    1.0000 </r>
       <r>  -14.0255    1.0000 </r>
       <r>  -14.0219    1.0000 </r>
       <r>  -14.0217    1.0000 </r>
       <r>   -9.1785    1.0000 </r>
       <r>   -9.0079    1.0000 </r>
       <r>   -8.9752    1.0000 </r>
       <r>   -2.8298    1.0000 </r>
       <r>    3.3768    1.0000 </r>
       <r>    3.8486    1.0000 </r>
       <r>    4.2702    1.0000 </r>
       <r>    4.8832    1.0000 </r>
       <r>    5.1382    1.0000 </r>
       <r>    5.6614    1.0000 </r>
       <r>    7.0546    1.0000 </r>
       <r>    7.4302    1.0000 </r>
       <r>    8.6589    1.0000 </r>
       <r>    9.8218    0.0000 </r>
       <r>   10.0482    0.0000 </r>
       <r>   10.7299    0.0000 </r>
       <r>   11.0638    0.0000 </r>
       <r>   11.1146    0.0000 </r>
      </set>
      <set comment="kpoint 18">
       <r>  -30.9573    1.0000 </r>
       <r>  -14.0670    1.0000 </r>
       <r>  -14.0621    1.0000 </r>
       <r>  -14.0247    1.0000 </r>
       <r>  -14.0226    1.0000 </r>
       <r>  -14.0224    1.0000 </r>
       <r>   -9.1112    1.0000 </r>
       <r>   -9.0150    1.0000 </r>
       <r>   -8.9867    1.0000 </r>
       <r>   -3.0926    1.0000 </r>
       <r>    3.7312    1.0000 </r>
       <r>    3.9641    1.0000 </r>
       <r>    4.4289    1.0000 </r>
       <r>    4.8544    1.0000 </r>
       <r>    5.1149    1.0000 </r>
       <r>    6.0811    1.0000 </r>
       <r>    7.1134    1.0000 </r>
       <r>    7.5781    1.0000 </r>
       <r>    8.6498    1.0000 </r>
       <r>    9.5265    0.0000 </r>
       <r>    9.6157    0.0000 </r>
       <r>   10.2832    0.0000 </r>
       <r>   10.9328    0.0000 </r>
       <r>   11.0921    0.0000 </r>
      </set>
      <set comment="kpoint 19">
       <r>  -30.9586    1.0000 </r>
       <r>  -14.0634    1.0000 </r>
       <r>  -14.0606    1.0000 </r>
       <r>  -14.0241    1.0000 </r>
       <r>  -14.0231    1.0000 </r>
       <r>  -14.0230    1.0000 </r>
       <r>   -9.0564    1.0000 </r>
       <r>   -9.0152    1.0000 </r>
       <r>   -8.9985    1.0000 </r>
       <r>   -3.3033    1.0000 </r>
       <r>    4.0817    1.0000 </r>
       <r>    4.1444    1.0000 </r>
       <r>    4.5384    1.0000 </r>
       <r>    4.7755    1.0000 </r>
       <r>    4.9993    1.0000 </r>
       <r>    6.5114    1.0000 </r>
       <r>    7.3750    1.0000 </r>
       <r>    7.7230    1.0000 </r>
       <r>    8.4759    1.0000 </r>
       <r>    9.2868    0.0000 </r>
       <r>    9.3271    0.0000 </r>
       <r>    9.8116    0.0000 </r>
       <r>   10.5823    0.0000 </r>
       <r>   11.1124    0.0000 </r>
      </set>
      <set comment="kpoint 20">
       <r>  -30.9576    1.0000 </r>
       <r>  -14.0674    1.0000 </r>
       <r>  -14.0586    1.0000 </r>
       <r>  -14.0251    1.0000 </r>
       <r>  -14.0223    1.0000 </r>
       <r>  -14.0223    1.0000 </r>
       <r>   -9.0679    1.0000 </r>
       <r>   -9.0187    1.0000 </r>
       <r>   -9.0187    1.0000 </r>
       <r>   -3.1630    1.0000 </r>
       <r>    3.4958    1.0000 </r>
       <r>    4.5497    1.0000 </r>
       <r>    4.5497    1.0000 </r>
       <r>    4.7534    1.0000 </r>
       <r>    4.9084    1.0000 </r>
       <r>    6.3868    1.0000 </r>
       <r>    7.2995    1.0000 </r>
       <r>    7.2995    1.0000 </r>
       <r>    8.6416    1.0000 </r>
       <r>    9.1626    0.0000 </r>
       <r>    9.9719    0.0000 </r>
       <r>    9.9719    0.0000 </r>
       <r>   10.8027    0.0000 </r>
       <r>   11.0131    0.0000 </r>
      </set>
      <set comment="kpoint 21">
       <r>  -30.9564    1.0000 </r>
       <r>  -14.0696    1.0000 </r>
       <r>  -14.0591    1.0000 </r>
       <r>  -14.0258    1.0000 </r>
       <r>  -14.0218    1.0000 </r>
       <r>  -14.0216    1.0000 </r>
       <r>   -9.1128    1.0000 </r>
       <r>   -9.0192    1.0000 </r>
       <r>   -9.0124    1.0000 </r>
       <r>   -2.9976    1.0000 </r>
       <r>    3.2551    1.0000 </r>
       <r>    4.3969    1.0000 </r>
       <r>    4.4734    1.0000 </r>
       <r>    4.8282    1.0000 </r>
       <r>    4.9676    1.0000 </r>
       <r>    6.1437    1.0000 </r>
       <r>    7.1074    1.0000 </r>
       <r>    7.2012    1.0000 </r>
       <r>    8.7764    1.0000 </r>
       <r>    9.3115    0.0000 </r>
       <r>   10.1882    0.0000 </r>
       <r>   10.3154    0.0000 </r>
       <r>   10.9712    0.0000 </r>
       <r>   11.0244    0.0000 </r>
      </set>
      <set comment="kpoint 22">
       <r>  -30.9550    1.0000 </r>
       <r>  -14.0712    1.0000 </r>
       <r>  -14.0613    1.0000 </r>
       <r>  -14.0264    1.0000 </r>
       <r>  -14.0214    1.0000 </r>
       <r>  -14.0208    1.0000 </r>
       <r>   -9.1725    1.0000 </r>
       <r>   -9.0134    1.0000 </r>
       <r>   -9.0030    1.0000 </r>
       <r>   -2.7937    1.0000 </r>
       <r>    3.1008    1.0000 </r>
       <r>    4.1433    1.0000 </r>
       <r>    4.3638    1.0000 </r>
       <r>    4.8488    1.0000 </r>
       <r>    5.0464    1.0000 </r>
       <r>    5.8096    1.0000 </r>
       <r>    6.9320    1.0000 </r>
       <r>    7.1851    1.0000 </r>
       <r>    8.8654    1.0000 </r>
       <r>    9.6545    0.0000 </r>
       <r>   10.3681    0.0000 </r>
       <r>   10.7048    0.0000 </r>
       <r>   10.9523    0.0000 </r>
       <r>   11.1414    0.0000 </r>
      </set>
      <set comment="kpoint 23">
       <r>  -30.9535    1.0000 </r>
       <r>  -14.0718    1.0000 </r>
       <r>  -14.0649    1.0000 </r>
       <r>  -14.0268    1.0000 </r>
       <r>  -14.0212    1.0000 </r>
       <r>  -14.0201    1.0000 </r>
       <r>   -9.2258    1.0000 </r>
       <r>   -9.0026    1.0000 </r>
       <r>   -8.9993    1.0000 </r>
       <r>   -2.6012    1.0000 </r>
       <r>    3.0302    1.0000 </r>
       <r>    3.9520    1.0000 </r>
       <r>    4.2475    1.0000 </r>
       <r>    4.8212    1.0000 </r>
       <r>    5.0556    1.0000 </r>
       <r>    5.4884    1.0000 </r>
       <r>    6.8601    1.0000 </r>
       <r>    7.2145    1.0000 </r>
       <r>    8.8608    1.0000 </r>
       <r>   10.0832    0.0000 </r>
       <r>   10.5082    0.0000 </r>
       <r>   10.9101    0.0000 </r>
       <r>   10.9564    0.0000 </r>
       <r>   11.1815    0.0000 </r>
      </set>
      <set comment="kpoint 24">
       <r>  -30.9525    1.0000 </r>
       <r>  -14.0714    1.0000 </r>
       <r>  -14.0689    1.0000 </r>
       <r>  -14.0270    1.0000 </r>
       <r>  -14.0211    1.0000 </r>
       <r>  -14.0196    1.0000 </r>
       <r>   -9.2620    1.0000 </r>
       <r>   -9.0027    1.0000 </r>
       <r>   -8.9892    1.0000 </r>
       <r>   -2.4601    1.0000 </r>
       <r>    3.0102    1.0000 </r>
       <r>    3.8767    1.0000 </r>
       <r>    4.1048    1.0000 </r>
       <r>    4.8265    1.0000 </r>
       <r>    4.9997    1.0000 </r>
       <r>    5.2585    1.0000 </r>
       <r>    6.8516    1.0000 </r>
       <r>    7.2375    1.0000 </r>
       <r>    8.9239    1.0000 </r>
       <r>   10.2788    0.0000 </r>
       <r>   10.5951    0.0000 </r>
       <r>   10.9327    0.0000 </r>
       <r>   10.9631    0.0000 </r>
       <r>   11.1967    0.0000 </r>
      </set>
      <set comment="kpoint 25">
       <r>  -30.9520    1.0000 </r>
       <r>  -14.0724    1.0000 </r>
       <r>  -14.0700    1.0000 </r>
       <r>  -14.0269    1.0000 </r>
       <r>  -14.0211    1.0000 </r>
       <r>  -14.0196    1.0000 </r>
       <r>   -9.2760    1.0000 </r>
       <r>   -9.0119    1.0000 </r>
       <r>   -8.9764    1.0000 </r>
       <r>   -2.3926    1.0000 </r>
       <r>    2.9995    1.0000 </r>
       <r>    3.9208    1.0000 </r>
       <r>    3.9473    1.0000 </r>
       <r>    4.9002    1.0000 </r>
       <r>    4.9066    1.0000 </r>
       <r>    5.1703    1.0000 </r>
       <r>    6.8448    1.0000 </r>
       <r>    7.2359    1.0000 </r>
       <r>    9.0327    0.0000 </r>
       <r>   10.2349    0.0000 </r>
       <r>   10.6008    0.0000 </r>
       <r>   10.9642    0.0000 </r>
       <r>   10.9871    0.0000 </r>
       <r>   11.1545    0.0000 </r>
      </set>
      <set comment="kpoint 26">
       <r>  -30.9522    1.0000 </r>
       <r>  -14.0746    1.0000 </r>
       <r>  -14.0679    1.0000 </r>
       <r>  -14.0265    1.0000 </r>
       <r>  -14.0212    1.0000 </r>
       <r>  -14.0200    1.0000 </r>
       <r>   -9.2669    1.0000 </r>
       <r>   -9.0238    1.0000 </r>
       <r>   -8.9668    1.0000 </r>
       <r>   -2.4086    1.0000 </r>
       <r>    2.9947    1.0000 </r>
       <r>    3.8126    1.0000 </r>
       <r>    4.0486    1.0000 </r>
       <r>    4.8249    1.0000 </r>
       <r>    5.0213    1.0000 </r>
       <r>    5.2290    1.0000 </r>
       <r>    6.7925    1.0000 </r>
       <r>    7.2268    1.0000 </r>
       <r>    9.0695    0.0000 </r>
       <r>   10.2771    0.0000 </r>
       <r>   10.4877    0.0000 </r>
       <r>   10.9743    0.0000 </r>
       <r>   11.0012    0.0000 </r>
       <r>   11.1685    0.0000 </r>
      </set>
      <set comment="kpoint 27">
       <r>  -30.9531    1.0000 </r>
       <r>  -14.0751    1.0000 </r>
       <r>  -14.0656    1.0000 </r>
       <r>  -14.0260    1.0000 </r>
       <r>  -14.0214    1.0000 </r>
       <r>  -14.0206    1.0000 </r>
       <r>   -9.2373    1.0000 </r>
       <r>   -9.0344    1.0000 </r>
       <r>   -8.9629    1.0000 </r>
       <r>   -2.5103    1.0000 </r>
       <r>    3.0353    1.0000 </r>
       <r>    3.7338    1.0000 </r>
       <r>    4.2196    1.0000 </r>
       <r>    4.7870    1.0000 </r>
       <r>    5.1436    1.0000 </r>
       <r>    5.4114    1.0000 </r>
       <r>    6.6862    1.0000 </r>
       <r>    7.2463    1.0000 </r>
       <r>    9.0518    0.0000 </r>
       <r>   10.2573    0.0000 </r>
       <r>   10.3318    0.0000 </r>
       <r>   10.9700    0.0000 </r>
       <r>   10.9958    0.0000 </r>
       <r>   11.2052    0.0000 </r>
      </set>
      <set comment="kpoint 28">
       <r>  -30.9545    1.0000 </r>
       <r>  -14.0737    1.0000 </r>
       <r>  -14.0635    1.0000 </r>
       <r>  -14.0255    1.0000 </r>
       <r>  -14.0216    1.0000 </r>
       <r>  -14.0214    1.0000 </r>
       <r>   -9.1937    1.0000 </r>
       <r>   -9.0389    1.0000 </r>
       <r>   -8.9655    1.0000 </r>
       <r>   -2.6850    1.0000 </r>
       <r>    3.1684    1.0000 </r>
       <r>    3.7300    1.0000 </r>
       <r>    4.4013    1.0000 </r>
       <r>    4.7738    1.0000 </r>
       <r>    5.2150    1.0000 </r>
       <r>    5.6858    1.0000 </r>
       <r>    6.5862    1.0000 </r>
       <r>    7.3276    1.0000 </r>
       <r>    9.0540    0.0000 </r>
       <r>    9.9641    0.0000 </r>
       <r>   10.1599    0.0000 </r>
       <r>   10.8833    0.0000 </r>
       <r>   11.0216    0.0000 </r>
       <r>   11.2002    0.0000 </r>
      </set>
      <set comment="kpoint 29">
       <r>  -30.9560    1.0000 </r>
       <r>  -14.0708    1.0000 </r>
       <r>  -14.0623    1.0000 </r>
       <r>  -14.0251    1.0000 </r>
       <r>  -14.0221    1.0000 </r>
       <r>  -14.0219    1.0000 </r>
       <r>   -9.1476    1.0000 </r>
       <r>   -9.0324    1.0000 </r>
       <r>   -8.9741    1.0000 </r>
       <r>   -2.8968    1.0000 </r>
       <r>    3.4101    1.0000 </r>
       <r>    3.8084    1.0000 </r>
       <r>    4.5375    1.0000 </r>
       <r>    4.7541    1.0000 </r>
       <r>    5.2037    1.0000 </r>
       <r>    5.9439    1.0000 </r>
       <r>    6.6781    1.0000 </r>
       <r>    7.4633    1.0000 </r>
       <r>    9.0010    0.1378 </r>
       <r>    9.6889    0.0000 </r>
       <r>    9.7969    0.0000 </r>
       <r>   10.6580    0.0000 </r>
       <r>   11.0504    0.0000 </r>
       <r>   11.1187    0.0000 </r>
      </set>
      <set comment="kpoint 30">
       <r>  -30.9556    1.0000 </r>
       <r>  -14.0701    1.0000 </r>
       <r>  -14.0574    1.0000 </r>
       <r>  -14.0267    1.0000 </r>
       <r>  -14.0210    1.0000 </r>
       <r>  -14.0210    1.0000 </r>
       <r>   -9.1206    1.0000 </r>
       <r>   -9.0275    1.0000 </r>
       <r>   -9.0275    1.0000 </r>
       <r>   -2.9185    1.0000 </r>
       <r>    3.0770    1.0000 </r>
       <r>    4.5443    1.0000 </r>
       <r>    4.5443    1.0000 </r>
       <r>    4.7803    1.0000 </r>
       <r>    4.8235    1.0000 </r>
       <r>    6.1356    1.0000 </r>
       <r>    7.1213    1.0000 </r>
       <r>    7.1213    1.0000 </r>
       <r>    8.5358    1.0000 </r>
       <r>    9.6095    0.0000 </r>
       <r>   10.3598    0.0000 </r>
       <r>   10.3598    0.0000 </r>
       <r>   10.8933    0.0000 </r>
       <r>   11.1102    0.0000 </r>
      </set>
      <set comment="kpoint 31">
       <r>  -30.9544    1.0000 </r>
       <r>  -14.0697    1.0000 </r>
       <r>  -14.0578    1.0000 </r>
       <r>  -14.0274    1.0000 </r>
       <r>  -14.0204    1.0000 </r>
       <r>  -14.0202    1.0000 </r>
       <r>   -9.1585    1.0000 </r>
       <r>   -9.0285    1.0000 </r>
       <r>   -9.0268    1.0000 </r>
       <r>   -2.8036    1.0000 </r>
       <r>    3.0190    1.0000 </r>
       <r>    4.3485    1.0000 </r>
       <r>    4.4848    1.0000 </r>
       <r>    4.8430    1.0000 </r>
       <r>    4.8574    1.0000 </r>
       <r>    5.9711    1.0000 </r>
       <r>    6.9630    1.0000 </r>
       <r>    7.1223    1.0000 </r>
       <r>    8.6901    1.0000 </r>
       <r>    9.7674    0.0000 </r>
       <r>   10.4922    0.0000 </r>
       <r>   10.5919    0.0000 </r>
       <r>   10.8474    0.0000 </r>
       <r>   11.1647    0.0000 </r>
      </set>
      <set comment="kpoint 32">
       <r>  -30.9531    1.0000 </r>
       <r>  -14.0685    1.0000 </r>
       <r>  -14.0602    1.0000 </r>
       <r>  -14.0277    1.0000 </r>
       <r>  -14.0202    1.0000 </r>
       <r>  -14.0194    1.0000 </r>
       <r>   -9.1999    1.0000 </r>
       <r>   -9.0277    1.0000 </r>
       <r>   -9.0221    1.0000 </r>
       <r>   -2.6849    1.0000 </r>
       <r>    3.0795    1.0000 </r>
       <r>    4.1057    1.0000 </r>
       <r>    4.3716    1.0000 </r>
       <r>    4.8672    1.0000 </r>
       <r>    4.9442    1.0000 </r>
       <r>    5.7271    1.0000 </r>
       <r>    6.7416    1.0000 </r>
       <r>    7.1635    1.0000 </r>
       <r>    8.8590    1.0000 </r>
       <r>   10.0472    0.0000 </r>
       <r>   10.5947    0.0000 </r>
       <r>   10.8236    0.0000 </r>
       <r>   10.8612    0.0000 </r>
       <r>   11.1892    0.0000 </r>
      </set>
      <set comment="kpoint 33">
       <r>  -30.9521    1.0000 </r>
       <r>  -14.0668    1.0000 </r>
       <r>  -14.0639    1.0000 </r>
       <r>  -14.0275    1.0000 </r>
       <r>  -14.0205    1.0000 </r>
       <r>  -14.0190    1.0000 </r>
       <r>   -9.2287    1.0000 </r>
       <r>   -9.0375    1.0000 </r>
       <r>   -9.0098    1.0000 </r>
       <r>   -2.5850    1.0000 </r>
       <r>    3.2082    1.0000 </r>
       <r>    3.9476    1.0000 </r>
       <r>    4.2121    1.0000 </r>
       <r>    4.8990    1.0000 </r>
       <r>    4.9856    1.0000 </r>
       <r>    5.4815    1.0000 </r>
       <r>    6.5926    1.0000 </r>
       <r>    7.1825    1.0000 </r>
       <r>    8.9411    1.0000 </r>
       <r>   10.2550    0.0000 </r>
       <r>   10.6695    0.0000 </r>
       <r>   10.8950    0.0000 </r>
       <r>   10.9075    0.0000 </r>
       <r>   11.2107    0.0000 </r>
      </set>
      <set comment="kpoint 34">
       <r>  -30.9515    1.0000 </r>
       <r>  -14.0681    1.0000 </r>
       <r>  -14.0651    1.0000 </r>
       <r>  -14.0268    1.0000 </r>
       <r>  -14.0212    1.0000 </r>
       <r>  -14.0189    1.0000 </r>
       <r>   -9.2396    1.0000 </r>
       <r>   -9.0545    1.0000 </r>
       <r>   -8.9943    1.0000 </r>
       <r>   -2.5144    1.0000 </r>
       <r>    3.2981    1.0000 </r>
       <r>    3.9060    1.0000 </r>
       <r>    4.0293    1.0000 </r>
       <r>    4.9484    1.0000 </r>
       <r>    4.9779    1.0000 </r>
       <r>    5.3508    1.0000 </r>
       <r>    6.4997    1.0000 </r>
       <r>    7.1615    1.0000 </r>
       <r>    9.0666    0.0000 </r>
       <r>   10.1806    0.0000 </r>
       <r>   10.6999    0.0000 </r>
       <r>   10.9356    0.0000 </r>
       <r>   10.9539    0.0000 </r>
       <r>   11.1863    0.0000 </r>
      </set>
      <set comment="kpoint 35">
       <r>  -30.9516    1.0000 </r>
       <r>  -14.0719    1.0000 </r>
       <r>  -14.0637    1.0000 </r>
       <r>  -14.0258    1.0000 </r>
       <r>  -14.0220    1.0000 </r>
       <r>  -14.0193    1.0000 </r>
       <r>   -9.2339    1.0000 </r>
       <r>   -9.0720    1.0000 </r>
       <r>   -8.9792    1.0000 </r>
       <r>   -2.4797    1.0000 </r>
       <r>    3.2609    1.0000 </r>
       <r>    3.8620    1.0000 </r>
       <r>    3.9801    1.0000 </r>
       <r>    4.8772    1.0000 </r>
       <r>    5.0864    1.0000 </r>
       <r>    5.3908    1.0000 </r>
       <r>    6.4147    1.0000 </r>
       <r>    7.1295    1.0000 </r>
       <r>    9.2208    0.0000 </r>
       <r>   10.1031    0.0000 </r>
       <r>   10.6395    0.0000 </r>
       <r>   10.9437    0.0000 </r>
       <r>   10.9979    0.0000 </r>
       <r>   11.1696    0.0000 </r>
      </set>
      <set comment="kpoint 36">
       <r>  -30.9522    1.0000 </r>
       <r>  -14.0744    1.0000 </r>
       <r>  -14.0629    1.0000 </r>
       <r>  -14.0251    1.0000 </r>
       <r>  -14.0224    1.0000 </r>
       <r>  -14.0199    1.0000 </r>
       <r>   -9.2191    1.0000 </r>
       <r>   -9.0798    1.0000 </r>
       <r>   -8.9678    1.0000 </r>
       <r>   -2.4919    1.0000 </r>
       <r>    3.1523    1.0000 </r>
       <r>    3.7431    1.0000 </r>
       <r>    4.1254    1.0000 </r>
       <r>    4.8255    1.0000 </r>
       <r>    5.1860    1.0000 </r>
       <r>    5.5533    1.0000 </r>
       <r>    6.3153    1.0000 </r>
       <r>    7.1328    1.0000 </r>
       <r>    9.2989    0.0000 </r>
       <r>   10.1575    0.0000 </r>
       <r>   10.4582    0.0000 </r>
       <r>   10.9611    0.0000 </r>
       <r>   11.0210    0.0000 </r>
       <r>   11.1786    0.0000 </r>
      </set>
      <set comment="kpoint 37">
       <r>  -30.9532    1.0000 </r>
       <r>  -14.0750    1.0000 </r>
       <r>  -14.0629    1.0000 </r>
       <r>  -14.0252    1.0000 </r>
       <r>  -14.0220    1.0000 </r>
       <r>  -14.0207    1.0000 </r>
       <r>   -9.2052    1.0000 </r>
       <r>   -9.0679    1.0000 </r>
       <r>   -8.9628    1.0000 </r>
       <r>   -2.5620    1.0000 </r>
       <r>    3.0948    1.0000 </r>
       <r>    3.6951    1.0000 </r>
       <r>    4.2971    1.0000 </r>
       <r>    4.7872    1.0000 </r>
       <r>    5.2351    1.0000 </r>
       <r>    5.7032    1.0000 </r>
       <r>    6.3047    1.0000 </r>
       <r>    7.2040    1.0000 </r>
       <r>    9.2643    0.0000 </r>
       <r>   10.1894    0.0000 </r>
       <r>   10.2055    0.0000 </r>
       <r>   10.9881    0.0000 </r>
       <r>   10.9883    0.0000 </r>
       <r>   11.2138    0.0000 </r>
      </set>
      <set comment="kpoint 38">
       <r>  -30.9535    1.0000 </r>
       <r>  -14.0672    1.0000 </r>
       <r>  -14.0560    1.0000 </r>
       <r>  -14.0285    1.0000 </r>
       <r>  -14.0194    1.0000 </r>
       <r>  -14.0194    1.0000 </r>
       <r>   -9.1711    1.0000 </r>
       <r>   -9.0371    1.0000 </r>
       <r>   -9.0371    1.0000 </r>
       <r>   -2.7851    1.0000 </r>
       <r>    3.0566    1.0000 </r>
       <r>    4.4909    1.0000 </r>
       <r>    4.4909    1.0000 </r>
       <r>    4.5851    1.0000 </r>
       <r>    4.9014    1.0000 </r>
       <r>    5.9081    1.0000 </r>
       <r>    7.1404    1.0000 </r>
       <r>    7.1404    1.0000 </r>
       <r>    8.5337    1.0000 </r>
       <r>    9.9526    0.0000 </r>
       <r>   10.5853    0.0000 </r>
       <r>   10.5853    0.0000 </r>
       <r>   10.7495    0.0000 </r>
       <r>   11.1572    0.0000 </r>
      </set>
      <set comment="kpoint 39">
       <r>  -30.9525    1.0000 </r>
       <r>  -14.0643    1.0000 </r>
       <r>  -14.0566    1.0000 </r>
       <r>  -14.0290    1.0000 </r>
       <r>  -14.0189    1.0000 </r>
       <r>  -14.0187    1.0000 </r>
       <r>   -9.1960    1.0000 </r>
       <r>   -9.0425    1.0000 </r>
       <r>   -9.0375    1.0000 </r>
       <r>   -2.7490    1.0000 </r>
       <r>    3.2146    1.0000 </r>
       <r>    4.2584    1.0000 </r>
       <r>    4.4237    1.0000 </r>
       <r>    4.6973    1.0000 </r>
       <r>    4.9302    1.0000 </r>
       <r>    5.7373    1.0000 </r>
       <r>    7.0155    1.0000 </r>
       <r>    7.1980    1.0000 </r>
       <r>    8.6916    1.0000 </r>
       <r>   10.1281    0.0000 </r>
       <r>   10.6552    0.0000 </r>
       <r>   10.7239    0.0000 </r>
       <r>   10.7301    0.0000 </r>
       <r>   11.1521    0.0000 </r>
      </set>
      <set comment="kpoint 40">
       <r>  -30.9516    1.0000 </r>
       <r>  -14.0617    1.0000 </r>
       <r>  -14.0591    1.0000 </r>
       <r>  -14.0289    1.0000 </r>
       <r>  -14.0191    1.0000 </r>
       <r>  -14.0182    1.0000 </r>
       <r>   -9.2125    1.0000 </r>
       <r>   -9.0574    1.0000 </r>
       <r>   -9.0296    1.0000 </r>
       <r>   -2.7016    1.0000 </r>
       <r>    3.4434    1.0000 </r>
       <r>    4.0530    1.0000 </r>
       <r>    4.2988    1.0000 </r>
       <r>    4.8332    1.0000 </r>
       <r>    4.9656    1.0000 </r>
       <r>    5.5307    1.0000 </r>
       <r>    6.7211    1.0000 </r>
       <r>    7.2151    1.0000 </r>
       <r>    8.8528    1.0000 </r>
       <r>   10.3183    0.0000 </r>
       <r>   10.7100    0.0000 </r>
       <r>   10.8132    0.0000 </r>
       <r>   10.8377    0.0000 </r>
       <r>   11.2067    0.0000 </r>
      </set>
      <set comment="kpoint 41">
       <r>  -30.9511    1.0000 </r>
       <r>  -14.0631    1.0000 </r>
       <r>  -14.0600    1.0000 </r>
       <r>  -14.0280    1.0000 </r>
       <r>  -14.0201    1.0000 </r>
       <r>  -14.0182    1.0000 </r>
       <r>   -9.2118    1.0000 </r>
       <r>   -9.0841    1.0000 </r>
       <r>   -9.0151    1.0000 </r>
       <r>   -2.6441    1.0000 </r>
       <r>    3.6307    1.0000 </r>
       <r>    3.9375    1.0000 </r>
       <r>    4.1349    1.0000 </r>
       <r>    4.9042    1.0000 </r>
       <r>    5.0306    1.0000 </r>
       <r>    5.4001    1.0000 </r>
       <r>    6.4318    1.0000 </r>
       <r>    7.1673    1.0000 </r>
       <r>    8.9781    0.9840 </r>
       <r>   10.2746    0.0000 </r>
       <r>   10.7500    0.0000 </r>
       <r>   10.8822    0.0000 </r>
       <r>   10.9086    0.0000 </r>
       <r>   11.1896    0.0000 </r>
      </set>
      <set comment="kpoint 42">
       <r>  -30.9510    1.0000 </r>
       <r>  -14.0677    1.0000 </r>
       <r>  -14.0597    1.0000 </r>
       <r>  -14.0265    1.0000 </r>
       <r>  -14.0214    1.0000 </r>
       <r>  -14.0185    1.0000 </r>
       <r>   -9.1973    1.0000 </r>
       <r>   -9.1143    1.0000 </r>
       <r>   -8.9973    1.0000 </r>
       <r>   -2.5799    1.0000 </r>
       <r>    3.6128    1.0000 </r>
       <r>    3.9253    1.0000 </r>
       <r>    3.9663    1.0000 </r>
       <r>    4.8855    1.0000 </r>
       <r>    5.1114    1.0000 </r>
       <r>    5.4669    1.0000 </r>
       <r>    6.2132    1.0000 </r>
       <r>    7.1001    1.0000 </r>
       <r>    9.1552    0.0000 </r>
       <r>   10.1351    0.0000 </r>
       <r>   10.7502    0.0000 </r>
       <r>   10.9126    0.0000 </r>
       <r>   10.9374    0.0000 </r>
       <r>   11.1809    0.0000 </r>
      </set>
      <set comment="kpoint 43">
       <r>  -30.9514    1.0000 </r>
       <r>  -14.0717    1.0000 </r>
       <r>  -14.0608    1.0000 </r>
       <r>  -14.0249    1.0000 </r>
       <r>  -14.0228    1.0000 </r>
       <r>  -14.0192    1.0000 </r>
       <r>   -9.1960    1.0000 </r>
       <r>   -9.1170    1.0000 </r>
       <r>   -8.9802    1.0000 </r>
       <r>   -2.5218    1.0000 </r>
       <r>    3.3902    1.0000 </r>
       <r>    3.8267    1.0000 </r>
       <r>    4.0036    1.0000 </r>
       <r>    4.8581    1.0000 </r>
       <r>    5.1737    1.0000 </r>
       <r>    5.6028    1.0000 </r>
       <r>    6.1260    1.0000 </r>
       <r>    7.0769    1.0000 </r>
       <r>    9.3248    0.0000 </r>
       <r>   10.0675    0.0000 </r>
       <r>   10.6504    0.0000 </r>
       <r>   10.9391    0.0000 </r>
       <r>   10.9660    0.0000 </r>
       <r>   11.1704    0.0000 </r>
      </set>
      <set comment="kpoint 44">
       <r>  -30.9518    1.0000 </r>
       <r>  -14.0603    1.0000 </r>
       <r>  -14.0550    1.0000 </r>
       <r>  -14.0299    1.0000 </r>
       <r>  -14.0180    1.0000 </r>
       <r>  -14.0180    1.0000 </r>
       <r>   -9.2100    1.0000 </r>
       <r>   -9.0454    1.0000 </r>
       <r>   -9.0454    1.0000 </r>
       <r>   -2.7854    1.0000 </r>
       <r>    3.4443    1.0000 </r>
       <r>    4.4129    1.0000 </r>
       <r>    4.4164    1.0000 </r>
       <r>    4.4164    1.0000 </r>
       <r>    4.9691    1.0000 </r>
       <r>    5.5774    1.0000 </r>
       <r>    7.2868    1.0000 </r>
       <r>    7.2868    1.0000 </r>
       <r>    8.6139    1.0000 </r>
       <r>   10.2349    0.0000 </r>
       <r>   10.6219    0.0000 </r>
       <r>   10.7025    0.0000 </r>
       <r>   10.7025    0.0000 </r>
       <r>   11.0360    0.0000 </r>
      </set>
      <set comment="kpoint 45">
       <r>  -30.9512    1.0000 </r>
       <r>  -14.0572    1.0000 </r>
       <r>  -14.0557    1.0000 </r>
       <r>  -14.0302    1.0000 </r>
       <r>  -14.0178    1.0000 </r>
       <r>  -14.0176    1.0000 </r>
       <r>   -9.2204    1.0000 </r>
       <r>   -9.0547    1.0000 </r>
       <r>   -9.0441    1.0000 </r>
       <r>   -2.7874    1.0000 </r>
       <r>    3.7209    1.0000 </r>
       <r>    4.1784    1.0000 </r>
       <r>    4.3538    1.0000 </r>
       <r>    4.5897    1.0000 </r>
       <r>    4.9979    1.0000 </r>
       <r>    5.3623    1.0000 </r>
       <r>    7.1542    1.0000 </r>
       <r>    7.3279    1.0000 </r>
       <r>    8.7334    1.0000 </r>
       <r>   10.4130    0.0000 </r>
       <r>   10.6446    0.0000 </r>
       <r>   10.7463    0.0000 </r>
       <r>   10.7772    0.0000 </r>
       <r>   10.9818    0.0000 </r>
      </set>
      <set comment="kpoint 46">
       <r>  -30.9508    1.0000 </r>
       <r>  -14.0585    1.0000 </r>
       <r>  -14.0560    1.0000 </r>
       <r>  -14.0295    1.0000 </r>
       <r>  -14.0185    1.0000 </r>
       <r>  -14.0175    1.0000 </r>
       <r>   -9.2148    1.0000 </r>
       <r>   -9.0787    1.0000 </r>
       <r>   -9.0339    1.0000 </r>
       <r>   -2.7511    1.0000 </r>
       <r>    3.9153    1.0000 </r>
       <r>    4.0329    1.0000 </r>
       <r>    4.2413    1.0000 </r>
       <r>    4.7676    1.0000 </r>
       <r>    5.0409    1.0000 </r>
       <r>    5.2047    1.0000 </r>
       <r>    6.7766    1.0000 </r>
       <r>    7.2672    1.0000 </r>
       <r>    8.8506    1.0000 </r>
       <r>   10.4341    0.0000 </r>
       <r>   10.7376    0.0000 </r>
       <r>   10.8212    0.0000 </r>
       <r>   10.8337    0.0000 </r>
       <r>   11.1350    0.0000 </r>
      </set>
      <set comment="kpoint 47">
       <r>  -30.9508    1.0000 </r>
       <r>  -14.0628    1.0000 </r>
       <r>  -14.0569    1.0000 </r>
       <r>  -14.0282    1.0000 </r>
       <r>  -14.0199    1.0000 </r>
       <r>  -14.0179    1.0000 </r>
       <r>   -9.1955    1.0000 </r>
       <r>   -9.1114    1.0000 </r>
       <r>   -9.0171    1.0000 </r>
       <r>   -2.6782    1.0000 </r>
       <r>    3.8959    1.0000 </r>
       <r>    3.9338    1.0000 </r>
       <r>    4.1021    1.0000 </r>
       <r>    4.8569    1.0000 </r>
       <r>    5.0890    1.0000 </r>
       <r>    5.2968    1.0000 </r>
       <r>    6.3920    1.0000 </r>
       <r>    7.1612    1.0000 </r>
       <r>    8.9882    0.7630 </r>
       <r>   10.2888    0.0000 </r>
       <r>   10.7704    0.0000 </r>
       <r>   10.8506    0.0000 </r>
       <r>   10.9281    0.0000 </r>
       <r>   11.1806    0.0000 </r>
      </set>
      <set comment="kpoint 48">
       <r>  -30.9509    1.0000 </r>
       <r>  -14.0545    1.0000 </r>
       <r>  -14.0543    1.0000 </r>
       <r>  -14.0308    1.0000 </r>
       <r>  -14.0172    1.0000 </r>
       <r>  -14.0172    1.0000 </r>
       <r>   -9.2311    1.0000 </r>
       <r>   -9.0503    1.0000 </r>
       <r>   -9.0503    1.0000 </r>
       <r>   -2.8278    1.0000 </r>
       <r>    3.9930    1.0000 </r>
       <r>    4.3164    1.0000 </r>
       <r>    4.3656    1.0000 </r>
       <r>    4.3656    1.0000 </r>
       <r>    5.0086    1.0000 </r>
       <r>    5.1486    1.0000 </r>
       <r>    7.4208    1.0000 </r>
       <r>    7.4208    1.0000 </r>
       <r>    8.7002    1.0000 </r>
       <r>   10.4778    0.0000 </r>
       <r>   10.5471    0.0000 </r>
       <r>   10.7439    0.0000 </r>
       <r>   10.7569    0.0000 </r>
       <r>   10.7569    0.0000 </r>
      </set>
      <set comment="kpoint 49">
       <r>  -30.9507    1.0000 </r>
       <r>  -14.0554    1.0000 </r>
       <r>  -14.0540    1.0000 </r>
       <r>  -14.0306    1.0000 </r>
       <r>  -14.0174    1.0000 </r>
       <r>  -14.0171    1.0000 </r>
       <r>   -9.2288    1.0000 </r>
       <r>   -9.0592    1.0000 </r>
       <r>   -9.0466    1.0000 </r>
       <r>   -2.8155    1.0000 </r>
       <r>    4.0833    1.0000 </r>
       <r>    4.1597    1.0000 </r>
       <r>    4.3253    1.0000 </r>
       <r>    4.5592    1.0000 </r>
       <r>    5.0241    1.0000 </r>
       <r>    5.0546    1.0000 </r>
       <r>    7.2259    1.0000 </r>
       <r>    7.3905    1.0000 </r>
       <r>    8.7559    1.0000 </r>
       <r>   10.5737    0.0000 </r>
       <r>   10.6187    0.0000 </r>
       <r>   10.7726    0.0000 </r>
       <r>   10.7753    0.0000 </r>
       <r>   10.8283    0.0000 </r>
      </set>
      <set comment="kpoint 50">
       <r>  -30.9572    1.0000 </r>
       <r>  -14.0680    1.0000 </r>
       <r>  -14.0603    1.0000 </r>
       <r>  -14.0250    1.0000 </r>
       <r>  -14.0224    1.0000 </r>
       <r>  -14.0222    1.0000 </r>
       <r>   -9.1011    1.0000 </r>
       <r>   -9.0223    1.0000 </r>
       <r>   -8.9949    1.0000 </r>
       <r>   -3.0863    1.0000 </r>
       <r>    3.5093    1.0000 </r>
       <r>    4.1812    1.0000 </r>
       <r>    4.5541    1.0000 </r>
       <r>    4.7772    1.0000 </r>
       <r>    5.0733    1.0000 </r>
       <r>    6.1925    1.0000 </r>
       <r>    7.0272    1.0000 </r>
       <r>    7.4545    1.0000 </r>
       <r>    8.9823    0.9387 </r>
       <r>    9.0589    0.0000 </r>
       <r>    9.8703    0.0000 </r>
       <r>   10.2769    0.0000 </r>
       <r>   10.9225    0.0000 </r>
       <r>   11.0335    0.0000 </r>
      </set>
      <set comment="kpoint 51">
       <r>  -30.9557    1.0000 </r>
       <r>  -14.0710    1.0000 </r>
       <r>  -14.0620    1.0000 </r>
       <r>  -14.0256    1.0000 </r>
       <r>  -14.0219    1.0000 </r>
       <r>  -14.0216    1.0000 </r>
       <r>   -9.1557    1.0000 </r>
       <r>   -9.0248    1.0000 </r>
       <r>   -8.9830    1.0000 </r>
       <r>   -2.8682    1.0000 </r>
       <r>    3.2668    1.0000 </r>
       <r>    3.9802    1.0000 </r>
       <r>    4.4506    1.0000 </r>
       <r>    4.8114    1.0000 </r>
       <r>    5.1389    1.0000 </r>
       <r>    5.8783    1.0000 </r>
       <r>    6.8230    1.0000 </r>
       <r>    7.3604    1.0000 </r>
       <r>    8.9380    1.0000 </r>
       <r>    9.5353    0.0000 </r>
       <r>   10.1247    0.0000 </r>
       <r>   10.6502    0.0000 </r>
       <r>   11.0131    0.0000 </r>
       <r>   11.1290    0.0000 </r>
      </set>
      <set comment="kpoint 52">
       <r>  -30.9542    1.0000 </r>
       <r>  -14.0731    1.0000 </r>
       <r>  -14.0647    1.0000 </r>
       <r>  -14.0262    1.0000 </r>
       <r>  -14.0215    1.0000 </r>
       <r>  -14.0208    1.0000 </r>
       <r>   -9.2126    1.0000 </r>
       <r>   -9.0193    1.0000 </r>
       <r>   -8.9748    1.0000 </r>
       <r>   -2.6461    1.0000 </r>
       <r>    3.0899    1.0000 </r>
       <r>    3.8495    1.0000 </r>
       <r>    4.2996    1.0000 </r>
       <r>    4.8081    1.0000 </r>
       <r>    5.1265    1.0000 </r>
       <r>    5.5413    1.0000 </r>
       <r>    6.8228    1.0000 </r>
       <r>    7.2878    1.0000 </r>
       <r>    8.8953    1.0000 </r>
       <r>    9.9716    0.0000 </r>
       <r>   10.3663    0.0000 </r>
       <r>   10.8931    0.0000 </r>
       <r>   11.0052    0.0000 </r>
       <r>   11.1683    0.0000 </r>
      </set>
      <set comment="kpoint 53">
       <r>  -30.9529    1.0000 </r>
       <r>  -14.0740    1.0000 </r>
[...]
       <r>    9.4202    0.0000 </r>
       <r>    9.8746    0.0000 </r>
       <r>   10.7168    0.0000 </r>
       <r>   10.8458    0.0000 </r>
       <r>   10.9786    0.0000 </r>
       <r>   11.1484    0.0000 </r>
      </set>
      <set comment="kpoint 81">
       <r>  -30.9512    1.0000 </r>
       <r>  -14.0693    1.0000 </r>
       <r>  -14.0584    1.0000 </r>
       <r>  -14.0256    1.0000 </r>
       <r>  -14.0230    1.0000 </r>
       <r>  -14.0181    1.0000 </r>
       <r>   -9.1912    1.0000 </r>
       <r>   -9.1071    1.0000 </r>
       <r>   -9.0071    1.0000 </r>
       <r>   -2.5820    1.0000 </r>
       <r>    3.5521    1.0000 </r>
       <r>    3.7828    1.0000 </r>
       <r>    4.2105    1.0000 </r>
       <r>    4.8955    1.0000 </r>
       <r>    5.1040    1.0000 </r>
       <r>    5.5528    1.0000 </r>
       <r>    5.9210    1.0000 </r>
       <r>    7.3012    1.0000 </r>
       <r>    9.4452    0.0000 </r>
       <r>    9.8630    0.0000 </r>
       <r>   10.6984    0.0000 </r>
       <r>   10.8491    0.0000 </r>
       <r>   10.9911    0.0000 </r>
       <r>   11.1397    0.0000 </r>
      </set>
      <set comment="kpoint 82">
       <r>  -30.9507    1.0000 </r>
       <r>  -14.0632    1.0000 </r>
       <r>  -14.0545    1.0000 </r>
       <r>  -14.0284    1.0000 </r>
       <r>  -14.0204    1.0000 </r>
       <r>  -14.0171    1.0000 </r>
       <r>   -9.1988    1.0000 </r>
       <r>   -9.0836    1.0000 </r>
       <r>   -9.0443    1.0000 </r>
       <r>   -2.7061    1.0000 </r>
       <r>    3.8098    1.0000 </r>
       <r>    3.9871    1.0000 </r>
       <r>    4.3415    1.0000 </r>
       <r>    4.8169    1.0000 </r>
       <r>    5.0941    1.0000 </r>
       <r>    5.2376    1.0000 </r>
       <r>    6.1672    1.0000 </r>
       <r>    7.4795    1.0000 </r>
       <r>    9.1083    0.0000 </r>
       <r>   10.2277    0.0000 </r>
       <r>   10.6238    0.0000 </r>
       <r>   10.7561    0.0000 </r>
       <r>   10.8998    0.0000 </r>
       <r>   11.1573    0.0000 </r>
      </set>
      <set comment="kpoint 83">
       <r>  -30.9506    1.0000 </r>
       <r>  -14.0657    1.0000 </r>
       <r>  -14.0545    1.0000 </r>
       <r>  -14.0271    1.0000 </r>
       <r>  -14.0219    1.0000 </r>
       <r>  -14.0171    1.0000 </r>
       <r>   -9.1811    1.0000 </r>
       <r>   -9.1068    1.0000 </r>
       <r>   -9.0388    1.0000 </r>
       <r>   -2.6683    1.0000 </r>
       <r>    3.7607    1.0000 </r>
       <r>    4.0019    1.0000 </r>
       <r>    4.2981    1.0000 </r>
       <r>    4.8617    1.0000 </r>
       <r>    5.1334    1.0000 </r>
       <r>    5.3052    1.0000 </r>
       <r>    5.8575    1.0000 </r>
       <r>    7.4655    1.0000 </r>
       <r>    9.2881    0.0000 </r>
       <r>   10.0589    0.0000 </r>
       <r>   10.6713    0.0000 </r>
       <r>   10.7633    0.0000 </r>
       <r>   10.9461    0.0000 </r>
       <r>   11.1681    0.0000 </r>
      </set>
      <set comment="kpoint 84">
       <r>  -30.9507    1.0000 </r>
       <r>  -14.0672    1.0000 </r>
       <r>  -14.0545    1.0000 </r>
       <r>  -14.0259    1.0000 </r>
       <r>  -14.0233    1.0000 </r>
       <r>  -14.0171    1.0000 </r>
       <r>   -9.1726    1.0000 </r>
       <r>   -9.1119    1.0000 </r>
       <r>   -9.0404    1.0000 </r>
       <r>   -2.6479    1.0000 </r>
       <r>    3.7245    1.0000 </r>
       <r>    3.9676    1.0000 </r>
       <r>    4.3156    1.0000 </r>
       <r>    4.8775    1.0000 </r>
       <r>    5.1637    1.0000 </r>
       <r>    5.4095    1.0000 </r>
       <r>    5.6318    1.0000 </r>
       <r>    7.4895    1.0000 </r>
       <r>    9.5258    0.0000 </r>
       <r>    9.8307    0.0000 </r>
       <r>   10.6524    0.0000 </r>
       <r>   10.7595    0.0000 </r>
       <r>   10.9833    0.0000 </r>
       <r>   11.1361    0.0000 </r>
      </set>
     </set>
    </set>
   </array>
  </eigenvalues>
  <separator name="orbital magnetization" >
   <v name="MAGDIPOLOUT">      0.00000000      0.00000000      0.00000000</v>
  </separator>
  <dos>
   <i name="efermi">      8.99324327 </i>
   <total>
    <array>
     <dimension dim="1">gridpoints</dimension>
     <dimension dim="2">spin</dimension>
     <field>energy</field>
     <field>total</field>
     <field>integrated</field>
     <set>
      <set comment="spin 1">
       <r>   -33.0690     0.0000     0.0000 </r>
       <r>   -32.9143     0.0000     0.0000 </r>
       <r>   -32.7596     0.0000     0.0000 </r>
       <r>   -32.6049     0.0000     0.0000 </r>
       <r>   -32.4502     0.0000     0.0000 </r>
       <r>   -32.2956     0.0000     0.0000 </r>
       <r>   -32.1409     0.0000     0.0000 </r>
       <r>   -31.9862     0.0000     0.0000 </r>
       <r>   -31.8315     0.0000     0.0000 </r>
       <r>   -31.6768     0.0000     0.0000 </r>
       <r>   -31.5221     0.0000     0.0000 </r>
       <r>   -31.3674     0.0000     0.0000 </r>
       <r>   -31.2128     0.0000     0.0000 </r>
       <r>   -31.0581     0.0000     0.0000 </r>
       <r>   -30.9034    12.9295     2.0000 </r>
       <r>   -30.7487     0.0000     2.0000 </r>
       <r>   -30.5940     0.0000     2.0000 </r>
       <r>   -30.4393     0.0000     2.0000 </r>
       <r>   -30.2846     0.0000     2.0000 </r>
       <r>   -30.1300     0.0000     2.0000 </r>
       <r>   -29.9753     0.0000     2.0000 </r>
       <r>   -29.8206     0.0000     2.0000 </r>
       <r>   -29.6659     0.0000     2.0000 </r>
       <r>   -29.5112     0.0000     2.0000 </r>
       <r>   -29.3565     0.0000     2.0000 </r>
       <r>   -29.2019     0.0000     2.0000 </r>
       <r>   -29.0472     0.0000     2.0000 </r>
       <r>   -28.8925     0.0000     2.0000 </r>
       <r>   -28.7378     0.0000     2.0000 </r>
       <r>   -28.5831     0.0000     2.0000 </r>
       <r>   -28.4284     0.0000     2.0000 </r>
       <r>   -28.2737     0.0000     2.0000 </r>
       <r>   -28.1191     0.0000     2.0000 </r>
       <r>   -27.9644     0.0000     2.0000 </r>
       <r>   -27.8097     0.0000     2.0000 </r>
       <r>   -27.6550     0.0000     2.0000 </r>
       <r>   -27.5003     0.0000     2.0000 </r>
       <r>   -27.3456     0.0000     2.0000 </r>
       <r>   -27.1910     0.0000     2.0000 </r>
       <r>   -27.0363     0.0000     2.0000 </r>
       <r>   -26.8816     0.0000     2.0000 </r>
       <r>   -26.7269     0.0000     2.0000 </r>
       <r>   -26.5722     0.0000     2.0000 </r>
       <r>   -26.4175     0.0000     2.0000 </r>
       <r>   -26.2628     0.0000     2.0000 </r>
       <r>   -26.1082     0.0000     2.0000 </r>
       <r>   -25.9535     0.0000     2.0000 </r>
       <r>   -25.7988     0.0000     2.0000 </r>
       <r>   -25.6441     0.0000     2.0000 </r>
       <r>   -25.4894     0.0000     2.0000 </r>
       <r>   -25.3347     0.0000     2.0000 </r>
       <r>   -25.1800     0.0000     2.0000 </r>
       <r>   -25.0254     0.0000     2.0000 </r>
       <r>   -24.8707     0.0000     2.0000 </r>
       <r>   -24.7160     0.0000     2.0000 </r>
       <r>   -24.5613     0.0000     2.0000 </r>
       <r>   -24.4066     0.0000     2.0000 </r>
       <r>   -24.2519     0.0000     2.0000 </r>
       <r>   -24.0973     0.0000     2.0000 </r>
       <r>   -23.9426     0.0000     2.0000 </r>
       <r>   -23.7879     0.0000     2.0000 </r>
       <r>   -23.6332     0.0000     2.0000 </r>
       <r>   -23.4785     0.0000     2.0000 </r>
       <r>   -23.3238     0.0000     2.0000 </r>
       <r>   -23.1691     0.0000     2.0000 </r>
       <r>   -23.0145     0.0000     2.0000 </r>
       <r>   -22.8598     0.0000     2.0000 </r>
       <r>   -22.7051     0.0000     2.0000 </r>
       <r>   -22.5504     0.0000     2.0000 </r>
       <r>   -22.3957     0.0000     2.0000 </r>
       <r>   -22.2410     0.0000     2.0000 </r>
       <r>   -22.0863     0.0000     2.0000 </r>
       <r>   -21.9317     0.0000     2.0000 </r>
       <r>   -21.7770     0.0000     2.0000 </r>
       <r>   -21.6223     0.0000     2.0000 </r>
       <r>   -21.4676     0.0000     2.0000 </r>
       <r>   -21.3129     0.0000     2.0000 </r>
       <r>   -21.1582     0.0000     2.0000 </r>
       <r>   -21.0036     0.0000     2.0000 </r>
       <r>   -20.8489     0.0000     2.0000 </r>
       <r>   -20.6942     0.0000     2.0000 </r>
       <r>   -20.5395     0.0000     2.0000 </r>
       <r>   -20.3848     0.0000     2.0000 </r>
       <r>   -20.2301     0.0000     2.0000 </r>
       <r>   -20.0754     0.0000     2.0000 </r>
       <r>   -19.9208     0.0000     2.0000 </r>
       <r>   -19.7661     0.0000     2.0000 </r>
       <r>   -19.6114     0.0000     2.0000 </r>
       <r>   -19.4567     0.0000     2.0000 </r>
       <r>   -19.3020     0.0000     2.0000 </r>
       <r>   -19.1473     0.0000     2.0000 </r>
       <r>   -18.9927     0.0000     2.0000 </r>
       <r>   -18.8380     0.0000     2.0000 </r>
       <r>   -18.6833     0.0000     2.0000 </r>
       <r>   -18.5286     0.0000     2.0000 </r>
       <r>   -18.3739     0.0000     2.0000 </r>
       <r>   -18.2192     0.0000     2.0000 </r>
       <r>   -18.0645     0.0000     2.0000 </r>
       <r>   -17.9099     0.0000     2.0000 </r>
       <r>   -17.7552     0.0000     2.0000 </r>
       <r>   -17.6005     0.0000     2.0000 </r>
       <r>   -17.4458     0.0000     2.0000 </r>
       <r>   -17.2911     0.0000     2.0000 </r>
       <r>   -17.1364     0.0000     2.0000 </r>
       <r>   -16.9817     0.0000     2.0000 </r>
       <r>   -16.8271     0.0000     2.0000 </r>
       <r>   -16.6724     0.0000     2.0000 </r>
       <r>   -16.5177     0.0000     2.0000 </r>
       <r>   -16.3630     0.0000     2.0000 </r>
       <r>   -16.2083     0.0000     2.0000 </r>
       <r>   -16.0536     0.0000     2.0000 </r>
       <r>   -15.8990     0.0000     2.0000 </r>
       <r>   -15.7443     0.0000     2.0000 </r>
       <r>   -15.5896     0.0000     2.0000 </r>
       <r>   -15.4349     0.0000     2.0000 </r>
       <r>   -15.2802     0.0000     2.0000 </r>
       <r>   -15.1255     0.0000     2.0000 </r>
       <r>   -14.9708     0.0000     2.0000 </r>
       <r>   -14.8162     0.0000     2.0000 </r>
       <r>   -14.6615     0.0000     2.0000 </r>
       <r>   -14.5068     0.0000     2.0000 </r>
       <r>   -14.3521     0.0000     2.0000 </r>
       <r>   -14.1974     0.0000     2.0000 </r>
       <r>   -14.0427    25.9100     6.0079 </r>
       <r>   -13.8880     0.0000    12.0000 </r>
       <r>   -13.7334     0.0000    12.0000 </r>
       <r>   -13.5787     0.0000    12.0000 </r>
       <r>   -13.4240     0.0000    12.0000 </r>
       <r>   -13.2693     0.0000    12.0000 </r>
       <r>   -13.1146     0.0000    12.0000 </r>
       <r>   -12.9599     0.0000    12.0000 </r>
       <r>   -12.8053     0.0000    12.0000 </r>
       <r>   -12.6506     0.0000    12.0000 </r>
       <r>   -12.4959     0.0000    12.0000 </r>
       <r>   -12.3412     0.0000    12.0000 </r>
       <r>   -12.1865     0.0000    12.0000 </r>
       <r>   -12.0318     0.0000    12.0000 </r>
       <r>   -11.8771     0.0000    12.0000 </r>
       <r>   -11.7225     0.0000    12.0000 </r>
       <r>   -11.5678     0.0000    12.0000 </r>
       <r>   -11.4131     0.0000    12.0000 </r>
       <r>   -11.2584     0.0000    12.0000 </r>
       <r>   -11.1037     0.0000    12.0000 </r>
       <r>   -10.9490     0.0000    12.0000 </r>
       <r>   -10.7944     0.0000    12.0000 </r>
       <r>   -10.6397     0.0000    12.0000 </r>
       <r>   -10.4850     0.0000    12.0000 </r>
       <r>   -10.3303     0.0000    12.0000 </r>
       <r>   -10.1756     0.0000    12.0000 </r>
       <r>   -10.0209     0.0000    12.0000 </r>
       <r>    -9.8662     0.0000    12.0000 </r>
       <r>    -9.7116     0.0000    12.0000 </r>
       <r>    -9.5569     0.0000    12.0000 </r>
       <r>    -9.4022     0.0000    12.0000 </r>
       <r>    -9.2475     2.0496    12.3170 </r>
       <r>    -9.0928     3.5590    14.2437 </r>
       <r>    -8.9381    12.5174    18.0000 </r>
       <r>    -8.7834     0.0000    18.0000 </r>
       <r>    -8.6288     0.0000    18.0000 </r>
       <r>    -8.4741     0.0000    18.0000 </r>
       <r>    -8.3194     0.0000    18.0000 </r>
       <r>    -8.1647     0.0000    18.0000 </r>
       <r>    -8.0100     0.0000    18.0000 </r>
       <r>    -7.8553     0.0000    18.0000 </r>
       <r>    -7.7007     0.0000    18.0000 </r>
       <r>    -7.5460     0.0000    18.0000 </r>
       <r>    -7.3913     0.0000    18.0000 </r>
       <r>    -7.2366     0.0000    18.0000 </r>
       <r>    -7.0819     0.0000    18.0000 </r>
       <r>    -6.9272     0.0000    18.0000 </r>
       <r>    -6.7725     0.0000    18.0000 </r>
       <r>    -6.6179     0.0000    18.0000 </r>
       <r>    -6.4632     0.0000    18.0000 </r>
       <r>    -6.3085     0.0000    18.0000 </r>
       <r>    -6.1538     0.0000    18.0000 </r>
       <r>    -5.9991     0.0000    18.0000 </r>
       <r>    -5.8444     0.0000    18.0000 </r>
       <r>    -5.6898     0.0000    18.0000 </r>
       <r>    -5.5351     0.0000    18.0000 </r>
       <r>    -5.3804     0.0000    18.0000 </r>
       <r>    -5.2257     0.0000    18.0000 </r>
       <r>    -5.0710     0.0000    18.0000 </r>
       <r>    -4.9163     0.0000    18.0000 </r>
       <r>    -4.7616     0.0000    18.0000 </r>
       <r>    -4.6070     0.0000    18.0000 </r>
       <r>    -4.4523     0.0000    18.0000 </r>
       <r>    -4.2976     0.0000    18.0000 </r>
       <r>    -4.1429     0.0000    18.0000 </r>
       <r>    -3.9882     0.0000    18.0000 </r>
       <r>    -3.8335     0.0000    18.0000 </r>
       <r>    -3.6788     0.0000    18.0000 </r>
       <r>    -3.5242     0.0000    18.0000 </r>
       <r>    -3.3695     0.0823    18.0136 </r>
       <r>    -3.2148     0.1774    18.0520 </r>
       <r>    -3.0601     0.2825    18.1029 </r>
       <r>    -2.9054     0.0891    18.1604 </r>
       <r>    -2.7507     1.1262    18.4100 </r>
       <r>    -2.5961     2.6294    19.1177 </r>
       <r>    -2.4414     1.9658    19.8307 </r>
       <r>    -2.2867     0.3279    19.9997 </r>
       <r>    -2.1320     0.0000    20.0000 </r>
       <r>    -1.9773     0.0000    20.0000 </r>
       <r>    -1.8226     0.0000    20.0000 </r>
       <r>    -1.6679     0.0000    20.0000 </r>
       <r>    -1.5133     0.0000    20.0000 </r>
       <r>    -1.3586     0.0000    20.0000 </r>
       <r>    -1.2039     0.0000    20.0000 </r>
       <r>    -1.0492     0.0000    20.0000 </r>
       <r>    -0.8945     0.0000    20.0000 </r>
       <r>    -0.7398     0.0000    20.0000 </r>
       <r>    -0.5851     0.0000    20.0000 </r>
       <r>    -0.4305     0.0000    20.0000 </r>
       <r>    -0.2758     0.0000    20.0000 </r>
       <r>    -0.1211     0.0000    20.0000 </r>
       <r>     0.0336     0.0000    20.0000 </r>
       <r>     0.1883     0.0000    20.0000 </r>
       <r>     0.3430     0.0000    20.0000 </r>
       <r>     0.4976     0.0000    20.0000 </r>
       <r>     0.6523     0.0000    20.0000 </r>
       <r>     0.8070     0.0000    20.0000 </r>
       <r>     0.9617     0.0000    20.0000 </r>
       <r>     1.1164     0.0000    20.0000 </r>
       <r>     1.2711     0.0000    20.0000 </r>
       <r>     1.4258     0.0000    20.0000 </r>
       <r>     1.5804     0.0000    20.0000 </r>
       <r>     1.7351     0.0000    20.0000 </r>
       <r>     1.8898     0.0000    20.0000 </r>
       <r>     2.0445     0.0000    20.0000 </r>
       <r>     2.1992     0.0000    20.0000 </r>
       <r>     2.3539     0.0000    20.0000 </r>
       <r>     2.5085     0.0000    20.0000 </r>
       <r>     2.6632     0.0000    20.0000 </r>
       <r>     2.8179     0.1800    20.0278 </r>
       <r>     2.9726     0.3428    20.1259 </r>
       <r>     3.1273     2.1184    20.6918 </r>
       <r>     3.2820     1.5164    21.0794 </r>
       <r>     3.4367     0.9539    21.2836 </r>
       <r>     3.5913     0.4239    21.4966 </r>
       <r>     3.7460     1.8577    21.8349 </r>
       <r>     3.9007     4.0003    22.9747 </r>
       <r>     4.0554     2.8523    23.8786 </r>
       <r>     4.2101     2.5404    24.6715 </r>
       <r>     4.3648     2.6492    25.4676 </r>
       <r>     4.5195     0.9470    25.9143 </r>
       <r>     4.6741     0.1416    26.0711 </r>
       <r>     4.8288     4.6679    26.8440 </r>
       <r>     4.9835     3.3083    28.4198 </r>
       <r>     5.1382     4.4841    29.8306 </r>
       <r>     5.2929     1.2856    30.3937 </r>
       <r>     5.4476     2.0796    30.9097 </r>
       <r>     5.6022     1.7698    31.3935 </r>
       <r>     5.7569     0.6816    31.6566 </r>
       <r>     5.9116     0.8849    31.8811 </r>
       <r>     6.0663     0.2850    32.0450 </r>
       <r>     6.2210     1.6910    32.3444 </r>
       <r>     6.3757     0.6307    32.5372 </r>
       <r>     6.5304     0.7227    32.7754 </r>
       <r>     6.6850     0.4029    33.1083 </r>
       <r>     6.8397     1.2394    33.3579 </r>
       <r>     6.9944     0.7064    33.5940 </r>
       <r>     7.1491     1.2604    33.8545 </r>
       <r>     7.3038     3.8954    35.2343 </r>
       <r>     7.4585     1.3329    35.8439 </r>
       <r>     7.6132     0.2440    35.9631 </r>
       <r>     7.7678     0.1647    35.9982 </r>
       <r>     7.9225     0.0000    36.0009 </r>
       <r>     8.0772     0.0000    36.0009 </r>
       <r>     8.2319     0.0000    36.0082 </r>
       <r>     8.3866     0.0795    36.0278 </r>
       <r>     8.5413     0.1755    36.0554 </r>
       <r>     8.6959     1.0546    36.2259 </r>
       <r>     8.8506     1.0495    36.4728 </r>
       <r>     9.0053     2.2012    37.0515 </r>
       <r>     9.1600     0.7400    37.4863 </r>
       <r>     9.3147     1.5369    37.9237 </r>
       <r>     9.4694     0.5653    38.1230 </r>
       <r>     9.6241     0.2531    38.2822 </r>
       <r>     9.7787     0.2812    38.3612 </r>
       <r>     9.9334     0.7111    38.6462 </r>
       <r>    10.0881     2.1024    39.2055 </r>
       <r>    10.2428     1.8720    39.8735 </r>
       <r>    10.3975     1.7717    40.5080 </r>
       <r>    10.5522     1.7795    40.9844 </r>
       <r>    10.7068     4.1632    41.9813 </r>
       <r>    10.8615     3.9344    43.2640 </r>
       <r>    11.0162    10.5303    45.8137 </r>
       <r>    11.1709     5.8511    47.0981 </r>
       <r>    11.3256     0.0000    48.0000 </r>
       <r>    11.4803     0.0000    48.0000 </r>
       <r>    11.6350     0.0000    48.0000 </r>
       <r>    11.7896     0.0000    48.0000 </r>
       <r>    11.9443     0.0000    48.0000 </r>
       <r>    12.0990     0.0000    48.0000 </r>
       <r>    12.2537     0.0000    48.0000 </r>
       <r>    12.4084     0.0000    48.0000 </r>
       <r>    12.5631     0.0000    48.0000 </r>
       <r>    12.7178     0.0000    48.0000 </r>
       <r>    12.8724     0.0000    48.0000 </r>
       <r>    13.0271     0.0000    48.0000 </r>
       <r>    13.1818     0.0000    48.0000 </r>
       <r>    13.3365     0.0000    48.0000 </r>
      </set>
     </set>
    </array>
   </total>
  </dos>
 </calculation>
 <structure name="finalpos" >
  <crystal>
   <varray name="basis" >
    <v>       0.00000000       3.37857145       3.37857145 </v>
    <v>       3.37857145       0.00000000       3.37857145 </v>
    <v>       3.37857145       3.37857145       0.00000000 </v>
   </varray>
   <i name="volume">     77.13106325 </i>
   <varray name="rec_basis" >
    <v>      -0.14799154       0.14799154       0.14799154 </v>
    <v>       0.14799154      -0.14799154       0.14799154 </v>
    <v>       0.14799154       0.14799154      -0.14799154 </v>
   </varray>
  </crystal>
  <varray name="positions" >
   <v>       0.25000000       0.25000000       0.25000000 </v>
   <v>       0.75000000       0.75000000       0.75000000 </v>
   <v>       0.00000000       0.00000000       0.00000000 </v>
  </varray>
 </structure>
</modeling>
