unknown system                          
            1
    -1.377851    1.377851    1.377851
     1.377851   -1.377851    1.377851
     1.377851    1.377851   -1.377851
   Fe
     1
Direct configuration=     1
   0.00000000  0.00000000  0.00000000
