   3   3   0   0
  0.2676559E+02  0.4842516E-09  0.4842516E-09  0.4842516E-09  0.1000000E-15
  1.000000000000000E-004
  CAR
 unknown system
     12.70735154    -33.68705188  301      8.48761878      1.00000000
    -33.687  0.0000E+00  0.0000E+00
    -33.532  0.0000E+00  0.0000E+00
    -33.378  0.0000E+00  0.0000E+00
    -33.223  0.0000E+00  0.0000E+00
    -33.068  0.0000E+00  0.0000E+00
    -32.914  0.0000E+00  0.0000E+00
    -32.759  0.0000E+00  0.0000E+00
    -32.605  0.0000E+00  0.0000E+00
    -32.450  0.0000E+00  0.0000E+00
    -32.295  0.0000E+00  0.0000E+00
    -32.141  0.0000E+00  0.0000E+00
    -31.986  0.0000E+00  0.0000E+00
    -31.831  0.0000E+00  0.0000E+00
    -31.677  0.0000E+00  0.0000E+00
    -31.522  0.2155E+00  0.3333E-01
    -31.367  0.0000E+00  0.3333E-01
    -31.213  0.0000E+00  0.3333E-01
    -31.058  0.0000E+00  0.3333E-01
    -30.903  0.0000E+00  0.3333E-01
    -30.749  0.0000E+00  0.3333E-01
    -30.594  0.0000E+00  0.3333E-01
    -30.439  0.0000E+00  0.3333E-01
    -30.285  0.0000E+00  0.3333E-01
    -30.130  0.0000E+00  0.3333E-01
    -29.975  0.0000E+00  0.3333E-01
    -29.821  0.0000E+00  0.3333E-01
    -29.666  0.0000E+00  0.3333E-01
    -29.512  0.0000E+00  0.3333E-01
    -29.357  0.0000E+00  0.3333E-01
    -29.202  0.0000E+00  0.3333E-01
    -29.048  0.0000E+00  0.3333E-01
    -28.893  0.0000E+00  0.3333E-01
    -28.738  0.0000E+00  0.3333E-01
    -28.584  0.0000E+00  0.3333E-01
    -28.429  0.0000E+00  0.3333E-01
    -28.274  0.0000E+00  0.3333E-01
    -28.120  0.0000E+00  0.3333E-01
    -27.965  0.0000E+00  0.3333E-01
    -27.810  0.0000E+00  0.3333E-01
    -27.656  0.0000E+00  0.3333E-01
    -27.501  0.0000E+00  0.3333E-01
    -27.346  0.0000E+00  0.3333E-01
    -27.192  0.0000E+00  0.3333E-01
    -27.037  0.0000E+00  0.3333E-01
    -26.883  0.0000E+00  0.3333E-01
    -26.728  0.0000E+00  0.3333E-01
    -26.573  0.0000E+00  0.3333E-01
    -26.419  0.0000E+00  0.3333E-01
    -26.264  0.0000E+00  0.3333E-01
    -26.109  0.0000E+00  0.3333E-01
    -25.955  0.0000E+00  0.3333E-01
    -25.800  0.0000E+00  0.3333E-01
    -25.645  0.0000E+00  0.3333E-01
    -25.491  0.0000E+00  0.3333E-01
    -25.336  0.0000E+00  0.3333E-01
    -25.181  0.0000E+00  0.3333E-01
    -25.027  0.0000E+00  0.3333E-01
    -24.872  0.0000E+00  0.3333E-01
    -24.717  0.0000E+00  0.3333E-01
    -24.563  0.0000E+00  0.3333E-01
    -24.408  0.0000E+00  0.3333E-01
    -24.254  0.0000E+00  0.3333E-01
    -24.099  0.0000E+00  0.3333E-01
    -23.944  0.0000E+00  0.3333E-01
    -23.790  0.0000E+00  0.3333E-01
    -23.635  0.0000E+00  0.3333E-01
    -23.480  0.0000E+00  0.3333E-01
    -23.326  0.0000E+00  0.3333E-01
    -23.171  0.0000E+00  0.3333E-01
    -23.016  0.0000E+00  0.3333E-01
    -22.862  0.0000E+00  0.3333E-01
    -22.707  0.0000E+00  0.3333E-01
    -22.552  0.0000E+00  0.3333E-01
    -22.398  0.0000E+00  0.3333E-01
    -22.243  0.0000E+00  0.3333E-01
    -22.088  0.0000E+00  0.3333E-01
    -21.934  0.0000E+00  0.3333E-01
    -21.779  0.0000E+00  0.3333E-01
    -21.625  0.0000E+00  0.3333E-01
    -21.470  0.0000E+00  0.3333E-01
    -21.315  0.0000E+00  0.3333E-01
    -21.161  0.0000E+00  0.3333E-01
    -21.006  0.0000E+00  0.3333E-01
    -20.851  0.0000E+00  0.3333E-01
    -20.697  0.0000E+00  0.3333E-01
    -20.542  0.0000E+00  0.3333E-01
    -20.387  0.0000E+00  0.3333E-01
    -20.233  0.0000E+00  0.3333E-01
    -20.078  0.0000E+00  0.3333E-01
    -19.923  0.0000E+00  0.3333E-01
    -19.769  0.0000E+00  0.3333E-01
    -19.614  0.0000E+00  0.3333E-01
    -19.459  0.0000E+00  0.3333E-01
    -19.305  0.0000E+00  0.3333E-01
    -19.150  0.0000E+00  0.3333E-01
    -18.995  0.0000E+00  0.3333E-01
    -18.841  0.0000E+00  0.3333E-01
    -18.686  0.0000E+00  0.3333E-01
    -18.532  0.0000E+00  0.3333E-01
    -18.377  0.0000E+00  0.3333E-01
    -18.222  0.0000E+00  0.3333E-01
    -18.068  0.0000E+00  0.3333E-01
    -17.913  0.0000E+00  0.3333E-01
    -17.758  0.0000E+00  0.3333E-01
    -17.604  0.0000E+00  0.3333E-01
    -17.449  0.0000E+00  0.3333E-01
    -17.294  0.0000E+00  0.3333E-01
    -17.140  0.0000E+00  0.3333E-01
    -16.985  0.0000E+00  0.3333E-01
    -16.830  0.0000E+00  0.3333E-01
    -16.676  0.0000E+00  0.3333E-01
    -16.521  0.0000E+00  0.3333E-01
    -16.366  0.0000E+00  0.3333E-01
    -16.212  0.0000E+00  0.3333E-01
    -16.057  0.0000E+00  0.3333E-01
    -15.903  0.0000E+00  0.3333E-01
    -15.748  0.0000E+00  0.3333E-01
    -15.593  0.0000E+00  0.3333E-01
    -15.439  0.0000E+00  0.3333E-01
    -15.284  0.0000E+00  0.3333E-01
    -15.129  0.0000E+00  0.3333E-01
    -14.975  0.0000E+00  0.3333E-01
    -14.820  0.0000E+00  0.3333E-01
    -14.665  0.0000E+00  0.3333E-01
    -14.511  0.2579E-02  0.3373E-01
    -14.356  0.0000E+00  0.2000E+00
    -14.201  0.0000E+00  0.2000E+00
    -14.047  0.0000E+00  0.2000E+00
    -13.892  0.0000E+00  0.2000E+00
    -13.737  0.0000E+00  0.2000E+00
    -13.583  0.0000E+00  0.2000E+00
    -13.428  0.0000E+00  0.2000E+00
    -13.274  0.0000E+00  0.2000E+00
    -13.119  0.0000E+00  0.2000E+00
    -12.964  0.0000E+00  0.2000E+00
    -12.810  0.0000E+00  0.2000E+00
    -12.655  0.0000E+00  0.2000E+00
    -12.500  0.0000E+00  0.2000E+00
    -12.346  0.0000E+00  0.2000E+00
    -12.191  0.0000E+00  0.2000E+00
    -12.036  0.0000E+00  0.2000E+00
    -11.882  0.0000E+00  0.2000E+00
    -11.727  0.0000E+00  0.2000E+00
    -11.572  0.0000E+00  0.2000E+00
    -11.418  0.0000E+00  0.2000E+00
    -11.263  0.0000E+00  0.2000E+00
    -11.108  0.0000E+00  0.2000E+00
    -10.954  0.0000E+00  0.2000E+00
    -10.799  0.0000E+00  0.2000E+00
    -10.644  0.0000E+00  0.2000E+00
    -10.490  0.0000E+00  0.2000E+00
    -10.335  0.0000E+00  0.2000E+00
    -10.181  0.0000E+00  0.2000E+00
    -10.026  0.0000E+00  0.2000E+00
     -9.871  0.0000E+00  0.2000E+00
     -9.717  0.1511E+00  0.2242E+00
     -9.562  0.2633E+00  0.2771E+00
     -9.407  0.0000E+00  0.3000E+00
     -9.253  0.0000E+00  0.3000E+00
     -9.098  0.0000E+00  0.3000E+00
     -8.943  0.0000E+00  0.3000E+00
     -8.789  0.0000E+00  0.3000E+00
     -8.634  0.0000E+00  0.3000E+00
     -8.479  0.0000E+00  0.3000E+00
     -8.325  0.0000E+00  0.3000E+00
     -8.170  0.0000E+00  0.3000E+00
     -8.015  0.0000E+00  0.3000E+00
     -7.861  0.0000E+00  0.3000E+00
     -7.706  0.0000E+00  0.3000E+00
     -7.552  0.0000E+00  0.3000E+00
     -7.397  0.0000E+00  0.3000E+00
     -7.242  0.0000E+00  0.3000E+00
     -7.088  0.0000E+00  0.3000E+00
     -6.933  0.0000E+00  0.3000E+00
     -6.778  0.0000E+00  0.3000E+00
     -6.624  0.0000E+00  0.3000E+00
     -6.469  0.0000E+00  0.3000E+00
     -6.314  0.0000E+00  0.3000E+00
     -6.160  0.0000E+00  0.3000E+00
     -6.005  0.0000E+00  0.3000E+00
     -5.850  0.0000E+00  0.3000E+00
     -5.696  0.0000E+00  0.3000E+00
     -5.541  0.0000E+00  0.3000E+00
     -5.386  0.0000E+00  0.3000E+00
     -5.232  0.0000E+00  0.3000E+00
     -5.077  0.0000E+00  0.3000E+00
     -4.923  0.0000E+00  0.3000E+00
     -4.768  0.0000E+00  0.3000E+00
     -4.613  0.0000E+00  0.3000E+00
     -4.459  0.0000E+00  0.3000E+00
     -4.304  0.0000E+00  0.3000E+00
     -4.149  0.0000E+00  0.3000E+00
     -3.995  0.0000E+00  0.3000E+00
     -3.840  0.0000E+00  0.3000E+00
     -3.685  0.8749E-03  0.3001E+00
     -3.531  0.3733E-02  0.3008E+00
     -3.376  0.4709E-02  0.3017E+00
     -3.221  0.3167E-02  0.3029E+00
     -3.067  0.2392E-01  0.3084E+00
     -2.912  0.5269E-01  0.3230E+00
     -2.757  0.1723E-01  0.3325E+00
     -2.603  0.0000E+00  0.3333E+00
     -2.448  0.0000E+00  0.3333E+00
     -2.294  0.0000E+00  0.3333E+00
     -2.139  0.0000E+00  0.3333E+00
     -1.984  0.0000E+00  0.3333E+00
     -1.830  0.0000E+00  0.3333E+00
     -1.675  0.0000E+00  0.3333E+00
     -1.520  0.0000E+00  0.3333E+00
     -1.366  0.0000E+00  0.3333E+00
     -1.211  0.0000E+00  0.3333E+00
     -1.056  0.0000E+00  0.3333E+00
     -0.902  0.0000E+00  0.3333E+00
     -0.747  0.0000E+00  0.3333E+00
     -0.592  0.0000E+00  0.3333E+00
     -0.438  0.0000E+00  0.3333E+00
     -0.283  0.0000E+00  0.3333E+00
     -0.128  0.0000E+00  0.3333E+00
      0.026  0.0000E+00  0.3333E+00
      0.181  0.0000E+00  0.3333E+00
      0.336  0.0000E+00  0.3333E+00
      0.490  0.0000E+00  0.3333E+00
      0.645  0.0000E+00  0.3333E+00
      0.799  0.0000E+00  0.3333E+00
      0.954  0.0000E+00  0.3333E+00
      1.109  0.0000E+00  0.3333E+00
      1.263  0.0000E+00  0.3333E+00
      1.418  0.0000E+00  0.3333E+00
      1.573  0.0000E+00  0.3333E+00
      1.727  0.0000E+00  0.3333E+00
      1.882  0.0000E+00  0.3333E+00
      2.037  0.0000E+00  0.3333E+00
      2.191  0.0000E+00  0.3333E+00
      2.346  0.0000E+00  0.3333E+00
      2.501  0.1579E-02  0.3336E+00
      2.655  0.7849E-02  0.3354E+00
      2.810  0.3902E-01  0.3436E+00
      2.965  0.2269E-01  0.3509E+00
      3.119  0.2392E-01  0.3560E+00
      3.274  0.1183E-01  0.3589E+00
      3.428  0.9338E-02  0.3624E+00
      3.583  0.7495E-01  0.3778E+00
      3.738  0.4996E-01  0.3953E+00
      3.892  0.5640E-01  0.4092E+00
      4.047  0.4572E-01  0.4222E+00
      4.202  0.2071E-01  0.4321E+00
      4.356  0.5298E-02  0.4345E+00
      4.511  0.6116E-01  0.4448E+00
      4.666  0.7885E-01  0.4748E+00
      4.820  0.8202E-01  0.5006E+00
      4.975  0.3171E-01  0.5102E+00
      5.130  0.3168E-01  0.5199E+00
      5.284  0.1933E-01  0.5263E+00
      5.439  0.1775E-01  0.5304E+00
      5.594  0.1492E-01  0.5338E+00
      5.748  0.1354E-01  0.5365E+00
      5.903  0.3207E-02  0.5412E+00
      6.057  0.1279E-01  0.5449E+00
      6.212  0.1446E-01  0.5508E+00
      6.367  0.9070E-02  0.5540E+00
      6.521  0.1429E-01  0.5596E+00
      6.676  0.1326E-01  0.5623E+00
      6.831  0.8653E-01  0.5851E+00
      6.985  0.2218E-01  0.5965E+00
      7.140  0.6431E-03  0.5989E+00
      7.295  0.7858E-03  0.5997E+00
      7.449  0.2943E-03  0.6000E+00
      7.604  0.6521E-03  0.6001E+00
      7.759  0.6913E-03  0.6002E+00
      7.913  0.6932E-03  0.6005E+00
      8.068  0.9228E-03  0.6009E+00
      8.223  0.9820E-02  0.6045E+00
      8.377  0.2273E-01  0.6095E+00
      8.532  0.2699E-01  0.6186E+00
      8.687  0.2653E-01  0.6271E+00
      8.841  0.2537E-01  0.6337E+00
      8.996  0.8682E-02  0.6360E+00
      9.150  0.4731E-02  0.6384E+00
      9.305  0.1325E-01  0.6410E+00
      9.460  0.1530E-01  0.6469E+00
      9.614  0.4518E-01  0.6586E+00
      9.769  0.4485E-01  0.6708E+00
      9.924  0.2658E-01  0.6794E+00
     10.078  0.4786E-01  0.6907E+00
     10.233  0.6997E-01  0.7148E+00
     10.388  0.1781E+00  0.7560E+00
     10.542  0.8327E-01  0.7817E+00
     10.697  0.0000E+00  0.8000E+00
     10.852  0.0000E+00  0.8000E+00
     11.006  0.0000E+00  0.8000E+00
     11.161  0.0000E+00  0.8000E+00
     11.316  0.0000E+00  0.8000E+00
     11.470  0.0000E+00  0.8000E+00
     11.625  0.0000E+00  0.8000E+00
     11.779  0.0000E+00  0.8000E+00
     11.934  0.0000E+00  0.8000E+00
     12.089  0.0000E+00  0.8000E+00
     12.243  0.0000E+00  0.8000E+00
     12.398  0.0000E+00  0.8000E+00
     12.553  0.0000E+00  0.8000E+00
     12.707  0.0000E+00  0.8000E+00
