       N       E                     dE             d eps       ncg     rms          rms(c)
DAV:   1     0.399438545958E+03    0.39944E+03   -0.17225E+04  4032   0.162E+03
DAV:   2     0.379611881658E+02   -0.36148E+03   -0.35457E+03  4152   0.440E+02
DAV:   3    -0.191275978746E+02   -0.57089E+02   -0.56358E+02  5584   0.155E+02
DAV:   4    -0.228530792337E+02   -0.37255E+01   -0.37071E+01  7424   0.404E+01
DAV:   5    -0.229405498529E+02   -0.87471E-01   -0.87458E-01  5504   0.486E+00    0.330E+01
DAV:   6    -0.220318613441E+02    0.90869E+00   -0.17234E+00  5096   0.822E+00    0.203E+01
DAV:   7    -0.219109110703E+02    0.12095E+00   -0.23400E+00  6080   0.829E+00    0.626E+00
DAV:   8    -0.218641457046E+02    0.46765E-01   -0.33026E-01  5136   0.286E+00    0.439E+00
DAV:   9    -0.218553962792E+02    0.87494E-02   -0.20025E-01  6024   0.221E+00    0.338E+00
DAV:  10    -0.218497089656E+02    0.56873E-02   -0.33514E-02  4944   0.106E+00    0.690E-01
DAV:  11    -0.218499051757E+02   -0.19621E-03   -0.23013E-03  5896   0.290E-01    0.369E-01
DAV:  12    -0.218497920867E+02    0.11309E-03   -0.46449E-04  5536   0.122E-01    0.109E-01
DAV:  13    -0.218497887704E+02    0.33163E-05   -0.17737E-04  6400   0.690E-02    0.363E-02
DAV:  14    -0.218497872165E+02    0.15539E-05   -0.97429E-06  3376   0.199E-02
   1 F= -.21849787E+02 E0= -.21849673E+02  d E =-.218498E+02
       N       E                     dE             d eps       ncg     rms          rms(c)
DAV:   1    -0.218499353115E+02   -0.14654E-03   -0.34468E-03  5736   0.613E-01    0.847E-02
DAV:   2    -0.218498215417E+02    0.11377E-03   -0.54656E-04  5552   0.203E-01    0.338E-02
DAV:   3    -0.218498027865E+02    0.18755E-04   -0.88382E-05  5640   0.798E-02    0.103E-02
DAV:   4    -0.218497993000E+02    0.34865E-05   -0.16765E-05  3736   0.403E-02    0.123E-02
DAV:   5    -0.218497994419E+02   -0.14186E-06   -0.30326E-06  3816   0.153E-02
   2 F= -.21849799E+02 E0= -.21849687E+02  d E =-.122254E-04
