 vasp.6.0.8 29Jun18 (build Jun 13 2019 12:54:44) complex

 executed on      IFC18_CrayMPICH date 2021.11.11  21:51:18
 running   64 mpi-ranks, with    1 threads/rank
 distrk:  each k-point on   16 cores,    4 groups
 distr:  one band on NCORES_PER_BAND=   4 cores,    4 groups


--------------------------------------------------------------------------------------------------------


 INCAR:
 POTCAR:    PAW_PBE Bi_d 06Sep2000
 POTCAR:    PAW_PBE Pt 04Feb2005
 POTCAR:    PAW_PBE Th 07Sep2000
 POTCAR:    PAW_PBE Bi_d 06Sep2000
   VRHFIN =Bi:
   LEXCH  = PE
   EATOM  =  1959.2045 eV,  143.9975 Ry

   TITEL  = PAW_PBE Bi_d 06Sep2000
   LULTRA =        F    use ultrasoft PP ?
   IUNSCR =        1    unscreen: 0-lin 1-nonlin 2-no
   RPACOR =    2.200    partial core radius
   POMASS =  208.980; ZVAL   =   15.000    mass and valenz
   RCORE  =    2.500    outmost cutoff radius
   RWIGS  =    3.090; RWIGS  =    1.635    wigner-seitz radius (au A)
   ENMAX  =  242.839; ENMIN  =  182.129 eV
   ICORE  =        3    local potential
   LCOR   =        T    correct aug charges
   LPAW   =        T    paw PP
   EAUG   =  442.899
   DEXC   =    0.000
   RMAX   =    2.551    core radius for proj-oper
   RAUG   =    1.300    factor for augmentation sphere
   RDEP   =    2.650    radius for radial grids
   RDEPT  =    2.039    core radius for aug-charge

   Atomic configuration
   16 entries
     n  l   j            E        occ.
     1  0  0.50    -90639.6581   2.0000
     2  0  0.50    -16282.4666   2.0000
     2  1  1.50    -13922.8286   6.0000
     3  0  0.50     -3930.4763   2.0000
     3  1  1.50     -3256.7013   6.0000
     3  2  2.50     -2581.6168  10.0000
     4  0  0.50      -902.2614   2.0000
     4  1  1.50      -681.5915   6.0000
     4  2  2.50      -429.8249  10.0000
     4  3  3.50      -152.6004  14.0000
     5  0  0.50      -157.7156   2.0000
     5  1  1.50       -95.8054   6.0000
     5  2  2.50       -27.0806  10.0000
     6  0  0.50       -14.4732   2.0000
     6  1  1.50        -4.5702   3.0000
     5  3  2.50        -2.7212   0.0000
   Description
     l       E           TYP  RCUT    TYP  RCUT
     2    -27.0805982     23  2.500
     2     -1.3605826     23  2.500
     0    -14.4732271     23  2.500
     0      6.8029130     23  2.500
     1     -4.5701651     23  2.500
     1     13.6058260     23  2.500
     3     -1.3605826      7  2.500
  local pseudopotential read in
  partial core-charges read in
  partial kinetic energy density read in
  atomic valenz-charges read in
  non local Contribution for L=           2  read in
    real space projection operators read in
  non local Contribution for L=           2  read in
    real space projection operators read in
  non local Contribution for L=           0  read in
    real space projection operators read in
  non local Contribution for L=           0  read in
    real space projection operators read in
  non local Contribution for L=           1  read in
    real space projection operators read in
  non local Contribution for L=           1  read in
    real space projection operators read in
    PAW grid and wavefunctions read in

   number of l-projection  operators is LMAX  =           6
   number of lm-projection operators is LMMAX =          18

 POTCAR:    PAW_PBE Pt 04Feb2005
   VRHFIN =Pt: s1d9
   LEXCH  = PE
   EATOM  =   729.1176 eV,   53.5886 Ry

   TITEL  = PAW_PBE Pt 04Feb2005
   LULTRA =        F    use ultrasoft PP ?
   IUNSCR =        1    unscreen: 0-lin 1-nonlin 2-no
   RPACOR =    2.330    partial core radius
   POMASS =  195.080; ZVAL   =   10.000    mass and valenz
   RCORE  =    2.600    outmost cutoff radius
   RWIGS  =    2.750; RWIGS  =    1.455    wigner-seitz radius (au A)
   ENMAX  =  230.283; ENMIN  =  172.712 eV
   ICORE  =        3    local potential
   LCOR   =        T    correct aug charges
   LPAW   =        T    paw PP
   EAUG   =  358.966
   DEXC   =    0.000
   RMAX   =    2.658    core radius for proj-oper
   RAUG   =    1.300    factor for augmentation sphere
   RDEP   =    2.761    radius for radial grids
   RDEPT  =    2.203    core radius for aug-charge

   Atomic configuration
   16 entries
     n  l   j            E        occ.
     1  0  0.50    -78401.1885   2.0000
     2  0  0.50    -13770.7750   2.0000
     2  1  1.50    -11931.0468   6.0000
     3  0  0.50     -3234.7234   2.0000
     3  1  1.50     -2699.2216   6.0000
     3  2  2.50     -2119.5714  10.0000
     4  0  0.50      -695.1528   2.0000
     4  1  1.50      -519.6034   6.0000
     4  2  2.50      -306.6786  10.0000
     4  3  3.50       -70.1041  14.0000
     5  0  0.50      -101.7747   2.0000
     5  1  1.50       -55.9873   6.0000
     5  2  2.50        -6.1423   9.0000
     6  0  0.50        -5.6573   1.0000
     6  1  1.50        -6.8029   0.0000
     5  3  2.50        -1.3606   0.0000
   Description
     l       E           TYP  RCUT    TYP  RCUT
     2     -6.1423404     23  2.500
     2     -7.5029230     23  2.500
     0     -5.6573207     23  2.500
     0      0.7416693     23  2.500
     1     -2.7211652     23  2.600
     1     20.4087390     23  2.600
     3     -1.3605826     23  2.500
  local pseudopotential read in
  partial core-charges read in
  partial kinetic energy density read in
  atomic valenz-charges read in
  non local Contribution for L=           2  read in
    real space projection operators read in
  non local Contribution for L=           2  read in
    real space projection operators read in
  non local Contribution for L=           0  read in
    real space projection operators read in
  non local Contribution for L=           0  read in
    real space projection operators read in
  non local Contribution for L=           1  read in
    real space projection operators read in
  non local Contribution for L=           1  read in
    real space projection operators read in
    PAW grid and wavefunctions read in

   number of l-projection  operators is LMAX  =           6
   number of lm-projection operators is LMMAX =          18

 POTCAR:    PAW_PBE Th 07Sep2000
   VRHFIN =Th:  [Xe,5d,4f]
   LEXCH  = PE
   EATOM  =   984.7553 eV,   72.3775 Ry

   TITEL  = PAW_PBE Th 07Sep2000
   LULTRA =        F    use ultrasoft PP ?
   IUNSCR =        1    unscreen: 0-lin 1-nonlin 2-no
   RPACOR =    2.200    partial core radius
   POMASS =  232.039; ZVAL   =   12.000    mass and valenz
   RCORE  =    2.800    outmost cutoff radius
   RWIGS  =    3.000; RWIGS  =    1.588    wigner-seitz radius (au A)
   ENMAX  =  247.306; ENMIN  =  185.480 eV
   RCLOC  =    2.211    cutoff for local pot
   LCOR   =        T    correct aug charges
   LPAW   =        T    paw PP
   EAUG   =  535.431
   DEXC   =    0.000
   RMAX   =    2.862    core radius for proj-oper
   RAUG   =    1.300    factor for augmentation sphere
   RDEP   =    2.926    radius for radial grids
   RDEPT  =    2.250    core radius for aug-charge

   Atomic configuration
   18 entries
     n  l   j            E        occ.
     1  0  0.50   -109990.1879   2.0000
     2  0  0.50    -20388.0147   2.0000
     2  1  1.50    -17049.6156   6.0000
     3  0  0.50     -5106.5436   2.0000
     3  1  1.50     -4175.1262   6.0000
     3  2  2.50     -3342.8437  10.0000
     4  0  0.50     -1280.8211   2.0000
     4  1  1.50      -976.4859   6.0000
     4  2  2.50      -661.8358  10.0000
     4  3  3.50      -324.9124  14.0000
     5  0  0.50      -278.7726   2.0000
     5  1  1.50      -186.2212   6.0000
     5  2  2.50       -86.9031  10.0000
     6  0  0.50       -43.3059   2.0000
     7  0  0.50        -4.0783   2.0000
     6  1  1.50       -21.4071   6.0000
     6  2  1.50        -2.3664   1.0000
     5  3  2.50        -1.2804   1.0000
   Description
     l       E           TYP  RCUT    TYP  RCUT
     0    -43.3059201     23  2.800
     0     -4.0782900     23  2.800
     1    -21.4071032     23  2.500
     1    -22.7676858     23  2.500
     2     -2.3664170     23  2.500
     2      3.0546543     23  2.500
     3     -1.2803910     23  2.800
     3      0.1360583     23  2.800
  local pseudopotential read in
  partial core-charges read in
  partial kinetic energy density read in
  atomic valenz-charges read in
  non local Contribution for L=           0  read in
    real space projection operators read in
  non local Contribution for L=           0  read in
    real space projection operators read in
  non local Contribution for L=           1  read in
    real space projection operators read in
  non local Contribution for L=           1  read in
    real space projection operators read in
  non local Contribution for L=           2  read in
    real space projection operators read in
  non local Contribution for L=           2  read in
    real space projection operators read in
  non local Contribution for L=           3  read in
    real space projection operators read in
  non local Contribution for L=           3  read in
    real space projection operators read in
    PAW grid and wavefunctions read in

   number of l-projection  operators is LMAX  =           8
   number of lm-projection operators is LMMAX =          32


 -----------------------------------------------------------------------------
|                                                                             |
|  ADVICE TO THIS USER RUNNING 'VASP/VAMP'   (HEAR YOUR MASTER'S VOICE ...):  |
|                                                                             |
|      You enforced a specific xc-type in the INCAR file,                     |
|      a different type was found on the POTCAR file                          |
|          I HOPE YOU KNOW, WHAT YOU ARE  DOING                               |
|                                                                             |
 -----------------------------------------------------------------------------

  PAW_PBE Bi_d 06Sep2000                :
 energy of atom  1       EATOM=-1959.2045
 kinetic energy error for atom=    0.0040 (will be added to EATOM!!)
  PAW_PBE Pt 04Feb2005                  :
 energy of atom  2       EATOM= -729.1176
 kinetic energy error for atom=    0.0032 (will be added to EATOM!!)
  PAW_PBE Th 07Sep2000                  :
 energy of atom  3       EATOM= -984.7553
 kinetic energy error for atom=    0.0010 (will be added to EATOM!!)


 POSCAR: Th1 Bi1 Pt1
  positions in direct lattice
  velocities in cartesian coordinates
 exchange correlation table for  LEXCH =       14
   RHO(1)=    0.500       N(1)  =     2000
   RHO(2)=  100.500       N(2)  =     4000



--------------------------------------------------------------------------------------------------------


 ion  position               nearest neighbor table
   1  0.250  0.250  0.250-   2 2.97   2 2.97   2 2.97   2 2.97   3 3.42   3 3.42   3 3.42   3 3.42
                             3 3.42   3 3.42
   2  0.000  0.000  0.000-   3 2.97   3 2.97   1 2.97   1 2.97   3 2.97   1 2.97   3 2.97   1 2.97

   3  0.750  0.750  0.750-   2 2.97   2 2.97   2 2.97   2 2.97   1 3.42   1 3.42   1 3.42   1 3.42
                             1 3.42   1 3.42

  LATTYP: Found a face centered cubic cell.
 ALAT       =     6.8483513464

  Lattice vectors:

 A1 = (   0.0000000000,   3.4241756732,   3.4241756732)
 A2 = (   3.4241756732,   0.0000000000,   3.4241756732)
 A3 = (   3.4241756732,   3.4241756732,   0.0000000000)


Analysis of symmetry for initial positions (statically):
=====================================================================
 Subroutine PRICEL returns:
 Original cell was already a primitive cell.


 Routine SETGRP: Setting up the symmetry group for a
 face centered cubic supercell.


 Subroutine GETGRP returns: Found 24 space group operations
 (whereof 24 operations were pure point group operations)
 out of a pool of 48 trial point group operations.


The static configuration has the point symmetry T_d .


Analysis of symmetry for dynamics (positions and initial velocities):
=====================================================================
 Subroutine PRICEL returns:
 Original cell was already a primitive cell.


 Routine SETGRP: Setting up the symmetry group for a
 face centered cubic supercell.


 Subroutine GETGRP returns: Found 24 space group operations
 (whereof 24 operations were pure point group operations)
 out of a pool of 48 trial point group operations.


The dynamic configuration has the point symmetry T_d .


 Subroutine INISYM returns: Found 24 space group operations
 (whereof 24 operations are pure point group operations),
 and found     1 'primitive' translations


----------------------------------------------------------------------------------------

                                     Primitive cell

  volume of cell :      80.2968

  direct lattice vectors                    reciprocal lattice vectors
     0.000000000  3.424175673  3.424175673    -0.146020546  0.146020546  0.146020546
     3.424175673  0.000000000  3.424175673     0.146020546 -0.146020546  0.146020546
     3.424175673  3.424175673  0.000000000     0.146020546  0.146020546 -0.146020546

  length of vectors
     4.842515677  4.842515677  4.842515677     0.252915004  0.252915004  0.252915004

  position of ions in fractional coordinates (direct lattice)
     0.250000000  0.250000000  0.250000000
     0.000000000  0.000000000  0.000000000
     0.750000000  0.750000000  0.750000000

  ion indices of the primitive-cell ions
   primitive index   ion index
                 1           1
                 2           2
                 3           3

----------------------------------------------------------------------------------------



 KPOINTS: KPOINTS

Automatic generation of k-mesh.
Space group operators:
 irot       det(A)        alpha          n_x          n_y          n_z        tau_x        tau_y        tau_z
    1     1.000000     0.000000     1.000000     0.000000     0.000000     0.000000     0.000000     0.000000
    2     1.000000   120.000000    -0.577350    -0.577350    -0.577350     0.000000     0.000000     0.000000
    3     1.000000   120.000000     0.577350     0.577350     0.577350     0.000000     0.000000     0.000000
    4    -1.000000    90.000000    -0.000000     0.000000    -1.000000     0.000000     0.000000     0.000000
    5    -1.000000   180.000000     0.000000     0.707107     0.707107     0.000000     0.000000     0.000000
    6    -1.000000    90.000000    -0.000000     1.000000    -0.000000     0.000000     0.000000     0.000000
    7     1.000000   180.000000     0.000000     0.000000    -1.000000     0.000000     0.000000     0.000000
    8     1.000000   120.000000    -0.577350     0.577350     0.577350     0.000000     0.000000     0.000000
    9     1.000000   120.000000    -0.577350     0.577350    -0.577350     0.000000     0.000000     0.000000
   10    -1.000000    90.000000     0.000000     0.000000     1.000000     0.000000     0.000000     0.000000
   11    -1.000000    90.000000    -1.000000     0.000000     0.000000     0.000000     0.000000     0.000000
   12    -1.000000   180.000000     0.707107     0.000000     0.707107     0.000000     0.000000     0.000000
   13     1.000000   120.000000     0.577350    -0.577350     0.577350     0.000000     0.000000     0.000000
   14     1.000000   120.000000    -0.577350    -0.577350     0.577350     0.000000     0.000000     0.000000
   15     1.000000   180.000000     1.000000     0.000000     0.000000     0.000000     0.000000     0.000000
   16    -1.000000    90.000000     0.000000    -1.000000     0.000000     0.000000     0.000000     0.000000
   17    -1.000000   180.000000     0.707107     0.707107    -0.000000     0.000000     0.000000     0.000000
   18    -1.000000    90.000000     1.000000     0.000000     0.000000     0.000000     0.000000     0.000000
   19     1.000000   120.000000     0.577350    -0.577350    -0.577350     0.000000     0.000000     0.000000
   20     1.000000   180.000000     0.000000     1.000000     0.000000     0.000000     0.000000     0.000000
   21     1.000000   120.000000     0.577350     0.577350    -0.577350     0.000000     0.000000     0.000000
   22    -1.000000   180.000000     0.000000    -0.707107     0.707107     0.000000     0.000000     0.000000
   23    -1.000000   180.000000     0.707107    -0.707107     0.000000     0.000000     0.000000     0.000000
   24    -1.000000   180.000000     0.707107     0.000000    -0.707107     0.000000     0.000000     0.000000

 Subroutine IBZKPT returns following result:
 ===========================================

 Found     84 irreducible k-points:

 Following reciprocal coordinates:
            Coordinates               Weight
  0.000000  0.000000  0.000000      1.000000
  0.076923 -0.000000  0.000000      8.000000
  0.153846 -0.000000  0.000000      8.000000
  0.230769  0.000000 -0.000000      8.000000
  0.307692 -0.000000  0.000000      8.000000
  0.384615  0.000000 -0.000000      8.000000
  0.461538  0.000000  0.000000      8.000000
  0.076923  0.076923 -0.000000      6.000000
  0.153846  0.076923 -0.000000     24.000000
  0.230769  0.076923 -0.000000     24.000000
  0.307692  0.076923 -0.000000     24.000000
  0.384615  0.076923  0.000000     24.000000
  0.461538  0.076923 -0.000000     24.000000
 -0.461538  0.076923  0.000000     24.000000
 -0.384615  0.076923  0.000000     24.000000
 -0.307692  0.076923  0.000000     24.000000
 -0.230769  0.076923  0.000000     24.000000
 -0.153846  0.076923  0.000000     24.000000
 -0.076923  0.076923 -0.000000     12.000000
  0.153846  0.153846 -0.000000      6.000000
  0.230769  0.153846 -0.000000     24.000000
  0.307692  0.153846 -0.000000     24.000000
  0.384615  0.153846 -0.000000     24.000000
  0.461538  0.153846  0.000000     24.000000
 -0.461538  0.153846 -0.000000     24.000000
 -0.384615  0.153846  0.000000     24.000000
 -0.307692  0.153846 -0.000000     24.000000
 -0.230769  0.153846  0.000000     24.000000
 -0.153846  0.153846 -0.000000     12.000000
  0.230769  0.230769 -0.000000      6.000000
  0.307692  0.230769 -0.000000     24.000000
  0.384615  0.230769 -0.000000     24.000000
  0.461538  0.230769 -0.000000     24.000000
 -0.461538  0.230769 -0.000000     24.000000
 -0.384615  0.230769 -0.000000     24.000000
 -0.307692  0.230769  0.000000     24.000000
 -0.230769  0.230769  0.000000     12.000000
  0.307692  0.307692 -0.000000      6.000000
  0.384615  0.307692 -0.000000     24.000000
  0.461538  0.307692 -0.000000     24.000000
 -0.461538  0.307692  0.000000     24.000000
 -0.384615  0.307692  0.000000     24.000000
 -0.307692  0.307692 -0.000000     12.000000
  0.384615  0.384615 -0.000000      6.000000
  0.461538  0.384615 -0.000000     24.000000
 -0.461538  0.384615  0.000000     24.000000
 -0.384615  0.384615  0.000000     12.000000
  0.461538  0.461538 -0.000000      6.000000
 -0.461538  0.461538 -0.000000     12.000000
  0.230769  0.153846  0.076923     24.000000
  0.307692  0.153846  0.076923     48.000000
  0.384615  0.153846  0.076923     48.000000
  0.461538  0.153846  0.076923     48.000000
 -0.461538  0.153846  0.076923     48.000000
  0.307692  0.230769  0.076923     24.000000
  0.384615  0.230769  0.076923     48.000000
  0.461538  0.230769  0.076923     48.000000
 -0.461538  0.230769  0.076923     48.000000
 -0.384615  0.230769  0.076923     48.000000
 -0.307692  0.230769  0.076923     48.000000
 -0.230769  0.230769  0.076923     48.000000
 -0.153846  0.230769  0.076923     24.000000
  0.384615  0.307692  0.076923     24.000000
  0.461538  0.307692  0.076923     48.000000
 -0.461538  0.307692  0.076923     48.000000
 -0.384615  0.307692  0.076923     48.000000
 -0.307692  0.307692  0.076923     48.000000
 -0.230769  0.307692  0.076923     24.000000
  0.461538  0.384615  0.076923     24.000000
 -0.461538  0.384615  0.076923     48.000000
 -0.384615  0.384615  0.076923     48.000000
 -0.307692  0.384615  0.076923     24.000000
 -0.461538  0.461538  0.076923     24.000000
 -0.384615  0.461538  0.076923     24.000000
  0.461538  0.307692  0.153846     24.000000
 -0.461538  0.307692  0.153846     48.000000
 -0.384615  0.307692  0.153846     48.000000
 -0.461538  0.384615  0.153846     24.000000
 -0.384615  0.384615  0.153846     48.000000
 -0.307692  0.384615  0.153846     48.000000
 -0.230769  0.384615  0.153846     24.000000
 -0.384615  0.461538  0.153846     24.000000
 -0.307692  0.461538  0.153846     24.000000
 -0.307692  0.461538  0.230769     24.000000

 Following cartesian coordinates:
            Coordinates               Weight
  0.000000  0.000000  0.000000      1.000000
 -0.011232  0.011232  0.011232      8.000000
 -0.022465  0.022465  0.022465      8.000000
 -0.033697  0.033697  0.033697      8.000000
 -0.044929  0.044929  0.044929      8.000000
 -0.056162  0.056162  0.056162      8.000000
 -0.067394  0.067394  0.067394      8.000000
 -0.000000  0.000000  0.022465      6.000000
 -0.011232  0.011232  0.033697     24.000000
 -0.022465  0.022465  0.044929     24.000000
 -0.033697  0.033697  0.056162     24.000000
 -0.044929  0.044929  0.067394     24.000000
 -0.056162  0.056162  0.078626     24.000000
  0.078626 -0.078626 -0.056162     24.000000
  0.067394 -0.067394 -0.044929     24.000000
  0.056162 -0.056162 -0.033697     24.000000
  0.044929 -0.044929 -0.022465     24.000000
  0.033697 -0.033697 -0.011232     24.000000
  0.022465 -0.022465  0.000000     12.000000
 -0.000000  0.000000  0.044929      6.000000
 -0.011232  0.011232  0.056162     24.000000
 -0.022465  0.022465  0.067394     24.000000
 -0.033697  0.033697  0.078626     24.000000
 -0.044929  0.044929  0.089859     24.000000
  0.089859 -0.089859 -0.044929     24.000000
  0.078626 -0.078626 -0.033697     24.000000
  0.067394 -0.067394 -0.022465     24.000000
  0.056162 -0.056162 -0.011232     24.000000
  0.044929 -0.044929  0.000000     12.000000
  0.000000 -0.000000  0.067394      6.000000
 -0.011232  0.011232  0.078626     24.000000
 -0.022465  0.022465  0.089859     24.000000
 -0.033697  0.033697  0.101091     24.000000
  0.101091 -0.101091 -0.033697     24.000000
  0.089859 -0.089859 -0.022465     24.000000
  0.078626 -0.078626 -0.011232     24.000000
  0.067394 -0.067394  0.000000     12.000000
 -0.000000  0.000000  0.089859      6.000000
 -0.011232  0.011232  0.101091     24.000000
 -0.022465  0.022465  0.112323     24.000000
  0.112323 -0.112323 -0.022465     24.000000
  0.101091 -0.101091 -0.011232     24.000000
  0.089859 -0.089859  0.000000     12.000000
  0.000000 -0.000000  0.112323      6.000000
 -0.011232  0.011232  0.123556     24.000000
  0.123556 -0.123556 -0.011232     24.000000
  0.112323 -0.112323 -0.000000     12.000000
  0.000000 -0.000000  0.134788      6.000000
  0.134788 -0.134788  0.000000     12.000000
 -0.000000  0.022465  0.044929     24.000000
 -0.011232  0.033697  0.056162     48.000000
 -0.022465  0.044929  0.067394     48.000000
 -0.033697  0.056162  0.078626     48.000000
  0.101091 -0.078626 -0.056162     48.000000
  0.000000  0.022465  0.067394     24.000000
 -0.011232  0.033697  0.078626     48.000000
 -0.022465  0.044929  0.089859     48.000000
  0.112323 -0.089859 -0.044929     48.000000
  0.101091 -0.078626 -0.033697     48.000000
  0.089859 -0.067394 -0.022465     48.000000
  0.078626 -0.056162 -0.011232     48.000000
  0.067394 -0.044929  0.000000     24.000000
 -0.000000  0.022465  0.089859     24.000000
 -0.011232  0.033697  0.101091     48.000000
  0.123556 -0.101091 -0.033697     48.000000
  0.112323 -0.089859 -0.022465     48.000000
  0.101091 -0.078626 -0.011232     48.000000
  0.089859 -0.067394 -0.000000     24.000000
  0.000000  0.022465  0.112323     24.000000
  0.134788 -0.112323 -0.022465     48.000000
  0.123556 -0.101091 -0.011232     48.000000
  0.112323 -0.089859 -0.000000     24.000000
  0.146021 -0.123556 -0.011232     24.000000
  0.134788 -0.112323 -0.000000     24.000000
  0.000000  0.044929  0.089859     24.000000
  0.134788 -0.089859 -0.044929     48.000000
  0.123556 -0.078626 -0.033697     48.000000
  0.146021 -0.101091 -0.033697     24.000000
  0.134788 -0.089859 -0.022465     48.000000
  0.123556 -0.078626 -0.011232     48.000000
  0.112323 -0.067394 -0.000000     24.000000
  0.146021 -0.101091 -0.011232     24.000000
  0.134788 -0.089859 -0.000000     24.000000
  0.146021 -0.078626 -0.011232     24.000000



--------------------------------------------------------------------------------------------------------




 Dimension of arrays:
   k-points           NKPTS =     84   k-points in BZ     NKDIM =     84   number of bands    NBANDS=     24
   number of dos      NEDOS =    301   number of ions     NIONS =      3
   non local maximal  LDIM  =      8   non local SUM 2l+1 LMDIM =     32
   total plane-waves  NPLWV =  46656
   max r-space proj   IRMAX =      1   max aug-charges    IRDMAX= 281706
   dimension x,y,z NGX =    36 NGY =   36 NGZ =   36
   dimension x,y,z NGXF=    72 NGYF=   72 NGZF=   72
   support grid    NGXF=   144 NGYF=  144 NGZF=  144
   ions per type =               1   1   1
   NGX,Y,Z   is equivalent  to a cutoff of  12.36, 12.36, 12.36 a.u.
   NGXF,Y,Z  is equivalent  to a cutoff of  24.72, 24.72, 24.72 a.u.

 SYSTEM =  unknown system
 POSCAR =  Th1 Bi1 Pt1

 Startparameter for this run:
   NWRITE =      2    write-flag & timer
   PREC   = acc       normal or accurate (medium, high low for compatibility)
   ISTART =      0    job   : 0-new  1-cont  2-samecut
   ICHARG =      2    charge: 1-file 2-atom 10-const
   ISPIN  =      1    spin polarized calculation?
   LNONCOLLINEAR =      F non collinear calculations
   LSORBIT =      F    spin-orbit coupling
   INIWAV =      1    electr: 0-lowe 1-rand  2-diag
   LASPH  =      F    aspherical Exc in radial PAW
   METAGGA=      F    non-selfconsistent MetaGGA calc.

 Electronic Relaxation 1
   ENCUT  =  520.0 eV  38.22 Ry    6.18 a.u.   9.00  9.00  9.00*2*pi/ulx,y,z
   ENINI  =  520.0     initial cutoff
   ENAUG  =  535.4 eV  augmentation charge cutoff
   NELM   =     60;   NELMIN=  5; NELMDL= -5     # of ELM steps
   EDIFF  = 0.1E-04   stopping-criterion for ELM
   LREAL  =      F    real-space projection
   NLSPLINE    = F    spline interpolate recip. space projectors
   LCOMPAT=      F    compatible to vasp.4.4
   GGA_COMPAT  = T    GGA compatible to vasp.4.4-vasp.4.6
   LMAXPAW     = -100 max onsite density
   LMAXMIX     =    2 max onsite mixed and CHGCAR
   VOSKOWN=      0    Vosko Wilk Nusair interpolation
   ROPT   =    0.00000   0.00000   0.00000
 Ionic relaxation
   EDIFFG = -.1E-01   stopping-criterion for IOM
   NSW    =     60    number of steps for IOM
   NBLOCK =      1;   KBLOCK =     60    inner block; outer block
   IBRION =      3    ionic relax: 0-MD 1-quasi-New 2-CG
   NFREE  =      0    steps in history (QN), initial steepest desc. (CG)
   ISIF   =      7    stress and relaxation
   IWAVPR =     11    prediction:  0-non 1-charg 2-wave 3-comb
   ISYM   =      2    0-nonsym 1-usesym 2-fastsym
   LCORR  =      T    Harris-Foulkes like correction to forces

   POTIM  = 0.1000    time-step for ionic-motion
   TEIN   =    0.0    initial temperature
   TEBEG  =    0.0;   TEEND  =   0.0 temperature during run
   SMASS  =  -3.00    Nose mass-parameter (am)
   estimated Nose-frequenzy (Omega)   =  0.10E-29 period in steps = 0.63E+47 mass=  -0.536E-27a.u.
   SCALEE = 1.0000    scale energy and forces
   NPACO  =    256;   APACO  = 16.0  distance and # of slots for P.C.
   PSTRESS=    0.0 pullay stress

  Mass of Ions in am
   POMASS = 208.98195.08232.04
  Ionic Valenz
   ZVAL   =  15.00 10.00 12.00
  Atomic Wigner-Seitz radii
   RWIGS  =  -1.00 -1.00 -1.00
  virtual crystal weights
   VCA    =   1.00  1.00  1.00
   NELECT =      37.0000    total number of electrons
   NUPDOWN=      -1.0000    fix difference up-down

 DOS related values:
   EMIN   =  10.00;   EMAX   =-10.00  energy-range for DOS
   EFERMI =   0.00
   ISMEAR =     0;   SIGMA  =   0.01  broadening in eV -4-tet -1-fermi 0-gaus

 Electronic relaxation 2 (details)
   IALGO  =     38    algorithm
   LDIAG  =      T    sub-space diagonalisation (order eigenvalues)
   LSUBROT=      F    optimize rotation matrix (better conditioning)
   TURBO    =      0    0=normal 1=particle mesh
   IRESTART =      0    0=no restart 2=restart with 2 vectors
   NREBOOT  =      0    no. of reboots
   NMIN     =      0    reboot dimension
   EREF     =   0.00    reference energy to select bands
   IMIX   =      4    mixing-type and parameters
     AMIX     =   0.40;   BMIX     =  1.00
     AMIX_MAG =   1.60;   BMIX_MAG =  1.00
     AMIN     =   0.10
     WC   =   100.;   INIMIX=   1;  MIXPRE=   1;  MAXMIX= -45

 Intra band minimization:
   WEIMIN = 0.0010     energy-eigenvalue tresh-hold
   EBREAK =  0.10E-06  absolut break condition
   DEPER  =   0.30     relativ break condition

   TIME   =   0.40     timestep for ELM

  volume/ion in A,a.u.               =      26.77       180.62
  Fermi-wavevector in a.u.,A,eV,Ry     =   1.264472  2.389506 21.754227  1.598891
  Thomas-Fermi vector in A             =   2.397776

 Write flags
   LWAVE        =      F    write WAVECAR
   LDOWNSAMPLE  =      F    k-point downsampling of WAVECAR
   LCHARG       =      F    write CHGCAR
   LVTOT        =      F    write LOCPOT, total local potential
   LVHAR        =      F    write LOCPOT, Hartree potential only
   LELF         =      F    write electronic localiz. function (ELF)
   LORBIT       =      0    0 simple, 1 ext, 2 COOP (PROOUT), +10 PAW based schemes


 Dipole corrections
   LMONO  =      F    monopole corrections only (constant potential shift)
   LDIPOL =      F    correct potential (dipole corrections)
   IDIPOL =      0    1-x, 2-y, 3-z, 4-all directions
   EPSILON=  1.0000000 bulk dielectric constant

 Exchange correlation treatment:
   GGA     =    PS    GGA type
   LEXCH   =    14    internal setting for exchange type
   VOSKOWN=      0    Vosko Wilk Nusair interpolation
   LHFCALC =     F    Hartree Fock is set to
   LHFONE  =     F    Hartree Fock one center treatment
   AEXX    =    0.0000 exact exchange contribution

 Linear response parameters
   LEPSILON=     F    determine dielectric tensor
   LRPA    =     F    only Hartree local field effects (RPA)
   LNABLA  =     F    use nabla operator in PAW spheres
   LVEL    =     F    velocity operator in full k-point grid
   LINTERFAST=   F  fast interpolation
   KINTER  =     0    interpolate to denser k-point grid
   CSHIFT  =0.1000    complex shift for real part using Kramers Kronig
   OMEGAMAX=  -1.0    maximum frequency
   DEG_THRESHOLD= 0.2000000E-02 threshold for treating states as degnerate
   RTIME   =   -0.100 relaxation time in fs
  (WPLASMAI=    0.000 imaginary part of plasma frequency in eV, 0.658/RTIME)
   DFIELD  = 0.0000000 0.0000000 0.0000000 field for delta impulse in time

 Orbital magnetization related:
   ORBITALMAG=     F  switch on orbital magnetization
   LCHIMAG   =     F  perturbation theory with respect to B field
   DQ        =  0.001000  dq finite difference perturbation B field
   LLRAUG    =     F  two centre corrections for induced B field



--------------------------------------------------------------------------------------------------------


 quickmin algorithm: (dynamic with friction)
 charge density and potential will be updated during run
 non-spin polarized calculation
 Variant of blocked Davidson
 Davidson routine will perform the subspace rotation
 perform sub-space diagonalisation
    after iterative eigenvector-optimisation
 modified Broyden-mixing scheme, WC =      100.0
 initial mixing is a Kerker type mixing with AMIX =  0.4000 and BMIX =      1.0000
 Hartree-type preconditioning will be used
 using additional bands            5
 reciprocal scheme for non local part
 use partial core corrections
 calculate Harris-corrections to forces
   (improved forces if not selfconsistent)
 use gradient corrections
 use of overlap-Matrix (Vanderbilt PP)
 Gauss-broadening in eV      SIGMA  =   0.01


--------------------------------------------------------------------------------------------------------


  energy-cutoff  :      520.00
  volume of cell :       80.30
      direct lattice vectors                 reciprocal lattice vectors
     0.000000000  3.424175673  3.424175673    -0.146020546  0.146020546  0.146020546
     3.424175673  0.000000000  3.424175673     0.146020546 -0.146020546  0.146020546
     3.424175673  3.424175673  0.000000000     0.146020546  0.146020546 -0.146020546

  length of vectors
     4.842515677  4.842515677  4.842515677     0.252915004  0.252915004  0.252915004



 k-points in units of 2pi/SCALE and weight: KPOINTS
   0.00000000  0.00000000  0.00000000       0.000
  -0.01123235  0.01123235  0.01123235       0.004
  -0.02246470  0.02246470  0.02246470       0.004
  -0.03369705  0.03369705  0.03369705       0.004
  -0.04492940  0.04492940  0.04492940       0.004
  -0.05616175  0.05616175  0.05616175       0.004
  -0.06739410  0.06739410  0.06739410       0.004
  -0.00000000  0.00000000  0.02246470       0.003
  -0.01123235  0.01123235  0.03369705       0.011
  -0.02246470  0.02246470  0.04492940       0.011
  -0.03369705  0.03369705  0.05616175       0.011
  -0.04492940  0.04492940  0.06739410       0.011
  -0.05616175  0.05616175  0.07862645       0.011
   0.07862645 -0.07862645 -0.05616175       0.011
   0.06739410 -0.06739410 -0.04492940       0.011
   0.05616175 -0.05616175 -0.03369705       0.011
   0.04492940 -0.04492940 -0.02246470       0.011
   0.03369705 -0.03369705 -0.01123235       0.011
   0.02246470 -0.02246470  0.00000000       0.005
  -0.00000000  0.00000000  0.04492940       0.003
  -0.01123235  0.01123235  0.05616175       0.011
  -0.02246470  0.02246470  0.06739410       0.011
  -0.03369705  0.03369705  0.07862645       0.011
  -0.04492940  0.04492940  0.08985880       0.011
   0.08985880 -0.08985880 -0.04492940       0.011
   0.07862645 -0.07862645 -0.03369705       0.011
   0.06739410 -0.06739410 -0.02246470       0.011
   0.05616175 -0.05616175 -0.01123235       0.011
   0.04492940 -0.04492940  0.00000000       0.005
   0.00000000 -0.00000000  0.06739410       0.003
  -0.01123235  0.01123235  0.07862645       0.011
  -0.02246470  0.02246470  0.08985880       0.011
  -0.03369705  0.03369705  0.10109115       0.011
   0.10109115 -0.10109115 -0.03369705       0.011
   0.08985880 -0.08985880 -0.02246470       0.011
   0.07862645 -0.07862645 -0.01123235       0.011
   0.06739410 -0.06739410  0.00000000       0.005
  -0.00000000  0.00000000  0.08985880       0.003
  -0.01123235  0.01123235  0.10109115       0.011
  -0.02246470  0.02246470  0.11232350       0.011
   0.11232350 -0.11232350 -0.02246470       0.011
   0.10109115 -0.10109115 -0.01123235       0.011
   0.08985880 -0.08985880  0.00000000       0.005
   0.00000000 -0.00000000  0.11232350       0.003
  -0.01123235  0.01123235  0.12355585       0.011
   0.12355585 -0.12355585 -0.01123235       0.011
   0.11232350 -0.11232350 -0.00000000       0.005
   0.00000000 -0.00000000  0.13478820       0.003
   0.13478820 -0.13478820  0.00000000       0.005
  -0.00000000  0.02246470  0.04492940       0.011
  -0.01123235  0.03369705  0.05616175       0.022
  -0.02246470  0.04492940  0.06739410       0.022
  -0.03369705  0.05616175  0.07862645       0.022
   0.10109115 -0.07862645 -0.05616175       0.022
   0.00000000  0.02246470  0.06739410       0.011
  -0.01123235  0.03369705  0.07862645       0.022
  -0.02246470  0.04492940  0.08985880       0.022
   0.11232350 -0.08985880 -0.04492940       0.022
   0.10109115 -0.07862645 -0.03369705       0.022
   0.08985880 -0.06739410 -0.02246470       0.022
   0.07862645 -0.05616175 -0.01123235       0.022
   0.06739410 -0.04492940  0.00000000       0.011
  -0.00000000  0.02246470  0.08985880       0.011
  -0.01123235  0.03369705  0.10109115       0.022
   0.12355585 -0.10109115 -0.03369705       0.022
   0.11232350 -0.08985880 -0.02246470       0.022
   0.10109115 -0.07862645 -0.01123235       0.022
   0.08985880 -0.06739410 -0.00000000       0.011
   0.00000000  0.02246470  0.11232350       0.011
   0.13478820 -0.11232350 -0.02246470       0.022
   0.12355585 -0.10109115 -0.01123235       0.022
   0.11232350 -0.08985880 -0.00000000       0.011
   0.14602055 -0.12355585 -0.01123235       0.011
   0.13478820 -0.11232350 -0.00000000       0.011
   0.00000000  0.04492940  0.08985880       0.011
   0.13478820 -0.08985880 -0.04492940       0.022
   0.12355585 -0.07862645 -0.03369705       0.022
   0.14602055 -0.10109115 -0.03369705       0.011
   0.13478820 -0.08985880 -0.02246470       0.022
   0.12355585 -0.07862645 -0.01123235       0.022
   0.11232350 -0.06739410 -0.00000000       0.011
   0.14602055 -0.10109115 -0.01123235       0.011
   0.13478820 -0.08985880 -0.00000000       0.011
   0.14602055 -0.07862645 -0.01123235       0.011

 k-points in reciprocal lattice and weights: KPOINTS
   0.00000000  0.00000000  0.00000000       0.000
   0.07692308 -0.00000000  0.00000000       0.004
   0.15384615 -0.00000000  0.00000000       0.004
   0.23076923  0.00000000 -0.00000000       0.004
   0.30769231 -0.00000000  0.00000000       0.004
   0.38461538  0.00000000 -0.00000000       0.004
   0.46153846  0.00000000  0.00000000       0.004
   0.07692308  0.07692308 -0.00000000       0.003
   0.15384615  0.07692308 -0.00000000       0.011
   0.23076923  0.07692308 -0.00000000       0.011
   0.30769231  0.07692308 -0.00000000       0.011
   0.38461538  0.07692308  0.00000000       0.011
   0.46153846  0.07692308 -0.00000000       0.011
  -0.46153846  0.07692308  0.00000000       0.011
  -0.38461538  0.07692308  0.00000000       0.011
  -0.30769231  0.07692308  0.00000000       0.011
  -0.23076923  0.07692308  0.00000000       0.011
  -0.15384615  0.07692308  0.00000000       0.011
  -0.07692308  0.07692308 -0.00000000       0.005
   0.15384615  0.15384615 -0.00000000       0.003
   0.23076923  0.15384615 -0.00000000       0.011
   0.30769231  0.15384615 -0.00000000       0.011
   0.38461538  0.15384615 -0.00000000       0.011
   0.46153846  0.15384615  0.00000000       0.011
  -0.46153846  0.15384615 -0.00000000       0.011
  -0.38461538  0.15384615  0.00000000       0.011
  -0.30769231  0.15384615 -0.00000000       0.011
  -0.23076923  0.15384615  0.00000000       0.011
  -0.15384615  0.15384615 -0.00000000       0.005
   0.23076923  0.23076923 -0.00000000       0.003
   0.30769231  0.23076923 -0.00000000       0.011
   0.38461538  0.23076923 -0.00000000       0.011
   0.46153846  0.23076923 -0.00000000       0.011
  -0.46153846  0.23076923 -0.00000000       0.011
  -0.38461538  0.23076923 -0.00000000       0.011
  -0.30769231  0.23076923  0.00000000       0.011
  -0.23076923  0.23076923  0.00000000       0.005
   0.30769231  0.30769231 -0.00000000       0.003
   0.38461538  0.30769231 -0.00000000       0.011
   0.46153846  0.30769231 -0.00000000       0.011
  -0.46153846  0.30769231  0.00000000       0.011
  -0.38461538  0.30769231  0.00000000       0.011
  -0.30769231  0.30769231 -0.00000000       0.005
   0.38461538  0.38461538 -0.00000000       0.003
   0.46153846  0.38461538 -0.00000000       0.011
  -0.46153846  0.38461538  0.00000000       0.011
  -0.38461538  0.38461538  0.00000000       0.005
   0.46153846  0.46153846 -0.00000000       0.003
  -0.46153846  0.46153846 -0.00000000       0.005
   0.23076923  0.15384615  0.07692308       0.011
   0.30769231  0.15384615  0.07692308       0.022
   0.38461538  0.15384615  0.07692308       0.022
   0.46153846  0.15384615  0.07692308       0.022
  -0.46153846  0.15384615  0.07692308       0.022
   0.30769231  0.23076923  0.07692308       0.011
   0.38461538  0.23076923  0.07692308       0.022
   0.46153846  0.23076923  0.07692308       0.022
  -0.46153846  0.23076923  0.07692308       0.022
  -0.38461538  0.23076923  0.07692308       0.022
  -0.30769231  0.23076923  0.07692308       0.022
  -0.23076923  0.23076923  0.07692308       0.022
  -0.15384615  0.23076923  0.07692308       0.011
   0.38461538  0.30769231  0.07692308       0.011
   0.46153846  0.30769231  0.07692308       0.022
  -0.46153846  0.30769231  0.07692308       0.022
  -0.38461538  0.30769231  0.07692308       0.022
  -0.30769231  0.30769231  0.07692308       0.022
  -0.23076923  0.30769231  0.07692308       0.011
   0.46153846  0.38461538  0.07692308       0.011
  -0.46153846  0.38461538  0.07692308       0.022
  -0.38461538  0.38461538  0.07692308       0.022
  -0.30769231  0.38461538  0.07692308       0.011
  -0.46153846  0.46153846  0.07692308       0.011
  -0.38461538  0.46153846  0.07692308       0.011
   0.46153846  0.30769231  0.15384615       0.011
  -0.46153846  0.30769231  0.15384615       0.022
  -0.38461538  0.30769231  0.15384615       0.022
  -0.46153846  0.38461538  0.15384615       0.011
  -0.38461538  0.38461538  0.15384615       0.022
  -0.30769231  0.38461538  0.15384615       0.022
  -0.23076923  0.38461538  0.15384615       0.011
  -0.38461538  0.46153846  0.15384615       0.011
  -0.30769231  0.46153846  0.15384615       0.011
  -0.30769231  0.46153846  0.23076923       0.011

 position of ions in fractional coordinates (direct lattice)
   0.25000000  0.25000000  0.25000000
   0.00000000  0.00000000  0.00000000
   0.75000000  0.75000000  0.75000000

 position of ions in cartesian coordinates  (Angst):
   1.71208784  1.71208784  1.71208784
   0.00000000  0.00000000  0.00000000
   5.13626351  5.13626351  5.13626351



--------------------------------------------------------------------------------------------------------


 k-point  1 :   0.0000 0.0000 0.0000  plane waves:    2109
 k-point  2 :   0.0769-0.0000 0.0000  plane waves:    2130
 k-point  3 :   0.1538-0.0000 0.0000  plane waves:    2139
 k-point  4 :   0.2308 0.0000-0.0000  plane waves:    2154
 k-point  5 :   0.3077-0.0000 0.0000  plane waves:    2160
 k-point  6 :   0.3846 0.0000-0.0000  plane waves:    2156
 k-point  7 :   0.4615 0.0000 0.0000  plane waves:    2156
 k-point  8 :   0.0769 0.0769-0.0000  plane waves:    2137
 k-point  9 :   0.1538 0.0769-0.0000  plane waves:    2148
 k-point 10 :   0.2308 0.0769-0.0000  plane waves:    2147
 k-point 11 :   0.3077 0.0769-0.0000  plane waves:    2152
 k-point 12 :   0.3846 0.0769 0.0000  plane waves:    2153
 k-point 13 :   0.4615 0.0769-0.0000  plane waves:    2154
 k-point 14 :  -0.4615 0.0769 0.0000  plane waves:    2159
 k-point 15 :  -0.3846 0.0769 0.0000  plane waves:    2160
 k-point 16 :  -0.3077 0.0769 0.0000  plane waves:    2155
 k-point 17 :  -0.2308 0.0769 0.0000  plane waves:    2153
 k-point 18 :  -0.1538 0.0769 0.0000  plane waves:    2147
 k-point 19 :  -0.0769 0.0769-0.0000  plane waves:    2143
 k-point 20 :   0.1538 0.1538-0.0000  plane waves:    2153
 k-point 21 :   0.2308 0.1538-0.0000  plane waves:    2156
 k-point 22 :   0.3077 0.1538-0.0000  plane waves:    2155
 k-point 23 :   0.3846 0.1538-0.0000  plane waves:    2146
 k-point 24 :   0.4615 0.1538 0.0000  plane waves:    2163
 k-point 25 :  -0.4615 0.1538-0.0000  plane waves:    2165
 k-point 26 :  -0.3846 0.1538 0.0000  plane waves:    2163
 k-point 27 :  -0.3077 0.1538-0.0000  plane waves:    2154
 k-point 28 :  -0.2308 0.1538 0.0000  plane waves:    2151
 k-point 29 :  -0.1538 0.1538-0.0000  plane waves:    2145
 k-point 30 :   0.2308 0.2308-0.0000  plane waves:    2157
 k-point 31 :   0.3077 0.2308-0.0000  plane waves:    2154
 k-point 32 :   0.3846 0.2308-0.0000  plane waves:    2145
 k-point 33 :   0.4615 0.2308-0.0000  plane waves:    2157
 k-point 34 :  -0.4615 0.2308-0.0000  plane waves:    2166
 k-point 35 :  -0.3846 0.2308-0.0000  plane waves:    2171
 k-point 36 :  -0.3077 0.2308 0.0000  plane waves:    2164
 k-point 37 :  -0.2308 0.2308 0.0000  plane waves:    2151
 k-point 38 :   0.3077 0.3077-0.0000  plane waves:    2161
 k-point 39 :   0.3846 0.3077-0.0000  plane waves:    2163
 k-point 40 :   0.4615 0.3077-0.0000  plane waves:    2161
 k-point 41 :  -0.4615 0.3077 0.0000  plane waves:    2171
 k-point 42 :  -0.3846 0.3077 0.0000  plane waves:    2159
 k-point 43 :  -0.3077 0.3077-0.0000  plane waves:    2157
 k-point 44 :   0.3846 0.3846-0.0000  plane waves:    2160
 k-point 45 :   0.4615 0.3846-0.0000  plane waves:    2167
 k-point 46 :  -0.4615 0.3846 0.0000  plane waves:    2174
 k-point 47 :  -0.3846 0.3846 0.0000  plane waves:    2163
 k-point 48 :   0.4615 0.4615-0.0000  plane waves:    2168
 k-point 49 :  -0.4615 0.4615-0.0000  plane waves:    2167
 k-point 50 :   0.2308 0.1538 0.0769  plane waves:    2147
 k-point 51 :   0.3077 0.1538 0.0769  plane waves:    2162
 k-point 52 :   0.3846 0.1538 0.0769  plane waves:    2156
 k-point 53 :   0.4615 0.1538 0.0769  plane waves:    2159
 k-point 54 :  -0.4615 0.1538 0.0769  plane waves:    2158
 k-point 55 :   0.3077 0.2308 0.0769  plane waves:    2160
 k-point 56 :   0.3846 0.2308 0.0769  plane waves:    2153
 k-point 57 :   0.4615 0.2308 0.0769  plane waves:    2161
 k-point 58 :  -0.4615 0.2308 0.0769  plane waves:    2164
 k-point 59 :  -0.3846 0.2308 0.0769  plane waves:    2178
 k-point 60 :  -0.3077 0.2308 0.0769  plane waves:    2166
 k-point 61 :  -0.2308 0.2308 0.0769  plane waves:    2156
 k-point 62 :  -0.1538 0.2308 0.0769  plane waves:    2154
 k-point 63 :   0.3846 0.3077 0.0769  plane waves:    2152
 k-point 64 :   0.4615 0.3077 0.0769  plane waves:    2159
 k-point 65 :  -0.4615 0.3077 0.0769  plane waves:    2166
 k-point 66 :  -0.3846 0.3077 0.0769  plane waves:    2165
 k-point 67 :  -0.3077 0.3077 0.0769  plane waves:    2173
 k-point 68 :  -0.2308 0.3077 0.0769  plane waves:    2171
 k-point 69 :   0.4615 0.3846 0.0769  plane waves:    2157
 k-point 70 :  -0.4615 0.3846 0.0769  plane waves:    2169
 k-point 71 :  -0.3846 0.3846 0.0769  plane waves:    2168
 k-point 72 :  -0.3077 0.3846 0.0769  plane waves:    2168
 k-point 73 :  -0.4615 0.4615 0.0769  plane waves:    2168
 k-point 74 :  -0.3846 0.4615 0.0769  plane waves:    2170
 k-point 75 :   0.4615 0.3077 0.1538  plane waves:    2153
 k-point 76 :  -0.4615 0.3077 0.1538  plane waves:    2166
 k-point 77 :  -0.3846 0.3077 0.1538  plane waves:    2178
 k-point 78 :  -0.4615 0.3846 0.1538  plane waves:    2164
 k-point 79 :  -0.3846 0.3846 0.1538  plane waves:    2176
 k-point 80 :  -0.3077 0.3846 0.1538  plane waves:    2176
 k-point 81 :  -0.2308 0.3846 0.1538  plane waves:    2177
 k-point 82 :  -0.3846 0.4615 0.1538  plane waves:    2176
 k-point 83 :  -0.3077 0.4615 0.1538  plane waves:    2175
 k-point 84 :  -0.3077 0.4615 0.2308  plane waves:    2177

 maximum and minimum number of plane-waves per node :       552      516

 maximum number of plane-waves:      2178
 maximum index in each direction:
   IXMAX=    9   IYMAX=    8   IZMAX=    9
   IXMIN=   -9   IYMIN=   -9   IZMIN=   -9


 parallel 3D FFT for wavefunctions:
    minimum data exchange during FFTs selected (reduces bandwidth)
 parallel 3D FFT for charge:
    minimum data exchange during FFTs selected (reduces bandwidth)


 total amount of memory used by VASP MPI-rank0    76404. kBytes
=======================================================================

   base      :      30000. kBytes
   nonl-proj :      35637. kBytes
   fftplans  :       3844. kBytes
   grid      :       2165. kBytes
   one-center:         49. kBytes
   wavefun   :       4709. kBytes

     INWAV:  cpu time    0.0003: real time    0.0006
 Broyden mixing: mesh for mixing (old mesh)
   NGX = 17   NGY = 17   NGZ = 17
  (NGX  = 72   NGY  = 72   NGZ  = 72)
  gives a total of   4913 points

 initial charge density was supplied:
 charge density of overlapping atoms calculated
 number of electron      37.0000000 magnetization
 keeping initial charge density in first step


--------------------------------------------------------------------------------------------------------


 Maximum index for augmentation-charges        17131 (set IRDMAX)


--------------------------------------------------------------------------------------------------------


 First call to EWALD:  gamma=   0.411
 Maximum number of real-space cells 3x 3x 3
 Maximum number of reciprocal cells 3x 3x 3

    FEWALD:  cpu time    0.0060: real time    0.0403


--------------------------------------- Iteration      1(   1)  ---------------------------------------


    POTLOK:  cpu time    0.0384: real time    0.1700
    SETDIJ:  cpu time    0.0409: real time    0.0480
     EDDAV:  cpu time    1.2827: real time    1.3037
       DOS:  cpu time    0.0037: real time    0.0139
    --------------------------------------------
      LOOP:  cpu time    1.3662: real time    1.5525

 eigenvalue-minimisations  :  4032
 total energy-change (2. order) : 0.3994385E+03  (-0.1722472E+04)
 number of electron      37.0000000 magnetization
 augmentation part       37.0000000 magnetization

 Free energy of the ion-electron system (eV)
  ---------------------------------------------------
  alpha Z        PSCENC =       213.97575139
  Ewald energy   TEWEN  =     -3128.39683206
  -Hartree energ DENC   =      -756.21772283
  -exchange      EXHF   =         0.00000000
  -V(xc)+E(xc)   XCENC  =        68.30752276
  PAW double counting   =      3147.30828992    -3070.62761383
  entropy T*S    EENTRO =        -0.00016047
  eigenvalues    EBANDS =       250.42141270
  atomic energy  EATOM  =      3674.66789839
  Solvation  Ediel_sol  =         0.00000000
  ---------------------------------------------------
  free energy    TOTEN  =       399.43854596 eV

  energy without entropy =      399.43870643  energy(sigma->0) =      399.43862619


--------------------------------------------------------------------------------------------------------




--------------------------------------- Iteration      1(   2)  ---------------------------------------


     EDDAV:  cpu time    1.2894: real time    1.6090
       DOS:  cpu time    0.0031: real time    0.0096
    --------------------------------------------
      LOOP:  cpu time    1.2924: real time    1.6318

 eigenvalue-minimisations  :  4152
 total energy-change (2. order) :-0.3614774E+03  (-0.3545651E+03)
 number of electron      37.0000000 magnetization
 augmentation part       37.0000000 magnetization

 Free energy of the ion-electron system (eV)
  ---------------------------------------------------
  alpha Z        PSCENC =       213.97575139
  Ewald energy   TEWEN  =     -3128.39683206
  -Hartree energ DENC   =      -756.21772283
  -exchange      EXHF   =         0.00000000
  -V(xc)+E(xc)   XCENC  =        68.30752276
  PAW double counting   =      3147.30828992    -3070.62761383
  entropy T*S    EENTRO =        -0.00018526
  eigenvalues    EBANDS =      -111.05592031
  atomic energy  EATOM  =      3674.66789839
  Solvation  Ediel_sol  =         0.00000000
  ---------------------------------------------------
  free energy    TOTEN  =        37.96118817 eV

  energy without entropy =       37.96137342  energy(sigma->0) =       37.96128080


--------------------------------------------------------------------------------------------------------




--------------------------------------- Iteration      1(   3)  ---------------------------------------


     EDDAV:  cpu time    1.6209: real time    1.9126
       DOS:  cpu time    0.0032: real time    0.0104
    --------------------------------------------
      LOOP:  cpu time    1.6241: real time    1.9140

 eigenvalue-minimisations  :  5584
 total energy-change (2. order) :-0.5708879E+02  (-0.5635776E+02)
 number of electron      37.0000000 magnetization
 augmentation part       37.0000000 magnetization

 Free energy of the ion-electron system (eV)
  ---------------------------------------------------
  alpha Z        PSCENC =       213.97575139
  Ewald energy   TEWEN  =     -3128.39683206
  -Hartree energ DENC   =      -756.21772283
  -exchange      EXHF   =         0.00000000
  -V(xc)+E(xc)   XCENC  =        68.30752276
  PAW double counting   =      3147.30828992    -3070.62761383
  entropy T*S    EENTRO =        -0.00020200
  eigenvalues    EBANDS =      -168.14468960
  atomic energy  EATOM  =      3674.66789839
  Solvation  Ediel_sol  =         0.00000000
  ---------------------------------------------------
  free energy    TOTEN  =       -19.12759787 eV

  energy without entropy =      -19.12739587  energy(sigma->0) =      -19.12749687


--------------------------------------------------------------------------------------------------------




--------------------------------------- Iteration      1(   4)  ---------------------------------------


     EDDAV:  cpu time    2.0666: real time    2.4134
       DOS:  cpu time    0.0030: real time    0.0126
    --------------------------------------------
      LOOP:  cpu time    2.0696: real time    2.4292

 eigenvalue-minimisations  :  7424
 total energy-change (2. order) :-0.3725481E+01  (-0.3707058E+01)
 number of electron      37.0000000 magnetization
 augmentation part       37.0000000 magnetization

 Free energy of the ion-electron system (eV)
  ---------------------------------------------------
  alpha Z        PSCENC =       213.97575139
  Ewald energy   TEWEN  =     -3128.39683206
  -Hartree energ DENC   =      -756.21772283
  -exchange      EXHF   =         0.00000000
  -V(xc)+E(xc)   XCENC  =        68.30752276
  PAW double counting   =      3147.30828992    -3070.62761383
  entropy T*S    EENTRO =        -0.00007134
  eigenvalues    EBANDS =      -171.87030163
  atomic energy  EATOM  =      3674.66789839
  Solvation  Ediel_sol  =         0.00000000
  ---------------------------------------------------
  free energy    TOTEN  =       -22.85307923 eV

  energy without entropy =      -22.85300790  energy(sigma->0) =      -22.85304356


--------------------------------------------------------------------------------------------------------




--------------------------------------- Iteration      1(   5)  ---------------------------------------


     EDDAV:  cpu time    1.5930: real time    1.9236
       DOS:  cpu time    0.0031: real time    0.0130
    CHARGE:  cpu time    0.1821: real time    0.1953
    MIXING:  cpu time    0.0039: real time    0.0143
    --------------------------------------------
      LOOP:  cpu time    1.7820: real time    2.1439

 eigenvalue-minimisations  :  5504
 total energy-change (2. order) :-0.8747062E-01  (-0.8745811E-01)
 number of electron      37.0000000 magnetization
 augmentation part        5.9811012 magnetization

 Broyden mixing:
  rms(total) = 0.33025E+01    rms(broyden)= 0.33025E+01
  rms(prec ) = 0.36118E+01
  weight for this iteration     100.00

 Free energy of the ion-electron system (eV)
  ---------------------------------------------------
  alpha Z        PSCENC =       213.97575139
  Ewald energy   TEWEN  =     -3128.39683206
  -Hartree energ DENC   =      -756.21772283
  -exchange      EXHF   =         0.00000000
  -V(xc)+E(xc)   XCENC  =        68.30752276
  PAW double counting   =      3147.30828992    -3070.62761383
  entropy T*S    EENTRO =        -0.00007248
  eigenvalues    EBANDS =      -171.95777111
  atomic energy  EATOM  =      3674.66789839
  Solvation  Ediel_sol  =         0.00000000
  ---------------------------------------------------
  free energy    TOTEN  =       -22.94054985 eV

  energy without entropy =      -22.94047738  energy(sigma->0) =      -22.94051362


--------------------------------------------------------------------------------------------------------




--------------------------------------- Iteration      1(   6)  ---------------------------------------


    POTLOK:  cpu time    0.0302: real time    0.3930
    SETDIJ:  cpu time    0.0384: real time    0.0486
     EDDAV:  cpu time    1.5054: real time    1.5135
       DOS:  cpu time    0.0032: real time    0.0141
    CHARGE:  cpu time    0.1562: real time    0.1759
    MIXING:  cpu time    0.0034: real time    0.0151
    --------------------------------------------
      LOOP:  cpu time    1.7369: real time    2.1676

 eigenvalue-minimisations  :  5096
 total energy-change (2. order) : 0.9086885E+00  (-0.1723421E+00)
 number of electron      37.0000000 magnetization
 augmentation part        6.0461767 magnetization

 Broyden mixing:
  rms(total) = 0.20305E+01    rms(broyden)= 0.20305E+01
  rms(prec ) = 0.21406E+01
  weight for this iteration     100.00

 eigenvalues of (default mixing * dielectric matrix)
  average eigenvalue GAMMA=   2.5334
  2.5334

 Free energy of the ion-electron system (eV)
  ---------------------------------------------------
  alpha Z        PSCENC =       213.97575139
  Ewald energy   TEWEN  =     -3128.39683206
  -Hartree energ DENC   =      -740.69321155
  -exchange      EXHF   =         0.00000000
  -V(xc)+E(xc)   XCENC  =        67.84448276
  PAW double counting   =      3449.40914836    -3377.20983986
  entropy T*S    EENTRO =        -0.00016649
  eigenvalues    EBANDS =      -181.62909228
  atomic energy  EATOM  =      3674.66789839
  Solvation  Ediel_sol  =         0.00000000
  ---------------------------------------------------
  free energy    TOTEN  =       -22.03186134 eV

  energy without entropy =      -22.03169485  energy(sigma->0) =      -22.03177810


--------------------------------------------------------------------------------------------------------




--------------------------------------- Iteration      1(   7)  ---------------------------------------


    POTLOK:  cpu time    0.0306: real time    0.5203
    SETDIJ:  cpu time    0.0381: real time    0.0481
     EDDAV:  cpu time    1.7067: real time    1.7155
       DOS:  cpu time    0.0032: real time    0.0155
    CHARGE:  cpu time    0.1372: real time    0.1437
    MIXING:  cpu time    0.0032: real time    0.0096
    --------------------------------------------
      LOOP:  cpu time    1.9188: real time    2.4441

 eigenvalue-minimisations  :  6080
 total energy-change (2. order) : 0.1209503E+00  (-0.2339970E+00)
 number of electron      37.0000000 magnetization
 augmentation part        5.9938320 magnetization

 Broyden mixing:
  rms(total) = 0.62644E+00    rms(broyden)= 0.62644E+00
  rms(prec ) = 0.74822E+00
  weight for this iteration     100.00

 eigenvalues of (default mixing * dielectric matrix)
  average eigenvalue GAMMA=   2.1351
  1.0667  3.2034

 Free energy of the ion-electron system (eV)
  ---------------------------------------------------
  alpha Z        PSCENC =       213.97575139
  Ewald energy   TEWEN  =     -3128.39683206
  -Hartree energ DENC   =      -727.57487950
  -exchange      EXHF   =         0.00000000
  -V(xc)+E(xc)   XCENC  =        67.61880599
  PAW double counting   =      3853.85760339    -3786.61428434
  entropy T*S    EENTRO =        -0.00043790
  eigenvalues    EBANDS =      -189.44453642
  atomic energy  EATOM  =      3674.66789839
  Solvation  Ediel_sol  =         0.00000000
  ---------------------------------------------------
  free energy    TOTEN  =       -21.91091107 eV

  energy without entropy =      -21.91047317  energy(sigma->0) =      -21.91069212


--------------------------------------------------------------------------------------------------------




--------------------------------------- Iteration      1(   8)  ---------------------------------------


    POTLOK:  cpu time    0.0314: real time    0.3891
    SETDIJ:  cpu time    0.0378: real time    0.0466
     EDDAV:  cpu time    1.5087: real time    1.5213
       DOS:  cpu time    0.0031: real time    0.0109
    CHARGE:  cpu time    0.1369: real time    0.1455
    MIXING:  cpu time    0.0032: real time    0.0077
    --------------------------------------------
      LOOP:  cpu time    1.7212: real time    2.1144

 eigenvalue-minimisations  :  5136
 total energy-change (2. order) : 0.4676537E-01  (-0.3302624E-01)
 number of electron      37.0000000 magnetization
 augmentation part        5.9519294 magnetization

 Broyden mixing:
  rms(total) = 0.43863E+00    rms(broyden)= 0.43863E+00
  rms(prec ) = 0.48154E+00
  weight for this iteration     100.00

 eigenvalues of (default mixing * dielectric matrix)
  average eigenvalue GAMMA=   1.9145
  3.5848  1.3905  0.7683

 Free energy of the ion-electron system (eV)
  ---------------------------------------------------
  alpha Z        PSCENC =       213.97575139
  Ewald energy   TEWEN  =     -3128.39683206
  -Hartree energ DENC   =      -727.74911174
  -exchange      EXHF   =         0.00000000
  -V(xc)+E(xc)   XCENC  =        67.62748408
  PAW double counting   =      3883.69623445    -3816.53633879
  entropy T*S    EENTRO =        -0.00011652
  eigenvalues    EBANDS =      -189.14911490
  atomic energy  EATOM  =      3674.66789839
  Solvation  Ediel_sol  =         0.00000000
  ---------------------------------------------------
  free energy    TOTEN  =       -21.86414570 eV

  energy without entropy =      -21.86402919  energy(sigma->0) =      -21.86408745


--------------------------------------------------------------------------------------------------------




--------------------------------------- Iteration      1(   9)  ---------------------------------------


    POTLOK:  cpu time    0.0319: real time    0.4077
    SETDIJ:  cpu time    0.0377: real time    0.0472
     EDDAV:  cpu time    1.6943: real time    1.7057
       DOS:  cpu time    0.0032: real time    0.0092
    CHARGE:  cpu time    0.1379: real time    0.1440
    MIXING:  cpu time    0.0034: real time    0.0099
    --------------------------------------------
      LOOP:  cpu time    1.9084: real time    2.3358

 eigenvalue-minimisations  :  6024
 total energy-change (2. order) : 0.8749425E-02  (-0.2002479E-01)
 number of electron      37.0000000 magnetization
 augmentation part        5.9457018 magnetization

 Broyden mixing:
  rms(total) = 0.33764E+00    rms(broyden)= 0.33764E+00
  rms(prec ) = 0.34934E+00
  weight for this iteration     100.00

 eigenvalues of (default mixing * dielectric matrix)
  average eigenvalue GAMMA=   1.4122
  2.4487  1.2645  1.2645  0.6709

 Free energy of the ion-electron system (eV)
  ---------------------------------------------------
  alpha Z        PSCENC =       213.97575139
  Ewald energy   TEWEN  =     -3128.39683206
  -Hartree energ DENC   =      -730.11742919
  -exchange      EXHF   =         0.00000000
  -V(xc)+E(xc)   XCENC  =        67.66124132
  PAW double counting   =      3963.04080103    -3895.78053666
  entropy T*S    EENTRO =        -0.00028244
  eigenvalues    EBANDS =      -186.90600806
  atomic energy  EATOM  =      3674.66789839
  Solvation  Ediel_sol  =         0.00000000
  ---------------------------------------------------
  free energy    TOTEN  =       -21.85539628 eV

  energy without entropy =      -21.85511384  energy(sigma->0) =      -21.85525506


--------------------------------------------------------------------------------------------------------




--------------------------------------- Iteration      1(  10)  ---------------------------------------


    POTLOK:  cpu time    0.0305: real time    0.4232
    SETDIJ:  cpu time    0.0380: real time    0.0443
     EDDAV:  cpu time    1.4656: real time    1.4750
       DOS:  cpu time    0.0032: real time    0.0116
    CHARGE:  cpu time    0.1370: real time    0.1470
    MIXING:  cpu time    0.0036: real time    0.0123
    --------------------------------------------
      LOOP:  cpu time    1.6779: real time    2.1085

 eigenvalue-minimisations  :  4944
 total energy-change (2. order) : 0.5687314E-02  (-0.3351365E-02)
 number of electron      37.0000000 magnetization
 augmentation part        5.9510572 magnetization

 Broyden mixing:
  rms(total) = 0.68968E-01    rms(broyden)= 0.68968E-01
  rms(prec ) = 0.71450E-01
  weight for this iteration     100.00

 eigenvalues of (default mixing * dielectric matrix)
  average eigenvalue GAMMA=   1.4220
  2.4163  1.6777  1.4748  0.8780  0.6635

 Free energy of the ion-electron system (eV)
  ---------------------------------------------------
  alpha Z        PSCENC =       213.97575139
  Ewald energy   TEWEN  =     -3128.39683206
  -Hartree energ DENC   =      -730.28705850
  -exchange      EXHF   =         0.00000000
  -V(xc)+E(xc)   XCENC  =        67.65037055
  PAW double counting   =      3900.96190460    -3833.34542562
  entropy T*S    EENTRO =        -0.00021282
  eigenvalues    EBANDS =      -187.07610489
  atomic energy  EATOM  =      3674.66789839
  Solvation  Ediel_sol  =         0.00000000
  ---------------------------------------------------
  free energy    TOTEN  =       -21.84970897 eV

  energy without entropy =      -21.84949614  energy(sigma->0) =      -21.84960255


--------------------------------------------------------------------------------------------------------




--------------------------------------- Iteration      1(  11)  ---------------------------------------


    POTLOK:  cpu time    0.0303: real time    0.4480
    SETDIJ:  cpu time    0.0381: real time    0.0471
     EDDAV:  cpu time    1.6870: real time    1.6978
       DOS:  cpu time    0.0031: real time    0.0121
    CHARGE:  cpu time    0.1381: real time    0.1464
    MIXING:  cpu time    0.0038: real time    0.0108
    --------------------------------------------
      LOOP:  cpu time    1.9003: real time    2.3594

 eigenvalue-minimisations  :  5896
 total energy-change (2. order) :-0.1962102E-03  (-0.2301287E-03)
 number of electron      37.0000000 magnetization
 augmentation part        5.9522108 magnetization

 Broyden mixing:
  rms(total) = 0.36938E-01    rms(broyden)= 0.36938E-01
  rms(prec ) = 0.40660E-01
  weight for this iteration     100.00

 eigenvalues of (default mixing * dielectric matrix)
  average eigenvalue GAMMA=   1.3799
  2.6047  1.9344  0.6438  0.9440  0.9440  1.2083

 Free energy of the ion-electron system (eV)
  ---------------------------------------------------
  alpha Z        PSCENC =       213.97575139
  Ewald energy   TEWEN  =     -3128.39683206
  -Hartree energ DENC   =      -730.43705990
  -exchange      EXHF   =         0.00000000
  -V(xc)+E(xc)   XCENC  =        67.64410816
  PAW double counting   =      3909.51091631    -3841.85165169
  entropy T*S    EENTRO =        -0.00021411
  eigenvalues    EBANDS =      -186.96282167
  atomic energy  EATOM  =      3674.66789839
  Solvation  Ediel_sol  =         0.00000000
  ---------------------------------------------------
  free energy    TOTEN  =       -21.84990518 eV

  energy without entropy =      -21.84969107  energy(sigma->0) =      -21.84979812


--------------------------------------------------------------------------------------------------------




--------------------------------------- Iteration      1(  12)  ---------------------------------------


    POTLOK:  cpu time    0.0312: real time    0.3906
    SETDIJ:  cpu time    0.0379: real time    0.0477
     EDDAV:  cpu time    1.5866: real time    1.5973
       DOS:  cpu time    0.0032: real time    0.0127
    CHARGE:  cpu time    0.1735: real time    0.1881
    MIXING:  cpu time    0.0039: real time    0.0138
    --------------------------------------------
      LOOP:  cpu time    1.8364: real time    2.2521

 eigenvalue-minimisations  :  5536
 total energy-change (2. order) : 0.1130890E-03  (-0.4644854E-04)
 number of electron      37.0000000 magnetization
 augmentation part        5.9527907 magnetization

 Broyden mixing:
  rms(total) = 0.10881E-01    rms(broyden)= 0.10881E-01
  rms(prec ) = 0.12244E-01
  weight for this iteration     100.00

 eigenvalues of (default mixing * dielectric matrix)
  average eigenvalue GAMMA=   1.4283
  2.4927  2.3414  0.6492  1.2093  1.2093  1.0481  1.0481

 Free energy of the ion-electron system (eV)
  ---------------------------------------------------
  alpha Z        PSCENC =       213.97575139
  Ewald energy   TEWEN  =     -3128.39683206
  -Hartree energ DENC   =      -730.43993264
  -exchange      EXHF   =         0.00000000
  -V(xc)+E(xc)   XCENC  =        67.64268152
  PAW double counting   =      3912.07036030    -3844.38169793
  entropy T*S    EENTRO =        -0.00022496
  eigenvalues    EBANDS =      -186.98779610
  atomic energy  EATOM  =      3674.66789839
  Solvation  Ediel_sol  =         0.00000000
  ---------------------------------------------------
  free energy    TOTEN  =       -21.84979209 eV

  energy without entropy =      -21.84956713  energy(sigma->0) =      -21.84967961


--------------------------------------------------------------------------------------------------------




--------------------------------------- Iteration      1(  13)  ---------------------------------------


    POTLOK:  cpu time    0.0302: real time    0.4446
    SETDIJ:  cpu time    0.0378: real time    0.0453
     EDDAV:  cpu time    1.7872: real time    1.7952
       DOS:  cpu time    0.0029: real time    0.0116
    CHARGE:  cpu time    0.1427: real time    0.1516
    MIXING:  cpu time    0.0039: real time    0.0122
    --------------------------------------------
      LOOP:  cpu time    2.0048: real time    2.4630

 eigenvalue-minimisations  :  6400
 total energy-change (2. order) : 0.3316338E-05  (-0.1773663E-04)
 number of electron      37.0000000 magnetization
 augmentation part        5.9536867 magnetization

 Broyden mixing:
  rms(total) = 0.36257E-02    rms(broyden)= 0.36257E-02
  rms(prec ) = 0.41836E-02
  weight for this iteration     100.00

 eigenvalues of (default mixing * dielectric matrix)
  average eigenvalue GAMMA=   1.3825
  2.5945  2.1141  1.4009  1.4009  0.6519  0.9009  0.9984  0.9984

 Free energy of the ion-electron system (eV)
  ---------------------------------------------------
  alpha Z        PSCENC =       213.97575139
  Ewald energy   TEWEN  =     -3128.39683206
  -Hartree energ DENC   =      -730.44452557
  -exchange      EXHF   =         0.00000000
  -V(xc)+E(xc)   XCENC  =        67.64046994
  PAW double counting   =      3913.21555377    -3845.48882316
  entropy T*S    EENTRO =        -0.00022958
  eigenvalues    EBANDS =      -187.01905188
  atomic energy  EATOM  =      3674.66789839
  Solvation  Ediel_sol  =         0.00000000
  ---------------------------------------------------
  free energy    TOTEN  =       -21.84978877 eV

  energy without entropy =      -21.84955919  energy(sigma->0) =      -21.84967398


--------------------------------------------------------------------------------------------------------




--------------------------------------- Iteration      1(  14)  ---------------------------------------


    POTLOK:  cpu time    0.0314: real time    0.4150
    SETDIJ:  cpu time    0.0379: real time    0.0472
     EDDAV:  cpu time    1.1519: real time    1.1618
       DOS:  cpu time    0.0031: real time    0.0109
    --------------------------------------------
      LOOP:  cpu time    1.2243: real time    1.6302

 eigenvalue-minimisations  :  3376
 total energy-change (2. order) : 0.1553887E-05  (-0.9742898E-06)
 number of electron      37.0000000 magnetization
 augmentation part        5.9536867 magnetization

 Free energy of the ion-electron system (eV)
  ---------------------------------------------------
  alpha Z        PSCENC =       213.97575139
  Ewald energy   TEWEN  =     -3128.39683206
  -Hartree energ DENC   =      -730.44099648
  -exchange      EXHF   =         0.00000000
  -V(xc)+E(xc)   XCENC  =        67.64066114
  PAW double counting   =      3913.09152313    -3845.36642713
  entropy T*S    EENTRO =        -0.00022809
  eigenvalues    EBANDS =      -187.02113750
  atomic energy  EATOM  =      3674.66789839
  Solvation  Ediel_sol  =         0.00000000
  ---------------------------------------------------
  free energy    TOTEN  =       -21.84978722 eV

  energy without entropy =      -21.84955912  energy(sigma->0) =      -21.84967317


--------------------------------------------------------------------------------------------------------




 average (electrostatic) potential at core
  the test charge radii are     1.0856  1.2059  1.1985
  (the norm of the test charge is              1.0000)
       1-102.3402       2 -65.8027       3 -57.1832



 E-fermi :   8.4948     XC(G=0): -11.0352     alpha+bet :-14.0109


 k-point     1 :       0.0000    0.0000    0.0000
  band No.  band energies     occupation
      1     -31.5689      2.00000
      2     -14.4784      2.00000
      3     -14.4784      2.00000
      4     -14.4450      2.00000
      5     -14.4450      2.00000
      6     -14.4450      2.00000
      7      -9.5588      2.00000
      8      -9.5588      2.00000
      9      -9.5588      2.00000
     10      -3.7519      2.00000
     11       4.1845      2.00000
     12       4.1845      2.00000
     13       4.1845      2.00000
     14       4.3975      2.00000
     15       4.3975      2.00000
     16       6.6110      2.00000
     17       7.4045      2.00000
     18       7.4045      2.00000
     19       7.4045      2.00000
     20       8.7378      0.00000
     21       8.7378      0.00000
     22       8.7378      0.00000
     23       9.5589      0.00000
     24      10.5028      0.00000

 k-point     2 :       0.0769   -0.0000    0.0000
  band No.  band energies     occupation
      1     -31.5685      2.00000
      2     -14.4791      2.00000
      3     -14.4791      2.00000
      4     -14.4452      2.00000
      5     -14.4449      2.00000
      6     -14.4449      2.00000
      7      -9.5753      2.00000
      8      -9.5567      2.00000
      9      -9.5567      2.00000
     10      -3.6910      2.00000
     11       4.0507      2.00000
     12       4.0595      2.00000
     13       4.0595      2.00000
     14       4.5152      2.00000
     15       4.5152      2.00000
     16       6.2930      2.00000
     17       7.3225      2.00000
     18       7.3225      2.00000
     19       7.6045      2.00000
     20       8.8337      0.00000
     21       8.8337      0.00000
     22       8.8425      0.00000
     23       9.7800      0.00000
     24      10.5106      0.00000

 k-point     3 :       0.1538   -0.0000    0.0000
  band No.  band energies     occupation
      1     -31.5677      2.00000
      2     -14.4811      2.00000
      3     -14.4811      2.00000
      4     -14.4456      2.00000
      5     -14.4445      2.00000
      6     -14.4445      2.00000
      7      -9.6194      2.00000
      8      -9.5509      2.00000
      9      -9.5509      2.00000
     10      -3.5221      2.00000
     11       3.7128      2.00000
     12       3.8918      2.00000
     13       3.8918      2.00000
     14       4.6507      2.00000
     15       4.6507      2.00000
     16       5.7875      2.00000
     17       7.1529      2.00000
     18       7.1529      2.00000
     19       7.7579      2.00000
     20       9.0605      0.00000
     21       9.0605      0.00000
     22       9.2995      0.00000
     23      10.1770      0.00000
     24      10.5261      0.00000

 k-point     4 :       0.2308    0.0000   -0.0000
  band No.  band energies     occupation
      1     -31.5664      2.00000
      2     -14.4839      2.00000
      3     -14.4839      2.00000
      4     -14.4463      2.00000
      5     -14.4439      2.00000
      6     -14.4439      2.00000
      7      -9.6778      2.00000
      8      -9.5427      2.00000
      9      -9.5427      2.00000
     10      -3.2836      2.00000
     11       3.2967      2.00000
     12       3.7633      2.00000
     13       3.7633      2.00000
     14       4.7029      2.00000
     15       4.7029      2.00000
     16       5.3414      2.00000
     17       7.0066      2.00000
     18       7.0066      2.00000
     19       7.8379      2.00000
     20       9.3348      0.00000
     21       9.3348      0.00000
     22       9.9209      0.00000
     23      10.5064      0.00000
     24      10.5179      0.00000

 k-point     5 :       0.3077   -0.0000    0.0000
  band No.  band energies     occupation
      1     -31.5651      2.00000
      2     -14.4869      2.00000
      3     -14.4869      2.00000
      4     -14.4471      2.00000
      5     -14.4432      2.00000
      6     -14.4432      2.00000
      7      -9.7354      2.00000
      8      -9.5341      2.00000
      9      -9.5341      2.00000
     10      -3.0297      2.00000
     11       2.9087      2.00000
     12       3.6879      2.00000
     13       3.6879      2.00000
     14       4.6597      2.00000
     15       4.6597      2.00000
     16       5.0107      2.00000
     17       6.9305      2.00000
     18       6.9305      2.00000
     19       7.9520      2.00000
     20       9.6025      0.00000
     21       9.6025      0.00000
     22      10.3845      0.00000
     23      10.4844      0.00000
     24      10.4855      0.00000

 k-point     6 :       0.3846    0.0000   -0.0000
  band No.  band energies     occupation
      1     -31.5641      2.00000
      2     -14.4894      2.00000
      3     -14.4894      2.00000
      4     -14.4479      2.00000
      5     -14.4426      2.00000
      6     -14.4426      2.00000
      7      -9.7801      2.00000
      8      -9.5270      2.00000
      9      -9.5270      2.00000
     10      -2.8184      2.00000
     11       2.6185      2.00000
     12       3.6605      2.00000
     13       3.6605      2.00000
     14       4.5648      2.00000
     15       4.5648      2.00000
     16       4.8037      2.00000
     17       6.9106      2.00000
     18       6.9106      2.00000
     19       8.1139      2.00000
     20       9.8136      0.00000
     21       9.8136      0.00000
     22      10.4507      0.00000
     23      10.4507      0.00000
     24      10.5157      0.00000

 k-point     7 :       0.4615    0.0000    0.0000
  band No.  band energies     occupation
      1     -31.5634      2.00000
      2     -14.4908      2.00000
      3     -14.4908      2.00000
      4     -14.4484      2.00000
      5     -14.4423      2.00000
      6     -14.4423      2.00000
      7      -9.8042      2.00000
      8      -9.5230      2.00000
      9      -9.5230      2.00000
     10      -2.6988      2.00000
     11       2.4650      2.00000
     12       3.6599      2.00000
     13       3.6599      2.00000
     14       4.4894      2.00000
     15       4.4894      2.00000
     16       4.7074      2.00000
     17       6.9118      2.00000
     18       6.9118      2.00000
     19       8.2612      2.00000
     20       9.9284      0.00000
     21       9.9284      0.00000
     22      10.3938      0.00000
     23      10.4283      0.00000
     24      10.4284      0.00000

 k-point     8 :       0.0769    0.0769   -0.0000
  band No.  band energies     occupation
      1     -31.5684      2.00000
      2     -14.4804      2.00000
      3     -14.4781      2.00000
      4     -14.4453      2.00000
      5     -14.4448      2.00000
      6     -14.4448      2.00000
      7      -9.5714      2.00000
      8      -9.5607      2.00000
      9      -9.5607      2.00000
     10      -3.6723      2.00000
     11       3.7933      2.00000
     12       4.1980      2.00000
     13       4.1980      2.00000
     14       4.4141      2.00000
     15       4.5537      2.00000
     16       6.2753      2.00000
     17       7.2032      2.00000
     18       7.2032      2.00000
     19       7.8443      2.00000
     20       8.5592      0.00000
     21       8.9970      0.00000
     22       8.9970      0.00000
     23       9.8197      0.00000
     24      10.4885      0.00000

 k-point     9 :       0.1538    0.0769   -0.0000
  band No.  band energies     occupation
      1     -31.5678      2.00000
      2     -14.4826      2.00000
      3     -14.4786      2.00000
      4     -14.4457      2.00000
      5     -14.4445      2.00000
      6     -14.4444      2.00000
      7      -9.6041      2.00000
      8      -9.5603      2.00000
      9      -9.5543      2.00000
     10      -3.5444      2.00000
     11       3.5093      2.00000
     12       4.0748      2.00000
     13       4.1037      2.00000
     14       4.5188      2.00000
     15       4.6543      2.00000
     16       5.9407      2.00000
     17       7.0249      2.00000
     18       7.0361      2.00000
[...]
  212              fftbas_plan_mpi                       0.094448                     24   6
  213                dfftw_execute                         0.039139                   72   7
  214                map_backward                          0.006860                   24   7
  215                  map_gather                            0.001070                 12   8
  216                  m_alltoallv_z                         0.003491                 12   8
  217                  map_scatter                           0.001771                 12   8
  218                map_forward                           0.042582                   24   7
  219                  map_gather                            0.023982                 12   8
  220                  m_alltoallv_z                         0.008134                 12   8
  221                  map_scatter                           0.009804                 12   8
  222            M_sumb_d                              0.006344                       12   5
  223          M_sumb_d                              0.000054                          2   4
  224        setdij_                               1.680254                           40   3
  225          fft3d_mpi                             0.334728                         80   4
  226            fftbas_plan_mpi                       0.308759                       80   5
  227              dfftw_execute                         0.132340                    240   6
  228              map_backward                          0.020931                     80   6
  229                map_gather                            0.003748                   40   7
  230                m_alltoallv_z                         0.009544                   40   7
  231                map_scatter                           0.005857                   40   7
  232              map_forward                           0.136070                     80   6
  233                map_gather                            0.073989                   40   7
  234                m_alltoallv_z                         0.027586                   40   7
  235                map_scatter                           0.032373                   40   7
  236          M_sumb_d                              0.023817                         40   4
  237        set_dd_magatom                        0.000007                            2   3
  238        set_dd_paw                            0.015905                            2   3
  239          set_rsgf_all                          0.000008                          2   4
  240          M_sumb_d                              0.015583                         16   4
  241        strkin                                0.001890                            2   3
  242          M_sumb_d                              0.000960                          2   4
  243        strelo                                0.003942                            2   3
  244          M_sumb_d                              0.000218                          4   4
  245        strenl                                1.546960                            2   3
  246          spher                                 1.165197                         38   4
  247          phase                                 0.018883                        378   4
  248          proj1                                 0.327747                       2268   4
  249            crexp_mul_wave                        0.047863                     6804   5
  250            M_sumb_d                              0.084639                     2268   5
  251          M_sumb_d                              0.000031                          2   4
  252        M_sumb_d                              0.000475                           12   3
  253        fft3d_mpi                             0.025187                           22   3
  254          fftbas_plan_mpi                       0.023449                         22   4
  255            dfftw_execute                         0.008460                       66   5
  256            map_forward                           0.004528                       20   5
  257              map_gather                            0.000917                     10   6
  258              m_alltoallv_z                         0.002186                     10   6
  259              map_scatter                           0.000998                     10   6
  260            map_backward                          0.006020                       24   5
  261              map_gather                            0.001177                     12   6
  262              m_alltoallv_z                         0.002654                     12   6
  263              map_scatter                           0.001665                     12   6
  264        ggaall_grid                           0.002513                            2   3
  265        forhar                                0.009806                            4   3
  266          M_sumb_d                              0.000266                          4   4
  267        strehar                               0.004468                            2   3
  268          M_sumb_d                              0.000209                          2   4
  269        chggra                                0.010257                            2   3
  270          fft3d_mpi                             0.006712                          6   4
  271            fftbas_plan_mpi                       0.006259                        6   5
  272              dfftw_execute                         0.002334                     18   6
  273              map_backward                          0.000994                      4   6
  274                map_gather                            0.000180                    2   7
  275                m_alltoallv_z                         0.000424                    2   7
  276                map_scatter                           0.000298                    2   7
  277              map_forward                           0.001647                      8   6
  278                map_gather                            0.000316                    4   7
  279                m_alltoallv_z                         0.000775                    4   7
  280                map_scatter                           0.000386                    4   7
  281          M_sumb_d                              0.000249                          6   4
  282        brmix                                 0.007160                            2   3
  283          M_sumb_d                              0.000422                         12   4
  284          brpre                                 0.000093                          2   4
  285          setg0                                 0.002009                          2   4
  286          broyd                                 0.002634                          2   4
  287            M_sumb_d                              0.000747                       27   5
  288            brget                                 0.000363                       83   5
  289            brsav                                 0.000099                       23   5
  290          M_bcast_z                             0.000259                          2   4
  291          M_bcast_d                             0.000108                          2   4
  292        M_bcast_d                             0.000115                            4   3
  293      potlok                                0.041069                              2   2
  294        fft3d_mpi                             0.028453                           26   3
  295          fftbas_plan_mpi                       0.026545                         26   4
  296            dfftw_execute                         0.009442                       78   5
  297            map_forward                           0.006046                       28   5
  298              map_gather                            0.001278                     16   6
  299              m_alltoallv_z                         0.002844                     16   6
  300              map_scatter                           0.001286                     16   6
  301            map_backward                          0.005925                       24   5
  302              map_gather                            0.001235                     12   6
  303              m_alltoallv_z                         0.002393                     12   6
  304              map_scatter                           0.001772                     12   6
  305        ggaall_grid                           0.002414                            2   3
  306        M_sumb_d                              0.000495                           12   3
  307        M_bcast_d                             0.000185                            2   3
  308      potlok_metagga                        0.000006                              2   2
  309      set_dd_magatom                        0.000006                              2   2
  310      set_dd_paw                            0.001337                              2   2
  311        set_rsgf_all                          0.000008                            2   3
  312        M_sumb_d                              0.000605                           16   3
  313      densta                                0.002416                              1   2
  314        M_sumb_d                              0.000876                           41   3
  315      lprj_proall                           0.000008                              1   2

 Flat profile
 ============

             routine name                   CPU           calls
 ---------------------------------------------------------------
 elmin                                  49.011115           2
 total_time                             20.021433           1
 eddav                                   5.513344          19
 dfftw_execute                           4.434555       57660
 fftbas_plan_mpi                         3.569495       19222
 M_sumb_d                                2.810359       54434
 setdij_                                 2.307084          70
 m_alltoallv_z                           1.974227       19252
 pdssyex_zheevx                          1.784374         399
 M_alltoall_d                            1.298052       63938
 spher                                   1.252859          40
 set_charge                              1.020205          15
 force_and_stress                        1.012512           2
 orth1                                   0.937592       12960
 proj1                                   0.910433        8738
 gemm                                    0.710595       25836
 vhamil                                  0.630345        8612
 map_gather                              0.611232       19252
 map_forward                             0.582863       20784
 fftwav_mpi                              0.567358       10187
 vnlac0                                  0.566470        8612
 map_scatter                             0.523274       19252
 redis_pw                                0.510943       24324
 M_bcast_z                               0.480405        6865
 redis_proj                              0.468890       30584
 hamiltmu                                0.443789        4306
 w1_copy                                 0.323949       25836
 map_backward                            0.305330       17656
 fft3d_mpi                               0.298858       19220
 work_mul_crexp                          0.260216       25836
 fftext_mpi                              0.250384        8612
 crexp_mul_wave                          0.207241       26214
 overl                                   0.164821       14872
 kinhamil                                0.161692        8612
 eccp                                    0.161314        2394
 M_bcast_d                               0.139665        4350
 overl1                                  0.103275        8612
 potlok                                  0.085199          17
 apply_precond                           0.077612        6218
 setup_precond                           0.070655        2394
 crpa_reader                             0.068519           1
 w1_projall                              0.066751        3109
 pw_charge                               0.065628        1575
 fornl                                   0.065372           2
 lincom                                  0.062931         441
 brgrid                                  0.045080           1
 phase                                   0.043001         863
 truncate_high_frequency_w1              0.037478       11006
 strenl                                  0.035101           2
 soft_charge                             0.033827          15
 densta                                  0.030483          20
 ggaall_grid                             0.023671          19
 setg0                                   0.014021          17
 brmix                                   0.012070          15
 forhar                                  0.009540           4
 broyd                                   0.007618          15
 depsum                                  0.004963          15
 forloc                                  0.004849           2
 set_dd_paw                              0.004478          19
 strehar                                 0.004259           2
 orthch                                  0.003909           2
 strelo                                  0.003724           2
 choleski                                0.003322          42
 chggra                                  0.003295           2
 proj                                    0.002856          42
 brget                                   0.001726         398
 strkin                                  0.000930           2
 brpre                                   0.000787          15
 brsav                                   0.000752         131
 fordep                                  0.000239           2
 set_rsgf_all                            0.000084          19
 vectorpot                               0.000077          16
 set_dd_magatom                          0.000072          19
 potlok_metagga                          0.000063          17
 set_kineden                             0.000048          13
 rotate_active_occupied_orbital          0.000018           2
 lprj_proall                             0.000008           1
 redis_pw_over_bands                     0.000007           2
 ---------------------------------------------------------------
  summed up times    107.225572824478

 Accumulative profile
 ====================

             routine name                   CPU           calls
 ---------------------------------------------------------------
 total_time                            107.225573           1
 elmin                                  81.206165           2
 eddav                                  29.245913          19
 fft3d_mpi                              12.298845       19220
 fftbas_plan_mpi                        12.000976       19222
 hamiltmu                                8.827899        4306
 fftwav_mpi                              6.653201       10187
 kinhamil                                5.587917        8612
 fftext_mpi                              5.426224        8612
 force_and_stress                        5.229366           2
 dfftw_execute                           4.434555       57660
 setdij_                                 2.933049          70
 M_sumb_d                                2.810359       54434
 map_forward                             2.276028       20784
 set_charge                              2.247667          15
 vnlac0                                  2.062573        8612
 m_alltoallv_z                           1.974227       19252
 pdssyex_zheevx                          1.784374         399
 map_backward                            1.720897       17656
 proj1                                   1.570977        8738
 strenl                                  1.546960           2
 M_alltoall_d                            1.298052       63938
 w1_projall                              1.272977        3109
 spher                                   1.252859          40
 redis_pw                                1.206032       24324
 redis_proj                              1.071853       30584
 soft_charge                             1.012845          15
 orth1                                   0.937592       12960
 gemm                                    0.710595       25836
 vhamil                                  0.630345        8612
 map_gather                              0.611232       19252
 map_scatter                             0.523274       19252
 fordep                                  0.521508           2
 M_bcast_z                               0.480405        6865
 potlok                                  0.366676          17
 w1_copy                                 0.323949       25836
 eccp                                    0.288729        2394
 work_mul_crexp                          0.260216       25836
 crexp_mul_wave                          0.207241       26214
 overl                                   0.164821       14872
 M_bcast_d                               0.139665        4350
 setup_precond                           0.125412        2394
 overl1                                  0.103275        8612
 fornl                                   0.090861           2
 apply_precond                           0.077612        6218
 crpa_reader                             0.068519           1
 pw_charge                               0.065628        1575
 lincom                                  0.062931         441
 orthch                                  0.052746           2
 brmix                                   0.047836          15
 densta                                  0.045432          20
 brgrid                                  0.045080           1
 phase                                   0.043001         863
 proj                                    0.039860          42
 truncate_high_frequency_w1              0.037478       11006
 depsum                                  0.037038          15
 set_dd_paw                              0.024933          19
 ggaall_grid                             0.023671          19
 broyd                                   0.014293          15
 setg0                                   0.014021          17
 chggra                                  0.010257           2
 forhar                                  0.009806           4
 forloc                                  0.004983           2
 strehar                                 0.004468           2
 strelo                                  0.003942           2
 choleski                                0.003322          42
 strkin                                  0.001890           2
 brget                                   0.001726         398
 brpre                                   0.000787          15
 brsav                                   0.000752         131
 set_rsgf_all                            0.000084          19
 vectorpot                               0.000077          16
 set_dd_magatom                          0.000072          19
 potlok_metagga                          0.000063          17
 set_kineden                             0.000048          13
 rotate_active_occupied_orbital          0.000018           2
 lprj_proall                             0.000008           1
 redis_pw_over_bands                     0.000007           2
 ---------------------------------------------------------------

Profiling took   1.477832  1.820211  0.006376  0.005030 seconds
Profiling took   1.419232 seconds
