<?xml version="1.0" encoding="ISO-8859-1"?>
<modeling>
 <generator>
  <i name="program" type="string">vasp </i>
  <i name="version" type="string">6.0.8  </i>
  <i name="subversion" type="string">29Jun18 (build Jun 13 2019 12:54:44) complex                          parallel </i>
  <i name="platform" type="string">IFC18_CrayMPICH </i>
  <i name="date" type="string">2021 11 11 </i>
  <i name="time" type="string">21:51:18 </i>
 </generator>
 <incar>
  <i type="int" name="KPAR">     4</i>
  <i type="int" name="NPAR">     4</i>
  <i type="int" name="ISTART">     0</i>
  <i type="string" name="PREC"> ACC</i>
  <i type="string" name="ALGO"> Normal</i>
  <i type="logical" name="ADDGRID"> T  </i>
  <i type="int" name="ISPIN">     1</i>
  <i type="int" name="NELMIN">     5</i>
  <i type="int" name="IBRION">     3</i>
  <i name="EDIFF">      0.00001000</i>
  <i name="EDIFFG">     -0.01000000</i>
  <i type="int" name="NSW">    60</i>
  <i type="int" name="ISIF">     7</i>
  <i name="ENCUT">    520.00000000</i>
  <i name="POTIM">      0.10000000</i>
  <i type="logical" name="LREAL"> F  </i>
  <i type="int" name="ISMEAR">     0</i>
  <i name="SIGMA">      0.01000000</i>
  <i type="logical" name="LWAVE"> F  </i>
  <i type="logical" name="LCHARG"> F  </i>
  <i type="logical" name="LVTOT"> F  </i>
  <i type="string" name="ALGO"> Normal</i>
  <i type="string" name="GGA"> PS</i>
  <i name="EDIFF">      0.00001000</i>
  <i type="int" name="ISPIN">     1</i>
 </incar>
 <structure name="primitive_cell" >
  <crystal>
   <varray name="basis" >
    <v>       0.00000000       3.42417567       3.42417567 </v>
    <v>       3.42417567       0.00000000       3.42417567 </v>
    <v>       3.42417567       3.42417567       0.00000000 </v>
   </varray>
   <i name="volume">     80.29677600 </i>
   <varray name="rec_basis" >
    <v>      -0.14602055       0.14602055       0.14602055 </v>
    <v>       0.14602055      -0.14602055       0.14602055 </v>
    <v>       0.14602055       0.14602055      -0.14602055 </v>
   </varray>
  </crystal>
  <varray name="positions" >
   <v>       0.25000000       0.25000000       0.25000000 </v>
   <v>       0.00000000       0.00000000       0.00000000 </v>
   <v>       0.75000000       0.75000000       0.75000000 </v>
  </varray>
 </structure>
 <varray name="primitive_index" >
  <v type="int" >        1 </v>
  <v type="int" >        2 </v>
  <v type="int" >        3 </v>
 </varray>
 <kpoints>
  <generation param="Gamma">
   <v type="int" name="divisions">      13       13       13 </v>
   <v name="usershift">      0.00000000       0.00000000       0.00000000 </v>
   <v name="genvec1">      0.07692308       0.00000000      -0.00000000 </v>
   <v name="genvec2">      0.00000000       0.07692308       0.00000000 </v>
   <v name="genvec3">     -0.00000000      -0.00000000       0.07692308 </v>
   <v name="shift">      0.00000000       0.00000000       0.00000000 </v>
  </generation>
  <varray name="kpointlist" >
   <v>       0.00000000       0.00000000       0.00000000 </v>
   <v>       0.07692308      -0.00000000       0.00000000 </v>
   <v>       0.15384615      -0.00000000       0.00000000 </v>
   <v>       0.23076923       0.00000000      -0.00000000 </v>
   <v>       0.30769231      -0.00000000       0.00000000 </v>
   <v>       0.38461538       0.00000000      -0.00000000 </v>
   <v>       0.46153846       0.00000000       0.00000000 </v>
   <v>       0.07692308       0.07692308      -0.00000000 </v>
   <v>       0.15384615       0.07692308      -0.00000000 </v>
   <v>       0.23076923       0.07692308      -0.00000000 </v>
   <v>       0.30769231       0.07692308      -0.00000000 </v>
   <v>       0.38461538       0.07692308       0.00000000 </v>
   <v>       0.46153846       0.07692308      -0.00000000 </v>
   <v>      -0.46153846       0.07692308       0.00000000 </v>
   <v>      -0.38461538       0.07692308       0.00000000 </v>
   <v>      -0.30769231       0.07692308       0.00000000 </v>
   <v>      -0.23076923       0.07692308       0.00000000 </v>
   <v>      -0.15384615       0.07692308       0.00000000 </v>
   <v>      -0.07692308       0.07692308      -0.00000000 </v>
   <v>       0.15384615       0.15384615      -0.00000000 </v>
   <v>       0.23076923       0.15384615      -0.00000000 </v>
   <v>       0.30769231       0.15384615      -0.00000000 </v>
   <v>       0.38461538       0.15384615      -0.00000000 </v>
   <v>       0.46153846       0.15384615       0.00000000 </v>
   <v>      -0.46153846       0.15384615      -0.00000000 </v>
   <v>      -0.38461538       0.15384615       0.00000000 </v>
   <v>      -0.30769231       0.15384615      -0.00000000 </v>
   <v>      -0.23076923       0.15384615       0.00000000 </v>
   <v>      -0.15384615       0.15384615      -0.00000000 </v>
   <v>       0.23076923       0.23076923      -0.00000000 </v>
   <v>       0.30769231       0.23076923      -0.00000000 </v>
   <v>       0.38461538       0.23076923      -0.00000000 </v>
   <v>       0.46153846       0.23076923      -0.00000000 </v>
   <v>      -0.46153846       0.23076923      -0.00000000 </v>
   <v>      -0.38461538       0.23076923      -0.00000000 </v>
   <v>      -0.30769231       0.23076923       0.00000000 </v>
   <v>      -0.23076923       0.23076923       0.00000000 </v>
   <v>       0.30769231       0.30769231      -0.00000000 </v>
   <v>       0.38461538       0.30769231      -0.00000000 </v>
   <v>       0.46153846       0.30769231      -0.00000000 </v>
   <v>      -0.46153846       0.30769231       0.00000000 </v>
   <v>      -0.38461538       0.30769231       0.00000000 </v>
   <v>      -0.30769231       0.30769231      -0.00000000 </v>
   <v>       0.38461538       0.38461538      -0.00000000 </v>
   <v>       0.46153846       0.38461538      -0.00000000 </v>
   <v>      -0.46153846       0.38461538       0.00000000 </v>
   <v>      -0.38461538       0.38461538       0.00000000 </v>
   <v>       0.46153846       0.46153846      -0.00000000 </v>
   <v>      -0.46153846       0.46153846      -0.00000000 </v>
   <v>       0.23076923       0.15384615       0.07692308 </v>
   <v>       0.30769231       0.15384615       0.07692308 </v>
   <v>       0.38461538       0.15384615       0.07692308 </v>
   <v>       0.46153846       0.15384615       0.07692308 </v>
   <v>      -0.46153846       0.15384615       0.07692308 </v>
   <v>       0.30769231       0.23076923       0.07692308 </v>
   <v>       0.38461538       0.23076923       0.07692308 </v>
   <v>       0.46153846       0.23076923       0.07692308 </v>
   <v>      -0.46153846       0.23076923       0.07692308 </v>
   <v>      -0.38461538       0.23076923       0.07692308 </v>
   <v>      -0.30769231       0.23076923       0.07692308 </v>
   <v>      -0.23076923       0.23076923       0.07692308 </v>
   <v>      -0.15384615       0.23076923       0.07692308 </v>
   <v>       0.38461538       0.30769231       0.07692308 </v>
   <v>       0.46153846       0.30769231       0.07692308 </v>
   <v>      -0.46153846       0.30769231       0.07692308 </v>
   <v>      -0.38461538       0.30769231       0.07692308 </v>
   <v>      -0.30769231       0.30769231       0.07692308 </v>
   <v>      -0.23076923       0.30769231       0.07692308 </v>
   <v>       0.46153846       0.38461538       0.07692308 </v>
   <v>      -0.46153846       0.38461538       0.07692308 </v>
   <v>      -0.38461538       0.38461538       0.07692308 </v>
   <v>      -0.30769231       0.38461538       0.07692308 </v>
   <v>      -0.46153846       0.46153846       0.07692308 </v>
   <v>      -0.38461538       0.46153846       0.07692308 </v>
   <v>       0.46153846       0.30769231       0.15384615 </v>
   <v>      -0.46153846       0.30769231       0.15384615 </v>
   <v>      -0.38461538       0.30769231       0.15384615 </v>
   <v>      -0.46153846       0.38461538       0.15384615 </v>
   <v>      -0.38461538       0.38461538       0.15384615 </v>
   <v>      -0.30769231       0.38461538       0.15384615 </v>
   <v>      -0.23076923       0.38461538       0.15384615 </v>
   <v>      -0.38461538       0.46153846       0.15384615 </v>
   <v>      -0.30769231       0.46153846       0.15384615 </v>
   <v>      -0.30769231       0.46153846       0.23076923 </v>
  </varray>
  <varray name="weights" >
   <v>       0.00045517 </v>
   <v>       0.00364133 </v>
   <v>       0.00364133 </v>
   <v>       0.00364133 </v>
   <v>       0.00364133 </v>
   <v>       0.00364133 </v>
   <v>       0.00364133 </v>
   <v>       0.00273100 </v>
   <v>       0.01092399 </v>
   <v>       0.01092399 </v>
   <v>       0.01092399 </v>
   <v>       0.01092399 </v>
   <v>       0.01092399 </v>
   <v>       0.01092399 </v>
   <v>       0.01092399 </v>
   <v>       0.01092399 </v>
   <v>       0.01092399 </v>
   <v>       0.01092399 </v>
   <v>       0.00546199 </v>
   <v>       0.00273100 </v>
   <v>       0.01092399 </v>
   <v>       0.01092399 </v>
   <v>       0.01092399 </v>
   <v>       0.01092399 </v>
   <v>       0.01092399 </v>
   <v>       0.01092399 </v>
   <v>       0.01092399 </v>
   <v>       0.01092399 </v>
   <v>       0.00546199 </v>
   <v>       0.00273100 </v>
   <v>       0.01092399 </v>
   <v>       0.01092399 </v>
   <v>       0.01092399 </v>
   <v>       0.01092399 </v>
   <v>       0.01092399 </v>
   <v>       0.01092399 </v>
   <v>       0.00546199 </v>
   <v>       0.00273100 </v>
   <v>       0.01092399 </v>
   <v>       0.01092399 </v>
   <v>       0.01092399 </v>
   <v>       0.01092399 </v>
   <v>       0.00546199 </v>
   <v>       0.00273100 </v>
   <v>       0.01092399 </v>
   <v>       0.01092399 </v>
   <v>       0.00546199 </v>
   <v>       0.00273100 </v>
   <v>       0.00546199 </v>
   <v>       0.01092399 </v>
   <v>       0.02184797 </v>
   <v>       0.02184797 </v>
   <v>       0.02184797 </v>
   <v>       0.02184797 </v>
   <v>       0.01092399 </v>
   <v>       0.02184797 </v>
   <v>       0.02184797 </v>
   <v>       0.02184797 </v>
   <v>       0.02184797 </v>
   <v>       0.02184797 </v>
   <v>       0.02184797 </v>
   <v>       0.01092399 </v>
   <v>       0.01092399 </v>
   <v>       0.02184797 </v>
   <v>       0.02184797 </v>
   <v>       0.02184797 </v>
   <v>       0.02184797 </v>
   <v>       0.01092399 </v>
   <v>       0.01092399 </v>
   <v>       0.02184797 </v>
   <v>       0.02184797 </v>
   <v>       0.01092399 </v>
   <v>       0.01092399 </v>
   <v>       0.01092399 </v>
   <v>       0.01092399 </v>
   <v>       0.02184797 </v>
   <v>       0.02184797 </v>
   <v>       0.01092399 </v>
   <v>       0.02184797 </v>
   <v>       0.02184797 </v>
   <v>       0.01092399 </v>
   <v>       0.01092399 </v>
   <v>       0.01092399 </v>
   <v>       0.01092399 </v>
  </varray>
 </kpoints>
 <parameters>
  <separator name="general" >
   <i type="string" name="SYSTEM">unknown system</i>
   <i type="logical" name="LCOMPAT"> F  </i>
  </separator>
  <separator name="electronic" >
   <i type="string" name="PREC">acc</i>
   <i name="ENMAX">    520.00000000</i>
   <i name="ENAUG">    535.43100000</i>
   <i name="EDIFF">      0.00001000</i>
   <i type="int" name="IALGO">    38</i>
   <i type="int" name="IWAVPR">    11</i>
   <i type="int" name="NBANDS">    24</i>
   <i type="int" name="NBANDSLOW">    -1</i>
   <i type="int" name="NBANDSHIGH">    -1</i>
   <i name="NELECT">     37.00000000</i>
   <i type="int" name="TURBO">     0</i>
   <i type="int" name="IRESTART">     0</i>
   <i type="int" name="NREBOOT">     0</i>
   <i type="int" name="NMIN">     0</i>
   <i name="EREF">      0.00000000</i>
   <separator name="electronic smearing" >
    <i type="int" name="ISMEAR">     0</i>
    <i name="SIGMA">      0.01000000</i>
    <i name="KSPACING">      0.50000000</i>
    <i type="logical" name="KGAMMA"> T  </i>
    <i type="logical" name="KBLOWUP"> T  </i>
   </separator>
   <separator name="electronic projectors" >
    <i type="logical" name="LREAL"> F  </i>
    <v name="ROPT">      0.00000000      0.00000000      0.00000000</v>
    <i type="int" name="LMAXPAW">  -100</i>
    <i type="int" name="LMAXMIX">     2</i>
    <i type="logical" name="NLSPLINE"> F  </i>
   </separator>
   <separator name="electronic startup" >
    <i type="int" name="ISTART">     0</i>
    <i type="int" name="ICHARG">     2</i>
    <i type="int" name="INIWAV">     1</i>
   </separator>
   <separator name="electronic spin" >
    <i type="int" name="ISPIN">     1</i>
    <i type="logical" name="LNONCOLLINEAR"> F  </i>
    <v name="MAGMOM">      1.00000000      1.00000000      1.00000000</v>
    <i name="NUPDOWN">     -1.00000000</i>
    <i type="logical" name="LSORBIT"> F  </i>
    <v name="SAXIS">      0.00000000      0.00000000      1.00000000</v>
    <i type="logical" name="LSPIRAL"> F  </i>
    <v name="QSPIRAL">      0.00000000      0.00000000      0.00000000</v>
    <i type="logical" name="LZEROZ"> F  </i>
   </separator>
   <separator name="electronic exchange-correlation" >
    <i type="logical" name="LASPH"> F  </i>
    <i type="logical" name="LMETAGGA"> F  </i>
   </separator>
   <separator name="electronic convergence" >
    <i type="int" name="NELM">    60</i>
    <i type="int" name="NELMDL">    -5</i>
    <i type="int" name="NELMIN">     5</i>
    <i name="ENINI">    520.00000000</i>
    <separator name="electronic convergence detail" >
     <i type="logical" name="LDIAG"> T  </i>
     <i type="logical" name="LSUBROT"> F  </i>
     <i name="WEIMIN">      0.00100000</i>
     <i name="EBREAK">      0.00000010</i>
     <i name="DEPER">      0.30000000</i>
     <i type="int" name="NRMM">     4</i>
     <i name="TIME">      0.40000000</i>
    </separator>
   </separator>
   <separator name="electronic mixer" >
    <i name="AMIX">      0.40000000</i>
    <i name="BMIX">      1.00000000</i>
    <i name="AMIN">      0.10000000</i>
    <i name="AMIX_MAG">      1.60000000</i>
    <i name="BMIX_MAG">      1.00000000</i>
    <separator name="electronic mixer details" >
     <i type="int" name="IMIX">     4</i>
     <i type="logical" name="MIXFIRST"> F  </i>
     <i type="int" name="MAXMIX">   -45</i>
     <i name="WC">    100.00000000</i>
     <i type="int" name="INIMIX">     1</i>
     <i type="int" name="MIXPRE">     1</i>
     <i type="int" name="MREMOVE">     5</i>
    </separator>
   </separator>
   <separator name="electronic dipolcorrection" >
    <i type="logical" name="LDIPOL"> F  </i>
    <i type="logical" name="LMONO"> F  </i>
    <i type="int" name="IDIPOL">     0</i>
    <i name="EPSILON">      1.00000000</i>
    <v name="DIPOL">   -100.00000000   -100.00000000   -100.00000000</v>
    <i name="EFIELD">      0.00000000</i>
   </separator>
  </separator>
  <separator name="grids" >
   <i type="int" name="NGX">    36</i>
   <i type="int" name="NGY">    36</i>
   <i type="int" name="NGZ">    36</i>
   <i type="int" name="NGXF">    72</i>
   <i type="int" name="NGYF">    72</i>
   <i type="int" name="NGZF">    72</i>
   <i type="logical" name="ADDGRID"> T  </i>
  </separator>
  <separator name="ionic" >
   <i type="int" name="NSW">    60</i>
   <i type="int" name="IBRION">     3</i>
   <i type="int" name="MDALGO">     0</i>
   <i type="int" name="ISIF">     7</i>
   <i name="PSTRESS">      0.00000000</i>
   <i name="EDIFFG">     -0.01000000</i>
   <i type="int" name="NFREE">     0</i>
   <i name="POTIM">      0.10000000</i>
   <i name="SMASS">     -3.00000000</i>
   <i name="SCALEE">      1.00000000</i>
  </separator>
  <separator name="ionic md" >
   <i name="TEBEG">      0.00010000</i>
   <i name="TEEND">      0.00010000</i>
   <i type="int" name="NBLOCK">     1</i>
   <i type="int" name="KBLOCK">    60</i>
   <i type="int" name="NPACO">   256</i>
   <i name="APACO">     16.00000000</i>
  </separator>
  <separator name="symmetry" >
   <i type="int" name="ISYM">     2</i>
   <i name="SYMPREC">      0.00001000</i>
  </separator>
  <separator name="dos" >
   <i type="int" name="LORBIT">     0</i>
   <v name="RWIGS">     -1.00000000     -1.00000000     -1.00000000</v>
   <i type="int" name="NEDOS">   301</i>
   <i name="EMIN">     10.00000000</i>
   <i name="EMAX">    -10.00000000</i>
   <i name="EFERMI">      0.00000000</i>
  </separator>
  <separator name="writing" >
   <i type="int" name="NWRITE">     2</i>
   <i type="logical" name="LWAVE"> F  </i>
   <i type="logical" name="LDOWNSAMPLE"> F  </i>
   <i type="logical" name="LCHARG"> F  </i>
   <i type="logical" name="LPARD"> F  </i>
   <i type="logical" name="LVTOT"> F  </i>
   <i type="logical" name="LVHAR"> F  </i>
   <i type="logical" name="LELF"> F  </i>
   <i type="logical" name="LOPTICS"> F  </i>
   <v name="STM">      0.00000000      0.00000000      0.00000000      0.00000000      0.00000000      0.00000000      0.00000000</v>
  </separator>
  <separator name="performance" >
   <i type="int" name="NPAR">     4</i>
   <i type="int" name="NSIM">     4</i>
   <i type="int" name="NBLK">    -1</i>
   <i type="logical" name="LPLANE"> T  </i>
   <i type="logical" name="LSCALAPACK"> T  </i>
   <i type="logical" name="LSCAAWARE"> F  </i>
   <i type="logical" name="LSCALU"> F  </i>
   <i type="logical" name="LASYNC"> F  </i>
   <i type="logical" name="LORBITALREAL"> F  </i>
  </separator>
  <separator name="miscellaneous" >
   <i type="int" name="IDIOT">     3</i>
   <i type="int" name="PHON_NSTRUCT">    -1</i>
   <i type="logical" name="LMUSIC"> F  </i>
   <v name="POMASS">    208.98000000    195.08000000    232.03900000</v>
   <v name="DARWINR">      0.00000000      0.00000000      0.00000000</v>
   <v name="DARWINV">      1.00000000      1.00000000      1.00000000</v>
   <i type="logical" name="LCORR"> T  </i>
  </separator>
  <i type="logical" name="GGA_COMPAT"> T  </i>
  <i type="logical" name="LBERRY"> F  </i>
  <i type="int" name="ICORELEVEL">     0</i>
  <i type="logical" name="LDAU"> F  </i>
  <i type="int" name="I_CONSTRAINED_M">     0</i>
  <separator name="electronic exchange-correlation" >
   <i type="string" name="GGA">PS</i>
   <i type="int" name="VOSKOWN">     0</i>
   <i type="logical" name="LHFCALC"> F  </i>
   <i type="string" name="PRECFOCK"></i>
   <i type="logical" name="LSYMGRAD"> F  </i>
   <i type="logical" name="LHFONE"> F  </i>
   <i type="logical" name="LRHFCALC"> F  </i>
   <i type="logical" name="LTHOMAS"> F  </i>
   <i type="logical" name="LMODELHF"> F  </i>
   <i type="logical" name="LFOCKACE"> F  </i>
   <i name="ENCUT4O">     -1.00000000</i>
   <i type="int" name="EXXOEP">     0</i>
   <i type="int" name="FOURORBIT">     0</i>
   <i name="AEXX">      0.00000000</i>
   <i name="HFALPHA">      0.00000000</i>
   <i name="MCALPHA">      0.00000000</i>
   <i name="ALDAX">      1.00000000</i>
   <i name="AGGAX">      1.00000000</i>
   <i name="ALDAC">      1.00000000</i>
   <i name="AGGAC">      1.00000000</i>
   <i type="int" name="NKREDX">     1</i>
   <i type="int" name="NKREDY">     1</i>
   <i type="int" name="NKREDZ">     1</i>
   <i type="logical" name="SHIFTRED"> F  </i>
   <i type="logical" name="ODDONLY"> F  </i>
   <i type="logical" name="EVENONLY"> F  </i>
   <i type="int" name="LMAXFOCK">     0</i>
   <i type="int" name="NMAXFOCKAE">     0</i>
   <i type="logical" name="LFOCKAEDFT"> F  </i>
   <i name="HFSCREEN">      0.00000000</i>
   <i name="HFSCREENC">      0.00000000</i>
   <i type="int" name="NBANDSGWLOW">     0</i>
  </separator>
  <separator name="vdW DFT" >
   <i type="logical" name="LUSE_VDW"> F  </i>
   <i name="Zab_VDW">     -0.84910000</i>
   <i name="PARAM1">      0.12340000</i>
   <i name="PARAM2">      1.00000000</i>
   <i name="PARAM3">      0.00000000</i>
  </separator>
  <separator name="model GW" >
   <i type="int" name="MODEL_GW">     0</i>
   <i name="MODEL_EPS0">     16.05935520</i>
   <i name="MODEL_ALPHA">      1.00000000</i>
  </separator>
  <separator name="linear response parameters" >
   <i type="logical" name="LEPSILON"> F  </i>
   <i type="logical" name="LRPA"> F  </i>
   <i type="logical" name="LNABLA"> F  </i>
   <i type="logical" name="LVEL"> F  </i>
   <i type="int" name="KINTER">     0</i>
   <i name="CSHIFT">      0.10000000</i>
   <i name="OMEGAMAX">     -1.00000000</i>
   <i name="DEG_THRESHOLD">      0.00200000</i>
   <i name="RTIME">     -0.10000000</i>
   <i name="WPLASMAI">      0.00000000</i>
   <v name="DFIELD">      0.00000000      0.00000000      0.00000000</v>
   <v name="WPLASMA">      0.00000000      0.00000000      0.00000000      0.00000000      0.00000000      0.00000000      0.00000000      0.00000000      0.00000000</v>
  </separator>
  <separator name="orbital magnetization" >
   <i type="logical" name="NUCIND"> F  </i>
   <v name="MAGPOS">      0.00000000      0.00000000      0.00000000</v>
   <i type="logical" name="LNICSALL"> T  </i>
   <i type="logical" name="ORBITALMAG"> F  </i>
   <i type="logical" name="LMAGBLOCH"> F  </i>
   <i type="logical" name="LCHIMAG"> F  </i>
   <i type="logical" name="LGAUGE"> T  </i>
   <i type="int" name="MAGATOM">     0</i>
   <v name="MAGDIPOL">      0.00000000      0.00000000      0.00000000</v>
   <v name="AVECCONST">      0.00000000      0.00000000      0.00000000</v>
  </separator>
  <separator name="response functions" >
   <i type="logical" name="LFINITE_TEMPERATURE"> F  </i>
   <i type="logical" name="LADDER"> F  </i>
   <i type="logical" name="LRPAFORCE"> F  </i>
   <i type="logical" name="LFXC"> F  </i>
   <i type="logical" name="LHARTREE"> T  </i>
   <i type="int" name="IBSE">     0</i>
   <v type="int" name="KPOINT">    -1     0     0     0</v>
   <i type="logical" name="LTCTC"> F  </i>
   <i type="logical" name="LTCTE"> F  </i>
   <i type="logical" name="LTETE"> F  </i>
   <i type="logical" name="LTRIPLET"> F  </i>
   <i type="logical" name="LFXCEPS"> F  </i>
   <i type="logical" name="LFXHEG"> F  </i>
   <i type="int" name="NATURALO">     2</i>
   <i type="logical" name="L2ORDER"> F  </i>
   <i type="logical" name="LDMP1"> F  </i>
   <i type="logical" name="LMP2LT"> F  </i>
   <i type="logical" name="LSMP2LT"> F  </i>
   <i type="logical" name="LUSEW"> F  </i>
   <i name="ENCUTGW">     -2.00000000</i>
   <i name="ENCUTGWSOFT">     -2.00000000</i>
   <i name="ENCUTLF">     -1.00000000</i>
   <i type="int" name="LMAXMP2">    -1</i>
   <i name="SCISSOR">      0.00000000</i>
   <i type="int" name="NOMEGA">     0</i>
   <i type="int" name="NOMEGAR">     0</i>
   <i type="int" name="NBANDSGW">    -1</i>
   <i type="int" name="NBANDSO">    -1</i>
   <i type="int" name="NBANDSV">    -1</i>
   <i type="int" name="NELM">     1</i>
   <i type="int" name="NELMHF">     1</i>
   <i type="int" name="DIM">     3</i>
   <i type="int" name="IESPILON">     4</i>
   <i type="int" name="ANTIRES">     0</i>
   <i name="OMEGAMAX">    -30.00000000</i>
   <i name="OMEGAMIN">    -30.00000000</i>
   <i name="OMEGATL">   -200.00000000</i>
   <i type="int" name="OMEGAGRID">   145</i>
   <i name="CSHIFT">     -0.10000000</i>
   <i type="logical" name="LSELFENERGY"> F  </i>
   <i type="logical" name="LSPECTRAL"> F  </i>
   <i type="logical" name="LSPECTRALGW"> F  </i>
   <i type="logical" name="LSINGLES"> F  </i>
   <i type="logical" name="LFERMIGW"> F  </i>
   <i type="logical" name="ODDONLYGW"> F  </i>
   <i type="logical" name="EVENONLYGW"> F  </i>
   <i type="int" name="NKREDLFX">     1</i>
   <i type="int" name="NKREDLFY">     1</i>
   <i type="int" name="NKREDLFZ">     1</i>
   <i type="int" name="MAXMEM">  2800</i>
   <i type="int" name="TELESCOPE">     0</i>
   <i type="int" name="NTAUPAR">     1</i>
   <i type="int" name="NOMEGAPAR">    -1</i>
   <i name="LAMBDA">      1.00000000</i>
  </separator>
  <separator name="External order field" >
   <i name="OFIELD_KAPPA">      0.00000000</i>
   <v name="OFIELD_K">      0.00000000      0.00000000      0.00000000</v>
   <i name="OFIELD_Q6_NEAR">      0.00000000</i>
   <i name="OFIELD_Q6_FAR">      0.00000000</i>
   <i name="OFIELD_A">      0.00000000</i>
  </separator>
 </parameters>
 <atominfo>
  <atoms>       3 </atoms>
  <types>       3 </types>
  <array name="atoms" >
   <dimension dim="1">ion</dimension>
   <field type="string">element</field>
   <field type="int">atomtype</field>
   <set>
    <rc><c>Bi</c><c>   1</c></rc>
    <rc><c>Pt</c><c>   2</c></rc>
    <rc><c>Th</c><c>   3</c></rc>
   </set>
  </array>
  <array name="atomtypes" >
   <dimension dim="1">type</dimension>
   <field type="int">atomspertype</field>
   <field type="string">element</field>
   <field>mass</field>
   <field>valence</field>
   <field type="string">pseudopotential</field>
   <set>
    <rc><c>   1</c><c>Bi</c><c>    208.98000000</c><c>     15.00000000</c><c>  PAW_PBE Bi_d 06Sep2000                </c></rc>
    <rc><c>   1</c><c>Pt</c><c>    195.08000000</c><c>     10.00000000</c><c>  PAW_PBE Pt 04Feb2005                  </c></rc>
    <rc><c>   1</c><c>Th</c><c>    232.03900000</c><c>     12.00000000</c><c>  PAW_PBE Th 07Sep2000                  </c></rc>
   </set>
  </array>
 </atominfo>
 <structure name="initialpos" >
  <crystal>
   <varray name="basis" >
    <v>       0.00000000       3.42417567       3.42417567 </v>
    <v>       3.42417567       0.00000000       3.42417567 </v>
    <v>       3.42417567       3.42417567       0.00000000 </v>
   </varray>
   <i name="volume">     80.29677600 </i>
   <varray name="rec_basis" >
    <v>      -0.14602055       0.14602055       0.14602055 </v>
    <v>       0.14602055      -0.14602055       0.14602055 </v>
    <v>       0.14602055       0.14602055      -0.14602055 </v>
   </varray>
  </crystal>
  <varray name="positions" >
   <v>       0.25000000       0.25000000       0.25000000 </v>
   <v>       0.00000000       0.00000000       0.00000000 </v>
   <v>       0.75000000       0.75000000       0.75000000 </v>
  </varray>
 </structure>
 <calculation>
  <scstep>
   <time name="dav">    1.28    1.30</time>
   <time name="total">    1.37    1.55</time>
   <energy>
    <i name="alphaZ">    213.97575139 </i>
    <i name="ewald">  -3128.39683206 </i>
    <i name="hartreedc">   -756.21772283 </i>
    <i name="XCdc">     68.30752276 </i>
    <i name="pawpsdc">   3147.30828992 </i>
    <i name="pawaedc">  -3070.62761383 </i>
    <i name="eentropy">     -0.00016047 </i>
    <i name="bandstr">    250.42141270 </i>
    <i name="atom">   3674.66789839 </i>
    <i name="e_fr_energy">    399.43854596 </i>
    <i name="e_wo_entrp">    399.43870643 </i>
    <i name="e_0_energy">    399.43862619 </i>
   </energy>
  </scstep>
  <scstep>
   <time name="dav">    1.29    1.61</time>
   <time name="total">    1.29    1.63</time>
   <energy>
    <i name="e_fr_energy">     37.96118817 </i>
    <i name="e_wo_entrp">     37.96137342 </i>
    <i name="e_0_energy">     37.96128080 </i>
   </energy>
  </scstep>
  <scstep>
   <time name="dav">    1.62    1.91</time>
   <time name="total">    1.62    1.91</time>
   <energy>
    <i name="e_fr_energy">    -19.12759787 </i>
    <i name="e_wo_entrp">    -19.12739587 </i>
    <i name="e_0_energy">    -19.12749687 </i>
   </energy>
  </scstep>
  <scstep>
   <time name="dav">    2.07    2.41</time>
   <time name="total">    2.07    2.43</time>
   <energy>
    <i name="e_fr_energy">    -22.85307923 </i>
    <i name="e_wo_entrp">    -22.85300790 </i>
    <i name="e_0_energy">    -22.85304356 </i>
   </energy>
  </scstep>
  <scstep>
   <time name="dav">    1.59    1.92</time>
   <time name="total">    1.78    2.14</time>
   <energy>
    <i name="e_fr_energy">    -22.94054985 </i>
    <i name="e_wo_entrp">    -22.94047738 </i>
    <i name="e_0_energy">    -22.94051362 </i>
   </energy>
  </scstep>
  <scstep>
   <time name="dav">    1.51    1.51</time>
   <time name="total">    1.74    2.17</time>
   <energy>
    <i name="e_fr_energy">    -22.03186134 </i>
    <i name="e_wo_entrp">    -22.03169485 </i>
    <i name="e_0_energy">    -22.03177810 </i>
   </energy>
  </scstep>
  <scstep>
   <time name="dav">    1.71    1.72</time>
   <time name="total">    1.92    2.44</time>
   <energy>
    <i name="e_fr_energy">    -21.91091107 </i>
    <i name="e_wo_entrp">    -21.91047317 </i>
    <i name="e_0_energy">    -21.91069212 </i>
   </energy>
  </scstep>
  <scstep>
   <time name="dav">    1.51    1.52</time>
   <time name="total">    1.72    2.11</time>
   <energy>
    <i name="e_fr_energy">    -21.86414570 </i>
    <i name="e_wo_entrp">    -21.86402919 </i>
    <i name="e_0_energy">    -21.86408745 </i>
   </energy>
  </scstep>
  <scstep>
   <time name="dav">    1.69    1.71</time>
   <time name="total">    1.91    2.34</time>
   <energy>
    <i name="e_fr_energy">    -21.85539628 </i>
    <i name="e_wo_entrp">    -21.85511384 </i>
    <i name="e_0_energy">    -21.85525506 </i>
   </energy>
  </scstep>
  <scstep>
   <time name="dav">    1.47    1.47</time>
   <time name="total">    1.68    2.11</time>
   <energy>
    <i name="e_fr_energy">    -21.84970897 </i>
    <i name="e_wo_entrp">    -21.84949614 </i>
    <i name="e_0_energy">    -21.84960255 </i>
   </energy>
  </scstep>
  <scstep>
   <time name="dav">    1.69    1.70</time>
   <time name="total">    1.90    2.36</time>
   <energy>
    <i name="e_fr_energy">    -21.84990518 </i>
    <i name="e_wo_entrp">    -21.84969107 </i>
    <i name="e_0_energy">    -21.84979812 </i>
   </energy>
  </scstep>
  <scstep>
   <time name="dav">    1.59    1.60</time>
   <time name="total">    1.84    2.25</time>
   <energy>
    <i name="e_fr_energy">    -21.84979209 </i>
    <i name="e_wo_entrp">    -21.84956713 </i>
    <i name="e_0_energy">    -21.84967961 </i>
   </energy>
  </scstep>
  <scstep>
   <time name="dav">    1.79    1.80</time>
   <time name="total">    2.00    2.46</time>
   <energy>
    <i name="e_fr_energy">    -21.84978877 </i>
    <i name="e_wo_entrp">    -21.84955919 </i>
    <i name="e_0_energy">    -21.84967398 </i>
   </energy>
  </scstep>
  <scstep>
   <time name="dav">    1.15    1.16</time>
   <time name="total">    1.22    1.63</time>
   <energy>
    <i name="alphaZ">    213.97575139 </i>
    <i name="ewald">  -3128.39683206 </i>
    <i name="hartreedc">   -730.44099648 </i>
    <i name="XCdc">     67.64066114 </i>
    <i name="pawpsdc">   3913.09152313 </i>
    <i name="pawaedc">  -3845.36642713 </i>
    <i name="eentropy">     -0.00022809 </i>
    <i name="bandstr">   -187.02113750 </i>
    <i name="atom">   3674.66789839 </i>
    <i name="e_fr_energy">    -21.84978722 </i>
    <i name="e_wo_entrp">    -21.84955912 </i>
    <i name="e_0_energy">    -21.84967317 </i>
   </energy>
  </scstep>
  <structure>
   <crystal>
    <varray name="basis" >
     <v>       0.00000000       3.42417567       3.42417567 </v>
     <v>       3.42417567       0.00000000       3.42417567 </v>
     <v>       3.42417567       3.42417567       0.00000000 </v>
    </varray>
    <i name="volume">     80.29677600 </i>
    <varray name="rec_basis" >
     <v>      -0.14602055       0.14602055       0.14602055 </v>
     <v>       0.14602055      -0.14602055       0.14602055 </v>
     <v>       0.14602055       0.14602055      -0.14602055 </v>
    </varray>
   </crystal>
   <varray name="positions" >
    <v>       0.25000000       0.25000000       0.25000000 </v>
    <v>       0.00000000       0.00000000       0.00000000 </v>
    <v>       0.75000000       0.75000000       0.75000000 </v>
   </varray>
  </structure>
  <varray name="forces" >
   <v>      -0.00000000      -0.00000000      -0.00000000 </v>
   <v>       0.00000000       0.00000000       0.00000000 </v>
   <v>       0.00000000       0.00000000      -0.00000000 </v>
  </varray>
  <varray name="stress" >
   <v>       0.61881571      -0.00000000       0.00000000 </v>
   <v>      -0.00000000       0.61881571      -0.00000000 </v>
   <v>      -0.00000000       0.00000000       0.61881571 </v>
  </varray>
  <energy>
   <i name="e_fr_energy">    -21.84978722 </i>
   <i name="e_wo_entrp">    -21.84967317 </i>
   <i name="e_0_energy">     -0.00022809 </i>
  </energy>
  <time name="totalsc">   26.87   51.81</time>
 </calculation>
 <calculation>
  <scstep>
   <time name="dav">    1.65    1.66</time>
   <time name="total">    1.91    2.06</time>
   <energy>
    <i name="alphaZ">    213.84774509 </i>
    <i name="ewald">  -3127.77287602 </i>
    <i name="hartreedc">   -730.29616946 </i>
    <i name="XCdc">     67.61931516 </i>
    <i name="pawpsdc">   3912.84131676 </i>
    <i name="pawaedc">  -3845.11597070 </i>
    <i name="eentropy">     -0.00022142 </i>
    <i name="bandstr">   -187.64097311 </i>
    <i name="atom">   3674.66789839 </i>
    <i name="e_fr_energy">    -21.84993531 </i>
    <i name="e_wo_entrp">    -21.84971389 </i>
    <i name="e_0_energy">    -21.84982460 </i>
   </energy>
  </scstep>
  <scstep>
   <time name="dav">    1.59    1.60</time>
   <time name="total">    1.82    2.17</time>
   <energy>
    <i name="e_fr_energy">    -21.84982154 </i>
    <i name="e_wo_entrp">    -21.84960297 </i>
    <i name="e_0_energy">    -21.84971226 </i>
   </energy>
  </scstep>
  <scstep>
   <time name="dav">    1.62    1.62</time>
   <time name="total">    1.84    2.34</time>
   <energy>
    <i name="e_fr_energy">    -21.84980279 </i>
    <i name="e_wo_entrp">    -21.84957803 </i>
    <i name="e_0_energy">    -21.84969041 </i>
   </energy>
  </scstep>
  <scstep>
   <time name="dav">    1.21    1.23</time>
   <time name="total">    1.43    1.91</time>
   <energy>
    <i name="e_fr_energy">    -21.84979930 </i>
    <i name="e_wo_entrp">    -21.84957403 </i>
    <i name="e_0_energy">    -21.84968666 </i>
   </energy>
  </scstep>
  <scstep>
   <time name="dav">    1.25    1.26</time>
   <time name="total">    1.32    1.78</time>
   <energy>
    <i name="alphaZ">    213.84774509 </i>
    <i name="ewald">  -3127.77287602 </i>
    <i name="hartreedc">   -730.71379880 </i>
    <i name="XCdc">     67.63405113 </i>
    <i name="pawpsdc">   3911.63930690 </i>
    <i name="pawaedc">  -3843.89961415 </i>
    <i name="eentropy">     -0.00022518 </i>
    <i name="bandstr">   -187.25228679 </i>
    <i name="atom">   3674.66789839 </i>
    <i name="e_fr_energy">    -21.84979944 </i>
    <i name="e_wo_entrp">    -21.84957426 </i>
    <i name="e_0_energy">    -21.84968685 </i>
   </energy>
  </scstep>
  <structure>
   <crystal>
    <varray name="basis" >
     <v>       0.00000000       3.42485876       3.42485876 </v>
     <v>       3.42485876       0.00000000       3.42485876 </v>
     <v>       3.42485876       3.42485876       0.00000000 </v>
    </varray>
    <i name="volume">     80.34484054 </i>
    <varray name="rec_basis" >
     <v>      -0.14599142       0.14599142       0.14599142 </v>
     <v>       0.14599142      -0.14599142       0.14599142 </v>
     <v>       0.14599142       0.14599142      -0.14599142 </v>
    </varray>
   </crystal>
   <varray name="positions" >
    <v>       0.25000000       0.25000000       0.25000000 </v>
    <v>       0.00000000       0.00000000       0.00000000 </v>
    <v>       0.75000000       0.75000000       0.75000000 </v>
   </varray>
  </structure>
  <varray name="forces" >
   <v>      -0.00000000      -0.00000000       0.00000000 </v>
   <v>       0.00000000       0.00000000      -0.00000000 </v>
   <v>       0.00000000       0.00000000       0.00000000 </v>
  </varray>
  <varray name="stress" >
   <v>       0.32022921      -0.00000000       0.00000000 </v>
   <v>       0.00000000       0.32022921      -0.00000000 </v>
   <v>      -0.00000000       0.00000000       0.32022921 </v>
  </varray>
  <energy>
   <i name="e_fr_energy">    -21.84979944 </i>
   <i name="e_wo_entrp">    -21.84968685 </i>
   <i name="e_0_energy">     -0.00022518 </i>
  </energy>
  <time name="totalsc">   10.97   35.74</time>
  <eigenvalues>
   <array>
    <dimension dim="1">band</dimension>
    <dimension dim="2">kpoint</dimension>
    <dimension dim="3">spin</dimension>
    <field>eigene</field>
    <field>occ</field>
    <set>
     <set comment="spin 1">
      <set comment="kpoint 1">
       <r>  -31.5782    1.0000 </r>
       <r>  -14.4853    1.0000 </r>
       <r>  -14.4853    1.0000 </r>
       <r>  -14.4520    1.0000 </r>
       <r>  -14.4520    1.0000 </r>
       <r>  -14.4520    1.0000 </r>
       <r>   -9.5668    1.0000 </r>
       <r>   -9.5668    1.0000 </r>
       <r>   -9.5668    1.0000 </r>
       <r>   -3.7558    1.0000 </r>
       <r>    4.1799    1.0000 </r>
       <r>    4.1799    1.0000 </r>
       <r>    4.1799    1.0000 </r>
       <r>    4.3934    1.0000 </r>
       <r>    4.3934    1.0000 </r>
       <r>    6.6017    1.0000 </r>
       <r>    7.3985    1.0000 </r>
       <r>    7.3985    1.0000 </r>
       <r>    7.3985    1.0000 </r>
       <r>    8.7308    0.0000 </r>
       <r>    8.7308    0.0000 </r>
       <r>    8.7308    0.0000 </r>
       <r>    9.5510    0.0000 </r>
       <r>   10.4936    0.0000 </r>
      </set>
      <set comment="kpoint 2">
       <r>  -31.5779    1.0000 </r>
       <r>  -14.4860    1.0000 </r>
       <r>  -14.4860    1.0000 </r>
       <r>  -14.4521    1.0000 </r>
       <r>  -14.4518    1.0000 </r>
       <r>  -14.4518    1.0000 </r>
       <r>   -9.5832    1.0000 </r>
       <r>   -9.5647    1.0000 </r>
       <r>   -9.5647    1.0000 </r>
       <r>   -3.6950    1.0000 </r>
       <r>    4.0460    1.0000 </r>
       <r>    4.0551    1.0000 </r>
       <r>    4.0551    1.0000 </r>
       <r>    4.5108    1.0000 </r>
       <r>    4.5108    1.0000 </r>
       <r>    6.2853    1.0000 </r>
       <r>    7.3164    1.0000 </r>
       <r>    7.3164    1.0000 </r>
       <r>    7.5972    1.0000 </r>
       <r>    8.8267    0.0000 </r>
       <r>    8.8267    0.0000 </r>
       <r>    8.8353    0.0000 </r>
       <r>    9.7718    0.0000 </r>
       <r>   10.5013    0.0000 </r>
      </set>
      <set comment="kpoint 3">
       <r>  -31.5770    1.0000 </r>
       <r>  -14.4880    1.0000 </r>
       <r>  -14.4880    1.0000 </r>
       <r>  -14.4526    1.0000 </r>
       <r>  -14.4514    1.0000 </r>
       <r>  -14.4514    1.0000 </r>
       <r>   -9.6272    1.0000 </r>
       <r>   -9.5589    1.0000 </r>
       <r>   -9.5589    1.0000 </r>
       <r>   -3.5264    1.0000 </r>
       <r>    3.7081    1.0000 </r>
       <r>    3.8877    1.0000 </r>
       <r>    3.8877    1.0000 </r>
       <r>    4.6461    1.0000 </r>
       <r>    4.6461    1.0000 </r>
       <r>    5.7811    1.0000 </r>
       <r>    7.1469    1.0000 </r>
       <r>    7.1469    1.0000 </r>
       <r>    7.7503    1.0000 </r>
       <r>    9.0533    0.0000 </r>
       <r>    9.0533    0.0000 </r>
       <r>    9.2914    0.0000 </r>
       <r>   10.1682    0.0000 </r>
       <r>   10.5170    0.0000 </r>
      </set>
      <set comment="kpoint 4">
       <r>  -31.5758    1.0000 </r>
       <r>  -14.4908    1.0000 </r>
       <r>  -14.4908    1.0000 </r>
       <r>  -14.4532    1.0000 </r>
       <r>  -14.4508    1.0000 </r>
       <r>  -14.4508    1.0000 </r>
       <r>   -9.6854    1.0000 </r>
       <r>   -9.5508    1.0000 </r>
       <r>   -9.5508    1.0000 </r>
       <r>   -3.2884    1.0000 </r>
       <r>    3.2921    1.0000 </r>
       <r>    3.7594    1.0000 </r>
       <r>    3.7594    1.0000 </r>
       <r>    4.6982    1.0000 </r>
       <r>    4.6982    1.0000 </r>
       <r>    5.3357    1.0000 </r>
       <r>    7.0005    1.0000 </r>
       <r>    7.0005    1.0000 </r>
       <r>    7.8304    1.0000 </r>
       <r>    9.3274    0.0000 </r>
       <r>    9.3274    0.0000 </r>
       <r>    9.9121    0.0000 </r>
       <r>   10.4881    0.0000 </r>
       <r>   10.5089    0.0000 </r>
      </set>
      <set comment="kpoint 5">
       <r>  -31.5745    1.0000 </r>
       <r>  -14.4938    1.0000 </r>
       <r>  -14.4938    1.0000 </r>
       <r>  -14.4541    1.0000 </r>
       <r>  -14.4501    1.0000 </r>
       <r>  -14.4501    1.0000 </r>
       <r>   -9.7429    1.0000 </r>
       <r>   -9.5422    1.0000 </r>
       <r>   -9.5422    1.0000 </r>
       <r>   -3.0349    1.0000 </r>
       <r>    2.9043    1.0000 </r>
       <r>    3.6840    1.0000 </r>
       <r>    3.6840    1.0000 </r>
       <r>    4.6552    1.0000 </r>
       <r>    4.6552    1.0000 </r>
       <r>    5.0054    1.0000 </r>
       <r>    6.9243    1.0000 </r>
       <r>    6.9243    1.0000 </r>
       <r>    7.9446    1.0000 </r>
       <r>    9.5948    0.0000 </r>
       <r>    9.5948    0.0000 </r>
       <r>   10.3753    0.0000 </r>
       <r>   10.4754    0.0000 </r>
       <r>   10.4756    0.0000 </r>
      </set>
      <set comment="kpoint 6">
       <r>  -31.5734    1.0000 </r>
       <r>  -14.4963    1.0000 </r>
       <r>  -14.4963    1.0000 </r>
       <r>  -14.4548    1.0000 </r>
       <r>  -14.4496    1.0000 </r>
       <r>  -14.4496    1.0000 </r>
       <r>   -9.7874    1.0000 </r>
       <r>   -9.5351    1.0000 </r>
       <r>   -9.5351    1.0000 </r>
       <r>   -2.8239    1.0000 </r>
       <r>    2.6142    1.0000 </r>
       <r>    3.6568    1.0000 </r>
       <r>    3.6568    1.0000 </r>
       <r>    4.5605    1.0000 </r>
       <r>    4.5605    1.0000 </r>
       <r>    4.7986    1.0000 </r>
       <r>    6.9043    1.0000 </r>
       <r>    6.9043    1.0000 </r>
       <r>    8.1065    1.0000 </r>
       <r>    9.8056    0.0000 </r>
       <r>    9.8056    0.0000 </r>
       <r>   10.4417    0.0000 </r>
       <r>   10.4417    0.0000 </r>
       <r>   10.5066    0.0000 </r>
      </set>
      <set comment="kpoint 7">
       <r>  -31.5728    1.0000 </r>
       <r>  -14.4977    1.0000 </r>
       <r>  -14.4977    1.0000 </r>
       <r>  -14.4553    1.0000 </r>
       <r>  -14.4492    1.0000 </r>
       <r>  -14.4492    1.0000 </r>
       <r>   -9.8115    1.0000 </r>
       <r>   -9.5311    1.0000 </r>
       <r>   -9.5311    1.0000 </r>
       <r>   -2.7044    1.0000 </r>
       <r>    2.4608    1.0000 </r>
       <r>    3.6561    1.0000 </r>
       <r>    3.6561    1.0000 </r>
       <r>    4.4852    1.0000 </r>
       <r>    4.4852    1.0000 </r>
       <r>    4.7023    1.0000 </r>
       <r>    6.9054    1.0000 </r>
       <r>    6.9054    1.0000 </r>
       <r>    8.2537    1.0000 </r>
       <r>    9.9202    0.0000 </r>
       <r>    9.9202    0.0000 </r>
       <r>   10.3853    0.0000 </r>
       <r>   10.4193    0.0000 </r>
       <r>   10.4193    0.0000 </r>
      </set>
      <set comment="kpoint 8">
       <r>  -31.5778    1.0000 </r>
       <r>  -14.4873    1.0000 </r>
       <r>  -14.4850    1.0000 </r>
       <r>  -14.4523    1.0000 </r>
       <r>  -14.4517    1.0000 </r>
       <r>  -14.4517    1.0000 </r>
       <r>   -9.5794    1.0000 </r>
       <r>   -9.5687    1.0000 </r>
       <r>   -9.5687    1.0000 </r>
       <r>   -3.6763    1.0000 </r>
       <r>    3.7891    1.0000 </r>
       <r>    4.1934    1.0000 </r>
       <r>    4.1934    1.0000 </r>
       <r>    4.4100    1.0000 </r>
       <r>    4.5492    1.0000 </r>
       <r>    6.2677    1.0000 </r>
       <r>    7.1972    1.0000 </r>
       <r>    7.1972    1.0000 </r>
       <r>    7.8367    1.0000 </r>
       <r>    8.5523    0.0000 </r>
       <r>    8.9898    0.0000 </r>
       <r>    8.9898    0.0000 </r>
       <r>    9.8115    0.0000 </r>
       <r>   10.4776    0.0000 </r>
      </set>
      <set comment="kpoint 9">
       <r>  -31.5771    1.0000 </r>
       <r>  -14.4895    1.0000 </r>
       <r>  -14.4855    1.0000 </r>
       <r>  -14.4527    1.0000 </r>
       <r>  -14.4514    1.0000 </r>
       <r>  -14.4513    1.0000 </r>
       <r>   -9.6119    1.0000 </r>
       <r>   -9.5683    1.0000 </r>
       <r>   -9.5623    1.0000 </r>
       <r>   -3.5487    1.0000 </r>
       <r>    3.5051    1.0000 </r>
       <r>    4.0703    1.0000 </r>
       <r>    4.0993    1.0000 </r>
       <r>    4.5144    1.0000 </r>
       <r>    4.6496    1.0000 </r>
       <r>    5.9340    1.0000 </r>
       <r>    7.0189    1.0000 </r>
       <r>    7.0302    1.0000 </r>
       <r>    8.0892    1.0000 </r>
       <r>    8.5793    0.0000 </r>
       <r>    9.2273    0.0000 </r>
       <r>    9.3142    0.0000 </r>
       <r>   10.1043    0.0000 </r>
       <r>   10.4635    0.0000 </r>
      </set>
      <set comment="kpoint 10">
       <r>  -31.5760    1.0000 </r>
       <r>  -14.4922    1.0000 </r>
       <r>  -14.4874    1.0000 </r>
       <r>  -14.4532    1.0000 </r>
       <r>  -14.4510    1.0000 </r>
       <r>  -14.4507    1.0000 </r>
       <r>   -9.6649    1.0000 </r>
       <r>   -9.5637    1.0000 </r>
       <r>   -9.5529    1.0000 </r>
       <r>   -3.3423    1.0000 </r>
       <r>    3.2151    1.0000 </r>
       <r>    3.8421    1.0000 </r>
       <r>    3.9712    1.0000 </r>
       <r>    4.5962    1.0000 </r>
       <r>    4.7395    1.0000 </r>
       <r>    5.5175    1.0000 </r>
       <r>    6.8505    1.0000 </r>
       <r>    6.9051    1.0000 </r>
       <r>    8.1296    1.0000 </r>
       <r>    8.9299    0.0000 </r>
       <r>    9.4703    0.0000 </r>
       <r>    9.7888    0.0000 </r>
       <r>   10.4095    0.0000 </r>
       <r>   10.4523    0.0000 </r>
      </set>
      <set comment="kpoint 11">
       <r>  -31.5747    1.0000 </r>
       <r>  -14.4947    1.0000 </r>
       <r>  -14.4902    1.0000 </r>
       <r>  -14.4538    1.0000 </r>
       <r>  -14.4505    1.0000 </r>
       <r>  -14.4500    1.0000 </r>
       <r>   -9.7216    1.0000 </r>
       <r>   -9.5559    1.0000 </r>
       <r>   -9.5448    1.0000 </r>
       <r>   -3.1053    1.0000 </r>
       <r>    2.9313    1.0000 </r>
       <r>    3.6699    1.0000 </r>
       <r>    3.8721    1.0000 </r>
       <r>    4.5844    1.0000 </r>
       <r>    4.7478    1.0000 </r>
       <r>    5.1529    1.0000 </r>
       <r>    6.7590    1.0000 </r>
       <r>    6.8547    1.0000 </r>
       <r>    8.1245    1.0000 </r>
       <r>    9.3466    0.0000 </r>
       <r>    9.6905    0.0000 </r>
       <r>   10.2348    0.0000 </r>
       <r>   10.4394    0.0000 </r>
       <r>   10.5033    0.0000 </r>
      </set>
      <set comment="kpoint 12">
       <r>  -31.5736    1.0000 </r>
       <r>  -14.4965    1.0000 </r>
       <r>  -14.4933    1.0000 </r>
       <r>  -14.4545    1.0000 </r>
       <r>  -14.4500    1.0000 </r>
       <r>  -14.4494    1.0000 </r>
       <r>   -9.7692    1.0000 </r>
       <r>   -9.5467    1.0000 </r>
       <r>   -9.5399    1.0000 </r>
       <r>   -2.8926    1.0000 </r>
       <r>    2.6934    1.0000 </r>
       <r>    3.5965    1.0000 </r>
       <r>    3.7973    1.0000 </r>
       <r>    4.5209    1.0000 </r>
       <r>    4.6800    1.0000 </r>
       <r>    4.8916    1.0000 </r>
       <r>    6.7365    1.0000 </r>
       <r>    6.8550    1.0000 </r>
       <r>    8.1900    1.0000 </r>
       <r>    9.6679    0.0000 </r>
       <r>    9.8618    0.0000 </r>
       <r>   10.3854    0.0000 </r>
       <r>   10.4225    0.0000 </r>
       <r>   10.5438    0.0000 </r>
      </set>
      <set comment="kpoint 13">
       <r>  -31.5728    1.0000 </r>
       <r>  -14.4971    1.0000 </r>
       <r>  -14.4959    1.0000 </r>
       <r>  -14.4550    1.0000 </r>
       <r>  -14.4495    1.0000 </r>
       <r>  -14.4491    1.0000 </r>
       <r>   -9.7991    1.0000 </r>
       <r>   -9.5391    1.0000 </r>
       <r>   -9.5382    1.0000 </r>
       <r>   -2.7519    1.0000 </r>
       <r>    2.5434    1.0000 </r>
       <r>    3.6083    1.0000 </r>
       <r>    3.7236    1.0000 </r>
       <r>    4.4846    1.0000 </r>
       <r>    4.5813    1.0000 </r>
       <r>    4.7444    1.0000 </r>
       <r>    6.7446    1.0000 </r>
       <r>    6.8666    1.0000 </r>
       <r>    8.3090    1.0000 </r>
       <r>    9.8281    0.0000 </r>
       <r>    9.9568    0.0000 </r>
       <r>   10.3642    0.0000 </r>
       <r>   10.4044    0.0000 </r>
       <r>   10.5148    0.0000 </r>
      </set>
      <set comment="kpoint 14">
       <r>  -31.5726    1.0000 </r>
       <r>  -14.4975    1.0000 </r>
       <r>  -14.4964    1.0000 </r>
       <r>  -14.4551    1.0000 </r>
       <r>  -14.4494    1.0000 </r>
       <r>  -14.4491    1.0000 </r>
       <r>   -9.8068    1.0000 </r>
       <r>   -9.5426    1.0000 </r>
       <r>   -9.5323    1.0000 </r>
       <r>   -2.7134    1.0000 </r>
       <r>    2.5035    1.0000 </r>
       <r>    3.6405    1.0000 </r>
       <r>    3.6742    1.0000 </r>
       <r>    4.5017    1.0000 </r>
       <r>    4.5243    1.0000 </r>
       <r>    4.7106    1.0000 </r>
       <r>    6.7442    1.0000 </r>
       <r>    6.8708    1.0000 </r>
       <r>    8.3672    1.0000 </r>
       <r>    9.8595    0.0000 </r>
       <r>    9.9517    0.0000 </r>
       <r>   10.3665    0.0000 </r>
       <r>   10.3978    0.0000 </r>
       <r>   10.4730    0.0000 </r>
      </set>
      <set comment="kpoint 15">
       <r>  -31.5730    1.0000 </r>
       <r>  -14.4977    1.0000 </r>
       <r>  -14.4946    1.0000 </r>
       <r>  -14.4548    1.0000 </r>
       <r>  -14.4495    1.0000 </r>
       <r>  -14.4494    1.0000 </r>
       <r>   -9.7912    1.0000 </r>
       <r>   -9.5494    1.0000 </r>
       <r>   -9.5304    1.0000 </r>
       <r>   -2.7854    1.0000 </r>
       <r>    2.5816    1.0000 </r>
       <r>    3.5710    1.0000 </r>
       <r>    3.7614    1.0000 </r>
       <r>    4.4836    1.0000 </r>
       <r>    4.6255    1.0000 </r>
       <r>    4.7833    1.0000 </r>
       <r>    6.7137    1.0000 </r>
       <r>    6.8750    1.0000 </r>
       <r>    8.2911    1.0000 </r>
       <r>    9.8292    0.0000 </r>
       <r>    9.8811    0.0000 </r>
       <r>   10.3814    0.0000 </r>
       <r>   10.4110    0.0000 </r>
       <r>   10.5386    0.0000 </r>
      </set>
      <set comment="kpoint 16">
       <r>  -31.5740    1.0000 </r>
       <r>  -14.4965    1.0000 </r>
       <r>  -14.4921    1.0000 </r>
       <r>  -14.4542    1.0000 </r>
       <r>  -14.4500    1.0000 </r>
       <r>  -14.4499    1.0000 </r>
       <r>   -9.7547    1.0000 </r>
       <r>   -9.5579    1.0000 </r>
       <r>   -9.5329    1.0000 </r>
       <r>   -2.9531    1.0000 </r>
       <r>    2.7754    1.0000 </r>
       <r>    3.5459    1.0000 </r>
       <r>    3.8563    1.0000 </r>
       <r>    4.5256    1.0000 </r>
       <r>    4.7363    1.0000 </r>
       <r>    4.9646    1.0000 </r>
       <r>    6.6591    1.0000 </r>
       <r>    6.9063    1.0000 </r>
       <r>    8.1891    1.0000 </r>
       <r>    9.6001    0.0000 </r>
       <r>    9.7788    0.0000 </r>
       <r>   10.3693    0.0000 </r>
       <r>   10.4346    0.0000 </r>
       <r>   10.5389    0.0000 </r>
      </set>
      <set comment="kpoint 17">
       <r>  -31.5752    1.0000 </r>
       <r>  -14.4941    1.0000 </r>
       <r>  -14.4894    1.0000 </r>
       <r>  -14.4535    1.0000 </r>
       <r>  -14.4506    1.0000 </r>
       <r>  -14.4504    1.0000 </r>
       <r>   -9.7034    1.0000 </r>
       <r>   -9.5659    1.0000 </r>
       <r>   -9.5392    1.0000 </r>
       <r>   -3.1799    1.0000 </r>
       <r>    3.0672    1.0000 </r>
       <r>    3.5842    1.0000 </r>
       <r>    3.9714    1.0000 </r>
       <r>    4.5668    1.0000 </r>
       <r>    4.7975    1.0000 </r>
       <r>    5.2597    1.0000 </r>
       <r>    6.6254    1.0000 </r>
       <r>    6.9964    1.0000 </r>
       <r>    8.1394    1.0000 </r>
       <r>    9.3108    0.0000 </r>
       <r>    9.5130    0.0000 </r>
       <r>   10.1252    0.0000 </r>
       <r>   10.4581    0.0000 </r>
       <r>   10.5125    0.0000 </r>
      </set>
      <set comment="kpoint 18">
       <r>  -31.5764    1.0000 </r>
       <r>  -14.4911    1.0000 </r>
       <r>  -14.4871    1.0000 </r>
       <r>  -14.4529    1.0000 </r>
       <r>  -14.4512    1.0000 </r>
       <r>  -14.4510    1.0000 </r>
       <r>   -9.6480    1.0000 </r>
       <r>   -9.5712    1.0000 </r>
       <r>   -9.5480    1.0000 </r>
       <r>   -3.4137    1.0000 </r>
       <r>    3.4161    1.0000 </r>
       <r>    3.6904    1.0000 </r>
       <r>    4.1135    1.0000 </r>
       <r>    4.5375    1.0000 </r>
       <r>    4.7718    1.0000 </r>
       <r>    5.6429    1.0000 </r>
       <r>    6.6958    1.0000 </r>
       <r>    7.1470    1.0000 </r>
       <r>    8.1128    1.0000 </r>
       <r>    9.0293    0.0000 </r>
       <r>    9.0953    0.0000 </r>
       <r>    9.7137    0.0000 </r>
       <r>   10.3220    0.0000 </r>
       <r>   10.5218    0.0000 </r>
      </set>
      <set comment="kpoint 19">
       <r>  -31.5774    1.0000 </r>
       <r>  -14.4882    1.0000 </r>
       <r>  -14.4859    1.0000 </r>
       <r>  -14.4524    1.0000 </r>
       <r>  -14.4517    1.0000 </r>
       <r>  -14.4515    1.0000 </r>
       <r>   -9.6035    1.0000 </r>
       <r>   -9.5709    1.0000 </r>
       <r>   -9.5572    1.0000 </r>
       <r>   -3.6000    1.0000 </r>
       <r>    3.7620    1.0000 </r>
       <r>    3.8560    1.0000 </r>
       <r>    4.2051    1.0000 </r>
       <r>    4.4678    1.0000 </r>
       <r>    4.6637    1.0000 </r>
       <r>    6.0222    1.0000 </r>
       <r>    6.9581    1.0000 </r>
       <r>    7.2916    1.0000 </r>
       <r>    7.9228    1.0000 </r>
       <r>    8.7961    0.0000 </r>
       <r>    8.8383    0.0000 </r>
       <r>    9.2843    0.0000 </r>
       <r>   10.0081    0.0000 </r>
       <r>   10.4882    0.0000 </r>
      </set>
      <set comment="kpoint 20">
       <r>  -31.5767    1.0000 </r>
       <r>  -14.4914    1.0000 </r>
       <r>  -14.4843    1.0000 </r>
       <r>  -14.4532    1.0000 </r>
       <r>  -14.4510    1.0000 </r>
       <r>  -14.4510    1.0000 </r>
       <r>   -9.6126    1.0000 </r>
       <r>   -9.5741    1.0000 </r>
       <r>   -9.5741    1.0000 </r>
       <r>   -3.4759    1.0000 </r>
       <r>    3.2154    1.0000 </r>
       <r>    4.2195    1.0000 </r>
       <r>    4.2195    1.0000 </r>
       <r>    4.4570    1.0000 </r>
       <r>    4.5759    1.0000 </r>
       <r>    5.9171    1.0000 </r>
       <r>    6.8810    1.0000 </r>
       <r>    6.8810    1.0000 </r>
       <r>    8.1473    1.0000 </r>
       <r>    8.5914    0.0000 </r>
       <r>    9.4499    0.0000 </r>
       <r>    9.4499    0.0000 </r>
       <r>   10.2087    0.0000 </r>
       <r>   10.4224    0.0000 </r>
      </set>
      <set comment="kpoint 21">
       <r>  -31.5758    1.0000 </r>
       <r>  -14.4933    1.0000 </r>
       <r>  -14.4847    1.0000 </r>
       <r>  -14.4538    1.0000 </r>
       <r>  -14.4505    1.0000 </r>
       <r>  -14.4504    1.0000 </r>
       <r>   -9.6495    1.0000 </r>
       <r>   -9.5749    1.0000 </r>
       <r>   -9.5693    1.0000 </r>
       <r>   -3.3286    1.0000 </r>
       <r>    2.9796    1.0000 </r>
       <r>    4.0815    1.0000 </r>
       <r>    4.1585    1.0000 </r>
       <r>    4.5226    1.0000 </r>
       <r>    4.6306    1.0000 </r>
       <r>    5.6999    1.0000 </r>
       <r>    6.6867    1.0000 </r>
       <r>    6.7784    1.0000 </r>
       <r>    8.2958    1.0000 </r>
       <r>    8.7311    0.0000 </r>
       <r>    9.6536    0.0000 </r>
       <r>    9.7561    0.0000 </r>
       <r>   10.3885    0.0000 </r>
       <r>   10.4087    0.0000 </r>
      </set>
      <set comment="kpoint 22">
       <r>  -31.5746    1.0000 </r>
       <r>  -14.4946    1.0000 </r>
       <r>  -14.4865    1.0000 </r>
       <r>  -14.4542    1.0000 </r>
       <r>  -14.4502    1.0000 </r>
       <r>  -14.4497    1.0000 </r>
       <r>   -9.6989    1.0000 </r>
       <r>   -9.5707    1.0000 </r>
       <r>   -9.5622    1.0000 </r>
       <r>   -3.1450    1.0000 </r>
       <r>    2.8205    1.0000 </r>
       <r>    3.8488    1.0000 </r>
       <r>    4.0610    1.0000 </r>
       <r>    4.5440    1.0000 </r>
       <r>    4.7066    1.0000 </r>
       <r>    5.3927    1.0000 </r>
       <r>    6.5057    1.0000 </r>
       <r>    6.7511    1.0000 </r>
       <r>    8.3692    1.0000 </r>
       <r>    9.1017    0.0000 </r>
       <r>    9.8218    0.0000 </r>
       <r>   10.1076    0.0000 </r>
       <r>   10.3716    0.0000 </r>
       <r>   10.5231    0.0000 </r>
      </set>
      <set comment="kpoint 23">
       <r>  -31.5735    1.0000 </r>
       <r>  -14.4951    1.0000 </r>
       <r>  -14.4894    1.0000 </r>
       <r>  -14.4545    1.0000 </r>
       <r>  -14.4500    1.0000 </r>
       <r>  -14.4491    1.0000 </r>
       <r>   -9.7436    1.0000 </r>
       <r>   -9.5623    1.0000 </r>
       <r>   -9.5597    1.0000 </r>
       <r>   -2.9696    1.0000 </r>
       <r>    2.7363    1.0000 </r>
       <r>    3.6744    1.0000 </r>
       <r>    3.9548    1.0000 </r>
       <r>    4.5209    1.0000 </r>
       <r>    4.7180    1.0000 </r>
       <r>    5.0945    1.0000 </r>
       <r>    6.4255    1.0000 </r>
       <r>    6.7690    1.0000 </r>
       <r>    8.3604    1.0000 </r>
       <r>    9.5388    0.0000 </r>
       <r>    9.9513    0.0000 </r>
       <r>   10.3102    0.0000 </r>
       <r>   10.3709    0.0000 </r>
       <r>   10.5581    0.0000 </r>
      </set>
      <set comment="kpoint 24">
       <r>  -31.5727    1.0000 </r>
       <r>  -14.4947    1.0000 </r>
       <r>  -14.4927    1.0000 </r>
       <r>  -14.4546    1.0000 </r>
       <r>  -14.4499    1.0000 </r>
       <r>  -14.4487    1.0000 </r>
       <r>   -9.7742    1.0000 </r>
       <r>   -9.5629    1.0000 </r>
       <r>   -9.5518    1.0000 </r>
       <r>   -2.8394    1.0000 </r>
       <r>    2.7005    1.0000 </r>
       <r>    3.6072    1.0000 </r>
       <r>    3.8242    1.0000 </r>
       <r>    4.5253    1.0000 </r>
       <r>    4.6690    1.0000 </r>
       <r>    4.8803    1.0000 </r>
       <r>    6.4089    1.0000 </r>
       <r>    6.7861    1.0000 </r>
       <r>    8.4195    1.0000 </r>
       <r>    9.7374    0.0000 </r>
       <r>   10.0311    0.0000 </r>
       <r>   10.3364    0.0000 </r>
       <r>   10.3701    0.0000 </r>
       <r>   10.5752    0.0000 </r>
      </set>
      <set comment="kpoint 25">
       <r>  -31.5723    1.0000 </r>
       <r>  -14.4955    1.0000 </r>
       <r>  -14.4936    1.0000 </r>
       <r>  -14.4545    1.0000 </r>
       <r>  -14.4499    1.0000 </r>
       <r>  -14.4487    1.0000 </r>
       <r>   -9.7862    1.0000 </r>
       <r>   -9.5706    1.0000 </r>
       <r>   -9.5414    1.0000 </r>
       <r>   -2.7773    1.0000 </r>
       <r>    2.6827    1.0000 </r>
       <r>    3.6488    1.0000 </r>
       <r>    3.6792    1.0000 </r>
       <r>    4.5860    1.0000 </r>
       <r>    4.5913    1.0000 </r>
       <r>    4.7971    1.0000 </r>
       <r>    6.3978    1.0000 </r>
       <r>    6.7853    1.0000 </r>
       <r>    8.5201    0.0000 </r>
       <r>    9.7066    0.0000 </r>
       <r>   10.0370    0.0000 </r>
       <r>   10.3657    0.0000 </r>
       <r>   10.3843    0.0000 </r>
       <r>   10.5368    0.0000 </r>
      </set>
      <set comment="kpoint 26">
       <r>  -31.5725    1.0000 </r>
       <r>  -14.4973    1.0000 </r>
       <r>  -14.4919    1.0000 </r>
       <r>  -14.4542    1.0000 </r>
       <r>  -14.4500    1.0000 </r>
       <r>  -14.4490    1.0000 </r>
       <r>   -9.7784    1.0000 </r>
       <r>   -9.5802    1.0000 </r>
       <r>   -9.5336    1.0000 </r>
       <r>   -2.7937    1.0000 </r>
       <r>    2.6821    1.0000 </r>
       <r>    3.5541    1.0000 </r>
       <r>    3.7679    1.0000 </r>
       <r>    4.5126    1.0000 </r>
       <r>    4.7002    1.0000 </r>
       <r>    4.8508    1.0000 </r>
       <r>    6.3479    1.0000 </r>
       <r>    6.7820    1.0000 </r>
       <r>    8.5540    0.0000 </r>
       <r>    9.7457    0.0000 </r>
       <r>    9.9338    0.0000 </r>
       <r>   10.3732    0.0000 </r>
       <r>   10.3978    0.0000 </r>
       <r>   10.5494    0.0000 </r>
      </set>
      <set comment="kpoint 27">
       <r>  -31.5732    1.0000 </r>
       <r>  -14.4977    1.0000 </r>
       <r>  -14.4900    1.0000 </r>
       <r>  -14.4538    1.0000 </r>
       <r>  -14.4501    1.0000 </r>
       <r>  -14.4496    1.0000 </r>
       <r>   -9.7531    1.0000 </r>
       <r>   -9.5886    1.0000 </r>
       <r>   -9.5300    1.0000 </r>
       <r>   -2.8890    1.0000 </r>
       <r>    2.7311    1.0000 </r>
       <r>    3.4800    1.0000 </r>
       <r>    3.9278    1.0000 </r>
       <r>    4.4789    1.0000 </r>
       <r>    4.8090    1.0000 </r>
       <r>    5.0202    1.0000 </r>
       <r>    6.2521    1.0000 </r>
       <r>    6.8091    1.0000 </r>
       <r>    8.5372    0.0000 </r>
       <r>    9.7201    0.0000 </r>
       <r>    9.7874    0.0000 </r>
       <r>   10.3717    0.0000 </r>
       <r>   10.3935    0.0000 </r>
       <r>   10.5798    0.0000 </r>
      </set>
      <set comment="kpoint 28">
       <r>  -31.5743    1.0000 </r>
       <r>  -14.4965    1.0000 </r>
       <r>  -14.4883    1.0000 </r>
       <r>  -14.4535    1.0000 </r>
       <r>  -14.4503    1.0000 </r>
       <r>  -14.4502    1.0000 </r>
       <r>   -9.7163    1.0000 </r>
       <r>   -9.5918    1.0000 </r>
       <r>   -9.5317    1.0000 </r>
       <r>   -3.0489    1.0000 </r>
       <r>    2.8679    1.0000 </r>
       <r>    3.4753    1.0000 </r>
       <r>    4.0955    1.0000 </r>
       <r>    4.4676    1.0000 </r>
       <r>    4.8701    1.0000 </r>
       <r>    5.2748    1.0000 </r>
       <r>    6.1694    1.0000 </r>
       <r>    6.8957    1.0000 </r>
       <r>    8.5359    0.0000 </r>
       <r>    9.4445    0.0000 </r>
       <r>    9.6112    0.0000 </r>
       <r>   10.2828    0.0000 </r>
       <r>   10.4183    0.0000 </r>
       <r>   10.5828    0.0000 </r>
      </set>
      <set comment="kpoint 29">
       <r>  -31.5754    1.0000 </r>
       <r>  -14.4942    1.0000 </r>
       <r>  -14.4873    1.0000 </r>
       <r>  -14.4532    1.0000 </r>
       <r>  -14.4508    1.0000 </r>
       <r>  -14.4506    1.0000 </r>
       <r>   -9.6779    1.0000 </r>
       <r>   -9.5860    1.0000 </r>
       <r>   -9.5382    1.0000 </r>
       <r>   -3.2395    1.0000 </r>
       <r>    3.1052    1.0000 </r>
       <r>    3.5470    1.0000 </r>
       <r>    4.2133    1.0000 </r>
       <r>    4.4529    1.0000 </r>
       <r>    4.8556    1.0000 </r>
       <r>    5.5123    1.0000 </r>
       <r>    6.2741    1.0000 </r>
       <r>    7.0326    1.0000 </r>
       <r>    8.4715    0.9888 </r>
       <r>    9.1839    0.0000 </r>
       <r>    9.2566    0.0000 </r>
       <r>   10.0648    0.0000 </r>
       <r>   10.4457    0.0000 </r>
       <r>   10.4980    0.0000 </r>
      </set>
      <set comment="kpoint 30">
       <r>  -31.5751    1.0000 </r>
       <r>  -14.4937    1.0000 </r>
       <r>  -14.4833    1.0000 </r>
       <r>  -14.4545    1.0000 </r>
       <r>  -14.4498    1.0000 </r>
       <r>  -14.4498    1.0000 </r>
       <r>   -9.6561    1.0000 </r>
       <r>   -9.5820    1.0000 </r>
       <r>   -9.5820    1.0000 </r>
       <r>   -3.2562    1.0000 </r>
       <r>    2.8066    1.0000 </r>
       <r>    4.2238    1.0000 </r>
       <r>    4.2238    1.0000 </r>
       <r>    4.4573    1.0000 </r>
       <r>    4.5257    1.0000 </r>
       <r>    5.6913    1.0000 </r>
       <r>    6.6943    1.0000 </r>
       <r>    6.6943    1.0000 </r>
       <r>    8.0632    1.0000 </r>
       <r>    8.9966    0.0000 </r>
       <r>    9.8132    0.0000 </r>
       <r>    9.8132    0.0000 </r>
       <r>   10.3231    0.0000 </r>
       <r>   10.4898    0.0000 </r>
      </set>
      <set comment="kpoint 31">
       <r>  -31.5742    1.0000 </r>
       <r>  -14.4934    1.0000 </r>
       <r>  -14.4836    1.0000 </r>
       <r>  -14.4551    1.0000 </r>
       <r>  -14.4493    1.0000 </r>
       <r>  -14.4492    1.0000 </r>
       <r>   -9.6879    1.0000 </r>
       <r>   -9.5832    1.0000 </r>
       <r>   -9.5819    1.0000 </r>
       <r>   -3.1497    1.0000 </r>
       <r>    2.7413    1.0000 </r>
       <r>    4.0465    1.0000 </r>
       <r>    4.1747    1.0000 </r>
       <r>    4.5166    1.0000 </r>
       <r>    4.5581    1.0000 </r>
       <r>    5.5362    1.0000 </r>
       <r>    6.5312    1.0000 </r>
       <r>    6.6840    1.0000 </r>
       <r>    8.2148    1.0000 </r>
       <r>    9.1671    0.0000 </r>
       <r>    9.9357    0.0000 </r>
       <r>   10.0163    0.0000 </r>
       <r>   10.2832    0.0000 </r>
       <r>   10.5354    0.0000 </r>
      </set>
      <set comment="kpoint 32">
       <r>  -31.5732    1.0000 </r>
       <r>  -14.4925    1.0000 </r>
       <r>  -14.4856    1.0000 </r>
       <r>  -14.4553    1.0000 </r>
       <r>  -14.4492    1.0000 </r>
       <r>  -14.4485    1.0000 </r>
       <r>   -9.7228    1.0000 </r>
       <r>   -9.5832    1.0000 </r>
       <r>   -9.5785    1.0000 </r>
       <r>   -3.0378    1.0000 </r>
       <r>    2.7832    1.0000 </r>
       <r>    3.8208    1.0000 </r>
       <r>    4.0740    1.0000 </r>
       <r>    4.5673    1.0000 </r>
       <r>    4.6140    1.0000 </r>
       <r>    5.3076    1.0000 </r>
       <r>    6.3065    1.0000 </r>
       <r>    6.7138    1.0000 </r>
       <r>    8.3724    1.0000 </r>
       <r>    9.4785    0.0000 </r>
       <r>   10.0300    0.0000 </r>
       <r>   10.2277    0.0000 </r>
       <r>   10.2926    0.0000 </r>
       <r>   10.5571    0.0000 </r>
      </set>
      <set comment="kpoint 33">
       <r>  -31.5724    1.0000 </r>
       <r>  -14.4911    1.0000 </r>
       <r>  -14.4886    1.0000 </r>
       <r>  -14.4551    1.0000 </r>
       <r>  -14.4494    1.0000 </r>
       <r>  -14.4482    1.0000 </r>
       <r>   -9.7473    1.0000 </r>
       <r>   -9.5916    1.0000 </r>
       <r>   -9.5688    1.0000 </r>
       <r>   -2.9427    1.0000 </r>
       <r>    2.8875    1.0000 </r>
       <r>    3.6728    1.0000 </r>
       <r>    3.9288    1.0000 </r>
       <r>    4.5950    1.0000 </r>
       <r>    4.6534    1.0000 </r>
       <r>    5.0811    1.0000 </r>
       <r>    6.1533    1.0000 </r>
       <r>    6.7281    1.0000 </r>
       <r>    8.4485    1.0000 </r>
       <r>    9.7081    0.0000 </r>
       <r>   10.0988    0.0000 </r>
       <r>   10.2995    0.0000 </r>
       <r>   10.3258    0.0000 </r>
       <r>   10.5873    0.0000 </r>
      </set>
      <set comment="kpoint 34">
       <r>  -31.5720    1.0000 </r>
       <r>  -14.4920    1.0000 </r>
       <r>  -14.4897    1.0000 </r>
       <r>  -14.4545    1.0000 </r>
       <r>  -14.4500    1.0000 </r>
       <r>  -14.4481    1.0000 </r>
       <r>   -9.7567    1.0000 </r>
       <r>   -9.6057    1.0000 </r>
       <r>   -9.5563    1.0000 </r>
       <r>   -2.8768    1.0000 </r>
       <r>    2.9601    1.0000 </r>
       <r>    3.6337    1.0000 </r>
       <r>    3.7598    1.0000 </r>
       <r>    4.6167    1.0000 </r>
       <r>    4.6655    1.0000 </r>
       <r>    4.9641    1.0000 </r>
       <r>    6.0595    1.0000 </r>
       <r>    6.7102    1.0000 </r>
       <r>    8.5678    0.0000 </r>
       <r>    9.6520    0.0000 </r>
       <r>   10.1278    0.0000 </r>
       <r>   10.3418    0.0000 </r>
       <r>   10.3526    0.0000 </r>
       <r>   10.5629    0.0000 </r>
      </set>
      <set comment="kpoint 35">
       <r>  -31.5720    1.0000 </r>
       <r>  -14.4951    1.0000 </r>
       <r>  -14.4886    1.0000 </r>
       <r>  -14.4537    1.0000 </r>
       <r>  -14.4506    1.0000 </r>
       <r>  -14.4484    1.0000 </r>
       <r>   -9.7519    1.0000 </r>
       <r>   -9.6201    1.0000 </r>
       <r>   -9.5439    1.0000 </r>
       <r>   -2.8477    1.0000 </r>
       <r>    2.9262    1.0000 </r>
       <r>    3.6034    1.0000 </r>
       <r>    3.7031    1.0000 </r>
       <r>    4.5524    1.0000 </r>
       <r>    4.7630    1.0000 </r>
       <r>    4.9998    1.0000 </r>
       <r>    5.9796    1.0000 </r>
       <r>    6.6860    1.0000 </r>
       <r>    8.7116    0.0000 </r>
       <r>    9.5860    0.0000 </r>
       <r>   10.0733    0.0000 </r>
       <r>   10.3450    0.0000 </r>
       <r>   10.3914    0.0000 </r>
       <r>   10.5475    0.0000 </r>
      </set>
      <set comment="kpoint 36">
       <r>  -31.5725    1.0000 </r>
       <r>  -14.4971    1.0000 </r>
       <r>  -14.4879    1.0000 </r>
       <r>  -14.4531    1.0000 </r>
       <r>  -14.4509    1.0000 </r>
       <r>  -14.4490    1.0000 </r>
       <r>   -9.7389    1.0000 </r>
       <r>   -9.6264    1.0000 </r>
       <r>   -9.5344    1.0000 </r>
       <r>   -2.8646    1.0000 </r>
       <r>    2.8340    1.0000 </r>
       <r>    3.4911    1.0000 </r>
       <r>    3.8413    1.0000 </r>
       <r>    4.5083    1.0000 </r>
       <r>    4.8511    1.0000 </r>
       <r>    5.1460    1.0000 </r>
       <r>    5.8927    1.0000 </r>
       <r>    6.6974    1.0000 </r>
       <r>    8.7823    0.0000 </r>
       <r>    9.6358    0.0000 </r>
       <r>    9.9061    0.0000 </r>
       <r>   10.3610    0.0000 </r>
       <r>   10.4123    0.0000 </r>
       <r>   10.5571    0.0000 </r>
      </set>
      <set comment="kpoint 37">
       <r>  -31.5733    1.0000 </r>
       <r>  -14.4976    1.0000 </r>
       <r>  -14.4878    1.0000 </r>
       <r>  -14.4532    1.0000 </r>
       <r>  -14.4506    1.0000 </r>
       <r>  -14.4496    1.0000 </r>
       <r>   -9.7265    1.0000 </r>
       <r>   -9.6162    1.0000 </r>
       <r>   -9.5300    1.0000 </r>
       <r>   -2.9343    1.0000 </r>
       <r>    2.7910    1.0000 </r>
       <r>    3.4446    1.0000 </r>
       <r>    4.0028    1.0000 </r>
       <r>    4.4762    1.0000 </r>
       <r>    4.8920    1.0000 </r>
       <r>    5.2826    1.0000 </r>
       <r>    5.8955    1.0000 </r>
       <r>    6.7729    1.0000 </r>
       <r>    8.7462    0.0000 </r>
       <r>    9.6525    0.0000 </r>
       <r>    9.6707    0.0000 </r>
       <r>   10.3830    0.0000 </r>
       <r>   10.3866    0.0000 </r>
       <r>   10.5976    0.0000 </r>
      </set>
      <set comment="kpoint 38">
       <r>  -31.5735    1.0000 </r>
       <r>  -14.4915    1.0000 </r>
       <r>  -14.4823    1.0000 </r>
       <r>  -14.4559    1.0000 </r>
       <r>  -14.4485    1.0000 </r>
       <r>  -14.4485    1.0000 </r>
       <r>   -9.6991    1.0000 </r>
       <r>   -9.5907    1.0000 </r>
       <r>   -9.5907    1.0000 </r>
       <r>   -3.1268    1.0000 </r>
       <r>    2.7664    1.0000 </r>
       <r>    4.1855    1.0000 </r>
       <r>    4.1855    1.0000 </r>
       <r>    4.2777    1.0000 </r>
       <r>    4.6019    1.0000 </r>
       <r>    5.4734    1.0000 </r>
       <r>    6.6902    1.0000 </r>
       <r>    6.6902    1.0000 </r>
       <r>    8.0616    1.0000 </r>
       <r>    9.3300    0.0000 </r>
       <r>   10.0208    0.0000 </r>
       <r>   10.0208    0.0000 </r>
       <r>   10.1978    0.0000 </r>
       <r>   10.5135    0.0000 </r>
      </set>
      <set comment="kpoint 39">
       <r>  -31.5727    1.0000 </r>
       <r>  -14.4892    1.0000 </r>
       <r>  -14.4827    1.0000 </r>
       <r>  -14.4564    1.0000 </r>
       <r>  -14.4481    1.0000 </r>
       <r>  -14.4479    1.0000 </r>
       <r>   -9.7205    1.0000 </r>
       <r>   -9.5955    1.0000 </r>
       <r>   -9.5914    1.0000 </r>
       <r>   -3.0872    1.0000 </r>
       <r>    2.9011    1.0000 </r>
       <r>    3.9696    1.0000 </r>
       <r>    4.1276    1.0000 </r>
       <r>    4.3857    1.0000 </r>
       <r>    4.6293    1.0000 </r>
       <r>    5.3106    1.0000 </r>
       <r>    6.5580    1.0000 </r>
       <r>    6.7353    1.0000 </r>
       <r>    8.2136    1.0000 </r>
       <r>    9.5246    0.0000 </r>
       <r>   10.0857    0.0000 </r>
       <r>   10.1407    0.0000 </r>
       <r>   10.1792    0.0000 </r>
       <r>   10.4949    0.0000 </r>
      </set>
      <set comment="kpoint 40">
       <r>  -31.5720    1.0000 </r>
       <r>  -14.4871    1.0000 </r>
       <r>  -14.4847    1.0000 </r>
       <r>  -14.4562    1.0000 </r>
       <r>  -14.4483    1.0000 </r>
       <r>  -14.4475    1.0000 </r>
       <r>   -9.7348    1.0000 </r>
       <r>   -9.6080    1.0000 </r>
       <r>   -9.5852    1.0000 </r>
       <r>   -3.0384    1.0000 </r>
       <r>    3.1023    1.0000 </r>
       <r>    3.7741    1.0000 </r>
       <r>    4.0144    1.0000 </r>
       <r>    4.5152    1.0000 </r>
       <r>    4.6607    1.0000 </r>
       <r>    5.1195    1.0000 </r>
       <r>    6.2636    1.0000 </r>
       <r>    6.7483    1.0000 </r>
       <r>    8.3674    1.0000 </r>
       <r>    9.7564    0.0000 </r>
       <r>   10.1377    0.0000 </r>
       <r>   10.2467    0.0000 </r>
       <r>   10.2469    0.0000 </r>
       <r>   10.5783    0.0000 </r>
      </set>
      <set comment="kpoint 41">
       <r>  -31.5716    1.0000 </r>
       <r>  -14.4880    1.0000 </r>
       <r>  -14.4857    1.0000 </r>
       <r>  -14.4555    1.0000 </r>
       <r>  -14.4490    1.0000 </r>
       <r>  -14.4475    1.0000 </r>
       <r>   -9.7347    1.0000 </r>
       <r>   -9.6301    1.0000 </r>
       <r>   -9.5735    1.0000 </r>
       <r>   -2.9839    1.0000 </r>
       <r>    3.2686    1.0000 </r>
       <r>    3.6607    1.0000 </r>
       <r>    3.8625    1.0000 </r>
       <r>    4.5761    1.0000 </r>
       <r>    4.7184    1.0000 </r>
       <r>    5.0099    1.0000 </r>
       <r>    5.9796    1.0000 </r>
       <r>    6.7066    1.0000 </r>
       <r>    8.4892    0.4117 </r>
       <r>    9.7355    0.0000 </r>
       <r>   10.1752    0.0000 </r>
       <r>   10.2877    0.0000 </r>
       <r>   10.3208    0.0000 </r>
       <r>   10.5589    0.0000 </r>
      </set>
      <set comment="kpoint 42">
       <r>  -31.5716    1.0000 </r>
       <r>  -14.4917    1.0000 </r>
       <r>  -14.4854    1.0000 </r>
       <r>  -14.4543    1.0000 </r>
       <r>  -14.4501    1.0000 </r>
       <r>  -14.4478    1.0000 </r>
       <r>   -9.7227    1.0000 </r>
       <r>   -9.6549    1.0000 </r>
       <r>   -9.5590    1.0000 </r>
       <r>   -2.9282    1.0000 </r>
       <r>    3.2502    1.0000 </r>
       <r>    3.6478    1.0000 </r>
       <r>    3.7040    1.0000 </r>
       <r>    4.5544    1.0000 </r>
       <r>    4.7902    1.0000 </r>
       <r>    5.0788    1.0000 </r>
       <r>    5.7729    1.0000 </r>
       <r>    6.6505    1.0000 </r>
       <r>    8.6592    0.0000 </r>
       <r>    9.6106    0.0000 </r>
       <r>   10.1760    0.0000 </r>
       <r>   10.3140    0.0000 </r>
       <r>   10.3387    0.0000 </r>
       <r>   10.5531    0.0000 </r>
      </set>
      <set comment="kpoint 43">
       <r>  -31.5719    1.0000 </r>
       <r>  -14.4949    1.0000 </r>
       <r>  -14.4862    1.0000 </r>
       <r>  -14.4530    1.0000 </r>
       <r>  -14.4512    1.0000 </r>
       <r>  -14.4483    1.0000 </r>
       <r>   -9.7206    1.0000 </r>
       <r>   -9.6574    1.0000 </r>
       <r>   -9.5448    1.0000 </r>
       <r>   -2.8825    1.0000 </r>
       <r>    3.0480    1.0000 </r>
       <r>    3.5716    1.0000 </r>
       <r>    3.7245    1.0000 </r>
       <r>    4.5329    1.0000 </r>
       <r>    4.8438    1.0000 </r>
       <r>    5.1953    1.0000 </r>
       <r>    5.7031    1.0000 </r>
       <r>    6.6373    1.0000 </r>
       <r>    8.8151    0.0000 </r>
       <r>    9.5533    0.0000 </r>
       <r>   10.0837    0.0000 </r>
       <r>   10.3398    0.0000 </r>
       <r>   10.3614    0.0000 </r>
       <r>   10.5493    0.0000 </r>
      </set>
      <set comment="kpoint 44">
       <r>  -31.5722    1.0000 </r>
       <r>  -14.4860    1.0000 </r>
       <r>  -14.4814    1.0000 </r>
       <r>  -14.4571    1.0000 </r>
       <r>  -14.4473    1.0000 </r>
       <r>  -14.4473    1.0000 </r>
       <r>   -9.7329    1.0000 </r>
       <r>   -9.5981    1.0000 </r>
       <r>   -9.5981    1.0000 </r>
       <r>   -3.1120    1.0000 </r>
       <r>    3.1031    1.0000 </r>
       <r>    4.1187    1.0000 </r>
       <r>    4.1249    1.0000 </r>
       <r>    4.1249    1.0000 </r>
       <r>    4.6680    1.0000 </r>
       <r>    5.1570    1.0000 </r>
       <r>    6.8081    1.0000 </r>
       <r>    6.8081    1.0000 </r>
       <r>    8.1376    1.0000 </r>
       <r>    9.6074    0.0000 </r>
       <r>   10.0836    0.0000 </r>
       <r>   10.1279    0.0000 </r>
       <r>   10.1279    0.0000 </r>
       <r>   10.3879    0.0000 </r>
      </set>
      <set comment="kpoint 45">
       <r>  -31.5717    1.0000 </r>
       <r>  -14.4836    1.0000 </r>
       <r>  -14.4820    1.0000 </r>
       <r>  -14.4573    1.0000 </r>
       <r>  -14.4472    1.0000 </r>
       <r>  -14.4470    1.0000 </r>
       <r>   -9.7422    1.0000 </r>
       <r>   -9.6059    1.0000 </r>
       <r>   -9.5973    1.0000 </r>
       <r>   -3.1081    1.0000 </r>
       <r>    3.3494    1.0000 </r>
       <r>    3.8966    1.0000 </r>
       <r>    4.0691    1.0000 </r>
       <r>    4.2907    1.0000 </r>
       <r>    4.6948    1.0000 </r>
       <r>    4.9578    1.0000 </r>
       <r>    6.6701    1.0000 </r>
       <r>    6.8424    1.0000 </r>
       <r>    8.2526    1.0000 </r>
       <r>    9.8156    0.0000 </r>
       <r>   10.1028    0.0000 </r>
       <r>   10.1681    0.0000 </r>
       <r>   10.1931    0.0000 </r>
       <r>   10.3232    0.0000 </r>
      </set>
      <set comment="kpoint 46">
       <r>  -31.5714    1.0000 </r>
       <r>  -14.4843    1.0000 </r>
       <r>  -14.4826    1.0000 </r>
       <r>  -14.4568    1.0000 </r>
       <r>  -14.4477    1.0000 </r>
       <r>  -14.4469    1.0000 </r>
       <r>   -9.7380    1.0000 </r>
       <r>   -9.6256    1.0000 </r>
       <r>   -9.5891    1.0000 </r>
       <r>   -3.0734    1.0000 </r>
       <r>    3.5374    1.0000 </r>
       <r>    3.7385    1.0000 </r>
       <r>    3.9648    1.0000 </r>
       <r>    4.4555    1.0000 </r>
       <r>    4.7325    1.0000 </r>
       <r>    4.8232    1.0000 </r>
       <r>    6.2995    1.0000 </r>
       <r>    6.7892    1.0000 </r>
       <r>    8.3669    1.0000 </r>
       <r>    9.8799    0.0000 </r>
       <r>   10.1718    0.0000 </r>
       <r>   10.2332    0.0000 </r>
       <r>   10.2546    0.0000 </r>
       <r>   10.5073    0.0000 </r>
      </set>
      <set comment="kpoint 47">
       <r>  -31.5714    1.0000 </r>
       <r>  -14.4878    1.0000 </r>
       <r>  -14.4833    1.0000 </r>
       <r>  -14.4556    1.0000 </r>
       <r>  -14.4488    1.0000 </r>
       <r>  -14.4472    1.0000 </r>
       <r>   -9.7221    1.0000 </r>
       <r>   -9.6523    1.0000 </r>
       <r>   -9.5752    1.0000 </r>
       <r>   -3.0100    1.0000 </r>
       <r>    3.5216    1.0000 </r>
       <r>    3.6405    1.0000 </r>
       <r>    3.8336    1.0000 </r>
       <r>    4.5278    1.0000 </r>
       <r>    4.7737    1.0000 </r>
       <r>    4.9256    1.0000 </r>
       <r>    5.9312    1.0000 </r>
       <r>    6.6983    1.0000 </r>
       <r>    8.5012    0.0278 </r>
       <r>    9.7500    0.0000 </r>
       <r>   10.1961    0.0000 </r>
       <r>   10.2589    0.0000 </r>
       <r>   10.3341    0.0000 </r>
       <r>   10.5576    0.0000 </r>
      </set>
      <set comment="kpoint 48">
       <r>  -31.5714    1.0000 </r>
       <r>  -14.4814    1.0000 </r>
       <r>  -14.4809    1.0000 </r>
       <r>  -14.4578    1.0000 </r>
       <r>  -14.4466    1.0000 </r>
       <r>  -14.4466    1.0000 </r>
       <r>   -9.7515    1.0000 </r>
       <r>   -9.6025    1.0000 </r>
       <r>   -9.6025    1.0000 </r>
       <r>   -3.1400    1.0000 </r>
       <r>    3.5850    1.0000 </r>
       <r>    4.0316    1.0000 </r>
       <r>    4.0819    1.0000 </r>
       <r>    4.0819    1.0000 </r>
       <r>    4.7067    1.0000 </r>
       <r>    4.7630    1.0000 </r>
       <r>    6.9219    1.0000 </r>
       <r>    6.9219    1.0000 </r>
       <r>    8.2202    1.0000 </r>
       <r>    9.8309    0.0000 </r>
       <r>   10.0160    0.0000 </r>
       <r>   10.1285    0.0000 </r>
       <r>   10.1777    0.0000 </r>
       <r>   10.1777    0.0000 </r>
      </set>
      <set comment="kpoint 49">
       <r>  -31.5713    1.0000 </r>
       <r>  -14.4817    1.0000 </r>
       <r>  -14.4810    1.0000 </r>
       <r>  -14.4576    1.0000 </r>
       <r>  -14.4468    1.0000 </r>
       <r>  -14.4466    1.0000 </r>
       <r>   -9.7498    1.0000 </r>
       <r>   -9.6098    1.0000 </r>
       <r>   -9.5995    1.0000 </r>
       <r>   -3.1281    1.0000 </r>
       <r>    3.6766    1.0000 </r>
       <r>    3.8670    1.0000 </r>
       <r>    4.0446    1.0000 </r>
       <r>    4.2644    1.0000 </r>
[...]
       <r>    8.9118    0.0000 </r>
       <r>    9.3714    0.0000 </r>
       <r>   10.1470    0.0000 </r>
       <r>   10.2530    0.0000 </r>
       <r>   10.3726    0.0000 </r>
       <r>   10.5319    0.0000 </r>
      </set>
      <set comment="kpoint 81">
       <r>  -31.5717    1.0000 </r>
       <r>  -14.4930    1.0000 </r>
       <r>  -14.4843    1.0000 </r>
       <r>  -14.4535    1.0000 </r>
       <r>  -14.4514    1.0000 </r>
       <r>  -14.4474    1.0000 </r>
       <r>   -9.7172    1.0000 </r>
       <r>   -9.6493    1.0000 </r>
       <r>   -9.5667    1.0000 </r>
       <r>   -2.9316    1.0000 </r>
       <r>    3.2013    1.0000 </r>
       <r>    3.5155    1.0000 </r>
       <r>    3.9293    1.0000 </r>
       <r>    4.5798    1.0000 </r>
       <r>    4.7712    1.0000 </r>
       <r>    5.1443    1.0000 </r>
       <r>    5.5148    1.0000 </r>
       <r>    6.8289    1.0000 </r>
       <r>    8.9300    0.0000 </r>
       <r>    9.3636    0.0000 </r>
       <r>   10.1276    0.0000 </r>
       <r>   10.2571    0.0000 </r>
       <r>   10.3843    0.0000 </r>
       <r>   10.5223    0.0000 </r>
      </set>
      <set comment="kpoint 82">
       <r>  -31.5713    1.0000 </r>
       <r>  -14.4881    1.0000 </r>
       <r>  -14.4813    1.0000 </r>
       <r>  -14.4558    1.0000 </r>
       <r>  -14.4493    1.0000 </r>
       <r>  -14.4466    1.0000 </r>
       <r>   -9.7248    1.0000 </r>
       <r>   -9.6300    1.0000 </r>
       <r>   -9.5971    1.0000 </r>
       <r>   -3.0340    1.0000 </r>
       <r>    3.5160    1.0000 </r>
       <r>    3.6173    1.0000 </r>
       <r>    4.0573    1.0000 </r>
       <r>    4.5151    1.0000 </r>
       <r>    4.7669    1.0000 </r>
       <r>    4.8552    1.0000 </r>
       <r>    5.7312    1.0000 </r>
       <r>    6.9795    1.0000 </r>
       <r>    8.6174    0.0000 </r>
       <r>    9.6924    0.0000 </r>
       <r>   10.0590    0.0000 </r>
       <r>   10.1731    0.0000 </r>
       <r>   10.3036    0.0000 </r>
       <r>   10.5358    0.0000 </r>
      </set>
      <set comment="kpoint 83">
       <r>  -31.5713    1.0000 </r>
       <r>  -14.4901    1.0000 </r>
       <r>  -14.4813    1.0000 </r>
       <r>  -14.4547    1.0000 </r>
       <r>  -14.4505    1.0000 </r>
       <r>  -14.4466    1.0000 </r>
       <r>   -9.7103    1.0000 </r>
       <r>   -9.6490    1.0000 </r>
       <r>   -9.5926    1.0000 </r>
       <r>   -3.0007    1.0000 </r>
       <r>    3.5013    1.0000 </r>
       <r>    3.5966    1.0000 </r>
       <r>    4.0165    1.0000 </r>
       <r>    4.5550    1.0000 </r>
       <r>    4.7955    1.0000 </r>
       <r>    4.9309    1.0000 </r>
       <r>    5.4363    1.0000 </r>
       <r>    6.9682    1.0000 </r>
       <r>    8.7913    0.0000 </r>
       <r>    9.5384    0.0000 </r>
       <r>   10.1079    0.0000 </r>
       <r>   10.1763    0.0000 </r>
       <r>   10.3440    0.0000 </r>
       <r>   10.5454    0.0000 </r>
      </set>
      <set comment="kpoint 84">
       <r>  -31.5713    1.0000 </r>
       <r>  -14.4913    1.0000 </r>
       <r>  -14.4813    1.0000 </r>
       <r>  -14.4537    1.0000 </r>
       <r>  -14.4516    1.0000 </r>
       <r>  -14.4466    1.0000 </r>
       <r>   -9.7032    1.0000 </r>
       <r>   -9.6535    1.0000 </r>
       <r>   -9.5937    1.0000 </r>
       <r>   -2.9833    1.0000 </r>
       <r>    3.4656    1.0000 </r>
       <r>    3.5685    1.0000 </r>
       <r>    4.0321    1.0000 </r>
       <r>    4.5767    1.0000 </r>
       <r>    4.8231    1.0000 </r>
       <r>    5.0167    1.0000 </r>
       <r>    5.2289    1.0000 </r>
       <r>    6.9907    1.0000 </r>
       <r>    9.0134    0.0000 </r>
       <r>    9.3299    0.0000 </r>
       <r>   10.0892    0.0000 </r>
       <r>   10.1735    0.0000 </r>
       <r>   10.3766    0.0000 </r>
       <r>   10.5188    0.0000 </r>
      </set>
     </set>
    </set>
   </array>
  </eigenvalues>
  <separator name="orbital magnetization" >
   <v name="MAGDIPOLOUT">      0.00000000      0.00000000      0.00000000</v>
  </separator>
  <dos>
   <i name="efermi">      8.48761878 </i>
   <total>
    <array>
     <dimension dim="1">gridpoints</dimension>
     <dimension dim="2">spin</dimension>
     <field>energy</field>
     <field>total</field>
     <field>integrated</field>
     <set>
      <set comment="spin 1">
       <r>   -33.6871     0.0000     0.0000 </r>
       <r>   -33.5324     0.0000     0.0000 </r>
       <r>   -33.3778     0.0000     0.0000 </r>
       <r>   -33.2231     0.0000     0.0000 </r>
       <r>   -33.0685     0.0000     0.0000 </r>
       <r>   -32.9138     0.0000     0.0000 </r>
       <r>   -32.7592     0.0000     0.0000 </r>
       <r>   -32.6045     0.0000     0.0000 </r>
       <r>   -32.4499     0.0000     0.0000 </r>
       <r>   -32.2952     0.0000     0.0000 </r>
       <r>   -32.1406     0.0000     0.0000 </r>
       <r>   -31.9859     0.0000     0.0000 </r>
       <r>   -31.8313     0.0000     0.0000 </r>
       <r>   -31.6766     0.0000     0.0000 </r>
       <r>   -31.5220    12.9326     2.0000 </r>
       <r>   -31.3673     0.0000     2.0000 </r>
       <r>   -31.2127     0.0000     2.0000 </r>
       <r>   -31.0580     0.0000     2.0000 </r>
       <r>   -30.9034     0.0000     2.0000 </r>
       <r>   -30.7487     0.0000     2.0000 </r>
       <r>   -30.5941     0.0000     2.0000 </r>
       <r>   -30.4394     0.0000     2.0000 </r>
       <r>   -30.2848     0.0000     2.0000 </r>
       <r>   -30.1301     0.0000     2.0000 </r>
       <r>   -29.9755     0.0000     2.0000 </r>
       <r>   -29.8209     0.0000     2.0000 </r>
       <r>   -29.6662     0.0000     2.0000 </r>
       <r>   -29.5116     0.0000     2.0000 </r>
       <r>   -29.3569     0.0000     2.0000 </r>
       <r>   -29.2023     0.0000     2.0000 </r>
       <r>   -29.0476     0.0000     2.0000 </r>
       <r>   -28.8930     0.0000     2.0000 </r>
       <r>   -28.7383     0.0000     2.0000 </r>
       <r>   -28.5837     0.0000     2.0000 </r>
       <r>   -28.4290     0.0000     2.0000 </r>
       <r>   -28.2744     0.0000     2.0000 </r>
       <r>   -28.1197     0.0000     2.0000 </r>
       <r>   -27.9651     0.0000     2.0000 </r>
       <r>   -27.8104     0.0000     2.0000 </r>
       <r>   -27.6558     0.0000     2.0000 </r>
       <r>   -27.5011     0.0000     2.0000 </r>
       <r>   -27.3465     0.0000     2.0000 </r>
       <r>   -27.1918     0.0000     2.0000 </r>
       <r>   -27.0372     0.0000     2.0000 </r>
       <r>   -26.8825     0.0000     2.0000 </r>
       <r>   -26.7279     0.0000     2.0000 </r>
       <r>   -26.5732     0.0000     2.0000 </r>
       <r>   -26.4186     0.0000     2.0000 </r>
       <r>   -26.2639     0.0000     2.0000 </r>
       <r>   -26.1093     0.0000     2.0000 </r>
       <r>   -25.9547     0.0000     2.0000 </r>
       <r>   -25.8000     0.0000     2.0000 </r>
       <r>   -25.6454     0.0000     2.0000 </r>
       <r>   -25.4907     0.0000     2.0000 </r>
       <r>   -25.3361     0.0000     2.0000 </r>
       <r>   -25.1814     0.0000     2.0000 </r>
       <r>   -25.0268     0.0000     2.0000 </r>
       <r>   -24.8721     0.0000     2.0000 </r>
       <r>   -24.7175     0.0000     2.0000 </r>
       <r>   -24.5628     0.0000     2.0000 </r>
       <r>   -24.4082     0.0000     2.0000 </r>
       <r>   -24.2535     0.0000     2.0000 </r>
       <r>   -24.0989     0.0000     2.0000 </r>
       <r>   -23.9442     0.0000     2.0000 </r>
       <r>   -23.7896     0.0000     2.0000 </r>
       <r>   -23.6349     0.0000     2.0000 </r>
       <r>   -23.4803     0.0000     2.0000 </r>
       <r>   -23.3256     0.0000     2.0000 </r>
       <r>   -23.1710     0.0000     2.0000 </r>
       <r>   -23.0163     0.0000     2.0000 </r>
       <r>   -22.8617     0.0000     2.0000 </r>
       <r>   -22.7070     0.0000     2.0000 </r>
       <r>   -22.5524     0.0000     2.0000 </r>
       <r>   -22.3977     0.0000     2.0000 </r>
       <r>   -22.2431     0.0000     2.0000 </r>
       <r>   -22.0885     0.0000     2.0000 </r>
       <r>   -21.9338     0.0000     2.0000 </r>
       <r>   -21.7792     0.0000     2.0000 </r>
       <r>   -21.6245     0.0000     2.0000 </r>
       <r>   -21.4699     0.0000     2.0000 </r>
       <r>   -21.3152     0.0000     2.0000 </r>
       <r>   -21.1606     0.0000     2.0000 </r>
       <r>   -21.0059     0.0000     2.0000 </r>
       <r>   -20.8513     0.0000     2.0000 </r>
       <r>   -20.6966     0.0000     2.0000 </r>
       <r>   -20.5420     0.0000     2.0000 </r>
       <r>   -20.3873     0.0000     2.0000 </r>
       <r>   -20.2327     0.0000     2.0000 </r>
       <r>   -20.0780     0.0000     2.0000 </r>
       <r>   -19.9234     0.0000     2.0000 </r>
       <r>   -19.7687     0.0000     2.0000 </r>
       <r>   -19.6141     0.0000     2.0000 </r>
       <r>   -19.4594     0.0000     2.0000 </r>
       <r>   -19.3048     0.0000     2.0000 </r>
       <r>   -19.1501     0.0000     2.0000 </r>
       <r>   -18.9955     0.0000     2.0000 </r>
       <r>   -18.8408     0.0000     2.0000 </r>
       <r>   -18.6862     0.0000     2.0000 </r>
       <r>   -18.5315     0.0000     2.0000 </r>
       <r>   -18.3769     0.0000     2.0000 </r>
       <r>   -18.2223     0.0000     2.0000 </r>
       <r>   -18.0676     0.0000     2.0000 </r>
       <r>   -17.9130     0.0000     2.0000 </r>
       <r>   -17.7583     0.0000     2.0000 </r>
       <r>   -17.6037     0.0000     2.0000 </r>
       <r>   -17.4490     0.0000     2.0000 </r>
       <r>   -17.2944     0.0000     2.0000 </r>
       <r>   -17.1397     0.0000     2.0000 </r>
       <r>   -16.9851     0.0000     2.0000 </r>
       <r>   -16.8304     0.0000     2.0000 </r>
       <r>   -16.6758     0.0000     2.0000 </r>
       <r>   -16.5211     0.0000     2.0000 </r>
       <r>   -16.3665     0.0000     2.0000 </r>
       <r>   -16.2118     0.0000     2.0000 </r>
       <r>   -16.0572     0.0000     2.0000 </r>
       <r>   -15.9025     0.0000     2.0000 </r>
       <r>   -15.7479     0.0000     2.0000 </r>
       <r>   -15.5932     0.0000     2.0000 </r>
       <r>   -15.4386     0.0000     2.0000 </r>
       <r>   -15.2839     0.0000     2.0000 </r>
       <r>   -15.1293     0.0000     2.0000 </r>
       <r>   -14.9746     0.0000     2.0000 </r>
       <r>   -14.8200     0.0000     2.0000 </r>
       <r>   -14.6653     0.0000     2.0000 </r>
       <r>   -14.5107     0.1547     2.0239 </r>
       <r>   -14.3561     0.0000    12.0000 </r>
       <r>   -14.2014     0.0000    12.0000 </r>
       <r>   -14.0468     0.0000    12.0000 </r>
       <r>   -13.8921     0.0000    12.0000 </r>
       <r>   -13.7375     0.0000    12.0000 </r>
       <r>   -13.5828     0.0000    12.0000 </r>
       <r>   -13.4282     0.0000    12.0000 </r>
       <r>   -13.2735     0.0000    12.0000 </r>
       <r>   -13.1189     0.0000    12.0000 </r>
       <r>   -12.9642     0.0000    12.0000 </r>
       <r>   -12.8096     0.0000    12.0000 </r>
       <r>   -12.6549     0.0000    12.0000 </r>
       <r>   -12.5003     0.0000    12.0000 </r>
       <r>   -12.3456     0.0000    12.0000 </r>
       <r>   -12.1910     0.0000    12.0000 </r>
       <r>   -12.0363     0.0000    12.0000 </r>
       <r>   -11.8817     0.0000    12.0000 </r>
       <r>   -11.7270     0.0000    12.0000 </r>
       <r>   -11.5724     0.0000    12.0000 </r>
       <r>   -11.4177     0.0000    12.0000 </r>
       <r>   -11.2631     0.0000    12.0000 </r>
       <r>   -11.1084     0.0000    12.0000 </r>
       <r>   -10.9538     0.0000    12.0000 </r>
       <r>   -10.7991     0.0000    12.0000 </r>
       <r>   -10.6445     0.0000    12.0000 </r>
       <r>   -10.4899     0.0000    12.0000 </r>
       <r>   -10.3352     0.0000    12.0000 </r>
       <r>   -10.1806     0.0000    12.0000 </r>
       <r>   -10.0259     0.0000    12.0000 </r>
       <r>    -9.8713     0.0000    12.0000 </r>
       <r>    -9.7166     9.0637    13.4527 </r>
       <r>    -9.5620    15.7995    16.6245 </r>
       <r>    -9.4073     0.0000    18.0000 </r>
       <r>    -9.2527     0.0000    18.0000 </r>
       <r>    -9.0980     0.0000    18.0000 </r>
       <r>    -8.9434     0.0000    18.0000 </r>
       <r>    -8.7887     0.0000    18.0000 </r>
       <r>    -8.6341     0.0000    18.0000 </r>
       <r>    -8.4794     0.0000    18.0000 </r>
       <r>    -8.3248     0.0000    18.0000 </r>
       <r>    -8.1701     0.0000    18.0000 </r>
       <r>    -8.0155     0.0000    18.0000 </r>
       <r>    -7.8608     0.0000    18.0000 </r>
       <r>    -7.7062     0.0000    18.0000 </r>
       <r>    -7.5515     0.0000    18.0000 </r>
       <r>    -7.3969     0.0000    18.0000 </r>
       <r>    -7.2422     0.0000    18.0000 </r>
       <r>    -7.0876     0.0000    18.0000 </r>
       <r>    -6.9329     0.0000    18.0000 </r>
       <r>    -6.7783     0.0000    18.0000 </r>
       <r>    -6.6236     0.0000    18.0000 </r>
       <r>    -6.4690     0.0000    18.0000 </r>
       <r>    -6.3144     0.0000    18.0000 </r>
       <r>    -6.1597     0.0000    18.0000 </r>
       <r>    -6.0051     0.0000    18.0000 </r>
       <r>    -5.8504     0.0000    18.0000 </r>
       <r>    -5.6958     0.0000    18.0000 </r>
       <r>    -5.5411     0.0000    18.0000 </r>
       <r>    -5.3865     0.0000    18.0000 </r>
       <r>    -5.2318     0.0000    18.0000 </r>
       <r>    -5.0772     0.0000    18.0000 </r>
       <r>    -4.9225     0.0000    18.0000 </r>
       <r>    -4.7679     0.0000    18.0000 </r>
       <r>    -4.6132     0.0000    18.0000 </r>
       <r>    -4.4586     0.0000    18.0000 </r>
       <r>    -4.3039     0.0000    18.0000 </r>
       <r>    -4.1493     0.0000    18.0000 </r>
       <r>    -3.9946     0.0000    18.0000 </r>
       <r>    -3.8400     0.0000    18.0000 </r>
       <r>    -3.6853     0.0525    18.0081 </r>
       <r>    -3.5307     0.2240    18.0483 </r>
       <r>    -3.3760     0.2826    18.1029 </r>
       <r>    -3.2214     0.1900    18.1760 </r>
       <r>    -3.0667     1.4353    18.5014 </r>
       <r>    -2.9121     3.1613    19.3819 </r>
       <r>    -2.7574     1.0341    19.9487 </r>
       <r>    -2.6028     0.0000    20.0000 </r>
       <r>    -2.4482     0.0000    20.0000 </r>
       <r>    -2.2935     0.0000    20.0000 </r>
       <r>    -2.1389     0.0000    20.0000 </r>
       <r>    -1.9842     0.0000    20.0000 </r>
       <r>    -1.8296     0.0000    20.0000 </r>
       <r>    -1.6749     0.0000    20.0000 </r>
       <r>    -1.5203     0.0000    20.0000 </r>
       <r>    -1.3656     0.0000    20.0000 </r>
       <r>    -1.2110     0.0000    20.0000 </r>
       <r>    -1.0563     0.0000    20.0000 </r>
       <r>    -0.9017     0.0000    20.0000 </r>
       <r>    -0.7470     0.0000    20.0000 </r>
       <r>    -0.5924     0.0000    20.0000 </r>
       <r>    -0.4377     0.0000    20.0000 </r>
       <r>    -0.2831     0.0000    20.0000 </r>
       <r>    -0.1284     0.0000    20.0000 </r>
       <r>     0.0262     0.0000    20.0000 </r>
       <r>     0.1809     0.0000    20.0000 </r>
       <r>     0.3355     0.0000    20.0000 </r>
       <r>     0.4902     0.0000    20.0000 </r>
       <r>     0.6448     0.0000    20.0000 </r>
       <r>     0.7995     0.0000    20.0000 </r>
       <r>     0.9541     0.0000    20.0000 </r>
       <r>     1.1088     0.0000    20.0000 </r>
       <r>     1.2634     0.0000    20.0000 </r>
       <r>     1.4180     0.0000    20.0000 </r>
       <r>     1.5727     0.0000    20.0000 </r>
       <r>     1.7273     0.0000    20.0000 </r>
       <r>     1.8820     0.0000    20.0000 </r>
       <r>     2.0366     0.0000    20.0000 </r>
       <r>     2.1913     0.0000    20.0000 </r>
       <r>     2.3459     0.0000    20.0000 </r>
       <r>     2.5006     0.0948    20.0147 </r>
       <r>     2.6552     0.4710    20.1238 </r>
       <r>     2.8099     2.3413    20.6170 </r>
       <r>     2.9645     1.3612    21.0553 </r>
       <r>     3.1192     1.4351    21.3580 </r>
       <r>     3.2738     0.7097    21.5353 </r>
       <r>     3.4285     0.5603    21.7435 </r>
       <r>     3.5831     4.4969    22.6690 </r>
       <r>     3.7378     2.9978    23.7171 </r>
       <r>     3.8924     3.3842    24.5507 </r>
       <r>     4.0471     2.7434    25.3291 </r>
       <r>     4.2017     1.2427    25.9273 </r>
       <r>     4.3564     0.3179    26.0710 </r>
       <r>     4.5110     3.6697    26.6895 </r>
       <r>     4.6657     4.7307    28.4867 </r>
       <r>     4.8203     4.9210    30.0364 </r>
       <r>     4.9750     1.9025    30.6092 </r>
       <r>     5.1296     1.9008    31.1952 </r>
       <r>     5.2842     1.1601    31.5777 </r>
       <r>     5.4389     1.0651    31.8215 </r>
       <r>     5.5935     0.8952    32.0301 </r>
       <r>     5.7482     0.8127    32.1921 </r>
       <r>     5.9028     0.1924    32.4695 </r>
       <r>     6.0575     0.7672    32.6949 </r>
       <r>     6.2121     0.8677    33.0491 </r>
       <r>     6.3668     0.5442    33.2412 </r>
       <r>     6.5214     0.8577    33.5737 </r>
       <r>     6.6761     0.7955    33.7389 </r>
       <r>     6.8307     5.1918    35.1079 </r>
       <r>     6.9854     1.3308    35.7925 </r>
       <r>     7.1400     0.0386    35.9313 </r>
       <r>     7.2947     0.0471    35.9800 </r>
       <r>     7.4493     0.0177    36.0009 </r>
       <r>     7.6040     0.0391    36.0070 </r>
       <r>     7.7586     0.0415    36.0146 </r>
       <r>     7.9133     0.0416    36.0292 </r>
       <r>     8.0679     0.0554    36.0550 </r>
       <r>     8.2226     0.5892    36.2705 </r>
       <r>     8.3772     1.3638    36.5723 </r>
       <r>     8.5319     1.6196    37.1144 </r>
       <r>     8.6865     1.5918    37.6235 </r>
       <r>     8.8412     1.5221    38.0196 </r>
       <r>     8.9958     0.5209    38.1598 </r>
       <r>     9.1504     0.2839    38.3070 </r>
       <r>     9.3051     0.7948    38.4625 </r>
       <r>     9.4597     0.9177    38.8147 </r>
       <r>     9.6144     2.7106    39.5180 </r>
       <r>     9.7690     2.6910    40.2459 </r>
       <r>     9.9237     1.5947    40.7646 </r>
       <r>    10.0783     2.8716    41.4427 </r>
       <r>    10.2330     4.1981    42.8877 </r>
       <r>    10.3876    10.6840    45.3619 </r>
       <r>    10.5423     4.9964    46.9020 </r>
       <r>    10.6969     0.0000    48.0000 </r>
       <r>    10.8516     0.0000    48.0000 </r>
       <r>    11.0062     0.0000    48.0000 </r>
       <r>    11.1609     0.0000    48.0000 </r>
       <r>    11.3155     0.0000    48.0000 </r>
       <r>    11.4702     0.0000    48.0000 </r>
       <r>    11.6248     0.0000    48.0000 </r>
       <r>    11.7795     0.0000    48.0000 </r>
       <r>    11.9341     0.0000    48.0000 </r>
       <r>    12.0888     0.0000    48.0000 </r>
       <r>    12.2434     0.0000    48.0000 </r>
       <r>    12.3981     0.0000    48.0000 </r>
       <r>    12.5527     0.0000    48.0000 </r>
       <r>    12.7074     0.0000    48.0000 </r>
      </set>
     </set>
    </array>
   </total>
  </dos>
 </calculation>
 <structure name="finalpos" >
  <crystal>
   <varray name="basis" >
    <v>       0.00000000       3.42485876       3.42485876 </v>
    <v>       3.42485876       0.00000000       3.42485876 </v>
    <v>       3.42485876       3.42485876       0.00000000 </v>
   </varray>
   <i name="volume">     80.34484054 </i>
   <varray name="rec_basis" >
    <v>      -0.14599142       0.14599142       0.14599142 </v>
    <v>       0.14599142      -0.14599142       0.14599142 </v>
    <v>       0.14599142       0.14599142      -0.14599142 </v>
   </varray>
  </crystal>
  <varray name="positions" >
   <v>       0.25000000       0.25000000       0.25000000 </v>
   <v>       0.00000000       0.00000000       0.00000000 </v>
   <v>       0.75000000       0.75000000       0.75000000 </v>
  </varray>
 </structure>
</modeling>
