unknown system
           1
     0.000000    3.424176    3.424176
     3.424176    0.000000    3.424176
     3.424176    3.424176    0.000000
   Bi   Pt   Th
   1   1   1
Direct configuration=     1
   0.25000000  0.25000000  0.25000000
   0.00000000  0.00000000  0.00000000
   0.75000000  0.75000000  0.75000000
unknown system
           1
     0.000000    3.424859    3.424859
     3.424859    0.000000    3.424859
     3.424859    3.424859    0.000000
   Bi   Pt   Th
   1   1   1
Direct configuration=     2
   0.25000000  0.25000000  0.25000000
   0.00000000  0.00000000  0.00000000
   0.75000000  0.75000000  0.75000000
