   2   2   1   0
  0.9686426E+01  0.3014645E-09  0.3014645E-09  0.3014645E-09  0.0000000E+00
   1.0000000000000000E-004
  CAR 
 unknown system                          
     39.11643009    -16.13668411  301      5.33325253      1.00000000
    -16.137  0.0000E+00  0.0000E+00  0.0000E+00  0.0000E+00
    -15.953  0.0000E+00  0.0000E+00  0.0000E+00  0.0000E+00
    -15.768  0.0000E+00  0.0000E+00  0.0000E+00  0.0000E+00
    -15.584  0.0000E+00  0.0000E+00  0.0000E+00  0.0000E+00
    -15.400  0.0000E+00  0.0000E+00  0.0000E+00  0.0000E+00
    -15.216  0.0000E+00  0.0000E+00  0.0000E+00  0.0000E+00
    -15.032  0.0000E+00  0.0000E+00  0.0000E+00  0.0000E+00
    -14.847  0.0000E+00  0.0000E+00  0.0000E+00  0.0000E+00
    -14.663  0.0000E+00  0.0000E+00  0.0000E+00  0.0000E+00
    -14.479  0.0000E+00  0.0000E+00  0.0000E+00  0.0000E+00
    -14.295  0.0000E+00  0.0000E+00  0.0000E+00  0.0000E+00
    -14.111  0.0000E+00  0.0000E+00  0.0000E+00  0.0000E+00
    -13.927  0.0000E+00  0.0000E+00  0.0000E+00  0.0000E+00
    -13.742  0.0000E+00  0.0000E+00  0.0000E+00  0.0000E+00
    -13.558  0.6506E-01  0.6516E-01  0.2311E-02  0.2318E-02
    -13.374  0.1866E+00  0.1867E+00  0.2204E-01  0.2206E-01
    -13.190  0.2371E+00  0.2371E+00  0.5618E-01  0.5621E-01
    -13.006  0.3367E+00  0.3367E+00  0.1066E+00  0.1066E+00
    -12.821  0.4873E+00  0.4876E+00  0.1797E+00  0.1797E+00
    -12.637  0.8163E+00  0.8167E+00  0.2918E+00  0.2919E+00
    -12.453  0.2207E+01  0.2209E+01  0.5051E+00  0.5054E+00
    -12.269  0.2201E+01  0.2201E+01  0.1000E+01  0.1000E+01
    -12.085  0.0000E+00  0.0000E+00  0.1000E+01  0.1000E+01
    -11.901  0.0000E+00  0.0000E+00  0.1000E+01  0.1000E+01
    -11.716  0.0000E+00  0.0000E+00  0.1000E+01  0.1000E+01
    -11.532  0.0000E+00  0.0000E+00  0.1000E+01  0.1000E+01
    -11.348  0.0000E+00  0.0000E+00  0.1000E+01  0.1000E+01
    -11.164  0.0000E+00  0.0000E+00  0.1000E+01  0.1000E+01
    -10.980  0.0000E+00  0.0000E+00  0.1000E+01  0.1000E+01
    -10.796  0.0000E+00  0.0000E+00  0.1000E+01  0.1000E+01
    -10.611  0.0000E+00  0.0000E+00  0.1000E+01  0.1000E+01
    -10.427  0.0000E+00  0.0000E+00  0.1000E+01  0.1000E+01
    -10.243  0.0000E+00  0.0000E+00  0.1000E+01  0.1000E+01
    -10.059  0.0000E+00  0.0000E+00  0.1000E+01  0.1000E+01
     -9.875  0.0000E+00  0.0000E+00  0.1000E+01  0.1000E+01
     -9.690  0.0000E+00  0.0000E+00  0.1000E+01  0.1000E+01
     -9.506  0.0000E+00  0.0000E+00  0.1000E+01  0.1000E+01
     -9.322  0.0000E+00  0.0000E+00  0.1000E+01  0.1000E+01
     -9.138  0.0000E+00  0.0000E+00  0.1000E+01  0.1000E+01
     -8.954  0.0000E+00  0.0000E+00  0.1000E+01  0.1000E+01
     -8.770  0.0000E+00  0.0000E+00  0.1000E+01  0.1000E+01
     -8.585  0.0000E+00  0.0000E+00  0.1000E+01  0.1000E+01
     -8.401  0.0000E+00  0.0000E+00  0.1000E+01  0.1000E+01
     -8.217  0.0000E+00  0.0000E+00  0.1000E+01  0.1000E+01
     -8.033  0.0000E+00  0.0000E+00  0.1000E+01  0.1000E+01
     -7.849  0.0000E+00  0.0000E+00  0.1000E+01  0.1000E+01
     -7.665  0.0000E+00  0.0000E+00  0.1000E+01  0.1000E+01
     -7.480  0.0000E+00  0.0000E+00  0.1000E+01  0.1000E+01
     -7.296  0.0000E+00  0.0000E+00  0.1000E+01  0.1000E+01
     -7.112  0.0000E+00  0.0000E+00  0.1000E+01  0.1000E+01
     -6.928  0.0000E+00  0.0000E+00  0.1000E+01  0.1000E+01
     -6.744  0.0000E+00  0.0000E+00  0.1000E+01  0.1000E+01
     -6.559  0.0000E+00  0.0000E+00  0.1000E+01  0.1000E+01
     -6.375  0.0000E+00  0.0000E+00  0.1000E+01  0.1000E+01
     -6.191  0.0000E+00  0.0000E+00  0.1000E+01  0.1000E+01
     -6.007  0.0000E+00  0.0000E+00  0.1000E+01  0.1000E+01
     -5.823  0.0000E+00  0.0000E+00  0.1000E+01  0.1000E+01
     -5.639  0.0000E+00  0.0000E+00  0.1000E+01  0.1000E+01
     -5.454  0.0000E+00  0.0000E+00  0.1000E+01  0.1000E+01
     -5.270  0.0000E+00  0.0000E+00  0.1000E+01  0.1000E+01
     -5.086  0.0000E+00  0.0000E+00  0.1000E+01  0.1000E+01
     -4.902  0.0000E+00  0.0000E+00  0.1000E+01  0.1000E+01
     -4.718  0.0000E+00  0.0000E+00  0.1000E+01  0.1000E+01
     -4.534  0.0000E+00  0.0000E+00  0.1000E+01  0.1000E+01
     -4.349  0.0000E+00  0.0000E+00  0.1000E+01  0.1000E+01
     -4.165  0.0000E+00  0.0000E+00  0.1000E+01  0.1000E+01
     -3.981  0.0000E+00  0.0000E+00  0.1000E+01  0.1000E+01
     -3.797  0.0000E+00  0.0000E+00  0.1000E+01  0.1000E+01
     -3.613  0.0000E+00  0.0000E+00  0.1000E+01  0.1000E+01
     -3.428  0.0000E+00  0.0000E+00  0.1000E+01  0.1000E+01
     -3.244  0.0000E+00  0.0000E+00  0.1000E+01  0.1000E+01
     -3.060  0.0000E+00  0.0000E+00  0.1000E+01  0.1000E+01
     -2.876  0.0000E+00  0.0000E+00  0.1000E+01  0.1000E+01
     -2.692  0.0000E+00  0.0000E+00  0.1000E+01  0.1000E+01
     -2.508  0.0000E+00  0.0000E+00  0.1000E+01  0.1000E+01
     -2.323  0.0000E+00  0.0000E+00  0.1000E+01  0.1000E+01
     -2.139  0.0000E+00  0.0000E+00  0.1000E+01  0.1000E+01
     -1.955  0.0000E+00  0.0000E+00  0.1000E+01  0.1000E+01
     -1.771  0.0000E+00  0.0000E+00  0.1000E+01  0.1000E+01
     -1.587  0.3858E-01  0.3871E-01  0.1001E+01  0.1001E+01
     -1.403  0.1838E+00  0.1839E+00  0.1021E+01  0.1021E+01
     -1.218  0.2426E+00  0.2427E+00  0.1058E+01  0.1058E+01
     -1.034  0.3447E+00  0.3447E+00  0.1111E+01  0.1111E+01
     -0.850  0.5012E+00  0.5014E+00  0.1187E+01  0.1187E+01
     -0.666  0.8269E+00  0.8273E+00  0.1311E+01  0.1311E+01
     -0.482  0.1110E+01  0.1110E+01  0.1471E+01  0.1471E+01
     -0.297  0.1047E+01  0.1047E+01  0.1664E+01  0.1664E+01
     -0.113  0.7454E+00  0.7453E+00  0.1813E+01  0.1813E+01
      0.071  0.2730E+00  0.2729E+00  0.1888E+01  0.1888E+01
      0.255  0.4623E+00  0.4627E+00  0.1936E+01  0.1936E+01
      0.439  0.1612E+01  0.1614E+01  0.2103E+01  0.2104E+01
      0.623  0.2366E+01  0.2375E+01  0.2416E+01  0.2417E+01
      0.808  0.2976E+01  0.2937E+01  0.2880E+01  0.2880E+01
      0.992  0.1450E+01  0.1449E+01  0.3193E+01  0.3193E+01
      1.176  0.1105E+01  0.1104E+01  0.3419E+01  0.3419E+01
      1.360  0.8797E+00  0.8794E+00  0.3602E+01  0.3602E+01
      1.544  0.7301E+00  0.7299E+00  0.3747E+01  0.3747E+01
      1.728  0.5243E+00  0.5241E+00  0.3863E+01  0.3863E+01
      1.913  0.3188E+00  0.3186E+00  0.3942E+01  0.3942E+01
      2.097  0.2238E+00  0.2238E+00  0.3987E+01  0.3987E+01
      2.281  0.8766E+00  0.8748E+00  0.4054E+01  0.4054E+01
      2.465  0.1399E+01  0.1400E+01  0.4223E+01  0.4223E+01
      2.649  0.1968E+01  0.1969E+01  0.4484E+01  0.4484E+01
      2.834  0.5312E+01  0.5317E+01  0.4939E+01  0.4939E+01
      3.018  0.7610E+01  0.7639E+01  0.5801E+01  0.5802E+01
      3.202  0.2103E+01  0.2086E+01  0.6101E+01  0.6101E+01
      3.386  0.6054E+01  0.6061E+01  0.6603E+01  0.6604E+01
      3.570  0.1799E+01  0.1800E+01  0.6983E+01  0.6984E+01
      3.754  0.9396E+00  0.9406E+00  0.7148E+01  0.7149E+01
      3.939  0.1286E+01  0.1287E+01  0.7348E+01  0.7348E+01
      4.123  0.8622E+00  0.8616E+00  0.7542E+01  0.7543E+01
      4.307  0.7870E+00  0.7870E+00  0.7691E+01  0.7691E+01
      4.491  0.7749E+00  0.7748E+00  0.7835E+01  0.7836E+01
      4.675  0.8476E+00  0.8478E+00  0.7981E+01  0.7981E+01
      4.859  0.8183E+00  0.8181E+00  0.8134E+01  0.8134E+01
      5.044  0.7809E+00  0.7809E+00  0.8280E+01  0.8280E+01
      5.228  0.7508E+00  0.7508E+00  0.8420E+01  0.8421E+01
      5.412  0.7476E+00  0.7475E+00  0.8559E+01  0.8560E+01
      5.596  0.7278E+00  0.7279E+00  0.8694E+01  0.8695E+01
      5.780  0.7199E+00  0.7198E+00  0.8832E+01  0.8833E+01
      5.965  0.7151E+00  0.7137E+00  0.8969E+01  0.8970E+01
      6.149  0.1490E-01  0.1490E-01  0.9000E+01  0.9000E+01
      6.333  0.0000E+00  0.0000E+00  0.9000E+01  0.9000E+01
      6.517  0.0000E+00  0.0000E+00  0.9000E+01  0.9000E+01
      6.701  0.0000E+00  0.0000E+00  0.9000E+01  0.9000E+01
      6.885  0.0000E+00  0.0000E+00  0.9000E+01  0.9000E+01
      7.070  0.0000E+00  0.0000E+00  0.9000E+01  0.9000E+01
      7.254  0.0000E+00  0.0000E+00  0.9000E+01  0.9000E+01
      7.438  0.2945E-02  0.2948E-02  0.9000E+01  0.9000E+01
      7.622  0.6695E-02  0.6696E-02  0.9001E+01  0.9001E+01
      7.806  0.9617E-02  0.9618E-02  0.9003E+01  0.9003E+01
      7.991  0.1270E-01  0.1271E-01  0.9005E+01  0.9005E+01
      8.175  0.1540E-01  0.1541E-01  0.9007E+01  0.9007E+01
      8.359  0.1846E-01  0.1846E-01  0.9010E+01  0.9010E+01
      8.543  0.2171E-01  0.2171E-01  0.9014E+01  0.9014E+01
      8.727  0.2527E-01  0.2527E-01  0.9018E+01  0.9018E+01
      8.911  0.2903E-01  0.2904E-01  0.9023E+01  0.9023E+01
      9.096  0.3297E-01  0.3297E-01  0.9029E+01  0.9029E+01
      9.280  0.3743E-01  0.3743E-01  0.9036E+01  0.9036E+01
      9.464  0.4237E-01  0.4237E-01  0.9043E+01  0.9043E+01
      9.648  0.4763E-01  0.4764E-01  0.9051E+01  0.9051E+01
      9.832  0.5320E-01  0.5320E-01  0.9061E+01  0.9061E+01
     10.016  0.5969E-01  0.5970E-01  0.9071E+01  0.9071E+01
     10.201  0.6694E-01  0.6694E-01  0.9083E+01  0.9083E+01
     10.385  0.7489E-01  0.7489E-01  0.9096E+01  0.9096E+01
     10.569  0.8355E-01  0.8356E-01  0.9110E+01  0.9110E+01
     10.753  0.9393E-01  0.9393E-01  0.9126E+01  0.9127E+01
     10.937  0.1061E+00  0.1061E+00  0.9145E+01  0.9145E+01
     11.122  0.1203E+00  0.1203E+00  0.9166E+01  0.9166E+01
     11.306  0.1374E+00  0.1374E+00  0.9189E+01  0.9189E+01
     11.490  0.1617E+00  0.1617E+00  0.9217E+01  0.9217E+01
     11.674  0.2311E+00  0.2311E+00  0.9251E+01  0.9251E+01
     11.858  0.3268E+00  0.3268E+00  0.9302E+01  0.9302E+01
     12.042  0.3515E+00  0.3515E+00  0.9366E+01  0.9366E+01
     12.227  0.3325E+00  0.3325E+00  0.9429E+01  0.9429E+01
     12.411  0.3337E+00  0.3337E+00  0.9490E+01  0.9490E+01
     12.595  0.3206E+00  0.3205E+00  0.9550E+01  0.9550E+01
     12.779  0.3109E+00  0.3109E+00  0.9608E+01  0.9608E+01
     12.963  0.2992E+00  0.2992E+00  0.9665E+01  0.9665E+01
     13.147  0.2895E+00  0.2895E+00  0.9719E+01  0.9719E+01
     13.332  0.2803E+00  0.2803E+00  0.9771E+01  0.9771E+01
     13.516  0.2694E+00  0.2694E+00  0.9822E+01  0.9822E+01
     13.700  0.2794E+00  0.2794E+00  0.9872E+01  0.9872E+01
     13.884  0.2939E+00  0.2938E+00  0.9927E+01  0.9927E+01
     14.068  0.3051E+00  0.3052E+00  0.9979E+01  0.9979E+01
     14.253  0.1862E-01  0.1862E-01  0.1000E+02  0.1000E+02
     14.437  0.0000E+00  0.0000E+00  0.1000E+02  0.1000E+02
     14.621  0.1306E+00  0.1310E+00  0.1000E+02  0.1000E+02
     14.805  0.3010E+00  0.3010E+00  0.1005E+02  0.1005E+02
     14.989  0.3525E+00  0.3526E+00  0.1011E+02  0.1011E+02
     15.173  0.4120E+00  0.4120E+00  0.1018E+02  0.1018E+02
     15.358  0.3945E+00  0.3945E+00  0.1026E+02  0.1026E+02
     15.542  0.3516E+00  0.3516E+00  0.1032E+02  0.1032E+02
     15.726  0.3781E+00  0.3781E+00  0.1039E+02  0.1039E+02
     15.910  0.3783E+00  0.3783E+00  0.1046E+02  0.1046E+02
     16.094  0.4891E+00  0.4891E+00  0.1054E+02  0.1054E+02
     16.278  0.7914E+00  0.7908E+00  0.1065E+02  0.1065E+02
     16.463  0.8341E+00  0.8342E+00  0.1077E+02  0.1077E+02
     16.647  0.6093E+00  0.6093E+00  0.1088E+02  0.1088E+02
     16.831  0.5860E+00  0.5859E+00  0.1099E+02  0.1099E+02
     17.015  0.5532E+00  0.5532E+00  0.1109E+02  0.1109E+02
     17.199  0.5178E+00  0.5177E+00  0.1119E+02  0.1119E+02
     17.384  0.4880E+00  0.4880E+00  0.1128E+02  0.1128E+02
     17.568  0.3940E+00  0.3940E+00  0.1136E+02  0.1136E+02
     17.752  0.3404E+00  0.3404E+00  0.1143E+02  0.1143E+02
     17.936  0.2998E+00  0.2998E+00  0.1149E+02  0.1149E+02
     18.120  0.2675E+00  0.2675E+00  0.1154E+02  0.1154E+02
     18.304  0.2402E+00  0.2402E+00  0.1159E+02  0.1159E+02
     18.489  0.2213E+00  0.2213E+00  0.1163E+02  0.1163E+02
     18.673  0.2043E+00  0.2043E+00  0.1167E+02  0.1167E+02
     18.857  0.1830E+00  0.1830E+00  0.1171E+02  0.1171E+02
     19.041  0.1874E+00  0.1874E+00  0.1174E+02  0.1174E+02
     19.225  0.1882E+00  0.1882E+00  0.1177E+02  0.1177E+02
     19.409  0.2019E+00  0.2019E+00  0.1181E+02  0.1181E+02
     19.594  0.1960E+00  0.1960E+00  0.1185E+02  0.1185E+02
     19.778  0.2806E+00  0.2806E+00  0.1189E+02  0.1189E+02
     19.962  0.3822E+00  0.3822E+00  0.1195E+02  0.1195E+02
     20.146  0.5720E+00  0.5721E+00  0.1203E+02  0.1203E+02
     20.330  0.6895E+00  0.6895E+00  0.1216E+02  0.1216E+02
     20.515  0.6827E+00  0.6827E+00  0.1229E+02  0.1229E+02
     20.699  0.6085E+00  0.6085E+00  0.1241E+02  0.1241E+02
     20.883  0.4844E+00  0.4844E+00  0.1250E+02  0.1250E+02
     21.067  0.4231E+00  0.4231E+00  0.1259E+02  0.1259E+02
     21.251  0.3939E+00  0.3939E+00  0.1266E+02  0.1266E+02
     21.435  0.3562E+00  0.3562E+00  0.1273E+02  0.1273E+02
     21.620  0.3374E+00  0.3374E+00  0.1280E+02  0.1280E+02
     21.804  0.2500E+00  0.2500E+00  0.1285E+02  0.1285E+02
     21.988  0.2282E+00  0.2282E+00  0.1289E+02  0.1289E+02
     22.172  0.1863E+00  0.1863E+00  0.1293E+02  0.1293E+02
     22.356  0.1889E+00  0.1889E+00  0.1296E+02  0.1296E+02
     22.540  0.1934E+00  0.1934E+00  0.1300E+02  0.1300E+02
     22.725  0.1811E+00  0.1811E+00  0.1303E+02  0.1303E+02
     22.909  0.1748E+00  0.1748E+00  0.1307E+02  0.1307E+02
     23.093  0.1748E+00  0.1748E+00  0.1310E+02  0.1310E+02
     23.277  0.1819E+00  0.1819E+00  0.1313E+02  0.1313E+02
     23.461  0.1825E+00  0.1825E+00  0.1316E+02  0.1316E+02
     23.646  0.1868E+00  0.1868E+00  0.1320E+02  0.1320E+02
     23.830  0.1777E+00  0.1777E+00  0.1323E+02  0.1323E+02
     24.014  0.1625E+00  0.1625E+00  0.1326E+02  0.1326E+02
     24.198  0.1730E+00  0.1730E+00  0.1329E+02  0.1329E+02
     24.382  0.1845E+00  0.1845E+00  0.1333E+02  0.1333E+02
     24.566  0.1934E+00  0.1934E+00  0.1336E+02  0.1336E+02
     24.751  0.2026E+00  0.2026E+00  0.1340E+02  0.1340E+02
     24.935  0.2109E+00  0.2109E+00  0.1344E+02  0.1344E+02
     25.119  0.2225E+00  0.2225E+00  0.1348E+02  0.1348E+02
     25.303  0.2291E+00  0.2291E+00  0.1352E+02  0.1352E+02
     25.487  0.2238E+00  0.2237E+00  0.1356E+02  0.1356E+02
     25.672  0.2262E+00  0.2262E+00  0.1360E+02  0.1360E+02
     25.856  0.2455E+00  0.2455E+00  0.1365E+02  0.1365E+02
     26.040  0.2661E+00  0.2661E+00  0.1369E+02  0.1369E+02
     26.224  0.3022E+00  0.3022E+00  0.1374E+02  0.1374E+02
     26.408  0.3149E+00  0.3149E+00  0.1380E+02  0.1380E+02
     26.592  0.3203E+00  0.3203E+00  0.1386E+02  0.1386E+02
     26.777  0.2948E+00  0.2948E+00  0.1392E+02  0.1392E+02
     26.961  0.2544E+00  0.2544E+00  0.1397E+02  0.1397E+02
     27.145  0.2253E+00  0.2253E+00  0.1401E+02  0.1401E+02
     27.329  0.1877E+00  0.1877E+00  0.1405E+02  0.1405E+02
     27.513  0.2059E+00  0.2059E+00  0.1409E+02  0.1409E+02
     27.697  0.2102E+00  0.2102E+00  0.1413E+02  0.1413E+02
     27.882  0.2604E+00  0.2604E+00  0.1417E+02  0.1417E+02
     28.066  0.3152E+00  0.3152E+00  0.1422E+02  0.1422E+02
     28.250  0.3491E+00  0.3491E+00  0.1428E+02  0.1428E+02
     28.434  0.3830E+00  0.3830E+00  0.1435E+02  0.1435E+02
     28.618  0.3975E+00  0.3975E+00  0.1442E+02  0.1442E+02
     28.803  0.3941E+00  0.3941E+00  0.1450E+02  0.1450E+02
     28.987  0.3480E+00  0.3480E+00  0.1456E+02  0.1456E+02
     29.171  0.3661E+00  0.3661E+00  0.1463E+02  0.1463E+02
     29.355  0.3518E+00  0.3518E+00  0.1470E+02  0.1470E+02
     29.539  0.3324E+00  0.3324E+00  0.1476E+02  0.1476E+02
     29.723  0.3192E+00  0.3192E+00  0.1482E+02  0.1482E+02
     29.908  0.3256E+00  0.3256E+00  0.1488E+02  0.1488E+02
     30.092  0.3277E+00  0.3277E+00  0.1494E+02  0.1494E+02
     30.276  0.3176E+00  0.3176E+00  0.1500E+02  0.1500E+02
     30.460  0.2734E+00  0.2734E+00  0.1505E+02  0.1505E+02
     30.644  0.2573E+00  0.2572E+00  0.1510E+02  0.1510E+02
     30.828  0.2356E+00  0.2356E+00  0.1515E+02  0.1515E+02
     31.013  0.2246E+00  0.2246E+00  0.1519E+02  0.1519E+02
     31.197  0.2169E+00  0.2169E+00  0.1523E+02  0.1523E+02
     31.381  0.2096E+00  0.2096E+00  0.1527E+02  0.1527E+02
     31.565  0.2003E+00  0.2003E+00  0.1531E+02  0.1531E+02
     31.749  0.1915E+00  0.1915E+00  0.1534E+02  0.1534E+02
     31.934  0.1841E+00  0.1841E+00  0.1538E+02  0.1538E+02
     32.118  0.1743E+00  0.1743E+00  0.1541E+02  0.1541E+02
     32.302  0.1666E+00  0.1666E+00  0.1544E+02  0.1544E+02
     32.486  0.1619E+00  0.1619E+00  0.1547E+02  0.1547E+02
     32.670  0.1630E+00  0.1631E+00  0.1550E+02  0.1550E+02
     32.854  0.2107E+00  0.2107E+00  0.1554E+02  0.1554E+02
     33.039  0.2653E+00  0.2654E+00  0.1558E+02  0.1558E+02
     33.223  0.1525E+00  0.1524E+00  0.1562E+02  0.1562E+02
     33.407  0.1227E+00  0.1227E+00  0.1564E+02  0.1564E+02
     33.591  0.1532E+00  0.1534E+00  0.1567E+02  0.1567E+02
     33.775  0.4188E+00  0.4189E+00  0.1572E+02  0.1572E+02
     33.959  0.3386E+00  0.3386E+00  0.1579E+02  0.1579E+02
     34.144  0.2483E+00  0.2484E+00  0.1584E+02  0.1584E+02
     34.328  0.2112E+00  0.2112E+00  0.1588E+02  0.1588E+02
     34.512  0.2107E+00  0.2106E+00  0.1592E+02  0.1592E+02
     34.696  0.1976E+00  0.1976E+00  0.1596E+02  0.1596E+02
     34.880  0.7437E-01  0.7428E-01  0.1599E+02  0.1599E+02
     35.065  0.1861E-01  0.1868E-01  0.1599E+02  0.1599E+02
     35.249  0.8742E-02  0.8745E-02  0.1600E+02  0.1600E+02
     35.433  0.7118E-02  0.7118E-02  0.1600E+02  0.1600E+02
     35.617  0.5581E-02  0.5581E-02  0.1600E+02  0.1600E+02
     35.801  0.4026E-02  0.4025E-02  0.1600E+02  0.1600E+02
     35.985  0.2392E-02  0.2391E-02  0.1600E+02  0.1600E+02
     36.170  0.1181E-02  0.1180E-02  0.1600E+02  0.1600E+02
     36.354  0.3931E-03  0.3926E-03  0.1600E+02  0.1600E+02
     36.538  0.2796E-04  0.2777E-04  0.1600E+02  0.1600E+02
     36.722  0.0000E+00  0.0000E+00  0.1600E+02  0.1600E+02
     36.906  0.0000E+00  0.0000E+00  0.1600E+02  0.1600E+02
     37.090  0.0000E+00  0.0000E+00  0.1600E+02  0.1600E+02
     37.275  0.0000E+00  0.0000E+00  0.1600E+02  0.1600E+02
     37.459  0.0000E+00  0.0000E+00  0.1600E+02  0.1600E+02
     37.643  0.0000E+00  0.0000E+00  0.1600E+02  0.1600E+02
     37.827  0.0000E+00  0.0000E+00  0.1600E+02  0.1600E+02
     38.011  0.0000E+00  0.0000E+00  0.1600E+02  0.1600E+02
     38.196  0.0000E+00  0.0000E+00  0.1600E+02  0.1600E+02
     38.380  0.0000E+00  0.0000E+00  0.1600E+02  0.1600E+02
     38.564  0.0000E+00  0.0000E+00  0.1600E+02  0.1600E+02
     38.748  0.0000E+00  0.0000E+00  0.1600E+02  0.1600E+02
     38.932  0.0000E+00  0.0000E+00  0.1600E+02  0.1600E+02
     39.116  0.0000E+00  0.0000E+00  0.1600E+02  0.1600E+02
     39.11643009    -16.13668411  301      5.33325253      1.00000000
    -16.137  0.0000E+00  0.0000E+00  0.0000E+00  0.0000E+00  0.0000E+00  0.0000E+00  0.0000E+00  0.0000E+00  0.0000E+00  0.0000E+00  0.0000E+00  0.0000E+00  0.0000E+00  0.0000E+00  0.0000E+00  0.0000E+00  0.0000E+00  0.0000E+00
    -15.953  0.0000E+00  0.0000E+00  0.0000E+00  0.0000E+00  0.0000E+00  0.0000E+00  0.0000E+00  0.0000E+00  0.0000E+00  0.0000E+00  0.0000E+00  0.0000E+00  0.0000E+00  0.0000E+00  0.0000E+00  0.0000E+00  0.0000E+00  0.0000E+00
    -15.768  0.0000E+00  0.0000E+00  0.0000E+00  0.0000E+00  0.0000E+00  0.0000E+00  0.0000E+00  0.0000E+00  0.0000E+00  0.0000E+00  0.0000E+00  0.0000E+00  0.0000E+00  0.0000E+00  0.0000E+00  0.0000E+00  0.0000E+00  0.0000E+00
    -15.584  0.0000E+00  0.0000E+00  0.0000E+00  0.0000E+00  0.0000E+00  0.0000E+00  0.0000E+00  0.0000E+00  0.0000E+00  0.0000E+00  0.0000E+00  0.0000E+00  0.0000E+00  0.0000E+00  0.0000E+00  0.0000E+00  0.0000E+00  0.0000E+00
    -15.400  0.0000E+00  0.0000E+00  0.0000E+00  0.0000E+00  0.0000E+00  0.0000E+00  0.0000E+00  0.0000E+00  0.0000E+00  0.0000E+00  0.0000E+00  0.0000E+00  0.0000E+00  0.0000E+00  0.0000E+00  0.0000E+00  0.0000E+00  0.0000E+00
    -15.216  0.0000E+00  0.0000E+00  0.0000E+00  0.0000E+00  0.0000E+00  0.0000E+00  0.0000E+00  0.0000E+00  0.0000E+00  0.0000E+00  0.0000E+00  0.0000E+00  0.0000E+00  0.0000E+00  0.0000E+00  0.0000E+00  0.0000E+00  0.0000E+00
    -15.032  0.0000E+00  0.0000E+00  0.0000E+00  0.0000E+00  0.0000E+00  0.0000E+00  0.0000E+00  0.0000E+00  0.0000E+00  0.0000E+00  0.0000E+00  0.0000E+00  0.0000E+00  0.0000E+00  0.0000E+00  0.0000E+00  0.0000E+00  0.0000E+00
    -14.847  0.0000E+00  0.0000E+00  0.0000E+00  0.0000E+00  0.0000E+00  0.0000E+00  0.0000E+00  0.0000E+00  0.0000E+00  0.0000E+00  0.0000E+00  0.0000E+00  0.0000E+00  0.0000E+00  0.0000E+00  0.0000E+00  0.0000E+00  0.0000E+00
    -14.663  0.0000E+00  0.0000E+00  0.0000E+00  0.0000E+00  0.0000E+00  0.0000E+00  0.0000E+00  0.0000E+00  0.0000E+00  0.0000E+00  0.0000E+00  0.0000E+00  0.0000E+00  0.0000E+00  0.0000E+00  0.0000E+00  0.0000E+00  0.0000E+00
    -14.479  0.0000E+00  0.0000E+00  0.0000E+00  0.0000E+00  0.0000E+00  0.0000E+00  0.0000E+00  0.0000E+00  0.0000E+00  0.0000E+00  0.0000E+00  0.0000E+00  0.0000E+00  0.0000E+00  0.0000E+00  0.0000E+00  0.0000E+00  0.0000E+00
    -14.295  0.0000E+00  0.0000E+00  0.0000E+00  0.0000E+00  0.0000E+00  0.0000E+00  0.0000E+00  0.0000E+00  0.0000E+00  0.0000E+00  0.0000E+00  0.0000E+00  0.0000E+00  0.0000E+00  0.0000E+00  0.0000E+00  0.0000E+00  0.0000E+00
    -14.111  0.0000E+00  0.0000E+00  0.0000E+00  0.0000E+00  0.0000E+00  0.0000E+00  0.0000E+00  0.0000E+00  0.0000E+00  0.0000E+00  0.0000E+00  0.0000E+00  0.0000E+00  0.0000E+00  0.0000E+00  0.0000E+00  0.0000E+00  0.0000E+00
    -13.927  0.0000E+00  0.0000E+00  0.0000E+00  0.0000E+00  0.0000E+00  0.0000E+00  0.0000E+00  0.0000E+00  0.0000E+00  0.0000E+00  0.0000E+00  0.0000E+00  0.0000E+00  0.0000E+00  0.0000E+00  0.0000E+00  0.0000E+00  0.0000E+00
    -13.742  0.0000E+00  0.0000E+00  0.0000E+00  0.0000E+00  0.0000E+00  0.0000E+00  0.0000E+00  0.0000E+00  0.0000E+00  0.0000E+00  0.0000E+00  0.0000E+00  0.0000E+00  0.0000E+00  0.0000E+00  0.0000E+00  0.0000E+00  0.0000E+00
    -13.558  0.4970E-02  0.4976E-02  0.4623E-04  0.4635E-04  0.4623E-04  0.4635E-04  0.4623E-04  0.4635E-04  0.1492E-07  0.1497E-07  0.1492E-07  0.1497E-07  0.1211E-05  0.1216E-05  0.1492E-07  0.1497E-07  0.1211E-05  0.1216E-05
    -13.374  0.1234E-01  0.1234E-01  0.4294E-03  0.4297E-03  0.4294E-03  0.4297E-03  0.4294E-03  0.4297E-03  0.3889E-06  0.3893E-06  0.3889E-06  0.3893E-06  0.3477E-04  0.3481E-04  0.3889E-06  0.3893E-06  0.3477E-04  0.3481E-04
    -13.190  0.1276E-01  0.1276E-01  0.9482E-03  0.9487E-03  0.9482E-03  0.9487E-03  0.9482E-03  0.9487E-03  0.1289E-05  0.1289E-05  0.1289E-05  0.1289E-05  0.1586E-03  0.1587E-03  0.1289E-05  0.1289E-05  0.1586E-03  0.1587E-03
    -13.006  0.1423E-01  0.1423E-01  0.1798E-02  0.1798E-02  0.1798E-02  0.1798E-02  0.1798E-02  0.1798E-02  0.2942E-05  0.2943E-05  0.2942E-05  0.2943E-05  0.4961E-03  0.4965E-03  0.2942E-05  0.2943E-05  0.4961E-03  0.4965E-03
    -12.821  0.1492E-01  0.1492E-01  0.3130E-02  0.3132E-02  0.3130E-02  0.3132E-02  0.3130E-02  0.3132E-02  0.5475E-05  0.5479E-05  0.5475E-05  0.5479E-05  0.1309E-02  0.1310E-02  0.5475E-05  0.5479E-05  0.1309E-02  0.1310E-02
    -12.637  0.1530E-01  0.1530E-01  0.5812E-02  0.5815E-02  0.5812E-02  0.5815E-02  0.5812E-02  0.5815E-02  0.9318E-05  0.9321E-05  0.9318E-05  0.9321E-05  0.3723E-02  0.3726E-02  0.9318E-05  0.9321E-05  0.3723E-02  0.3726E-02
    -12.453  0.1697E-01  0.1697E-01  0.1634E-01  0.1636E-01  0.1634E-01  0.1636E-01  0.1634E-01  0.1636E-01  0.1629E-04  0.1629E-04  0.1629E-04  0.1629E-04  0.1520E-01  0.1522E-01  0.1629E-04  0.1629E-04  0.1520E-01  0.1522E-01
    -12.269  0.5575E-02  0.5575E-02  0.1215E-01  0.1215E-01  0.1215E-01  0.1215E-01  0.1215E-01  0.1215E-01  0.8249E-05  0.8248E-05  0.8249E-05  0.8248E-05  0.2566E-01  0.2566E-01  0.8249E-05  0.8248E-05  0.2566E-01  0.2566E-01
    -12.085  0.0000E+00  0.0000E+00  0.0000E+00  0.0000E+00  0.0000E+00  0.0000E+00  0.0000E+00  0.0000E+00  0.0000E+00  0.0000E+00  0.0000E+00  0.0000E+00  0.0000E+00  0.0000E+00  0.0000E+00  0.0000E+00  0.0000E+00  0.0000E+00
    -11.901  0.0000E+00  0.0000E+00  0.0000E+00  0.0000E+00  0.0000E+00  0.0000E+00  0.0000E+00  0.0000E+00  0.0000E+00  0.0000E+00  0.0000E+00  0.0000E+00  0.0000E+00  0.0000E+00  0.0000E+00  0.0000E+00  0.0000E+00  0.0000E+00
    -11.716  0.0000E+00  0.0000E+00  0.0000E+00  0.0000E+00  0.0000E+00  0.0000E+00  0.0000E+00  0.0000E+00  0.0000E+00  0.0000E+00  0.0000E+00  0.0000E+00  0.0000E+00  0.0000E+00  0.0000E+00  0.0000E+00  0.0000E+00  0.0000E+00
    -11.532  0.0000E+00  0.0000E+00  0.0000E+00  0.0000E+00  0.0000E+00  0.0000E+00  0.0000E+00  0.0000E+00  0.0000E+00  0.0000E+00  0.0000E+00  0.0000E+00  0.0000E+00  0.0000E+00  0.0000E+00  0.0000E+00  0.0000E+00  0.0000E+00
    -11.348  0.0000E+00  0.0000E+00  0.0000E+00  0.0000E+00  0.0000E+00  0.0000E+00  0.0000E+00  0.0000E+00  0.0000E+00  0.0000E+00  0.0000E+00  0.0000E+00  0.0000E+00  0.0000E+00  0.0000E+00  0.0000E+00  0.0000E+00  0.0000E+00
    -11.164  0.0000E+00  0.0000E+00  0.0000E+00  0.0000E+00  0.0000E+00  0.0000E+00  0.0000E+00  0.0000E+00  0.0000E+00  0.0000E+00  0.0000E+00  0.0000E+00  0.0000E+00  0.0000E+00  0.0000E+00  0.0000E+00  0.0000E+00  0.0000E+00
    -10.980  0.0000E+00  0.0000E+00  0.0000E+00  0.0000E+00  0.0000E+00  0.0000E+00  0.0000E+00  0.0000E+00  0.0000E+00  0.0000E+00  0.0000E+00  0.0000E+00  0.0000E+00  0.0000E+00  0.0000E+00  0.0000E+00  0.0000E+00  0.0000E+00
    -10.796  0.0000E+00  0.0000E+00  0.0000E+00  0.0000E+00  0.0000E+00  0.0000E+00  0.0000E+00  0.0000E+00  0.0000E+00  0.0000E+00  0.0000E+00  0.0000E+00  0.0000E+00  0.0000E+00  0.0000E+00  0.0000E+00  0.0000E+00  0.0000E+00
    -10.611  0.0000E+00  0.0000E+00  0.0000E+00  0.0000E+00  0.0000E+00  0.0000E+00  0.0000E+00  0.0000E+00  0.0000E+00  0.0000E+00  0.0000E+00  0.0000E+00  0.0000E+00  0.0000E+00  0.0000E+00  0.0000E+00  0.0000E+00  0.0000E+00
    -10.427  0.0000E+00  0.0000E+00  0.0000E+00  0.0000E+00  0.0000E+00  0.0000E+00  0.0000E+00  0.0000E+00  0.0000E+00  0.0000E+00  0.0000E+00  0.0000E+00  0.0000E+00  0.0000E+00  0.0000E+00  0.0000E+00  0.0000E+00  0.0000E+00
    -10.243  0.0000E+00  0.0000E+00  0.0000E+00  0.0000E+00  0.0000E+00  0.0000E+00  0.0000E+00  0.0000E+00  0.0000E+00  0.0000E+00  0.0000E+00  0.0000E+00  0.0000E+00  0.0000E+00  0.0000E+00  0.0000E+00  0.0000E+00  0.0000E+00
    -10.059  0.0000E+00  0.0000E+00  0.0000E+00  0.0000E+00  0.0000E+00  0.0000E+00  0.0000E+00  0.0000E+00  0.0000E+00  0.0000E+00  0.0000E+00  0.0000E+00  0.0000E+00  0.0000E+00  0.0000E+00  0.0000E+00  0.0000E+00  0.0000E+00
     -9.875  0.0000E+00  0.0000E+00  0.0000E+00  0.0000E+00  0.0000E+00  0.0000E+00  0.0000E+00  0.0000E+00  0.0000E+00  0.0000E+00  0.0000E+00  0.0000E+00  0.0000E+00  0.0000E+00  0.0000E+00  0.0000E+00  0.0000E+00  0.0000E+00
     -9.690  0.0000E+00  0.0000E+00  0.0000E+00  0.0000E+00  0.0000E+00  0.0000E+00  0.0000E+00  0.0000E+00  0.0000E+00  0.0000E+00  0.0000E+00  0.0000E+00  0.0000E+00  0.0000E+00  0.0000E+00  0.0000E+00  0.0000E+00  0.0000E+00
     -9.506  0.0000E+00  0.0000E+00  0.0000E+00  0.0000E+00  0.0000E+00  0.0000E+00  0.0000E+00  0.0000E+00  0.0000E+00  0.0000E+00  0.0000E+00  0.0000E+00  0.0000E+00  0.0000E+00  0.0000E+00  0.0000E+00  0.0000E+00  0.0000E+00
     -9.322  0.0000E+00  0.0000E+00  0.0000E+00  0.0000E+00  0.0000E+00  0.0000E+00  0.0000E+00  0.0000E+00  0.0000E+00  0.0000E+00  0.0000E+00  0.0000E+00  0.0000E+00  0.0000E+00  0.0000E+00  0.0000E+00  0.0000E+00  0.0000E+00
     -9.138  0.0000E+00  0.0000E+00  0.0000E+00  0.0000E+00  0.0000E+00  0.0000E+00  0.0000E+00  0.0000E+00  0.0000E+00  0.0000E+00  0.0000E+00  0.0000E+00  0.0000E+00  0.0000E+00  0.0000E+00  0.0000E+00  0.0000E+00  0.0000E+00
     -8.954  0.0000E+00  0.0000E+00  0.0000E+00  0.0000E+00  0.0000E+00  0.0000E+00  0.0000E+00  0.0000E+00  0.0000E+00  0.0000E+00  0.0000E+00  0.0000E+00  0.0000E+00  0.0000E+00  0.0000E+00  0.0000E+00  0.0000E+00  0.0000E+00
     -8.770  0.0000E+00  0.0000E+00  0.0000E+00  0.0000E+00  0.0000E+00  0.0000E+00  0.0000E+00  0.0000E+00  0.0000E+00  0.0000E+00  0.0000E+00  0.0000E+00  0.0000E+00  0.0000E+00  0.0000E+00  0.0000E+00  0.0000E+00  0.0000E+00
     -8.585  0.0000E+00  0.0000E+00  0.0000E+00  0.0000E+00  0.0000E+00  0.0000E+00  0.0000E+00  0.0000E+00  0.0000E+00  0.0000E+00  0.0000E+00  0.0000E+00  0.0000E+00  0.0000E+00  0.0000E+00  0.0000E+00  0.0000E+00  0.0000E+00
     -8.401  0.0000E+00  0.0000E+00  0.0000E+00  0.0000E+00  0.0000E+00  0.0000E+00  0.0000E+00  0.0000E+00  0.0000E+00  0.0000E+00  0.0000E+00  0.0000E+00  0.0000E+00  0.0000E+00  0.0000E+00  0.0000E+00  0.0000E+00  0.0000E+00
     -8.217  0.0000E+00  0.0000E+00  0.0000E+00  0.0000E+00  0.0000E+00  0.0000E+00  0.0000E+00  0.0000E+00  0.0000E+00  0.0000E+00  0.0000E+00  0.0000E+00  0.0000E+00  0.0000E+00  0.0000E+00  0.0000E+00  0.0000E+00  0.0000E+00
     -8.033  0.0000E+00  0.0000E+00  0.0000E+00  0.0000E+00  0.0000E+00  0.0000E+00  0.0000E+00  0.0000E+00  0.0000E+00  0.0000E+00  0.0000E+00  0.0000E+00  0.0000E+00  0.0000E+00  0.0000E+00  0.0000E+00  0.0000E+00  0.0000E+00
     -7.849  0.0000E+00  0.0000E+00  0.0000E+00  0.0000E+00  0.0000E+00  0.0000E+00  0.0000E+00  0.0000E+00  0.0000E+00  0.0000E+00  0.0000E+00  0.0000E+00  0.0000E+00  0.0000E+00  0.0000E+00  0.0000E+00  0.0000E+00  0.0000E+00
     -7.665  0.0000E+00  0.0000E+00  0.0000E+00  0.0000E+00  0.0000E+00  0.0000E+00  0.0000E+00  0.0000E+00  0.0000E+00  0.0000E+00  0.0000E+00  0.0000E+00  0.0000E+00  0.0000E+00  0.0000E+00  0.0000E+00  0.0000E+00  0.0000E+00
     -7.480  0.0000E+00  0.0000E+00  0.0000E+00  0.0000E+00  0.0000E+00  0.0000E+00  0.0000E+00  0.0000E+00  0.0000E+00  0.0000E+00  0.0000E+00  0.0000E+00  0.0000E+00  0.0000E+00  0.0000E+00  0.0000E+00  0.0000E+00  0.0000E+00
     -7.296  0.0000E+00  0.0000E+00  0.0000E+00  0.0000E+00  0.0000E+00  0.0000E+00  0.0000E+00  0.0000E+00  0.0000E+00  0.0000E+00  0.0000E+00  0.0000E+00  0.0000E+00  0.0000E+00  0.0000E+00  0.0000E+00  0.0000E+00  0.0000E+00
     -7.112  0.0000E+00  0.0000E+00  0.0000E+00  0.0000E+00  0.0000E+00  0.0000E+00  0.0000E+00  0.0000E+00  0.0000E+00  0.0000E+00  0.0000E+00  0.0000E+00  0.0000E+00  0.0000E+00  0.0000E+00  0.0000E+00  0.0000E+00  0.0000E+00
     -6.928  0.0000E+00  0.0000E+00  0.0000E+00  0.0000E+00  0.0000E+00  0.0000E+00  0.0000E+00  0.0000E+00  0.0000E+00  0.0000E+00  0.0000E+00  0.0000E+00  0.0000E+00  0.0000E+00  0.0000E+00  0.0000E+00  0.0000E+00  0.0000E+00