   2   2   1   0
  0.9404297E+01  0.2985088E-09  0.2985088E-09  0.2985088E-09  0.1000000E-16
   1.0000000000000000E-004
  CAR 
 unknown system                          
    120.90646340    -19.99699784  301      5.80554919      1.00000000
    -19.997  0.0000E+00  0.0000E+00  0.0000E+00  0.0000E+00
    -19.527  0.0000E+00  0.0000E+00  0.0000E+00  0.0000E+00
    -19.058  0.0000E+00  0.0000E+00  0.0000E+00  0.0000E+00
    -18.588  0.0000E+00  0.0000E+00  0.0000E+00  0.0000E+00
    -18.118  0.0000E+00  0.0000E+00  0.0000E+00  0.0000E+00
    -17.649  0.0000E+00  0.0000E+00  0.0000E+00  0.0000E+00
    -17.179  0.0000E+00  0.0000E+00  0.0000E+00  0.0000E+00
    -16.709  0.0000E+00  0.0000E+00  0.0000E+00  0.0000E+00
    -16.240  0.0000E+00  0.0000E+00  0.0000E+00  0.0000E+00
    -15.770  0.0000E+00  0.0000E+00  0.0000E+00  0.0000E+00
    -15.300  0.0000E+00  0.0000E+00  0.0000E+00  0.0000E+00
    -14.831  0.0000E+00  0.0000E+00  0.0000E+00  0.0000E+00
    -14.361  0.0000E+00  0.0000E+00  0.0000E+00  0.0000E+00
    -13.891  0.0000E+00  0.0000E+00  0.0000E+00  0.0000E+00
    -13.422  0.4098E-03  0.0000E+00  0.1925E-03  0.0000E+00
    -12.952  0.2977E-02  0.9083E-04  0.1717E-02  0.4266E-04
    -12.482  0.7960E-02  0.2027E-02  0.5912E-02  0.1096E-02
    -12.012  0.1950E-01  0.4811E-02  0.1639E-01  0.3752E-02
    -11.543  0.0000E+00  0.2060E-01  0.1639E-01  0.1392E-01
    -11.073  0.0000E+00  0.0000E+00  0.1639E-01  0.1639E-01
    -10.603  0.0000E+00  0.0000E+00  0.1639E-01  0.1639E-01
    -10.134  0.0000E+00  0.0000E+00  0.1639E-01  0.1639E-01
     -9.664  0.0000E+00  0.0000E+00  0.1639E-01  0.1639E-01
     -9.194  0.0000E+00  0.0000E+00  0.1639E-01  0.1639E-01
     -8.725  0.0000E+00  0.0000E+00  0.1639E-01  0.1639E-01
     -8.255  0.0000E+00  0.0000E+00  0.1639E-01  0.1639E-01
     -7.785  0.0000E+00  0.0000E+00  0.1639E-01  0.1639E-01
     -7.316  0.0000E+00  0.0000E+00  0.1639E-01  0.1639E-01
     -6.846  0.0000E+00  0.0000E+00  0.1639E-01  0.1639E-01
     -6.376  0.0000E+00  0.0000E+00  0.1639E-01  0.1639E-01
     -5.907  0.0000E+00  0.0000E+00  0.1639E-01  0.1639E-01
     -5.437  0.0000E+00  0.0000E+00  0.1639E-01  0.1639E-01
     -4.967  0.0000E+00  0.0000E+00  0.1639E-01  0.1639E-01
     -4.498  0.0000E+00  0.0000E+00  0.1639E-01  0.1639E-01
     -4.028  0.0000E+00  0.0000E+00  0.1639E-01  0.1639E-01
     -3.558  0.0000E+00  0.0000E+00  0.1639E-01  0.1639E-01
     -3.089  0.0000E+00  0.0000E+00  0.1639E-01  0.1639E-01
     -2.619  0.0000E+00  0.0000E+00  0.1639E-01  0.1639E-01
     -2.149  0.0000E+00  0.0000E+00  0.1639E-01  0.1639E-01
     -1.680  0.2221E-05  0.0000E+00  0.1639E-01  0.1639E-01
     -1.210  0.2189E-02  0.1656E-03  0.1743E-01  0.1647E-01
     -0.740  0.7525E-02  0.2704E-02  0.2127E-01  0.1783E-01
     -0.271  0.1233E-01  0.6178E-02  0.2817E-01  0.2104E-01
      0.199  0.1631E-01  0.1129E-01  0.3631E-01  0.2707E-01
      0.669  0.2454E-01  0.6665E-02  0.5137E-01  0.3137E-01
      1.139  0.1384E-01  0.1167E-01  0.5950E-01  0.3733E-01
      1.608  0.8036E-02  0.2434E-01  0.6387E-01  0.5008E-01
      2.078  0.3513E-02  0.1690E-01  0.6591E-01  0.6047E-01
      2.548  0.3461E-01  0.8603E-02  0.8273E-01  0.6568E-01
      3.017  0.2511E-01  0.1602E-01  0.9922E-01  0.7375E-01
      3.487  0.3876E-01  0.4275E-01  0.1183E+00  0.9572E-01
      3.957  0.1355E-01  0.2704E-01  0.1255E+00  0.1109E+00
      4.426  0.1134E-01  0.7100E-02  0.1317E+00  0.1148E+00
      4.896  0.9901E-02  0.6382E-02  0.1375E+00  0.1179E+00
      5.366  0.1005E-01  0.1401E-01  0.1434E+00  0.1256E+00
      5.835  0.7116E-02  0.1018E-01  0.1475E+00  0.1315E+00
      6.305  0.0000E+00  0.1018E-01  0.1475E+00  0.1369E+00
      6.775  0.0000E+00  0.9805E-02  0.1475E+00  0.1421E+00
      7.244  0.0000E+00  0.8423E-02  0.1475E+00  0.1473E+00
      7.714  0.2262E-05  0.3246E-18  0.1475E+00  0.1475E+00
      8.184  0.8379E-04  0.8686E-05  0.1476E+00  0.1475E+00
      8.653  0.2632E-03  0.9215E-04  0.1477E+00  0.1476E+00
      9.123  0.3228E-03  0.1916E-03  0.1479E+00  0.1477E+00
      9.593  0.3796E-03  0.4280E-03  0.1480E+00  0.1479E+00
     10.062  0.7598E-03  0.2871E-03  0.1484E+00  0.1481E+00
     10.532  0.8420E-03  0.4089E-03  0.1489E+00  0.1484E+00
     11.002  0.7428E-03  0.8560E-03  0.1492E+00  0.1489E+00
     11.471  0.1634E-02  0.8305E-03  0.1501E+00  0.1494E+00
     11.941  0.2072E-02  0.1322E-02  0.1512E+00  0.1502E+00
     12.411  0.3540E-02  0.3199E-02  0.1531E+00  0.1518E+00
     12.880  0.5009E-02  0.4598E-02  0.1558E+00  0.1543E+00
     13.350  0.4620E-02  0.4504E-02  0.1584E+00  0.1567E+00
     13.820  0.3096E-02  0.4346E-02  0.1601E+00  0.1590E+00
     14.290  0.3124E-02  0.4506E-02  0.1621E+00  0.1614E+00
     14.759  0.3367E-02  0.3076E-02  0.1639E+00  0.1630E+00
     15.229  0.1903E-02  0.1433E-02  0.1648E+00  0.1639E+00
     15.699  0.4644E-02  0.3540E-02  0.1673E+00  0.1656E+00
     16.168  0.5438E-02  0.5419E-02  0.1704E+00  0.1682E+00
     16.638  0.5466E-02  0.5846E-02  0.1733E+00  0.1713E+00
     17.108  0.1073E-01  0.7513E-02  0.1786E+00  0.1752E+00
     17.577  0.8285E-02  0.9926E-02  0.1831E+00  0.1811E+00
     18.047  0.5843E-02  0.7865E-02  0.1865E+00  0.1856E+00
     18.517  0.3870E-02  0.4811E-02  0.1888E+00  0.1884E+00
     18.986  0.3910E-02  0.3504E-02  0.1908E+00  0.1904E+00
     19.456  0.2915E-02  0.2961E-02  0.1923E+00  0.1921E+00
     19.926  0.2657E-02  0.2088E-02  0.1936E+00  0.1933E+00
     20.395  0.2932E-02  0.3048E-02  0.1952E+00  0.1949E+00
     20.865  0.7910E-02  0.5435E-02  0.1995E+00  0.1976E+00
     21.335  0.8253E-02  0.8756E-02  0.2041E+00  0.2028E+00
     21.804  0.6040E-02  0.5869E-02  0.2074E+00  0.2063E+00
     22.274  0.4442E-02  0.5704E-02  0.2101E+00  0.2092E+00
     22.744  0.3690E-02  0.4036E-02  0.2122E+00  0.2113E+00
     23.213  0.2273E-02  0.2028E-02  0.2134E+00  0.2129E+00
     23.683  0.1997E-02  0.2928E-02  0.2149E+00  0.2145E+00
     24.153  0.2460E-02  0.2823E-02  0.2163E+00  0.2159E+00
     24.622  0.2775E-02  0.2076E-02  0.2177E+00  0.2172E+00
     25.092  0.2397E-02  0.2406E-02  0.2190E+00  0.2186E+00
     25.562  0.2962E-02  0.3209E-02  0.2207E+00  0.2202E+00
     26.031  0.2723E-02  0.2451E-02  0.2221E+00  0.2216E+00
     26.501  0.3217E-02  0.4046E-02  0.2239E+00  0.2237E+00
     26.971  0.4399E-02  0.3449E-02  0.2263E+00  0.2254E+00
     27.441  0.3065E-02  0.4225E-02  0.2283E+00  0.2277E+00
     27.910  0.4024E-02  0.3149E-02  0.2302E+00  0.2294E+00
     28.380  0.3314E-02  0.4154E-02  0.2323E+00  0.2317E+00
     28.850  0.4612E-02  0.3208E-02  0.2347E+00  0.2335E+00
     29.319  0.5232E-02  0.5303E-02  0.2374E+00  0.2362E+00
     29.789  0.5121E-02  0.3446E-02  0.2401E+00  0.2384E+00
     30.259  0.4864E-02  0.6192E-02  0.2428E+00  0.2418E+00
     30.728  0.3813E-02  0.4414E-02  0.2450E+00  0.2441E+00
     31.198  0.5143E-02  0.5331E-02  0.2479E+00  0.2469E+00
     31.668  0.3294E-02  0.3513E-02  0.2498E+00  0.2488E+00
     32.137  0.3616E-02  0.3092E-02  0.2516E+00  0.2506E+00
     32.607  0.3197E-02  0.2944E-02  0.2536E+00  0.2524E+00
     33.077  0.3057E-02  0.3637E-02  0.2552E+00  0.2543E+00
     33.546  0.3479E-02  0.2631E-02  0.2570E+00  0.2557E+00
     34.016  0.4950E-02  0.3861E-02  0.2596E+00  0.2577E+00
     34.486  0.7061E-02  0.4704E-02  0.2633E+00  0.2604E+00
     34.955  0.9425E-02  0.5850E-02  0.2683E+00  0.2634E+00
     35.425  0.1250E-01  0.1073E-01  0.2752E+00  0.2692E+00
     35.895  0.1128E-01  0.1127E-01  0.2813E+00  0.2756E+00
     36.364  0.1044E-01  0.1143E-01  0.2872E+00  0.2823E+00
     36.834  0.1814E-01  0.8961E-02  0.2968E+00  0.2873E+00
     37.304  0.8621E-02  0.1127E-01  0.3021E+00  0.2937E+00
     37.773  0.5229E-02  0.1294E-01  0.3049E+00  0.3018E+00
     38.243  0.3829E-02  0.6737E-02  0.3071E+00  0.3058E+00
     38.713  0.4472E-02  0.5313E-02  0.3099E+00  0.3087E+00
     39.182  0.3303E-02  0.4152E-02  0.3119E+00  0.3113E+00
     39.652  0.3354E-02  0.2573E-02  0.3136E+00  0.3128E+00
     40.122  0.2837E-02  0.2806E-02  0.3150E+00  0.3143E+00
     40.591  0.5266E-02  0.4366E-02  0.3181E+00  0.3166E+00
     41.061  0.5824E-02  0.5007E-02  0.3213E+00  0.3193E+00
     41.531  0.6534E-02  0.7389E-02  0.3252E+00  0.3231E+00
     42.001  0.5256E-02  0.6707E-02  0.3280E+00  0.3266E+00
     42.470  0.6683E-02  0.6343E-02  0.3318E+00  0.3298E+00
     42.940  0.4958E-02  0.4907E-02  0.3345E+00  0.3324E+00
     43.410  0.4432E-02  0.6110E-02  0.3370E+00  0.3355E+00
     43.879  0.5296E-02  0.4051E-02  0.3400E+00  0.3378E+00
     44.349  0.7293E-02  0.6127E-02  0.3437E+00  0.3412E+00
     44.819  0.7996E-02  0.4923E-02  0.3480E+00  0.3440E+00
     45.288  0.7060E-02  0.7792E-02  0.3518E+00  0.3487E+00
     45.758  0.7372E-02  0.8170E-02  0.3559E+00  0.3531E+00
     46.228  0.6007E-02  0.6119E-02  0.3593E+00  0.3568E+00
     46.697  0.8385E-02  0.8808E-02  0.3637E+00  0.3615E+00
     47.167  0.6324E-02  0.6881E-02  0.3670E+00  0.3652E+00
     47.637  0.5562E-02  0.7020E-02  0.3703E+00  0.3688E+00
     48.106  0.6124E-02  0.5477E-02  0.3736E+00  0.3720E+00
     48.576  0.6406E-02  0.6731E-02  0.3771E+00  0.3755E+00
     49.046  0.6638E-02  0.6662E-02  0.3810E+00  0.3795E+00
     49.515  0.9807E-02  0.8266E-02  0.3859E+00  0.3840E+00
     49.985  0.1033E-01  0.9122E-02  0.3912E+00  0.3891E+00
     50.455  0.5915E-02  0.8438E-02  0.3948E+00  0.3937E+00
     50.924  0.8514E-02  0.6834E-02  0.3994E+00  0.3972E+00
     51.394  0.6771E-02  0.9213E-02  0.4031E+00  0.4023E+00
     51.864  0.7280E-02  0.6778E-02  0.4070E+00  0.4057E+00
     52.333  0.7435E-02  0.8365E-02  0.4111E+00  0.4103E+00
     52.803  0.7109E-02  0.5657E-02  0.4147E+00  0.4136E+00
     53.273  0.7309E-02  0.7255E-02  0.4189E+00  0.4173E+00
     53.742  0.4509E-02  0.5973E-02  0.4216E+00  0.4207E+00
     54.212  0.5581E-02  0.6981E-02  0.4253E+00  0.4243E+00
     54.682  0.5018E-02  0.5287E-02  0.4279E+00  0.4270E+00
     55.152  0.5466E-02  0.5028E-02  0.4310E+00  0.4300E+00
     55.621  0.6867E-02  0.5508E-02  0.4347E+00  0.4331E+00
     56.091  0.4639E-02  0.4761E-02  0.4372E+00  0.4363E+00
     56.561  0.5362E-02  0.5041E-02  0.4402E+00  0.4390E+00
     57.030  0.6338E-02  0.5092E-02  0.4436E+00  0.4423E+00
     57.500  0.6062E-02  0.4844E-02  0.4467E+00  0.4453E+00
     57.970  0.6095E-02  0.4962E-02  0.4500E+00  0.4483E+00
     58.439  0.7809E-02  0.7011E-02  0.4543E+00  0.4519E+00
     58.909  0.6519E-02  0.8551E-02  0.4582E+00  0.4567E+00
     59.379  0.6301E-02  0.6859E-02  0.4618E+00  0.4605E+00
     59.848  0.5781E-02  0.6362E-02  0.4650E+00  0.4639E+00
     60.318  0.6002E-02  0.5627E-02  0.4682E+00  0.4667E+00
     60.788  0.9034E-02  0.7073E-02  0.4732E+00  0.4708E+00
     61.257  0.1059E-01  0.1009E-01  0.4786E+00  0.4764E+00
     61.727  0.8696E-02  0.9858E-02  0.4836E+00  0.4816E+00
     62.197  0.8340E-02  0.9314E-02  0.4881E+00  0.4865E+00
     62.666  0.7385E-02  0.6993E-02  0.4922E+00  0.4907E+00
     63.136  0.5346E-02  0.5798E-02  0.4952E+00  0.4938E+00
     63.606  0.9392E-02  0.8249E-02  0.5003E+00  0.4980E+00
     64.075  0.9248E-02  0.9566E-02  0.5053E+00  0.5031E+00
     64.545  0.1379E-01  0.1262E-01  0.5127E+00  0.5098E+00
     65.015  0.8575E-02  0.1034E-01  0.5175E+00  0.5155E+00
     65.484  0.6851E-02  0.7175E-02  0.5215E+00  0.5196E+00
     65.954  0.9211E-02  0.8694E-02  0.5266E+00  0.5244E+00
     66.424  0.8181E-02  0.8510E-02  0.5312E+00  0.5288E+00
     66.893  0.7354E-02  0.8432E-02  0.5351E+00  0.5332E+00
     67.363  0.5855E-02  0.5590E-02  0.5382E+00  0.5364E+00
     67.833  0.7500E-02  0.6662E-02  0.5426E+00  0.5403E+00
     68.303  0.6351E-02  0.8263E-02  0.5469E+00  0.5451E+00
     68.772  0.9765E-02  0.6604E-02  0.5519E+00  0.5489E+00
     69.242  0.9104E-02  0.9369E-02  0.5569E+00  0.5544E+00
     69.712  0.1082E-01  0.1030E-01  0.5627E+00  0.5598E+00
     70.181  0.8999E-02  0.1005E-01  0.5676E+00  0.5653E+00
     70.651  0.5789E-02  0.6213E-02  0.5708E+00  0.5688E+00
     71.121  0.1268E-01  0.8537E-02  0.5777E+00  0.5734E+00
     71.590  0.8896E-02  0.1070E-01  0.5827E+00  0.5799E+00
     72.060  0.1057E-01  0.1118E-01  0.5886E+00  0.5855E+00
     72.530  0.7173E-02  0.8531E-02  0.5927E+00  0.5906E+00
     72.999  0.9755E-02  0.7050E-02  0.5976E+00  0.5943E+00
     73.469  0.7428E-02  0.9434E-02  0.6018E+00  0.5994E+00
     73.939  0.8049E-02  0.7315E-02  0.6064E+00  0.6032E+00
     74.408  0.7824E-02  0.6757E-02  0.6103E+00  0.6071E+00
     74.878  0.9768E-02  0.9467E-02  0.6156E+00  0.6121E+00
     75.348  0.8242E-02  0.9604E-02  0.6201E+00  0.6174E+00
     75.817  0.6983E-02  0.6912E-02  0.6243E+00  0.6215E+00
     76.287  0.8773E-02  0.1003E-01  0.6288E+00  0.6266E+00
     76.757  0.6458E-02  0.7410E-02  0.6325E+00  0.6310E+00
     77.226  0.6929E-02  0.6479E-02  0.6364E+00  0.6346E+00
     77.696  0.6360E-02  0.8079E-02  0.6402E+00  0.6388E+00
     78.166  0.6112E-02  0.5760E-02  0.6437E+00  0.6419E+00
     78.635  0.8827E-02  0.7931E-02  0.6484E+00  0.6460E+00
     79.105  0.7223E-02  0.8211E-02  0.6527E+00  0.6505E+00
     79.575  0.9005E-02  0.7675E-02  0.6573E+00  0.6547E+00
     80.044  0.8934E-02  0.7252E-02  0.6621E+00  0.6589E+00
     80.514  0.9972E-02  0.1109E-01  0.6680E+00  0.6651E+00
     80.984  0.1020E-01  0.9557E-02  0.6735E+00  0.6702E+00
     81.453  0.8242E-02  0.1071E-01  0.6780E+00  0.6759E+00
     81.923  0.7784E-02  0.6600E-02  0.6824E+00  0.6795E+00
     82.393  0.1089E-01  0.9328E-02  0.6880E+00  0.6848E+00
     82.863  0.6915E-02  0.8405E-02  0.6919E+00  0.6896E+00
     83.332  0.1039E-01  0.8265E-02  0.6973E+00  0.6940E+00
     83.802  0.1032E-01  0.8284E-02  0.7027E+00  0.6991E+00
     84.272  0.9051E-02  0.9897E-02  0.7080E+00  0.7044E+00
     84.741  0.8904E-02  0.8333E-02  0.7131E+00  0.7096E+00
     85.211  0.8484E-02  0.7743E-02  0.7175E+00  0.7140E+00
     85.681  0.7477E-02  0.7923E-02  0.7217E+00  0.7186E+00
     86.150  0.1096E-01  0.9653E-02  0.7280E+00  0.7237E+00
     86.620  0.9376E-02  0.1099E-01  0.7335E+00  0.7301E+00
     87.090  0.1146E-01  0.1063E-01  0.7397E+00  0.7357E+00
     87.559  0.8560E-02  0.1035E-01  0.7445E+00  0.7414E+00
     88.029  0.9663E-02  0.7690E-02  0.7497E+00  0.7460E+00
     88.499  0.7571E-02  0.9136E-02  0.7543E+00  0.7510E+00
     88.968  0.1222E-01  0.8747E-02  0.7607E+00  0.7557E+00
     89.438  0.8296E-02  0.1086E-01  0.7655E+00  0.7621E+00
     89.908  0.1237E-01  0.8713E-02  0.7716E+00  0.7670E+00
     90.377  0.1262E-01  0.1055E-01  0.7783E+00  0.7730E+00
     90.847  0.9468E-02  0.1257E-01  0.7835E+00  0.7798E+00
     91.317  0.9905E-02  0.9676E-02  0.7891E+00  0.7851E+00
     91.786  0.9183E-02  0.1079E-01  0.7948E+00  0.7909E+00
     92.256  0.1579E-01  0.1214E-01  0.8031E+00  0.7974E+00
     92.726  0.1370E-01  0.1439E-01  0.8109E+00  0.8050E+00
     93.195  0.9234E-02  0.1537E-01  0.8164E+00  0.8130E+00
     93.665  0.1518E-01  0.1170E-01  0.8247E+00  0.8192E+00
     94.135  0.1282E-01  0.1549E-01  0.8318E+00  0.8274E+00
     94.604  0.1346E-01  0.1056E-01  0.8394E+00  0.8330E+00
     95.074  0.1661E-01  0.1466E-01  0.8486E+00  0.8407E+00
     95.544  0.1549E-01  0.1612E-01  0.8572E+00  0.8494E+00
     96.014  0.1315E-01  0.1590E-01  0.8644E+00  0.8580E+00
     96.483  0.9594E-02  0.1207E-01  0.8695E+00  0.8647E+00
     96.953  0.9017E-02  0.1248E-01  0.8746E+00  0.8713E+00
     97.423  0.1036E-01  0.8722E-02  0.8802E+00  0.8761E+00
     97.892  0.9149E-02  0.9867E-02  0.8850E+00  0.8817E+00
     98.362  0.5836E-02  0.7011E-02  0.8884E+00  0.8856E+00
     98.832  0.6620E-02  0.7928E-02  0.8924E+00  0.8898E+00
     99.301  0.6519E-02  0.6332E-02  0.8960E+00  0.8935E+00
     99.771  0.5534E-02  0.5648E-02  0.8991E+00  0.8971E+00
    100.241  0.7789E-02  0.7417E-02  0.9036E+00  0.9010E+00
    100.710  0.1111E-01  0.7497E-02  0.9095E+00  0.9048E+00
    101.180  0.1062E-01  0.1171E-01  0.9153E+00  0.9112E+00
    101.650  0.1115E-01  0.1068E-01  0.9215E+00  0.9169E+00
    102.119  0.1117E-01  0.1130E-01  0.9275E+00  0.9229E+00
    102.589  0.1609E-01  0.1264E-01  0.9360E+00  0.9295E+00
    103.059  0.1152E-01  0.1407E-01  0.9426E+00  0.9374E+00
    103.528  0.1470E-01  0.1129E-01  0.9505E+00  0.9440E+00
    103.998  0.8681E-02  0.1378E-01  0.9556E+00  0.9517E+00
    104.468  0.7608E-02  0.9817E-02  0.9598E+00  0.9571E+00
    104.937  0.8834E-02  0.7552E-02  0.9649E+00  0.9614E+00
    105.407  0.7875E-02  0.1047E-01  0.9696E+00  0.9670E+00
    105.877  0.1005E-01  0.8907E-02  0.9749E+00  0.9721E+00
    106.346  0.8402E-02  0.9459E-02  0.9794E+00  0.9774E+00
    106.816  0.8721E-02  0.8460E-02  0.9845E+00  0.9816E+00
    107.286  0.1052E-01  0.9093E-02  0.9901E+00  0.9865E+00
    107.755  0.9770E-02  0.1045E-01  0.9954E+00  0.9926E+00
    108.225  0.1208E-01  0.1168E-01  0.1002E+01  0.9989E+00
    108.695  0.8122E-02  0.9644E-02  0.1007E+01  0.1005E+01
    109.165  0.9026E-02  0.1029E-01  0.1012E+01  0.1010E+01
    109.634  0.9859E-02  0.9741E-02  0.1018E+01  0.1016E+01
    110.104  0.1071E-01  0.9584E-02  0.1024E+01  0.1021E+01
    110.574  0.1073E-01  0.9802E-02  0.1029E+01  0.1026E+01
    111.043  0.9708E-02  0.1212E-01  0.1035E+01  0.1032E+01
    111.513  0.9202E-02  0.7665E-02  0.1040E+01  0.1037E+01
    111.983  0.7867E-02  0.9507E-02  0.1044E+01  0.1042E+01
    112.452  0.3490E-02  0.5712E-02  0.1046E+01  0.1046E+01
    112.922  0.3626E-02  0.3659E-02  0.1048E+01  0.1047E+01
    113.392  0.9501E-03  0.2649E-02  0.1049E+01  0.1049E+01
    113.861  0.1436E-03  0.4244E-03  0.1049E+01  0.1049E+01
    114.331  0.4913E-05  0.4885E-10  0.1049E+01  0.1049E+01
    114.801  0.0000E+00  0.7182E-04  0.1049E+01  0.1049E+01
    115.270  0.0000E+00  0.0000E+00  0.1049E+01  0.1049E+01
    115.740  0.0000E+00  0.0000E+00  0.1049E+01  0.1049E+01
    116.210  0.0000E+00  0.0000E+00  0.1049E+01  0.1049E+01
    116.679  0.0000E+00  0.0000E+00  0.1049E+01  0.1049E+01
    117.149  0.0000E+00  0.0000E+00  0.1049E+01  0.1049E+01
    117.619  0.0000E+00  0.0000E+00  0.1049E+01  0.1049E+01
    118.088  0.0000E+00  0.0000E+00  0.1049E+01  0.1049E+01
    118.558  0.0000E+00  0.0000E+00  0.1049E+01  0.1049E+01
    119.028  0.0000E+00  0.0000E+00  0.1049E+01  0.1049E+01
    119.497  0.0000E+00  0.0000E+00  0.1049E+01  0.1049E+01
    119.967  0.0000E+00  0.0000E+00  0.1049E+01  0.1049E+01
    120.437  0.0000E+00  0.0000E+00  0.1049E+01  0.1049E+01
    120.906  0.0000E+00  0.0000E+00  0.1049E+01  0.1049E+01
    120.90646340    -19.99699784  301      5.80554919      1.00000000
    -19.997  0.0000E+00  0.0000E+00  0.0000E+00  0.0000E+00  0.0000E+00  0.0000E+00  0.0000E+00  0.0000E+00  0.0000E+00  0.0000E+00  0.0000E+00  0.0000E+00  0.0000E+00  0.0000E+00  0.0000E+00  0.0000E+00  0.0000E+00  0.0000E+00
    -19.527  0.0000E+00  0.0000E+00  0.0000E+00  0.0000E+00  0.0000E+00  0.0000E+00  0.0000E+00  0.0000E+00  0.0000E+00  0.0000E+00  0.0000E+00  0.0000E+00  0.0000E+00  0.0000E+00  0.0000E+00  0.0000E+00  0.0000E+00  0.0000E+00
    -19.058  0.0000E+00  0.0000E+00  0.0000E+00  0.0000E+00  0.0000E+00  0.0000E+00  0.0000E+00  0.0000E+00  0.0000E+00  0.0000E+00  0.0000E+00  0.0000E+00  0.0000E+00  0.0000E+00  0.0000E+00  0.0000E+00  0.0000E+00  0.0000E+00
    -18.588  0.0000E+00  0.0000E+00  0.0000E+00  0.0000E+00  0.0000E+00  0.0000E+00  0.0000E+00  0.0000E+00  0.0000E+00  0.0000E+00  0.0000E+00  0.0000E+00  0.0000E+00  0.0000E+00  0.0000E+00  0.0000E+00  0.0000E+00  0.0000E+00
    -18.118  0.0000E+00  0.0000E+00  0.0000E+00  0.0000E+00  0.0000E+00  0.0000E+00  0.0000E+00  0.0000E+00  0.0000E+00  0.0000E+00  0.0000E+00  0.0000E+00  0.0000E+00  0.0000E+00  0.0000E+00  0.0000E+00  0.0000E+00  0.0000E+00
    -17.649  0.0000E+00  0.0000E+00  0.0000E+00  0.0000E+00  0.0000E+00  0.0000E+00  0.0000E+00  0.0000E+00  0.0000E+00  0.0000E+00  0.0000E+00  0.0000E+00  0.0000E+00  0.0000E+00  0.0000E+00  0.0000E+00  0.0000E+00  0.0000E+00
    -17.179  0.0000E+00  0.0000E+00  0.0000E+00  0.0000E+00  0.0000E+00  0.0000E+00  0.0000E+00  0.0000E+00  0.0000E+00  0.0000E+00  0.0000E+00  0.0000E+00  0.0000E+00  0.0000E+00  0.0000E+00  0.0000E+00  0.0000E+00  0.0000E+00
    -16.709  0.0000E+00  0.0000E+00  0.0000E+00  0.0000E+00  0.0000E+00  0.0000E+00  0.0000E+00  0.0000E+00  0.0000E+00  0.0000E+00  0.0000E+00  0.0000E+00  0.0000E+00  0.0000E+00  0.0000E+00  0.0000E+00  0.0000E+00  0.0000E+00
    -16.240  0.0000E+00  0.0000E+00  0.0000E+00  0.0000E+00  0.0000E+00  0.0000E+00  0.0000E+00  0.0000E+00  0.0000E+00  0.0000E+00  0.0000E+00  0.0000E+00  0.0000E+00  0.0000E+00  0.0000E+00  0.0000E+00  0.0000E+00  0.0000E+00
    -15.770  0.0000E+00  0.0000E+00  0.0000E+00  0.0000E+00  0.0000E+00  0.0000E+00  0.0000E+00  0.0000E+00  0.0000E+00  0.0000E+00  0.0000E+00  0.0000E+00  0.0000E+00  0.0000E+00  0.0000E+00  0.0000E+00  0.0000E+00  0.0000E+00
    -15.300  0.0000E+00  0.0000E+00  0.0000E+00  0.0000E+00  0.0000E+00  0.0000E+00  0.0000E+00  0.0000E+00  0.0000E+00  0.0000E+00  0.0000E+00  0.0000E+00  0.0000E+00  0.0000E+00  0.0000E+00  0.0000E+00  0.0000E+00  0.0000E+00
    -14.831  0.0000E+00  0.0000E+00  0.0000E+00  0.0000E+00  0.0000E+00  0.0000E+00  0.0000E+00  0.0000E+00  0.0000E+00  0.0000E+00  0.0000E+00  0.0000E+00  0.0000E+00  0.0000E+00  0.0000E+00  0.0000E+00  0.0000E+00  0.0000E+00
    -14.361  0.0000E+00  0.0000E+00  0.0000E+00  0.0000E+00  0.0000E+00  0.0000E+00  0.0000E+00  0.0000E+00  0.0000E+00  0.0000E+00  0.0000E+00  0.0000E+00  0.0000E+00  0.0000E+00  0.0000E+00  0.0000E+00  0.0000E+00  0.0000E+00
    -13.891  0.0000E+00  0.0000E+00  0.0000E+00  0.0000E+00  0.0000E+00  0.0000E+00  0.0000E+00  0.0000E+00  0.0000E+00  0.0000E+00  0.0000E+00  0.0000E+00  0.0000E+00  0.0000E+00  0.0000E+00  0.0000E+00  0.0000E+00  0.0000E+00
    -13.422  0.2006E-02  0.0000E+00  0.2819E-04  0.0000E+00  0.2819E-04  0.0000E+00  0.2819E-04  0.0000E+00  0.1748E-07  0.0000E+00  0.1748E-07  0.0000E+00  0.1185E-05  0.0000E+00  0.1748E-07  0.0000E+00  0.1185E-05  0.0000E+00
    -12.952  0.1043E-01  0.4972E-03  0.8057E-03  0.3027E-05  0.8057E-03  0.3027E-05  0.8057E-03  0.3027E-05  0.1313E-05  0.1215E-08  0.1313E-05  0.1215E-08  0.1604E-03  0.5156E-07  0.1313E-05  0.1215E-08  0.1604E-03  0.5156E-07
    -12.482  0.1240E-01  0.8648E-02  0.3608E-02  0.4455E-03  0.3608E-02  0.4455E-03  0.3608E-02  0.4455E-03  0.7011E-05  0.6965E-06  0.7011E-05  0.6965E-06  0.2259E-02  0.5160E-04  0.7011E-05  0.6965E-06  0.2259E-02  0.5160E-04
    -12.012  0.4494E-02  0.1161E-01  0.7864E-02  0.2104E-02  0.7864E-02  0.2104E-02  0.7864E-02  0.2104E-02  0.7783E-05  0.4930E-05  0.7783E-05  0.4930E-05  0.1492E-01  0.7260E-03  0.7783E-05  0.4930E-05  0.1492E-01  0.7260E-03
    -11.543  0.0000E+00  0.1111E-01  0.0000E+00  0.9910E-02  0.0000E+00  0.9910E-02  0.0000E+00  0.9910E-02  0.0000E+00  0.1499E-04  0.0000E+00  0.1499E-04  0.0000E+00  0.1122E-01  0.0000E+00  0.1499E-04  0.0000E+00  0.1122E-01
    -11.073  0.0000E+00  0.0000E+00  0.0000E+00  0.0000E+00  0.0000E+00  0.0000E+00  0.0000E+00  0.0000E+00  0.0000E+00  0.0000E+00  0.0000E+00  0.0000E+00  0.0000E+00  0.0000E+00  0.0000E+00  0.0000E+00  0.0000E+00  0.0000E+00
    -10.603  0.0000E+00  0.0000E+00  0.0000E+00  0.0000E+00  0.0000E+00  0.0000E+00  0.0000E+00  0.0000E+00  0.0000E+00  0.0000E+00  0.0000E+00  0.0000E+00  0.0000E+00  0.0000E+00  0.0000E+00  0.0000E+00  0.0000E+00  0.0000E+00
    -10.134  0.0000E+00  0.0000E+00  0.0000E+00  0.0000E+00  0.0000E+00  0.0000E+00  0.0000E+00  0.0000E+00  0.0000E+00  0.0000E+00  0.0000E+00  0.0000E+00  0.0000E+00  0.0000E+00  0.0000E+00  0.0000E+00  0.0000E+00  0.0000E+00
     -9.664  0.0000E+00  0.0000E+00  0.0000E+00  0.0000E+00  0.0000E+00  0.0000E+00  0.0000E+00  0.0000E+00  0.0000E+00  0.0000E+00  0.0000E+00  0.0000E+00  0.0000E+00  0.0000E+00  0.0000E+00  0.0000E+00  0.0000E+00  0.0000E+00
     -9.194  0.0000E+00  0.0000E+00  0.0000E+00  0.0000E+00  0.0000E+00  0.0000E+00  0.0000E+00  0.0000E+00  0.0000E+00  0.0000E+00  0.0000E+00  0.0000E+00  0.0000E+00  0.0000E+00  0.0000E+00  0.0000E+00  0.0000E+00  0.0000E+00
     -8.725  0.0000E+00  0.0000E+00  0.0000E+00  0.0000E+00  0.0000E+00  0.0000E+00  0.0000E+00  0.0000E+00  0.0000E+00  0.0000E+00  0.0000E+00  0.0000E+00  0.0000E+00  0.0000E+00  0.0000E+00  0.0000E+00  0.0000E+00  0.0000E+00
     -8.255  0.0000E+00  0.0000E+00  0.0000E+00  0.0000E+00  0.0000E+00  0.0000E+00  0.0000E+00  0.0000E+00  0.0000E+00  0.0000E+00  0.0000E+00  0.0000E+00  0.0000E+00  0.0000E+00  0.0000E+00  0.0000E+00  0.0000E+00  0.0000E+00
     -7.785  0.0000E+00  0.0000E+00  0.0000E+00  0.0000E+00  0.0000E+00  0.0000E+00  0.0000E+00  0.0000E+00  0.0000E+00  0.0000E+00  0.0000E+00  0.0000E+00  0.0000E+00  0.0000E+00  0.0000E+00  0.0000E+00  0.0000E+00  0.0000E+00
     -7.316  0.0000E+00  0.0000E+00  0.0000E+00  0.0000E+00  0.0000E+00  0.0000E+00  0.0000E+00  0.0000E+00  0.0000E+00  0.0000E+00  0.0000E+00  0.0000E+00  0.0000E+00  0.0000E+00  0.0000E+00  0.0000E+00  0.0000E+00  0.0000E+00
     -6.846  0.0000E+00  0.0000E+00  0.0000E+00  0.0000E+00  0.0000E+00  0.0000E+00  0.0000E+00  0.0000E+00  0.0000E+00  0.0000E+00  0.0000E+00  0.0000E+00  0.0000E+00  0.0000E+00  0.0000E+00  0.0000E+00  0.0000E+00  0.0000E+00
     -6.376  0.0000E+00  0.0000E+00  0.0000E+00  0.0000E+00  0.0000E+00  0.0000E+00  0.0000E+00  0.0000E+00  0.0000E+00  0.0000E+00  0.0000E+00  0.0000E+00  0.0000E+00  0.0000E+00  0.0000E+00  0.0000E+00  0.0000E+00  0.0000E+00
     -5.907  0.0000E+00  0.0000E+00  0.0000E+00  0.0000E+00  0.0000E+00  0.0000E+00  0.0000E+00  0.0000E+00  0.0000E+00  0.0000E+00  0.0000E+00  0.0000E+00  0.0000E+00  0.0000E+00  0.0000E+00  0.0000E+00  0.0000E+00  0.0000E+00
     -5.437  0.0000E+00  0.0000E+00  0.0000E+00  0.0000E+00  0.0000E+00  0.0000E+00  0.0000E+00  0.0000E+00  0.0000E+00  0.0000E+00  0.0000E+00  0.0000E+00  0.0000E+00  0.0000E+00  0.0000E+00  0.0000E+00  0.0000E+00  0.0000E+00
     -4.967  0.0000E+00  0.0000E+00  0.0000E+00  0.0000E+00  0.0000E+00  0.0000E+00  0.0000E+00  0.0000E+00  0.0000E+00  0.0000E+00  0.0000E+00  0.0000E+00  0.0000E+00  0.0000E+00  0.0000E+00  0.0000E+00  0.0000E+00  0.0000E+00
     -4.498  0.0000E+00  0.0000E+00  0.0000E+00  0.0000E+00  0.0000E+00  0.0000E+00  0.0000E+00  0.0000E+00  0.0000E+00  0.0000E+00  0.0000E+00  0.0000E+00  0.0000E+00  0.0000E+00  0.0000E+00  0.0000E+00  0.0000E+00  0.0000E+00
     -4.028  0.0000E+00  0.0000E+00  0.0000E+00  0.0000E+00  0.0000E+00  0.0000E+00  0.0000E+00  0.0000E+00  0.0000E+00  0.0000E+00  0.0000E+00  0.0000E+00  0.0000E+00  0.0000E+00  0.0000E+00  0.0000E+00  0.0000E+00  0.0000E+00
     -3.558  0.0000E+00  0.0000E+00  0.0000E+00  0.0000E+00  0.0000E+00  0.0000E+00  0.0000E+00  0.0000E+00  0.0000E+00  0.0000E+00  0.0000E+00  0.0000E+00  0.0000E+00  0.0000E+00  0.0000E+00  0.0000E+00  0.0000E+00  0.0000E+00
     -3.089  0.0000E+00  0.0000E+00  0.0000E+00  0.0000E+00  0.0000E+00  0.0000E+00  0.0000E+00  0.0000E+00  0.0000E+00  0.0000E+00  0.0000E+00  0.0000E+00  0.0000E+00  0.0000E+00  0.0000E+00  0.0000E+00  0.0000E+00  0.0000E+00
     -2.619  0.0000E+00  0.0000E+00  0.0000E+00  0.0000E+00  0.0000E+00  0.0000E+00  0.0000E+00  0.0000E+00  0.0000E+00  0.0000E+00  0.0000E+00  0.0000E+00  0.0000E+00  0.0000E+00  0.0000E+00  0.0000E+00  0.0000E+00  0.0000E+00
     -2.149  0.0000E+00  0.0000E+00  0.0000E+00  0.0000E+00  0.0000E+00  0.0000E+00  0.0000E+00  0.0000E+00  0.0000E+00  0.0000E+00  0.0000E+00  0.0000E+00  0.0000E+00  0.0000E+00  0.0000E+00  0.0000E+00  0.0000E+00  0.0000E+00
     -1.680  0.2151E-04  0.0000E+00  0.7475E-08  0.0000E+00  0.7475E-08  0.0000E+00  0.7475E-08  0.0000E+00  0.7947E-05  0.0000E+00  0.7947E-05  0.0000E+00  0.3679E-09  0.0000E+00  0.7947E-05  0.0000E+00  0.3679E-09  0.0000E+00
     -1.210  0.1930E-01  0.1634E-02  0.3460E-03  0.6756E-05  0.3460E-03  0.6756E-05  0.3460E-03  0.6756E-05  0.7874E-02  0.6169E-03  0.7874E-02  0.6169E-03  0.3314E-03  0.5359E-06  0.7874E-02  0.6169E-03  0.3314E-03  0.5359E-06
     -0.740  0.5190E-01  0.2400E-01  0.2676E-02  0.5913E-03  0.2676E-02  0.5913E-03  0.2676E-02  0.5913E-03  0.2342E-01  0.1022E-01  0.2342E-01  0.1022E-01  0.1505E-01  0.2719E-03  0.2342E-01  0.1022E-01  0.1505E-01  0.2719E-03
     -0.271  0.5145E-01  0.4536E-01  0.1053E-01  0.2758E-02  0.1053E-01  0.2758E-02  0.1053E-01  0.2758E-02  0.2342E-01  0.2270E-01  0.2342E-01  0.2270E-01  0.5635E-01  0.4009E-02  0.2342E-01  0.2270E-01  0.5635E-01  0.4009E-02
      0.199  0.1459E-01  0.5776E-01  0.1296E-01  0.1061E-01  0.1296E-01  0.1061E-01  0.1296E-01  0.1061E-01  0.2669E-01  0.3049E-01  0.2669E-01  0.3049E-01  0.1650E+00  0.1992E-01  0.2669E-01  0.3049E-01  0.1650E+00  0.1992E-01
      0.669  0.1011E-01  0.1862E-01  0.1300E-01  0.9924E-02  0.1300E-01  0.9924E-02  0.1300E-01  0.9924E-02  0.5658E-01  0.1922E-01  0.5658E-01  0.1922E-01  0.2897E+00  0.1003E-01  0.5658E-01  0.1922E-01  0.2897E+00  0.1003E-01
      1.139  0.4612E-02  0.8542E-02  0.6843E-02  0.1341E-01  0.6843E-02  0.1341E-01  0.6843E-02  0.1341E-01  0.6368E-01  0.6281E-01  0.6368E-01  0.6281E-01  0.1351E+00  0.3184E-01  0.6368E-01  0.6281E-01  0.1351E+00  0.3184E-01
      1.608  0.1749E-02  0.9059E-02  0.3035E-02  0.9453E-02  0.3035E-02  0.9453E-02  0.3035E-02  0.9453E-02  0.6017E-01  0.1102E+00  0.6017E-01  0.1102E+00  0.6547E-01  0.1909E+00  0.6017E-01  0.1102E+00  0.6547E-01  0.1909E+00
      2.078  0.2917E-03  0.4928E-02  0.9595E-03  0.6053E-02  0.9595E-03  0.6053E-02  0.9595E-03  0.6053E-02  0.3592E-01  0.9880E-01  0.3592E-01  0.9880E-01  0.2517E-01  0.1204E+00  0.3592E-01  0.9880E-01  0.2517E-01  0.1204E+00
      2.548  0.4662E-02  0.1231E-02  0.2205E-02  0.3221E-02  0.2205E-02  0.3221E-02  0.2205E-02  0.3221E-02  0.4620E+00  0.9100E-01  0.4620E+00  0.9100E-01  0.2700E+00  0.2902E-01  0.4620E+00  0.9100E-01  0.2700E+00  0.2902E-01
      3.017  0.4378E-03  0.2020E-02  0.1315E-02  0.2998E-02  0.1315E-02  0.2998E-02  0.1315E-02  0.2998E-02  0.4357E+00  0.2474E+00  0.4357E+00  0.2474E+00  0.7662E-01  0.2821E-01  0.4357E+00  0.2474E+00  0.7662E-01  0.2821E-01
      3.487  0.6674E-01  0.1155E-01  0.7710E-02  0.3326E-02  0.7710E-02  0.3326E-02  0.7710E-02  0.3326E-02  0.4982E+00  0.6848E+00  0.4982E+00  0.6848E+00  0.1164E+00  0.1320E+00  0.4982E+00  0.6848E+00  0.1164E+00  0.1320E+00