unknown system                          
            1
     0.000000    2.110776    2.110776
     2.110776    0.000000    2.110776
     2.110776    2.110776    0.000000
   Cu   O 
     1     1
Direct configuration=     1
   0.00000000  0.00000000  0.00000000
   0.50000000  0.50000000  0.50000000
unknown system                          
            1
     0.000000    2.110776    2.110776
     2.152991    0.000000    2.110776
     2.152991    2.110776    0.000000
   Cu   O 
     1     1
Direct configuration=     2
   0.00000000  0.00000000  0.00000000
   0.50000000  0.50000000  0.50000000
unknown system                          
            1
     0.000000    2.110776    2.110776
     2.131884    0.000000    2.110776
     2.131884    2.110776    0.000000
   Cu   O 
     1     1
Direct configuration=     3
   0.00000000  0.00000000  0.00000000
   0.50000000  0.50000000  0.50000000
unknown system                          
            1
     0.000000    2.110776    2.110776
     2.089668    0.000000    2.110776
     2.089668    2.110776    0.000000
   Cu   O 
     1     1
Direct configuration=     4
   0.00000000  0.00000000  0.00000000
   0.50000000  0.50000000  0.50000000
unknown system                          
            1
     0.000000    2.110776    2.110776
     2.068560    0.000000    2.110776
     2.068560    2.110776    0.000000
   Cu   O 
     1     1
Direct configuration=     5
   0.00000000  0.00000000  0.00000000
   0.50000000  0.50000000  0.50000000
unknown system                          
            1
     0.000000    2.152991    2.110776
     2.110776    0.000000    2.110776
     2.110776    2.152991    0.000000
   Cu   O 
     1     1
Direct configuration=     6
   0.00000000  0.00000000  0.00000000
   0.50000000  0.50000000  0.50000000
unknown system                          
            1
     0.000000    2.131884    2.110776
     2.110776    0.000000    2.110776
     2.110776    2.131884    0.000000
   Cu   O 
     1     1
Direct configuration=     7
   0.00000000  0.00000000  0.00000000
   0.50000000  0.50000000  0.50000000
unknown system                          
            1
     0.000000    2.089668    2.110776
     2.110776    0.000000    2.110776
     2.110776    2.089668    0.000000
   Cu   O 
     1     1
Direct configuration=     8
   0.00000000  0.00000000  0.00000000
   0.50000000  0.50000000  0.50000000
unknown system                          
            1
     0.000000    2.068560    2.110776
     2.110776    0.000000    2.110776
     2.110776    2.068560    0.000000
   Cu   O 
     1     1
Direct configuration=     9
   0.00000000  0.00000000  0.00000000
   0.50000000  0.50000000  0.50000000
unknown system                          
            1
     0.000000    2.110776    2.152991
     2.110776    0.000000    2.152991
     2.110776    2.110776    0.000000
   Cu   O 
     1     1
Direct configuration=    10
   0.00000000  0.00000000  0.00000000
   0.50000000  0.50000000  0.50000000
unknown system                          
            1
     0.000000    2.110776    2.131884
     2.110776    0.000000    2.131884
     2.110776    2.110776    0.000000
   Cu   O 
     1     1
Direct configuration=    11
   0.00000000  0.00000000  0.00000000
   0.50000000  0.50000000  0.50000000
unknown system                          
            1
     0.000000    2.110776    2.089668
     2.110776    0.000000    2.089668
     2.110776    2.110776    0.000000
   Cu   O 
     1     1
Direct configuration=    12
   0.00000000  0.00000000  0.00000000
   0.50000000  0.50000000  0.50000000
unknown system                          
            1
     0.000000    2.110776    2.068560
     2.110776    0.000000    2.068560
     2.110776    2.110776    0.000000
   Cu   O 
     1     1
Direct configuration=    13
   0.00000000  0.00000000  0.00000000
   0.50000000  0.50000000  0.50000000
unknown system                          
            1
     0.000000    2.110776    2.110776
     2.110776    0.042216    2.110776
     2.110776    2.152991    0.000000
   Cu   O 
     1     1
Direct configuration=    14
   0.00000000  0.00000000  0.00000000
   0.50000000  0.50000000  0.50000000
unknown system                          
            1
     0.000000    2.110776    2.110776
     2.110776    0.021108    2.110776
     2.110776    2.131884    0.000000
   Cu   O 
     1     1
Direct configuration=    15
   0.00000000  0.00000000  0.00000000
   0.50000000  0.50000000  0.50000000
unknown system                          
            1
     0.000000    2.110776    2.110776
     2.110776   -0.021108    2.110776
     2.110776    2.089668    0.000000
   Cu   O 
     1     1
Direct configuration=    16
   0.00000000  0.00000000  0.00000000
   0.50000000  0.50000000  0.50000000
unknown system                          
            1
     0.000000    2.110776    2.110776
     2.110776   -0.042216    2.110776
     2.110776    2.068560    0.000000
   Cu   O 
     1     1
Direct configuration=    17
   0.00000000  0.00000000  0.00000000
   0.50000000  0.50000000  0.50000000
unknown system                          
            1
     0.000000    2.110776    2.152991
     2.110776    0.000000    2.110776
     2.110776    2.110776    0.042216
   Cu   O 
     1     1
Direct configuration=    18
   0.00000000  0.00000000  0.00000000
   0.50000000  0.50000000  0.50000000
unknown system                          
            1
     0.000000    2.110776    2.131884
     2.110776    0.000000    2.110776
     2.110776    2.110776    0.021108
   Cu   O 
     1     1
Direct configuration=    19
   0.00000000  0.00000000  0.00000000
   0.50000000  0.50000000  0.50000000
unknown system                          
            1
     0.000000    2.110776    2.089668
     2.110776    0.000000    2.110776
     2.110776    2.110776   -0.021108
   Cu   O 
     1     1
Direct configuration=    20
   0.00000000  0.00000000  0.00000000
   0.50000000  0.50000000  0.50000000
unknown system                          
            1
     0.000000    2.110776    2.068560
     2.110776    0.000000    2.110776
     2.110776    2.110776   -0.042216
   Cu   O 
     1     1
Direct configuration=    21
   0.00000000  0.00000000  0.00000000
   0.50000000  0.50000000  0.50000000
unknown system                          
            1
     0.042216    2.110776    2.110776
     2.152991    0.000000    2.110776
     2.110776    2.110776    0.000000
   Cu   O 
     1     1
Direct configuration=    22
   0.00000000  0.00000000  0.00000000
   0.50000000  0.50000000  0.50000000
unknown system                          
            1
     0.021108    2.110776    2.110776
     2.131884    0.000000    2.110776
     2.110776    2.110776    0.000000
   Cu   O 
     1     1
Direct configuration=    23
   0.00000000  0.00000000  0.00000000
   0.50000000  0.50000000  0.50000000
unknown system                          
            1
    -0.021108    2.110776    2.110776
     2.089668    0.000000    2.110776
     2.110776    2.110776    0.000000
   Cu   O 
     1     1
Direct configuration=    24
   0.00000000  0.00000000  0.00000000
   0.50000000  0.50000000  0.50000000
unknown system                          
            1
    -0.042216    2.110776    2.110776
     2.068560    0.000000    2.110776
     2.110776    2.110776    0.000000
   Cu   O 
     1     1
Direct configuration=    25
   0.00000000  0.00000000  0.00000000
   0.50000000  0.50000000  0.50000000
unknown system                          
            1
     0.000000    2.110776    2.110776
     2.110776    0.000000    2.110776
     2.110776    2.110776    0.000000
   Cu   O 
     1     1
Direct configuration=    26
  -0.00473759  0.00473759  0.00473759
   0.50000000  0.50000000  0.50000000
unknown system                          
            1
     0.000000    2.110776    2.110776
     2.110776    0.000000    2.110776
     2.110776    2.110776    0.000000
   Cu   O 
     1     1
Direct configuration=    27
  -0.00236880  0.00236880  0.00236880
   0.50000000  0.50000000  0.50000000
unknown system                          
            1
     0.000000    2.110776    2.110776
     2.110776    0.000000    2.110776
     2.110776    2.110776    0.000000
   Cu   O 
     1     1
Direct configuration=    28
   0.00236880 -0.00236880 -0.00236880
   0.50000000  0.50000000  0.50000000
unknown system                          
            1
     0.000000    2.110776    2.110776
     2.110776    0.000000    2.110776
     2.110776    2.110776    0.000000
   Cu   O 
     1     1
Direct configuration=    29
   0.00473759 -0.00473759 -0.00473759
   0.50000000  0.50000000  0.50000000
unknown system                          
            1
     0.000000    2.110776    2.110776
     2.110776    0.000000    2.110776
     2.110776    2.110776    0.000000
   Cu   O 
     1     1
Direct configuration=    30
   0.00000000  0.00000000  0.00000000
   0.49526241  0.50473759  0.50473759
unknown system                          
            1
     0.000000    2.110776    2.110776
     2.110776    0.000000    2.110776
     2.110776    2.110776    0.000000
   Cu   O 
     1     1
Direct configuration=    31
   0.00000000  0.00000000  0.00000000
   0.49763120  0.50236880  0.50236880
unknown system                          
            1
     0.000000    2.110776    2.110776
     2.110776    0.000000    2.110776
     2.110776    2.110776    0.000000
   Cu   O 
     1     1
Direct configuration=    32
   0.00000000  0.00000000  0.00000000
   0.50236880  0.49763120  0.49763120
unknown system                          
            1
     0.000000    2.110776    2.110776
     2.110776    0.000000    2.110776
     2.110776    2.110776    0.000000
   Cu   O 
     1     1
Direct configuration=    33
   0.00000000  0.00000000  0.00000000
   0.50473759  0.49526241  0.49526241
