   3   3   0   0
  0.2142297E+02  0.4496127E-09  0.4496127E-09  0.4496127E-09  0.5000000E-15
  1.000000000000000E-004
  CAR
 unknown system
     15.06909953    -34.30066368  301     11.95367874      1.00000000
    -34.301  0.0000E+00  0.0000E+00
    -34.136  0.0000E+00  0.0000E+00
    -33.972  0.0000E+00  0.0000E+00
    -33.807  0.0000E+00  0.0000E+00
    -33.642  0.0000E+00  0.0000E+00
    -33.478  0.0000E+00  0.0000E+00
    -33.313  0.0000E+00  0.0000E+00
    -33.149  0.0000E+00  0.0000E+00
    -32.984  0.0000E+00  0.0000E+00
    -32.820  0.0000E+00  0.0000E+00
    -32.655  0.0000E+00  0.0000E+00
    -32.490  0.0000E+00  0.0000E+00
    -32.326  0.0000E+00  0.0000E+00
    -32.161  0.0000E+00  0.0000E+00
    -31.997  0.1215E+02  0.2000E+01
    -31.832  0.0000E+00  0.2000E+01
    -31.668  0.0000E+00  0.2000E+01
    -31.503  0.0000E+00  0.2000E+01
    -31.338  0.0000E+00  0.2000E+01
    -31.174  0.0000E+00  0.2000E+01
    -31.009  0.0000E+00  0.2000E+01
    -30.845  0.0000E+00  0.2000E+01
    -30.680  0.0000E+00  0.2000E+01
    -30.516  0.0000E+00  0.2000E+01
    -30.351  0.0000E+00  0.2000E+01
    -30.187  0.0000E+00  0.2000E+01
    -30.022  0.0000E+00  0.2000E+01
    -29.857  0.0000E+00  0.2000E+01
    -29.693  0.0000E+00  0.2000E+01
    -29.528  0.0000E+00  0.2000E+01
    -29.364  0.0000E+00  0.2000E+01
    -29.199  0.0000E+00  0.2000E+01
    -29.035  0.0000E+00  0.2000E+01
    -28.870  0.0000E+00  0.2000E+01
    -28.705  0.0000E+00  0.2000E+01
    -28.541  0.0000E+00  0.2000E+01
    -28.376  0.0000E+00  0.2000E+01
    -28.212  0.0000E+00  0.2000E+01
    -28.047  0.0000E+00  0.2000E+01
    -27.883  0.0000E+00  0.2000E+01
    -27.718  0.0000E+00  0.2000E+01
    -27.553  0.0000E+00  0.2000E+01
    -27.389  0.0000E+00  0.2000E+01
    -27.224  0.0000E+00  0.2000E+01
    -27.060  0.0000E+00  0.2000E+01
    -26.895  0.0000E+00  0.2000E+01
    -26.731  0.0000E+00  0.2000E+01
    -26.566  0.0000E+00  0.2000E+01
    -26.402  0.0000E+00  0.2000E+01
    -26.237  0.0000E+00  0.2000E+01
    -26.072  0.0000E+00  0.2000E+01
    -25.908  0.0000E+00  0.2000E+01
    -25.743  0.0000E+00  0.2000E+01
    -25.579  0.0000E+00  0.2000E+01
    -25.414  0.0000E+00  0.2000E+01
    -25.250  0.0000E+00  0.2000E+01
    -25.085  0.0000E+00  0.2000E+01
    -24.920  0.0000E+00  0.2000E+01
    -24.756  0.0000E+00  0.2000E+01
    -24.591  0.0000E+00  0.2000E+01
    -24.427  0.0000E+00  0.2000E+01
    -24.262  0.0000E+00  0.2000E+01
    -24.098  0.0000E+00  0.2000E+01
    -23.933  0.0000E+00  0.2000E+01
    -23.768  0.0000E+00  0.2000E+01
    -23.604  0.0000E+00  0.2000E+01
    -23.439  0.0000E+00  0.2000E+01
    -23.275  0.0000E+00  0.2000E+01
    -23.110  0.0000E+00  0.2000E+01
    -22.946  0.0000E+00  0.2000E+01
    -22.781  0.0000E+00  0.2000E+01
    -22.616  0.0000E+00  0.2000E+01
    -22.452  0.0000E+00  0.2000E+01
    -22.287  0.0000E+00  0.2000E+01
    -22.123  0.0000E+00  0.2000E+01
    -21.958  0.0000E+00  0.2000E+01
    -21.794  0.0000E+00  0.2000E+01
    -21.629  0.0000E+00  0.2000E+01
    -21.465  0.0000E+00  0.2000E+01
    -21.300  0.0000E+00  0.2000E+01
    -21.135  0.0000E+00  0.2000E+01
    -20.971  0.0000E+00  0.2000E+01
    -20.806  0.0000E+00  0.2000E+01
    -20.642  0.0000E+00  0.2000E+01
    -20.477  0.0000E+00  0.2000E+01
    -20.313  0.0000E+00  0.2000E+01
    -20.148  0.0000E+00  0.2000E+01
    -19.983  0.0000E+00  0.2000E+01
    -19.819  0.0000E+00  0.2000E+01
    -19.654  0.0000E+00  0.2000E+01
    -19.490  0.0000E+00  0.2000E+01
    -19.325  0.0000E+00  0.2000E+01
    -19.161  0.0000E+00  0.2000E+01
    -18.996  0.0000E+00  0.2000E+01
    -18.831  0.0000E+00  0.2000E+01
    -18.667  0.0000E+00  0.2000E+01
    -18.502  0.0000E+00  0.2000E+01
    -18.338  0.0000E+00  0.2000E+01
    -18.173  0.0000E+00  0.2000E+01
    -18.009  0.0000E+00  0.2000E+01
    -17.844  0.0000E+00  0.2000E+01
    -17.680  0.0000E+00  0.2000E+01
    -17.515  0.0000E+00  0.2000E+01
    -17.350  0.0000E+00  0.2000E+01
    -17.186  0.0000E+00  0.2000E+01
    -17.021  0.0000E+00  0.2000E+01
    -16.857  0.0000E+00  0.2000E+01
    -16.692  0.0000E+00  0.2000E+01
    -16.528  0.0000E+00  0.2000E+01
    -16.363  0.0000E+00  0.2000E+01
    -16.198  0.0000E+00  0.2000E+01
    -16.034  0.0000E+00  0.2000E+01
    -15.869  0.0000E+00  0.2000E+01
    -15.705  0.0000E+00  0.2000E+01
    -15.540  0.0000E+00  0.2000E+01
    -15.376  0.0000E+00  0.2000E+01
    -15.211  0.0000E+00  0.2000E+01
    -15.046  0.0000E+00  0.2000E+01
    -14.882  0.0000E+00  0.2000E+01
    -14.717  0.0000E+00  0.2000E+01
    -14.553  0.0000E+00  0.2000E+01
    -14.388  0.0000E+00  0.2000E+01
    -14.224  0.0000E+00  0.2000E+01
    -14.059  0.0000E+00  0.2000E+01
    -13.894  0.0000E+00  0.2000E+01
    -13.730  0.0000E+00  0.2000E+01
    -13.565  0.0000E+00  0.2000E+01
    -13.401  0.0000E+00  0.2000E+01
    -13.236  0.0000E+00  0.2000E+01
    -13.072  0.0000E+00  0.2000E+01
    -12.907  0.0000E+00  0.2000E+01
    -12.743  0.0000E+00  0.2000E+01
    -12.578  0.0000E+00  0.2000E+01
    -12.413  0.0000E+00  0.2000E+01
    -12.249  0.0000E+00  0.2000E+01
    -12.084  0.0000E+00  0.2000E+01
    -11.920  0.0000E+00  0.2000E+01
    -11.755  0.0000E+00  0.2000E+01
    -11.591  0.0000E+00  0.2000E+01
    -11.426  0.0000E+00  0.2000E+01
    -11.261  0.4524E+01  0.2744E+01
    -11.097  0.1819E+02  0.1200E+02
    -10.932  0.0000E+00  0.1200E+02
    -10.768  0.0000E+00  0.1200E+02
    -10.603  0.0000E+00  0.1200E+02
    -10.439  0.0000E+00  0.1200E+02
    -10.274  0.0000E+00  0.1200E+02
    -10.109  0.0000E+00  0.1200E+02
     -9.945  0.0000E+00  0.1200E+02
     -9.780  0.0000E+00  0.1200E+02
     -9.616  0.0000E+00  0.1200E+02
     -9.451  0.0000E+00  0.1200E+02
     -9.287  0.0000E+00  0.1200E+02
     -9.122  0.0000E+00  0.1200E+02
     -8.958  0.0000E+00  0.1200E+02
     -8.793  0.0000E+00  0.1200E+02
     -8.628  0.0000E+00  0.1200E+02
     -8.464  0.0000E+00  0.1200E+02
     -8.299  0.0000E+00  0.1200E+02
     -8.135  0.0000E+00  0.1200E+02
     -7.970  0.0000E+00  0.1200E+02
     -7.806  0.1636E+01  0.1227E+02
     -7.641  0.2503E+01  0.1388E+02
     -7.476  0.9093E+01  0.1615E+02
     -7.312  0.1350E+01  0.1800E+02
     -7.147  0.0000E+00  0.1800E+02
     -6.983  0.0000E+00  0.1800E+02
     -6.818  0.0000E+00  0.1800E+02
     -6.654  0.0000E+00  0.1800E+02
     -6.489  0.0000E+00  0.1800E+02
     -6.324  0.0000E+00  0.1800E+02
     -6.160  0.0000E+00  0.1800E+02
     -5.995  0.0000E+00  0.1800E+02
     -5.831  0.0000E+00  0.1800E+02
     -5.666  0.0000E+00  0.1800E+02
     -5.502  0.0000E+00  0.1800E+02
     -5.337  0.0000E+00  0.1800E+02
     -5.173  0.0000E+00  0.1800E+02
     -5.008  0.0000E+00  0.1800E+02
     -4.843  0.0000E+00  0.1800E+02
     -4.679  0.0000E+00  0.1800E+02
     -4.514  0.0000E+00  0.1800E+02
     -4.350  0.0000E+00  0.1800E+02
     -4.185  0.0000E+00  0.1800E+02
     -4.021  0.0000E+00  0.1800E+02
     -3.856  0.0000E+00  0.1800E+02
     -3.691  0.0000E+00  0.1800E+02
     -3.527  0.0000E+00  0.1800E+02
     -3.362  0.0000E+00  0.1800E+02
     -3.198  0.0000E+00  0.1800E+02
     -3.033  0.0000E+00  0.1800E+02
     -2.869  0.0000E+00  0.1800E+02
     -2.704  0.0000E+00  0.1800E+02
     -2.539  0.0000E+00  0.1800E+02
     -2.375  0.0000E+00  0.1800E+02
     -2.210  0.0000E+00  0.1800E+02
     -2.046  0.0000E+00  0.1800E+02
     -1.881  0.0000E+00  0.1800E+02
     -1.717  0.0000E+00  0.1800E+02
     -1.552  0.0000E+00  0.1800E+02
     -1.387  0.4553E-04  0.1800E+02
     -1.223  0.7735E-01  0.1801E+02
     -1.058  0.6653E-01  0.1802E+02
     -0.894  0.3316E-01  0.1806E+02
     -0.729  0.9019E-04  0.1810E+02
     -0.565  0.5015E-01  0.1815E+02
     -0.400  0.6280E+00  0.1832E+02
     -0.236  0.1793E+01  0.1878E+02
     -0.071  0.1813E+01  0.1941E+02
      0.094  0.1461E+01  0.1983E+02
      0.258  0.1343E+00  0.1997E+02
      0.423  0.0000E+00  0.2000E+02
      0.587  0.0000E+00  0.2000E+02
      0.752  0.0000E+00  0.2000E+02
      0.916  0.0000E+00  0.2000E+02
      1.081  0.0000E+00  0.2000E+02
      1.246  0.0000E+00  0.2000E+02
      1.410  0.0000E+00  0.2000E+02
      1.575  0.0000E+00  0.2000E+02
      1.739  0.0000E+00  0.2000E+02
      1.904  0.0000E+00  0.2000E+02
      2.068  0.0000E+00  0.2000E+02
      2.233  0.0000E+00  0.2000E+02
      2.398  0.0000E+00  0.2000E+02
      2.562  0.0000E+00  0.2000E+02
      2.727  0.0000E+00  0.2000E+02
      2.891  0.0000E+00  0.2000E+02
      3.056  0.0000E+00  0.2000E+02
      3.220  0.0000E+00  0.2000E+02
      3.385  0.0000E+00  0.2000E+02
      3.549  0.0000E+00  0.2000E+02
      3.714  0.0000E+00  0.2000E+02
      3.879  0.0000E+00  0.2000E+02
      4.043  0.0000E+00  0.2000E+02
      4.208  0.0000E+00  0.2000E+02
      4.372  0.0000E+00  0.2000E+02
      4.537  0.0000E+00  0.2000E+02
      4.701  0.0000E+00  0.2000E+02
      4.866  0.0000E+00  0.2000E+02
      5.031  0.4425E-01  0.2001E+02
      5.195  0.1221E+01  0.2027E+02
      5.360  0.6015E+00  0.2071E+02
      5.524  0.7224E+00  0.2105E+02
      5.689  0.8067E+00  0.2126E+02
      5.853  0.1317E+01  0.2188E+02
      6.018  0.1982E+01  0.2285E+02
      6.183  0.2367E+01  0.2363E+02
      6.347  0.3175E+01  0.2456E+02
      6.512  0.1934E+01  0.2530E+02
      6.676  0.1734E+01  0.2587E+02
      6.841  0.6652E+00  0.2607E+02
      7.005  0.5259E+01  0.2697E+02
      7.170  0.2932E+01  0.2833E+02
      7.335  0.2610E+01  0.2920E+02
      7.499  0.1667E+01  0.2999E+02
      7.664  0.8071E+00  0.3022E+02
      7.828  0.1202E+01  0.3048E+02
      7.993  0.2129E+01  0.3092E+02
      8.157  0.8236E+00  0.3119E+02
      8.322  0.4796E+00  0.3150E+02
      8.486  0.5110E+00  0.3166E+02
      8.651  0.3356E+00  0.3186E+02
      8.816  0.4714E+00  0.3202E+02
      8.980  0.9604E+00  0.3228E+02
      9.145  0.4472E+00  0.3252E+02
      9.309  0.5520E+00  0.3272E+02
      9.474  0.5974E+00  0.3309E+02
      9.638  0.9160E+00  0.3327E+02
      9.803  0.9805E+00  0.3357E+02
      9.968  0.8228E+00  0.3376E+02
     10.132  0.4752E+01  0.3479E+02
     10.297  0.2468E+01  0.3568E+02
     10.461  0.6037E+00  0.3597E+02
     10.626  0.1660E-01  0.3600E+02
     10.790  0.0000E+00  0.3600E+02
     10.955  0.0000E+00  0.3600E+02
     11.120  0.1328E+00  0.3603E+02
     11.284  0.1198E+01  0.3641E+02
     11.449  0.1652E+01  0.3697E+02
     11.613  0.1974E+01  0.3759E+02
     11.778  0.6295E+00  0.3800E+02
     11.942  0.3437E+01  0.3871E+02
     12.107  0.4185E+01  0.4111E+02
     12.271  0.3020E+01  0.4237E+02
     12.436  0.6822E+01  0.4510E+02
     12.601  0.7583E+01  0.4738E+02
     12.765  0.5885E+00  0.4798E+02
     12.930  0.0000E+00  0.4800E+02
     13.094  0.0000E+00  0.4800E+02
     13.259  0.0000E+00  0.4800E+02
     13.423  0.0000E+00  0.4800E+02
     13.588  0.0000E+00  0.4800E+02
     13.753  0.0000E+00  0.4800E+02
     13.917  0.0000E+00  0.4800E+02
     14.082  0.0000E+00  0.4800E+02
     14.246  0.0000E+00  0.4800E+02
     14.411  0.0000E+00  0.4800E+02
     14.575  0.0000E+00  0.4800E+02
     14.740  0.0000E+00  0.4800E+02
     14.905  0.0000E+00  0.4800E+02
     15.069  0.0000E+00  0.4800E+02
