    3    3    1    1
  0.2142297E+02  0.4496127E-09  0.4496127E-09  0.4496127E-09  0.5000000E-15
  1.000000000000000E-004
  CAR
 unknown system
     39     84     24

  0.0000000E+00  0.0000000E+00  0.0000000E+00  0.4551661E-03
    1      -32.056584   1.000000
    2      -11.218254   1.000000
    3      -11.218254   1.000000
    4      -11.180033   1.000000
    5      -11.180033   1.000000
    6      -11.180033   1.000000
    7       -7.503935   1.000000
    8       -7.503935   1.000000
    9       -7.503935   1.000000
   10       -1.370528   1.000000
   11        6.759216   1.000000
   12        6.759216   1.000000
   13        6.759216   1.000000
   14        6.857514   1.000000
   15        6.857514   1.000000
   16       10.551099   1.000000
   17       10.551099   1.000000
   18       10.551099   1.000000
   19       10.688032   1.000000
   20       11.792539   1.000000
   21       11.792539   1.000000
   22       11.792539   1.000000
   23       12.283682   0.000000
   24       12.283686   0.000000

  0.7692308E-01 -0.2857599E-17  0.2026855E-17  0.3641329E-02
    1      -32.055985   1.000000
    2      -11.221497   1.000000
    3      -11.221497   1.000000
    4      -11.180642   1.000000
    5      -11.179680   1.000000
    6      -11.179680   1.000000
    7       -7.531534   1.000000
    8       -7.496474   1.000000
    9       -7.496474   1.000000
   10       -1.272885   1.000000
   11        6.535951   1.000000
   12        6.535951   1.000000
   13        6.629584   1.000000
   14        7.067945   1.000000
   15        7.067945   1.000000
   16        9.895623   1.000000
   17       10.482176   1.000000
   18       10.482176   1.000000
   19       11.040040   1.000000
   20       11.810128   1.000000
   21       11.810128   1.000000
   22       11.891157   1.000000
   23       12.340513   0.000000
   24       12.353473   0.000000

  0.1538462E+00 -0.4729828E-17  0.3068339E-17  0.3641329E-02
    1      -32.054334   1.000000
    2      -11.230433   1.000000
    3      -11.230433   1.000000
    4      -11.182565   1.000000
    5      -11.178668   1.000000
    6      -11.178667   1.000000
    7       -7.603450   1.000000
    8       -7.475901   1.000000
    9       -7.475901   1.000000
   10       -1.003159   1.000000
   11        6.291598   1.000000
   12        6.304721   1.000000
   13        6.304721   1.000000
   14        7.246052   1.000000
   15        7.246052   1.000000
   16        9.140033   1.000000
   17       10.343198   1.000000
   18       10.343198   1.000000
   19       11.051814   1.000000
   20       11.846719   1.000000
   21       11.846719   1.000000
   22       12.181059   0.000000
   23       12.504014   0.000000
   24       12.510112   0.000000

  0.2307692E+00 -0.6485331E-18 -0.1843700E-17  0.3641329E-02
    1      -32.052005   1.000000
    2      -11.242875   1.000000
    3      -11.242875   1.000000
    4      -11.185872   1.000000
    5      -11.177213   1.000000
    6      -11.177213   1.000000
    7       -7.694606   1.000000
    8       -7.447125   1.000000
    9       -7.447125   1.000000
   10       -0.623906   1.000000
   11        5.859983   1.000000
   12        6.136689   1.000000
   13        6.136689   1.000000
   14        7.295088   1.000000
   15        7.295088   1.000000
   16        8.475448   1.000000
   17       10.242840   1.000000
   18       10.242840   1.000000
   19       11.019858   1.000000
   20       11.892054   1.000000
   21       11.892054   1.000000
   22       12.296965   0.000000
   23       12.366252   0.000000
   24       12.626621   0.000000

  0.3076923E+00 -0.9459655E-17  0.6136677E-17  0.3641329E-02
    1      -32.049538   1.000000
    2      -11.255880   1.000000
    3      -11.255880   1.000000
    4      -11.190196   1.000000
    5      -11.175656   1.000000
    6      -11.175656   1.000000
    7       -7.779920   1.000000
    8       -7.416872   1.000000
    9       -7.416872   1.000000
   10       -0.221684   1.000000
   11        5.452335   1.000000
   12        6.045962   1.000000
   13        6.045962   1.000000
   14        7.209436   1.000000
   15        7.209436   1.000000
   16        7.961354   1.000000
   17       10.224127   1.000000
   18       10.224127   1.000000
   19       11.052954   1.000000
   20       11.949282   0.732963
   21       11.949282   0.732962
   22       12.304160   0.000000
   23       12.466785   0.000000
   24       12.615801   0.000000

  0.3846154E+00 -0.5378361E-17  0.1224638E-17  0.3641329E-02
    1      -32.047496   1.000000
    2      -11.266513   1.000000
    3      -11.266513   1.000000
    4      -11.194446   1.000000
    5      -11.174355   1.000000
    6      -11.174355   1.000000
    7       -7.842719   1.000000
    8       -7.392020   1.000000
    9       -7.392020   1.000000
   10        0.110729   1.000000
   11        5.153585   1.000000
   12        6.025478   1.000000
   13        6.025478   1.000000
   14        7.054500   1.000000
   15        7.054500   1.000000
   16        7.615468   1.000000
   17       10.256071   1.000000
   18       10.256071   1.000000
   19       11.140548   1.000000
   20       12.018349   0.000000
   21       12.018349   0.000000
   22       12.310138   0.000000
   23       12.524142   0.000000
   24       12.536222   0.000000

  0.4615385E+00  0.5383456E-17 -0.1036792E-16  0.3641329E-02
    1      -32.046344   1.000000
    2      -11.272441   1.000000
    3      -11.272441   1.000000
    4      -11.197112   1.000000
    5      -11.173618   1.000000
    6      -11.173618   1.000000
    7       -7.875284   1.000000
    8       -7.378075   1.000000
    9       -7.378075   1.000000
   10        0.297094   1.000000
   11        5.002073   1.000000
   12        6.040364   1.000000
   13        6.040364   1.000000
   14        6.932489   1.000000
   15        6.932489   1.000000
   16        7.441594   1.000000
   17       10.287260   1.000000
   18       10.287260   1.000000
   19       11.223032   1.000000
   20       12.079903   0.000000
   21       12.079903   0.000000
   22       12.313527   0.000000
   23       12.437711   0.000000
   24       12.437711   0.000000

  0.7692308E-01  0.7692308E-01 -0.1177016E-17  0.2730997E-02
    1      -32.055790   1.000000
    2      -11.227055   1.000000
    3      -11.217484   1.000000
    4      -11.180910   1.000000
    5      -11.179545   1.000000
    6      -11.179545   1.000000
    7       -7.518252   1.000000
    8       -7.505550   1.000000
    9       -7.505550   1.000000
   10       -1.242447   1.000000
   11        6.242223   1.000000
   12        6.770582   1.000000
   13        6.770582   1.000000
   14        6.871489   1.000000
   15        7.134921   1.000000
   16        9.898838   1.000000
   17       10.367934   1.000000
   18       10.367934   1.000000
   19       11.162275   1.000000
   20       11.802303   1.000000
   21       11.858205   1.000000
   22       11.858205   1.000000
   23       12.297531   0.000000
   24       12.370965   0.000000

  0.1538462E+00  0.7692308E-01 -0.6200050E-18  0.1092399E-01
    1      -32.054499   1.000000
    2      -11.236872   1.000000
    3      -11.220100   1.000000
    4      -11.182371   1.000000
    5      -11.178848   1.000000
    6      -11.178654   1.000000
    7       -7.573245   1.000000
    8       -7.499594   1.000000
    9       -7.482937   1.000000
   10       -1.036816   1.000000
   11        5.925919   1.000000
   12        6.589719   1.000000
   13        6.617344   1.000000
   14        7.048264   1.000000
   15        7.275774   1.000000
   16        9.372011   1.000000
   17       10.217243   1.000000
   18       10.228808   1.000000
   19       11.202892   1.000000
   20       11.816378   1.000000
   21       11.892267   1.000000
   22       12.085061   0.000000
   23       12.305168   0.000000
   24       12.487082   0.000000

  0.2307692E+00  0.7692308E-01  0.1406850E-17  0.1092399E-01
    1      -32.052409   1.000000
    2      -11.248620   1.000000
    3      -11.228754   1.000000
    4      -11.184959   1.000000
    5      -11.177844   1.000000
    6      -11.177144   1.000000
    7       -7.658770   1.000000
    8       -7.480123   1.000000
    9       -7.451507   1.000000
   10       -0.706574   1.000000
   11        5.641228   1.000000
   12        6.317973   1.000000
   13        6.412575   1.000000
   14        7.141985   1.000000
   15        7.382597   1.000000
   16        8.743590   1.000000
   17       10.093415   1.000000
   18       10.128727   1.000000
   19       11.171967   1.000000
   20       11.859186   1.000000
   21       11.917251   1.000000
   22       12.301617   0.000000
   23       12.309710   0.000000
   24       12.596789   0.000000

  0.3076923E+00  0.7692308E-01 -0.4490560E-17  0.1092399E-01
    1      -32.050002   1.000000
    2      -11.259588   1.000000
    3      -11.241205   1.000000
    4      -11.188587   1.000000
    5      -11.176657   1.000000
    6      -11.175461   1.000000
    7       -7.745839   1.000000
    8       -7.451797   1.000000
    9       -7.422109   1.000000
   10       -0.331123   1.000000
   11        5.394083   1.000000
   12        6.065756   1.000000
   13        6.290607   1.000000
   14        7.097776   1.000000
   15        7.371105   1.000000
   16        8.190051   1.000000
   17       10.034046   1.000000
   18       10.133765   1.000000
   19       11.158304   1.000000
   20       11.928740   0.999790
   21       11.951707   0.609800
   22       12.313796   0.000000
   23       12.409541   0.000000
   24       12.610866   0.000000

  0.3846154E+00  0.7692308E-01  0.4475188E-17  0.1092399E-01
    1      -32.047829   1.000000
    2      -11.267343   1.000000
    3      -11.254425   1.000000
    4      -11.192575   1.000000
    5      -11.175469   1.000000
    6      -11.174077   1.000000
    7       -7.815263   1.000000
    8       -7.421154   1.000000
    9       -7.401282   1.000000
   10        0.000889   1.000000
   11        5.200390   1.000000
   12        5.949428   1.000000
   13        6.209623   1.000000
   14        6.985343   1.000000
   15        7.252721   1.000000
   16        7.773834   1.000000
   17       10.050112   1.000000
   18       10.188969   1.000000
   19       11.196946   1.000000
   20       12.004417   0.000000
   21       12.005348   0.000000
   22       12.315267   0.000000
   23       12.452332   0.000000
   24       12.570651   0.000000

  0.4615385E+00  0.7692308E-01 -0.1281252E-16  0.1092399E-01
    1      -32.046386   1.000000
    2      -11.270271   1.000000
    3      -11.265448   1.000000
    4      -11.195616   1.000000
    5      -11.174554   1.000000
    6      -11.173317   1.000000
    7       -7.856882   1.000000
    8       -7.395093   1.000000
    9       -7.393465   1.000000
   10        0.216030   1.000000
   11        5.087960   1.000000
   12        5.963731   1.000000
   13        6.123600   1.000000
   14        6.924454   1.000000
   15        7.091187   1.000000
   16        7.525038   1.000000
   17       10.091142   1.000000
   18       10.234459   1.000000
   19       11.265288   1.000000
   20       12.069233   0.000000
   21       12.070404   0.000000
   22       12.309328   0.000000
   23       12.427117   0.000000
   24       12.507187   0.000000

 -0.4615385E+00  0.7692308E-01 -0.8441951E-17  0.1092399E-01
    1      -32.046002   1.000000
    2      -11.271900   1.000000
    3      -11.267794   1.000000
    4      -11.196435   1.000000
    5      -11.174142   1.000000
    6      -11.173320   1.000000
    7       -7.867125   1.000000
    8       -7.400123   1.000000
    9       -7.379392   1.000000
   10        0.274285   1.000000
   11        5.060422   1.000000
   12        6.007155   1.000000
   13        6.058407   1.000000
   14        6.965042   1.000000
   15        6.989157   1.000000
   16        7.463489   1.000000
   17       10.103102   1.000000
   18       10.242417   1.000000
   19       11.294976   1.000000
   20       12.077640   0.000000
   21       12.111971   0.000000
   22       12.296761   0.000000
   23       12.434903   0.000000
   24       12.448395   0.000000

 -0.3846154E+00  0.7692308E-01  0.2025912E-17  0.1092399E-01
    1      -32.046764   1.000000
    2      -11.272440   1.000000
    3      -11.260449   1.000000
    4      -11.194647   1.000000
    5      -11.174379   1.000000
    6      -11.174058   1.000000
    7       -7.845591   1.000000
    8       -7.419523   1.000000
    9       -7.377545   1.000000
   10        0.165965   1.000000
   11        5.120813   1.000000
   12        5.902491   1.000000
   13        6.173563   1.000000
   14        6.939908   1.000000
   15        7.147978   1.000000
   16        7.592281   1.000000
   17       10.056678   1.000000
   18       10.222321   1.000000
   19       11.252162   1.000000
   20       12.029513   0.000000
   21       12.072463   0.000000
   22       12.304227   0.000000
   23       12.472797   0.000000
   24       12.493559   0.000000

 -0.3076923E+00  0.7692308E-01 -0.2886127E-17  0.1092399E-01
    1      -32.048499   1.000000
    2      -11.266980   1.000000
    3      -11.249716   1.000000
    4      -11.191043   1.000000
    5      -11.175327   1.000000
    6      -11.175228   1.000000
    7       -7.793958   1.000000
    8       -7.447137   1.000000
    9       -7.390059   1.000000
   10       -0.092558   1.000000
   11        5.292501   1.000000
   12        5.859970   1.000000
   13        6.285797   1.000000
   14        7.014885   1.000000
   15        7.323044   1.000000
   16        7.897495   1.000000
   17        9.962979   1.000000
   18       10.209997   1.000000
   19       11.188982   1.000000
   20       11.974015   0.002014
   21       11.992837   0.000000
   22       12.309838   0.000000
   23       12.469665   0.000000
   24       12.546400   0.000000

 -0.2307692E+00  0.7692308E-01 -0.8783537E-17  0.1092399E-01
    1      -32.050811   1.000000
    2      -11.256657   1.000000
    3      -11.237855   1.000000
    4      -11.187028   1.000000
    5      -11.176820   1.000000
    6      -11.176509   1.000000
    7       -7.718136   1.000000
    8       -7.476441   1.000000
    9       -7.414252   1.000000
   10       -0.449333   1.000000
   11        5.578302   1.000000
   12        5.905481   1.000000
   13        6.428815   1.000000
   14        7.095781   1.000000
   15        7.432298   1.000000
   16        8.360321   1.000000
   17        9.881020   1.000000
   18       10.250275   1.000000
   19       11.161162   1.000000
   20       11.912499   1.000000
   21       11.932196   0.998810
   22       12.307209   0.000000
   23       12.394677   0.000000
   24       12.597307   0.000000

 -0.1538462E+00  0.7692308E-01  0.1822114E-18  0.1092399E-01
    1      -32.053173   1.000000
    2      -11.243704   1.000000
    3      -11.227639   1.000000
    4      -11.183738   1.000000
    5      -11.178201   1.000000
    6      -11.177923   1.000000
    7       -7.632173   1.000000
    8       -7.499805   1.000000
    9       -7.444726   1.000000
   10       -0.821611   1.000000
   11        5.930864   1.000000
   12        6.044124   1.000000
   13        6.626402   1.000000
   14        7.077174   1.000000
   15        7.418745   1.000000
   16        8.941361   1.000000
   17        9.906082   1.000000
   18       10.357198   1.000000
   19       11.177228   1.000000
   20       11.842296   1.000000
   21       11.901651   1.000000
   22       12.265219   0.000000
   23       12.301282   0.000000
   24       12.552712   0.000000

 -0.7692308E-01  0.7692308E-01 -0.5715198E-17  0.5461994E-02
    1      -32.055040   1.000000
    2      -11.231012   1.000000
    3      -11.221669   1.000000
    4      -11.181613   1.000000
    5      -11.179199   1.000000
    6      -11.179080   1.000000
    7       -7.561557   1.000000
    8       -7.507723   1.000000
    9       -7.474461   1.000000
   10       -1.120169   1.000000
   11        6.264076   1.000000
   12        6.283922   1.000000
   13        6.780908   1.000000
   14        6.981169   1.000000
   15        7.282131   1.000000
   16        9.514980   1.000000
   17       10.141542   1.000000
   18       10.469967   1.000000
   19       11.170255   1.000000
   20       11.798563   1.000000
   21       11.864409   1.000000
   22       12.050644   0.000000
   23       12.293458   0.000000
   24       12.433253   0.000000

  0.1538462E+00  0.1538462E+00 -0.2354031E-17  0.2730997E-02
    1      -32.053629   1.000000
    2      -11.245197   1.000000
    3      -11.215331   1.000000
    4      -11.183701   1.000000
    5      -11.178043   1.000000
    6      -11.178043   1.000000
    7       -7.558335   1.000000
    8       -7.510262   1.000000
    9       -7.510262   1.000000
   10       -0.916073   1.000000
   11        5.581049   1.000000
   12        6.782927   1.000000
   13        6.782927   1.000000
   14        6.910753   1.000000
   15        7.205269   1.000000
   16        9.344783   1.000000
   17       10.069941   1.000000
   18       10.069941   1.000000
   19       11.189884   1.000000
   20       11.928234   0.999840
   21       11.928234   0.999840
   22       12.037259   0.000000
   23       12.339501   0.000000
   24       12.551903   0.000000

  0.2307692E+00  0.1538462E+00 -0.1296123E-17  0.1092399E-01
    1      -32.051925   1.000000
    2      -11.253387   1.000000
    3      -11.217579   1.000000
    4      -11.185815   1.000000
    5      -11.177104   1.000000
    6      -11.176658   1.000000
    7       -7.621337   1.000000
    8       -7.505527   1.000000
    9       -7.487464   1.000000
   10       -0.677709   1.000000
   11        5.320614   1.000000
   12        6.603864   1.000000
   13        6.662370   1.000000
   14        7.006857   1.000000
   15        7.273138   1.000000
   16        9.007085   1.000000
   17        9.903304   1.000000
   18        9.993061   1.000000
   19       11.227490   1.000000
   20       11.897646   1.000000
   21       11.948799   0.754934
   22       12.210951   0.000000
   23       12.356209   0.000000
   24       12.631926   0.000000

  0.3076923E+00  0.1538462E+00 -0.3102215E-17  0.1092399E-01
    1      -32.049780   1.000000
    2      -11.259576   1.000000
    3      -11.226200   1.000000
    4      -11.188332   1.000000
    5      -11.176469   1.000000
    6      -11.174866   1.000000
    7       -7.703130   1.000000
    8       -7.486653   1.000000
    9       -7.458882   1.000000
   10       -0.388853   1.000000
   11        5.180255   1.000000
   12        6.305017   1.000000
   13        6.530937   1.000000
   14        7.013670   1.000000
   15        7.352978   1.000000
   16        8.546690   1.000000
   17        9.750807   1.000000
   18       10.014802   1.000000
   19       11.286024   1.000000
   20       11.919190   0.999999
   21       11.971965   0.004853
   22       12.320145   0.000000
   23       12.358012   0.000000
   24       12.647945   0.000000

  0.3846154E+00  0.1538462E+00 -0.5166678E-17  0.1092399E-01
    1      -32.047685   1.000000
    2      -11.262423   1.000000
    3      -11.238830   1.000000
    4      -11.191023   1.000000
    5      -11.176126   1.000000
    6      -11.173336   1.000000
    7       -7.773000   1.000000
    8       -7.458122   1.000000
    9       -7.441784   1.000000
   10       -0.123870   1.000000
   11        5.168542   1.000000
   12        6.071677   1.000000
   13        6.400772   1.000000
   14        6.962888   1.000000
   15        7.342975   1.000000
   16        8.095428   1.000000
   17        9.694354   1.000000
   18       10.084748   1.000000
   19       11.313435   1.000000
   20       11.987161   0.000001
   21       12.011518   0.000000
   22       12.351269   0.000000
   23       12.366546   0.000000
   24       12.616575   0.000000

  0.4615385E+00  0.1538462E+00 -0.2881452E-17  0.1092399E-01
    1      -32.046121   1.000000
    2      -11.261457   1.000000
    3      -11.252410   1.000000
    4      -11.193229   1.000000
    5      -11.175937   1.000000
    6      -11.172487   1.000000
    7       -7.818306   1.000000
    8       -7.440202   1.000000
    9       -7.426444   1.000000
   10        0.063388   1.000000
   11        5.239721   1.000000
   12        5.967322   1.000000
   13        6.229744   1.000000
   14        6.969745   1.000000
   15        7.247550   1.000000
   16        7.757650   1.000000
   17        9.697801   1.000000
   18       10.134241   1.000000
   19       11.354804   1.000000
   20       12.045101   0.000000
   21       12.071605   0.000000
   22       12.332662   0.000000
   23       12.390010   0.000000
   24       12.585751   0.000000

 -0.4615385E+00  0.1538462E+00 -0.4206030E-17  0.1092399E-01
    1      -32.045442   1.000000
    2      -11.263954   1.000000
    3      -11.257139   1.000000
    4      -11.193952   1.000000
    5      -11.175867   1.000000
    6      -11.172468   1.000000
    7       -7.834523   1.000000
    8       -7.453604   1.000000
    9       -7.398698   1.000000
   10        0.151369   1.000000
   11        5.289595   1.000000
   12        6.008393   1.000000
   13        6.032138   1.000000
   14        7.074472   1.000000
   15        7.111898   1.000000
   16        7.617755   1.000000
   17        9.695720   1.000000
   18       10.136422   1.000000
   19       11.397644   1.000000
   20       12.050058   0.000000
   21       12.138988   0.000000
   22       12.294022   0.000000
   23       12.430546   0.000000
   24       12.517193   0.000000

 -0.3846154E+00  0.1538462E+00 -0.2149374E-16  0.1092399E-01
    1      -32.045802   1.000000
    2      -11.271016   1.000000
    3      -11.250450   1.000000
    4      -11.192686   1.000000
    5      -11.175967   1.000000
    6      -11.173199   1.000000
    7       -7.821922   1.000000
    8       -7.477569   1.000000
    9       -7.381070   1.000000
   10        0.133270   1.000000
   11        5.266451   1.000000
   12        5.862494   1.000000
   13        6.159171   1.000000
   14        7.003750   1.000000
   15        7.241807   1.000000
   16        7.708858   1.000000
   17        9.633599   1.000000
   18       10.110953   1.000000
   19       11.398777   1.000000
   20       12.012571   0.000000
   21       12.151829   0.000000
   22       12.274386   0.000000
   23       12.471627   0.000000
   24       12.487087   0.000000

 -0.3076923E+00  0.1538462E+00  0.7044945E-17  0.1092399E-01
    1      -32.047122   1.000000
    2      -11.272135   1.000000
    3      -11.242586   1.000000
    4      -11.190065   1.000000
    5      -11.176241   1.000000
    6      -11.174459   1.000000
    7       -7.783819   1.000000
    8       -7.504575   1.000000
    9       -7.377582   1.000000
   10        0.000318   1.000000
   11        5.251139   1.000000
   12        5.763169   1.000000
   13        6.359333   1.000000
   14        6.959550   1.000000
   15        7.412643   1.000000
   16        7.990950   1.000000
   17        9.502507   1.000000
   18       10.102306   1.000000
   19       11.363030   1.000000
   20       11.974952   0.001313
   21       12.077137   0.000000
   22       12.303647   0.000000
   23       12.457293   0.000000
   24       12.507666   0.000000

 -0.2307692E+00  0.1538462E+00 -0.4547616E-17  0.1092399E-01
    1      -32.049098   1.000000
    2      -11.267077   1.000000
    3      -11.234945   1.000000
    4      -11.187355   1.000000
    5      -11.176647   1.000000
    6      -11.175916   1.000000
    7       -7.728151   1.000000
    8       -7.524527   1.000000
    9       -7.389183   1.000000
   10       -0.240697   1.000000
   11        5.349322   1.000000
   12        5.757686   1.000000
   13        6.572503   1.000000
   14        6.951245   1.000000
   15        7.521139   1.000000
   16        8.393529   1.000000
   17        9.367322   1.000000
   18       10.152883   1.000000
   19       11.322019   1.000000
   20       11.951732   0.608488
   21       11.985616   0.000003
   22       12.317426   0.000000
   23       12.413166   0.000000
   24       12.553464   0.000000

 -0.1538462E+00  0.1538462E+00 -0.9459655E-17  0.5461994E-02
    1      -32.051283   1.000000
    2      -11.256884   1.000000
    3      -11.229366   1.000000
    4      -11.185284   1.000000
    5      -11.177249   1.000000
    6      -11.177201   1.000000
    7       -7.671587   1.000000
    8       -7.524679   1.000000
    9       -7.413390   1.000000
   10       -0.541390   1.000000
   11        5.591107   1.000000
   12        5.853767   1.000000
   13        6.755098   1.000000
   14        6.926184   1.000000
   15        7.522466   1.000000
   16        8.764621   1.000000
   17        9.437743   1.000000
   18       10.262210   1.000000
   19       11.277261   1.000000
   20       11.898956   1.000000
   21       11.933915   0.997406
   22       12.314296   0.000000
   23       12.348629   0.000000
   24       12.578946   0.000000

  0.2307692E+00  0.2307692E+00 -0.3531047E-17  0.2730997E-02
    1      -32.050666   1.000000
    2      -11.255893   1.000000
    3      -11.212303   1.000000
    4      -11.187948   1.000000
    5      -11.175607   1.000000
    6      -11.175607   1.000000
    7       -7.617532   1.000000
    8       -7.517478   1.000000
    9       -7.517478   1.000000
   10       -0.558096   1.000000
   11        5.116109   1.000000
   12        6.749878   1.000000
   13        6.749878   1.000000
   14        6.967528   1.000000
   15        7.073844   1.000000
   16        8.982060   1.000000
   17        9.926563   1.000000
   18        9.926563   1.000000
   19       11.159240   1.000000
   20       11.970317   0.009310
   21       11.970317   0.009310
   22       12.167043   0.000000
   23       12.410320   0.000000
   24       12.706972   0.000000

  0.3076923E+00  0.2307692E+00 -0.5366771E-17  0.1092399E-01
    1      -32.048923   1.000000
    2      -11.255500   1.000000
    3      -11.214460   1.000000
    4      -11.190170   1.000000
    5      -11.174578   1.000000
    6      -11.173942   1.000000
    7       -7.673490   1.000000
    8       -7.513372   1.000000
    9       -7.505444   1.000000
   10       -0.395320   1.000000
   11        5.073697   1.000000
   12        6.528723   1.000000
   13        6.665287   1.000000
   14        6.995941   1.000000
   15        7.126760   1.000000
   16        8.754830   1.000000
   17        9.789757   1.000000
   18        9.959502   1.000000
   19       11.274073   1.000000
   20       11.952076   0.589653
   21       11.990363   0.000000
   22       12.225217   0.000000
   23       12.434725   0.000000
   24       12.724100   0.000000

  0.3846154E+00  0.2307692E+00 -0.1294634E-16  0.1092399E-01
    1      -32.047099   1.000000
    2      -11.252371   1.000000
    3      -11.223246   1.000000
    4      -11.191904   1.000000
    5      -11.174555   1.000000
    6      -11.172292   1.000000
    7       -7.734878   1.000000
    8       -7.494326   1.000000
    9       -7.493929   1.000000
   10       -0.238716   1.000000
   11        5.197189   1.000000
   12        6.249721   1.000000
   13        6.525170   1.000000
   14        7.000257   1.000000
   15        7.224165   1.000000
   16        8.422656   1.000000
   17        9.572551   1.000000
   18       10.037118   1.000000
   19       11.401416   1.000000
   20       11.963238   0.088205
   21       12.021538   0.000000
   22       12.278885   0.000000
   23       12.428703   0.000000
   24       12.677570   0.000000

  0.4615385E+00  0.2307692E+00 -0.1350869E-16  0.1092399E-01
    1      -32.045606   1.000000
    2      -11.247448   1.000000
    3      -11.236229   1.000000
    4      -11.192659   1.000000
    5      -11.175502   1.000000
    6      -11.171315   1.000000
    7       -7.775660   1.000000
    8       -7.499245   1.000000
    9       -7.464782   1.000000
   10       -0.115930   1.000000
   11        5.428051   1.000000
   12        6.068705   1.000000
   13        6.328924   1.000000
   14        7.045091   1.000000
   15        7.249269   1.000000
   16        8.075726   1.000000
   17        9.415458   1.000000
   18       10.079754   1.000000
   19       11.454615   1.000000
   20       12.005756   0.000000
   21       12.070960   0.000000
   22       12.332196   0.000000
   23       12.400053   0.000000
   24       12.617264   0.000000

 -0.4615385E+00  0.2307692E+00  0.9714642E-17  0.1092399E-01
    1      -32.044787   1.000000
    2      -11.250367   1.000000
    3      -11.242293   1.000000
    4      -11.191864   1.000000
    5      -11.177028   1.000000
    6      -11.171233   1.000000
    7       -7.789128   1.000000
    8       -7.521002   1.000000
    9       -7.431407   1.000000
   10       -0.030156   1.000000
   11        5.627159   1.000000
   12        6.004445   1.000000
   13        6.105952   1.000000
   14        7.155084   1.000000
   15        7.183304   1.000000
   16        7.869354   1.000000
   17        9.306416   1.000000
   18       10.059781   1.000000
   19       11.493489   1.000000
   20       12.005242   0.000000
   21       12.134308   0.000000
   22       12.348050   0.000000
   23       12.411692   0.000000
   24       12.566637   0.000000

 -0.3846154E+00  0.2307692E+00  0.3817232E-17  0.1092399E-01
    1      -32.044830   1.000000
    2      -11.262597   1.000000
    3      -11.238263   1.000000
    4      -11.189531   1.000000
    5      -11.178511   1.000000
    6      -11.171944   1.000000
    7       -7.777884   1.000000
    8       -7.550947   1.000000
    9       -7.401667   1.000000
   10        0.019027   1.000000
   11        5.614269   1.000000
   12        5.904516   1.000000
   13        6.065884   1.000000
   14        7.083011   1.000000
   15        7.305292   1.000000
   16        7.922222   1.000000
   17        9.196071   1.000000
   18       10.009937   1.000000
   19       11.519186   1.000000
   20       11.964573   0.061705
   21       12.193019   0.000000
   22       12.281463   0.000000