 vasp.6.0.8 29Jun18 (build Jun 13 2019 12:54:44) complex

 executed on      IFC18_CrayMPICH date 2021.12.05  14:21:49
 running   64 mpi-ranks, with    1 threads/rank
 distrk:  each k-point on   16 cores,    4 groups
 distr:  one band on NCORES_PER_BAND=   4 cores,    4 groups


--------------------------------------------------------------------------------------------------------


 INCAR:
 POTCAR:    PAW_PBE U 06Sep2000
 POTCAR:    PAW_PBE Bi_d 06Sep2000
 POTCAR:    PAW_PBE Pt 04Feb2005
 POTCAR:    PAW_PBE U 06Sep2000
   VRHFIN =U:  [Xe,5d,4f]
   LEXCH  = PE
   EATOM  =  1405.3058 eV,  103.2871 Ry

   TITEL  = PAW_PBE U 06Sep2000
   LULTRA =        F    use ultrasoft PP ?
   IUNSCR =        1    unscreen: 0-lin 1-nonlin 2-no
   RPACOR =    2.200    partial core radius
   POMASS =  238.029; ZVAL   =   14.000    mass and valenz
   RCORE  =    2.800    outmost cutoff radius
   RWIGS  =    3.000; RWIGS  =    1.588    wigner-seitz radius (au A)
   ENMAX  =  252.502; ENMIN  =  189.376 eV
   RCLOC  =    1.811    cutoff for local pot
   LCOR   =        T    correct aug charges
   LPAW   =        T    paw PP
   EAUG   =  526.410
   DEXC   =    0.000
   RMAX   =    2.863    core radius for proj-oper
   RAUG   =    1.300    factor for augmentation sphere
   RDEP   =    2.950    radius for radial grids
   RDEPT  =    2.270    core radius for aug-charge

   Atomic configuration
   18 entries
     n  l   j            E        occ.
     1  0  0.50   -116038.1941   2.0000
     2  0  0.50    -21694.8835   2.0000
     2  1  1.50    -18009.1553   6.0000
     3  0  0.50     -5481.2929   2.0000
     3  1  1.50     -4458.9283   6.0000
     3  2  2.50     -3575.9978  10.0000
     4  0  0.50     -1400.5351   2.0000
     4  1  1.50     -1066.7807   6.0000
     4  2  2.50      -732.1336  10.0000
     4  3  3.50      -377.4393  14.0000
     5  0  0.50      -314.7366   2.0000
     5  1  1.50      -211.6057   6.0000
     5  2  2.50      -103.2045  10.0000
     6  0  0.50       -50.6026   2.0000
     7  0  0.50        -4.5896   2.0000
     6  1  1.50       -25.2884   6.0000
     6  2  1.50        -3.1039   2.0000
     5  3  2.50        -6.3670   2.0000
   Description
     l       E           TYP  RCUT    TYP  RCUT
     0    -50.6026097     23  2.600
     0     -4.5896371     23  2.600
     1    -25.2883770     23  2.500
     1     27.2116520     23  2.500
     2     -3.1038686     23  2.500
     2      0.8290654     23  2.500
     3     -6.3670133     23  2.800
     3     -7.7275959     23  2.800
  local pseudopotential read in
  partial core-charges read in
  partial kinetic energy density read in
  atomic valenz-charges read in
  non local Contribution for L=           0  read in
    real space projection operators read in
  non local Contribution for L=           0  read in
    real space projection operators read in
  non local Contribution for L=           1  read in
    real space projection operators read in
  non local Contribution for L=           1  read in
    real space projection operators read in
  non local Contribution for L=           2  read in
    real space projection operators read in
  non local Contribution for L=           2  read in
    real space projection operators read in
  non local Contribution for L=           3  read in
    real space projection operators read in
  non local Contribution for L=           3  read in
    real space projection operators read in
    PAW grid and wavefunctions read in

   number of l-projection  operators is LMAX  =           8
   number of lm-projection operators is LMMAX =          32

 POTCAR:    PAW_PBE Bi_d 06Sep2000
   VRHFIN =Bi:
   LEXCH  = PE
   EATOM  =  1959.2045 eV,  143.9975 Ry

   TITEL  = PAW_PBE Bi_d 06Sep2000
   LULTRA =        F    use ultrasoft PP ?
   IUNSCR =        1    unscreen: 0-lin 1-nonlin 2-no
   RPACOR =    2.200    partial core radius
   POMASS =  208.980; ZVAL   =   15.000    mass and valenz
   RCORE  =    2.500    outmost cutoff radius
   RWIGS  =    3.090; RWIGS  =    1.635    wigner-seitz radius (au A)
   ENMAX  =  242.839; ENMIN  =  182.129 eV
   ICORE  =        3    local potential
   LCOR   =        T    correct aug charges
   LPAW   =        T    paw PP
   EAUG   =  442.899
   DEXC   =    0.000
   RMAX   =    2.551    core radius for proj-oper
   RAUG   =    1.300    factor for augmentation sphere
   RDEP   =    2.650    radius for radial grids
   RDEPT  =    2.039    core radius for aug-charge

   Atomic configuration
   16 entries
     n  l   j            E        occ.
     1  0  0.50    -90639.6581   2.0000
     2  0  0.50    -16282.4666   2.0000
     2  1  1.50    -13922.8286   6.0000
     3  0  0.50     -3930.4763   2.0000
     3  1  1.50     -3256.7013   6.0000
     3  2  2.50     -2581.6168  10.0000
     4  0  0.50      -902.2614   2.0000
     4  1  1.50      -681.5915   6.0000
     4  2  2.50      -429.8249  10.0000
     4  3  3.50      -152.6004  14.0000
     5  0  0.50      -157.7156   2.0000
     5  1  1.50       -95.8054   6.0000
     5  2  2.50       -27.0806  10.0000
     6  0  0.50       -14.4732   2.0000
     6  1  1.50        -4.5702   3.0000
     5  3  2.50        -2.7212   0.0000
   Description
     l       E           TYP  RCUT    TYP  RCUT
     2    -27.0805982     23  2.500
     2     -1.3605826     23  2.500
     0    -14.4732271     23  2.500
     0      6.8029130     23  2.500
     1     -4.5701651     23  2.500
     1     13.6058260     23  2.500
     3     -1.3605826      7  2.500
  local pseudopotential read in
  partial core-charges read in
  partial kinetic energy density read in
  atomic valenz-charges read in
  non local Contribution for L=           2  read in
    real space projection operators read in
  non local Contribution for L=           2  read in
    real space projection operators read in
  non local Contribution for L=           0  read in
    real space projection operators read in
  non local Contribution for L=           0  read in
    real space projection operators read in
  non local Contribution for L=           1  read in
    real space projection operators read in
  non local Contribution for L=           1  read in
    real space projection operators read in
    PAW grid and wavefunctions read in

   number of l-projection  operators is LMAX  =           6
   number of lm-projection operators is LMMAX =          18

 POTCAR:    PAW_PBE Pt 04Feb2005
   VRHFIN =Pt: s1d9
   LEXCH  = PE
   EATOM  =   729.1176 eV,   53.5886 Ry

   TITEL  = PAW_PBE Pt 04Feb2005
   LULTRA =        F    use ultrasoft PP ?
   IUNSCR =        1    unscreen: 0-lin 1-nonlin 2-no
   RPACOR =    2.330    partial core radius
   POMASS =  195.080; ZVAL   =   10.000    mass and valenz
   RCORE  =    2.600    outmost cutoff radius
   RWIGS  =    2.750; RWIGS  =    1.455    wigner-seitz radius (au A)
   ENMAX  =  230.283; ENMIN  =  172.712 eV
   ICORE  =        3    local potential
   LCOR   =        T    correct aug charges
   LPAW   =        T    paw PP
   EAUG   =  358.966
   DEXC   =    0.000
   RMAX   =    2.658    core radius for proj-oper
   RAUG   =    1.300    factor for augmentation sphere
   RDEP   =    2.761    radius for radial grids
   RDEPT  =    2.203    core radius for aug-charge

   Atomic configuration
   16 entries
     n  l   j            E        occ.
     1  0  0.50    -78401.1885   2.0000
     2  0  0.50    -13770.7750   2.0000
     2  1  1.50    -11931.0468   6.0000
     3  0  0.50     -3234.7234   2.0000
     3  1  1.50     -2699.2216   6.0000
     3  2  2.50     -2119.5714  10.0000
     4  0  0.50      -695.1528   2.0000
     4  1  1.50      -519.6034   6.0000
     4  2  2.50      -306.6786  10.0000
     4  3  3.50       -70.1041  14.0000
     5  0  0.50      -101.7747   2.0000
     5  1  1.50       -55.9873   6.0000
     5  2  2.50        -6.1423   9.0000
     6  0  0.50        -5.6573   1.0000
     6  1  1.50        -6.8029   0.0000
     5  3  2.50        -1.3606   0.0000
   Description
     l       E           TYP  RCUT    TYP  RCUT
     2     -6.1423404     23  2.500
     2     -7.5029230     23  2.500
     0     -5.6573207     23  2.500
     0      0.7416693     23  2.500
     1     -2.7211652     23  2.600
     1     20.4087390     23  2.600
     3     -1.3605826     23  2.500
  local pseudopotential read in
  partial core-charges read in
  partial kinetic energy density read in
  atomic valenz-charges read in
  non local Contribution for L=           2  read in
    real space projection operators read in
  non local Contribution for L=           2  read in
    real space projection operators read in
  non local Contribution for L=           0  read in
    real space projection operators read in
  non local Contribution for L=           0  read in
    real space projection operators read in
  non local Contribution for L=           1  read in
    real space projection operators read in
  non local Contribution for L=           1  read in
    real space projection operators read in
    PAW grid and wavefunctions read in

   number of l-projection  operators is LMAX  =           6
   number of lm-projection operators is LMMAX =          18

 WARNING: PSMAXN for non-local potential too small
          PSMAXN should be >   13.5545592237991       NTYP=           1

 -----------------------------------------------------------------------------
|                                                                             |
|  ADVICE TO THIS USER RUNNING 'VASP/VAMP'   (HEAR YOUR MASTER'S VOICE ...):  |
|                                                                             |
|      You enforced a specific xc-type in the INCAR file,                     |
|      a different type was found on the POTCAR file                          |
|          I HOPE YOU KNOW, WHAT YOU ARE  DOING                               |
|                                                                             |
 -----------------------------------------------------------------------------

  PAW_PBE U 06Sep2000                   :
 energy of atom  1       EATOM=-1405.3058
 kinetic energy error for atom=    0.0006 (will be added to EATOM!!)
  PAW_PBE Bi_d 06Sep2000                :
 energy of atom  2       EATOM=-1959.2045
 kinetic energy error for atom=    0.0012 (will be added to EATOM!!)
  PAW_PBE Pt 04Feb2005                  :
 energy of atom  3       EATOM= -729.1176
 kinetic energy error for atom=    0.0010 (will be added to EATOM!!)


 POSCAR: U1 Bi1 Pt1
  positions in direct lattice
  No initial velocities read in
 exchange correlation table for  LEXCH =       14
   RHO(1)=    0.500       N(1)  =     2000
   RHO(2)=  100.500       N(2)  =     4000



--------------------------------------------------------------------------------------------------------


 ion  position               nearest neighbor table
   1  0.250  0.250  0.250-   3 2.75   3 2.75   3 2.75   3 2.75   2 3.18   2 3.18   2 3.18   2 3.18
                             2 3.18   2 3.18
   2  0.750  0.750  0.750-   3 2.75   3 2.75   3 2.75   3 2.75   1 3.18   1 3.18   1 3.18   1 3.18
                             1 3.18   1 3.18
   3  0.000  0.000  0.000-   2 2.75   2 2.75   2 2.75   1 2.75   2 2.75   1 2.75   1 2.75   1 2.75


  LATTYP: Found a face centered cubic cell.
 ALAT       =     6.3584843864

  Lattice vectors:

 A1 = (   0.0000000000,   3.1792421932,   3.1792421932)
 A2 = (   3.1792421932,   0.0000000000,   3.1792421932)
 A3 = (   3.1792421932,   3.1792421932,   0.0000000000)


Analysis of symmetry for initial positions (statically):
=====================================================================
 Subroutine PRICEL returns:
 Original cell was already a primitive cell.


 Routine SETGRP: Setting up the symmetry group for a
 face centered cubic supercell.


 Subroutine GETGRP returns: Found 24 space group operations
 (whereof 24 operations were pure point group operations)
 out of a pool of 48 trial point group operations.


The static configuration has the point symmetry T_d .


Analysis of symmetry for dynamics (positions and initial velocities):
=====================================================================
 Subroutine PRICEL returns:
 Original cell was already a primitive cell.


 Routine SETGRP: Setting up the symmetry group for a
 face centered cubic supercell.


 Subroutine GETGRP returns: Found 24 space group operations
 (whereof 24 operations were pure point group operations)
 out of a pool of 48 trial point group operations.


The dynamic configuration has the point symmetry T_d .


 Subroutine INISYM returns: Found 24 space group operations
 (whereof 24 operations are pure point group operations),
 and found     1 'primitive' translations


----------------------------------------------------------------------------------------

                                     Primitive cell

  volume of cell :      64.2689

  direct lattice vectors                    reciprocal lattice vectors
     0.000000000  3.179242193  3.179242193    -0.157270183  0.157270183  0.157270183
     3.179242193  0.000000000  3.179242193     0.157270183 -0.157270183  0.157270183
     3.179242193  3.179242193  0.000000000     0.157270183  0.157270183 -0.157270183

  length of vectors
     4.496127428  4.496127428  4.496127428     0.272399947  0.272399947  0.272399947

  position of ions in fractional coordinates (direct lattice)
     0.250000000  0.250000000  0.250000000
     0.750000000  0.750000000  0.750000000
     0.000000000  0.000000000  0.000000000

  ion indices of the primitive-cell ions
   primitive index   ion index
                 1           1
                 2           2
                 3           3

----------------------------------------------------------------------------------------



 KPOINTS: KPOINTS

Automatic generation of k-mesh.
Space group operators:
 irot       det(A)        alpha          n_x          n_y          n_z        tau_x        tau_y        tau_z
    1     1.000000     0.000000     1.000000     0.000000     0.000000     0.000000     0.000000     0.000000
    2     1.000000   120.000000    -0.577350    -0.577350    -0.577350     0.000000     0.000000     0.000000
    3     1.000000   120.000000     0.577350     0.577350     0.577350     0.000000     0.000000     0.000000
    4    -1.000000    90.000000    -0.000000    -0.000000    -1.000000     0.000000     0.000000     0.000000
    5    -1.000000   180.000000    -0.000000     0.707107     0.707107     0.000000     0.000000     0.000000
    6    -1.000000    90.000000    -0.000000     1.000000    -0.000000     0.000000     0.000000     0.000000
    7     1.000000   180.000000     0.000000    -0.000000    -1.000000     0.000000     0.000000     0.000000
    8     1.000000   120.000000    -0.577350     0.577350     0.577350     0.000000     0.000000     0.000000
    9     1.000000   120.000000    -0.577350     0.577350    -0.577350     0.000000     0.000000     0.000000
   10    -1.000000    90.000000     0.000000     0.000000     1.000000     0.000000     0.000000     0.000000
   11    -1.000000    90.000000    -1.000000     0.000000     0.000000     0.000000     0.000000     0.000000
   12    -1.000000   180.000000     0.707107     0.000000     0.707107     0.000000     0.000000     0.000000
   13     1.000000   120.000000     0.577350    -0.577350     0.577350     0.000000     0.000000     0.000000
   14     1.000000   120.000000    -0.577350    -0.577350     0.577350     0.000000     0.000000     0.000000
   15     1.000000   180.000000     1.000000     0.000000     0.000000     0.000000     0.000000     0.000000
   16    -1.000000    90.000000     0.000000    -1.000000     0.000000     0.000000     0.000000     0.000000
   17    -1.000000   180.000000     0.707107     0.707107    -0.000000     0.000000     0.000000     0.000000
   18    -1.000000    90.000000     1.000000     0.000000     0.000000     0.000000     0.000000     0.000000
   19     1.000000   120.000000     0.577350    -0.577350    -0.577350     0.000000     0.000000     0.000000
   20     1.000000   180.000000    -0.000000    -1.000000     0.000000     0.000000     0.000000     0.000000
   21     1.000000   120.000000     0.577350     0.577350    -0.577350     0.000000     0.000000     0.000000
   22    -1.000000   180.000000    -0.000000    -0.707107     0.707107     0.000000     0.000000     0.000000
   23    -1.000000   180.000000     0.707107    -0.707107     0.000000     0.000000     0.000000     0.000000
   24    -1.000000   180.000000     0.707107     0.000000    -0.707107     0.000000     0.000000     0.000000

 Subroutine IBZKPT returns following result:
 ===========================================

 Found     84 irreducible k-points:

 Following reciprocal coordinates:
            Coordinates               Weight
  0.000000  0.000000  0.000000      1.000000
  0.076923 -0.000000  0.000000      8.000000
  0.153846 -0.000000  0.000000      8.000000
  0.230769 -0.000000 -0.000000      8.000000
  0.307692 -0.000000  0.000000      8.000000
  0.384615 -0.000000  0.000000      8.000000
  0.461538  0.000000 -0.000000      8.000000
  0.076923  0.076923 -0.000000      6.000000
  0.153846  0.076923 -0.000000     24.000000
  0.230769  0.076923  0.000000     24.000000
  0.307692  0.076923 -0.000000     24.000000
  0.384615  0.076923  0.000000     24.000000
  0.461538  0.076923 -0.000000     24.000000
 -0.461538  0.076923 -0.000000     24.000000
 -0.384615  0.076923  0.000000     24.000000
 -0.307692  0.076923 -0.000000     24.000000
 -0.230769  0.076923 -0.000000     24.000000
 -0.153846  0.076923  0.000000     24.000000
 -0.076923  0.076923 -0.000000     12.000000
  0.153846  0.153846 -0.000000      6.000000
  0.230769  0.153846 -0.000000     24.000000
  0.307692  0.153846 -0.000000     24.000000
  0.384615  0.153846 -0.000000     24.000000
  0.461538  0.153846 -0.000000     24.000000
 -0.461538  0.153846 -0.000000     24.000000
 -0.384615  0.153846 -0.000000     24.000000
 -0.307692  0.153846  0.000000     24.000000
 -0.230769  0.153846 -0.000000     24.000000
 -0.153846  0.153846 -0.000000     12.000000
  0.230769  0.230769 -0.000000      6.000000
  0.307692  0.230769 -0.000000     24.000000
  0.384615  0.230769 -0.000000     24.000000
  0.461538  0.230769 -0.000000     24.000000
 -0.461538  0.230769  0.000000     24.000000
 -0.384615  0.230769  0.000000     24.000000
 -0.307692  0.230769 -0.000000     24.000000
 -0.230769  0.230769 -0.000000     12.000000
  0.307692  0.307692 -0.000000      6.000000
  0.384615  0.307692 -0.000000     24.000000
  0.461538  0.307692 -0.000000     24.000000
 -0.461538  0.307692  0.000000     24.000000
 -0.384615  0.307692  0.000000     24.000000
 -0.307692  0.307692 -0.000000     12.000000
  0.384615  0.384615 -0.000000      6.000000
  0.461538  0.384615 -0.000000     24.000000
 -0.461538  0.384615 -0.000000     24.000000
 -0.384615  0.384615 -0.000000     12.000000
  0.461538  0.461538 -0.000000      6.000000
 -0.461538  0.461538  0.000000     12.000000
  0.230769  0.153846  0.076923     24.000000
  0.307692  0.153846  0.076923     48.000000
  0.384615  0.153846  0.076923     48.000000
  0.461538  0.153846  0.076923     48.000000
 -0.461538  0.153846  0.076923     48.000000
  0.307692  0.230769  0.076923     24.000000
  0.384615  0.230769  0.076923     48.000000
  0.461538  0.230769  0.076923     48.000000
 -0.461538  0.230769  0.076923     48.000000
 -0.384615  0.230769  0.076923     48.000000
 -0.307692  0.230769  0.076923     48.000000
 -0.230769  0.230769  0.076923     48.000000
 -0.153846  0.230769  0.076923     24.000000
  0.384615  0.307692  0.076923     24.000000
  0.461538  0.307692  0.076923     48.000000
 -0.461538  0.307692  0.076923     48.000000
 -0.384615  0.307692  0.076923     48.000000
 -0.307692  0.307692  0.076923     48.000000
 -0.230769  0.307692  0.076923     24.000000
  0.461538  0.384615  0.076923     24.000000
 -0.461538  0.384615  0.076923     48.000000
 -0.384615  0.384615  0.076923     48.000000
 -0.307692  0.384615  0.076923     24.000000
 -0.461538  0.461538  0.076923     24.000000
 -0.384615  0.461538  0.076923     24.000000
  0.461538  0.307692  0.153846     24.000000
 -0.461538  0.307692  0.153846     48.000000
 -0.384615  0.307692  0.153846     48.000000
 -0.461538  0.384615  0.153846     24.000000
 -0.384615  0.384615  0.153846     48.000000
 -0.307692  0.384615  0.153846     48.000000
 -0.230769  0.384615  0.153846     24.000000
 -0.384615  0.461538  0.153846     24.000000
 -0.307692  0.461538  0.153846     24.000000
 -0.307692  0.461538  0.230769     24.000000

 Following cartesian coordinates:
            Coordinates               Weight
  0.000000  0.000000  0.000000      1.000000
 -0.011593  0.011593  0.011593      8.000000
 -0.023186  0.023186  0.023186      8.000000
 -0.034779  0.034779  0.034779      8.000000
 -0.046372  0.046372  0.046372      8.000000
 -0.057965  0.057965  0.057965      8.000000
 -0.069558  0.069558  0.069558      8.000000
  0.000000 -0.000000  0.023186      6.000000
 -0.011593  0.011593  0.034779     24.000000
 -0.023186  0.023186  0.046372     24.000000
 -0.034779  0.034779  0.057965     24.000000
 -0.046372  0.046372  0.069558     24.000000
 -0.057965  0.057965  0.081151     24.000000
  0.081151 -0.081151 -0.057965     24.000000
  0.069558 -0.069558 -0.046372     24.000000
  0.057965 -0.057965 -0.034779     24.000000
  0.046372 -0.046372 -0.023186     24.000000
  0.034779 -0.034779 -0.011593     24.000000
  0.023186 -0.023186  0.000000     12.000000
 -0.000000 -0.000000  0.046372      6.000000
 -0.011593  0.011593  0.057965     24.000000
 -0.023186  0.023186  0.069558     24.000000
 -0.034779  0.034779  0.081151     24.000000
 -0.046372  0.046372  0.092744     24.000000
  0.092744 -0.092744 -0.046372     24.000000
  0.081151 -0.081151 -0.034779     24.000000
  0.069558 -0.069558 -0.023186     24.000000
  0.057965 -0.057965 -0.011593     24.000000
  0.046372 -0.046372  0.000000     12.000000
 -0.000000  0.000000  0.069558      6.000000
 -0.011593  0.011593  0.081151     24.000000
 -0.023186  0.023186  0.092744     24.000000
 -0.034779  0.034779  0.104337     24.000000
  0.104337 -0.104337 -0.034779     24.000000
  0.092744 -0.092744 -0.023186     24.000000
  0.081151 -0.081151 -0.011593     24.000000
  0.069558 -0.069558 -0.000000     12.000000
 -0.000000 -0.000000  0.092744      6.000000
 -0.011593  0.011593  0.104337     24.000000
 -0.023186  0.023186  0.115930     24.000000
  0.115930 -0.115930 -0.023186     24.000000
  0.104337 -0.104337 -0.011593     24.000000
  0.092744 -0.092744  0.000000     12.000000
 -0.000000 -0.000000  0.115930      6.000000
 -0.011593  0.011593  0.127523     24.000000
  0.127523 -0.127523 -0.011593     24.000000
  0.115930 -0.115930  0.000000     12.000000
 -0.000000  0.000000  0.139116      6.000000
  0.139116 -0.139116 -0.000000     12.000000
 -0.000000  0.023186  0.046372     24.000000
 -0.011593  0.034779  0.057965     48.000000
 -0.023186  0.046372  0.069558     48.000000
 -0.034779  0.057965  0.081151     48.000000
  0.104337 -0.081151 -0.057965     48.000000
  0.000000  0.023186  0.069558     24.000000
 -0.011593  0.034779  0.081151     48.000000
 -0.023186  0.046372  0.092744     48.000000
  0.115930 -0.092744 -0.046372     48.000000
  0.104337 -0.081151 -0.034779     48.000000
  0.092744 -0.069558 -0.023186     48.000000
  0.081151 -0.057965 -0.011593     48.000000
  0.069558 -0.046372 -0.000000     24.000000
  0.000000  0.023186  0.092744     24.000000
 -0.011593  0.034779  0.104337     48.000000
  0.127523 -0.104337 -0.034779     48.000000
  0.115930 -0.092744 -0.023186     48.000000
  0.104337 -0.081151 -0.011593     48.000000
  0.092744 -0.069558 -0.000000     24.000000
  0.000000  0.023186  0.115930     24.000000
  0.139116 -0.115930 -0.023186     48.000000
  0.127523 -0.104337 -0.011593     48.000000
  0.115930 -0.092744  0.000000     24.000000
  0.150709 -0.127523 -0.011593     24.000000
  0.139116 -0.115930 -0.000000     24.000000
 -0.000000  0.046372  0.092744     24.000000
  0.139116 -0.092744 -0.046372     48.000000
  0.127523 -0.081151 -0.034779     48.000000
  0.150709 -0.104337 -0.034779     24.000000
  0.139116 -0.092744 -0.023186     48.000000
  0.127523 -0.081151 -0.011593     48.000000
  0.115930 -0.069558  0.000000     24.000000
  0.150709 -0.104337 -0.011593     24.000000
  0.139116 -0.092744 -0.000000     24.000000
  0.150709 -0.081151 -0.011593     24.000000



--------------------------------------------------------------------------------------------------------




 Dimension of arrays:
   k-points           NKPTS =     84   k-points in BZ     NKDIM =     84   number of bands    NBANDS=     24
   number of dos      NEDOS =    301   number of ions     NIONS =      3
   non local maximal  LDIM  =      8   non local SUM 2l+1 LMDIM =     32
   total plane-waves  NPLWV =  64000
   max r-space proj   IRMAX =      1   max aug-charges    IRDMAX= 486036
   dimension x,y,z NGX =    40 NGY =   40 NGZ =   40
   dimension x,y,z NGXF=    80 NGYF=   80 NGZF=   80
   support grid    NGXF=   160 NGYF=  160 NGZF=  160
   ions per type =               1   1   1
   NGX,Y,Z   is equivalent  to a cutoff of  14.79, 14.79, 14.79 a.u.
   NGXF,Y,Z  is equivalent  to a cutoff of  29.58, 29.58, 29.58 a.u.

 SYSTEM =  unknown system
 POSCAR =  U1 Bi1 Pt1

 Startparameter for this run:
   NWRITE =      2    write-flag & timer
   PREC   = acc       normal or accurate (medium, high low for compatibility)
   ISTART =      0    job   : 0-new  1-cont  2-samecut
   ICHARG =      2    charge: 1-file 2-atom 10-const
   ISPIN  =      1    spin polarized calculation?
   LNONCOLLINEAR =      F non collinear calculations
   LSORBIT =      F    spin-orbit coupling
   INIWAV =      1    electr: 0-lowe 1-rand  2-diag
   LASPH  =      F    aspherical Exc in radial PAW
   METAGGA=      F    non-selfconsistent MetaGGA calc.

 Electronic Relaxation 1
   ENCUT  =  700.0 eV  51.45 Ry    7.17 a.u.   9.70  9.70  9.70*2*pi/ulx,y,z
   ENINI  =  700.0     initial cutoff
   ENAUG  =  526.4 eV  augmentation charge cutoff
   NELM   =     60;   NELMIN=  5; NELMDL= -5     # of ELM steps
   EDIFF  = 0.1E-06   stopping-criterion for ELM
   LREAL  =      F    real-space projection
   NLSPLINE    = F    spline interpolate recip. space projectors
   LCOMPAT=      F    compatible to vasp.4.4
   GGA_COMPAT  = T    GGA compatible to vasp.4.4-vasp.4.6
   LMAXPAW     = -100 max onsite density
   LMAXMIX     =    2 max onsite mixed and CHGCAR
   VOSKOWN=      0    Vosko Wilk Nusair interpolation
   ROPT   =    0.00000   0.00000   0.00000
 Ionic relaxation
   EDIFFG = 0.1E-05   stopping-criterion for IOM
   NSW    =      0    number of steps for IOM
   NBLOCK =      1;   KBLOCK =      1    inner block; outer block
   IBRION =     -1    ionic relax: 0-MD 1-quasi-New 2-CG
   NFREE  =      0    steps in history (QN), initial steepest desc. (CG)
   ISIF   =      3    stress and relaxation
   IWAVPR =     10    prediction:  0-non 1-charg 2-wave 3-comb
   ISYM   =      2    0-nonsym 1-usesym 2-fastsym
   LCORR  =      T    Harris-Foulkes like correction to forces

   POTIM  = 0.5000    time-step for ionic-motion
   TEIN   =    0.0    initial temperature
   TEBEG  =    0.0;   TEEND  =   0.0 temperature during run
   SMASS  =  -3.00    Nose mass-parameter (am)
   estimated Nose-frequenzy (Omega)   =  0.10E-29 period in steps = 0.13E+47 mass=  -0.462E-27a.u.
   SCALEE = 1.0000    scale energy and forces
   NPACO  =    256;   APACO  = 16.0  distance and # of slots for P.C.
   PSTRESS=    0.0 pullay stress

  Mass of Ions in am
   POMASS = 238.03208.98195.08
  Ionic Valenz
   ZVAL   =  14.00 15.00 10.00
  Atomic Wigner-Seitz radii
   RWIGS  =  -1.00 -1.00 -1.00
  virtual crystal weights
   VCA    =   1.00  1.00  1.00
   NELECT =      39.0000    total number of electrons
   NUPDOWN=      -1.0000    fix difference up-down

 DOS related values:
   EMIN   =  10.00;   EMAX   =-10.00  energy-range for DOS
   EFERMI =   0.00
   ISMEAR =     0;   SIGMA  =   0.01  broadening in eV -4-tet -1-fermi 0-gaus

 Electronic relaxation 2 (details)
   IALGO  =     38    algorithm
   LDIAG  =      T    sub-space diagonalisation (order eigenvalues)
   LSUBROT=      F    optimize rotation matrix (better conditioning)
   TURBO    =      0    0=normal 1=particle mesh
   IRESTART =      0    0=no restart 2=restart with 2 vectors
   NREBOOT  =      0    no. of reboots
   NMIN     =      0    reboot dimension
   EREF     =   0.00    reference energy to select bands
   IMIX   =      4    mixing-type and parameters
     AMIX     =   0.40;   BMIX     =  1.00
     AMIX_MAG =   1.60;   BMIX_MAG =  1.00
     AMIN     =   0.10
     WC   =   100.;   INIMIX=   1;  MIXPRE=   1;  MAXMIX= -45

 Intra band minimization:
   WEIMIN = 0.0000     energy-eigenvalue tresh-hold
   EBREAK =  0.10E-08  absolut break condition
   DEPER  =   0.30     relativ break condition

   TIME   =   0.40     timestep for ELM

  volume/ion in A,a.u.               =      21.42       144.57
  Fermi-wavevector in a.u.,A,eV,Ry     =   1.385998  2.619157 26.136680  1.920992
  Thomas-Fermi vector in A             =   2.510356

 Write flags
   LWAVE        =      F    write WAVECAR
   LDOWNSAMPLE  =      F    k-point downsampling of WAVECAR
   LCHARG       =      F    write CHGCAR
   LVTOT        =      F    write LOCPOT, total local potential
   LVHAR        =      F    write LOCPOT, Hartree potential only
   LELF         =      F    write electronic localiz. function (ELF)
   LORBIT       =      0    0 simple, 1 ext, 2 COOP (PROOUT), +10 PAW based schemes


 Dipole corrections
   LMONO  =      F    monopole corrections only (constant potential shift)
   LDIPOL =      F    correct potential (dipole corrections)
   IDIPOL =      0    1-x, 2-y, 3-z, 4-all directions
   EPSILON=  1.0000000 bulk dielectric constant

 Exchange correlation treatment:
   GGA     =    PS    GGA type
   LEXCH   =    14    internal setting for exchange type
   VOSKOWN=      0    Vosko Wilk Nusair interpolation
   LHFCALC =     F    Hartree Fock is set to
   LHFONE  =     F    Hartree Fock one center treatment
   AEXX    =    0.0000 exact exchange contribution

 Linear response parameters
   LEPSILON=     F    determine dielectric tensor
   LRPA    =     F    only Hartree local field effects (RPA)
   LNABLA  =     F    use nabla operator in PAW spheres
   LVEL    =     F    velocity operator in full k-point grid
   LINTERFAST=   F  fast interpolation
   KINTER  =     0    interpolate to denser k-point grid
   CSHIFT  =0.1000    complex shift for real part using Kramers Kronig
   OMEGAMAX=  -1.0    maximum frequency
   DEG_THRESHOLD= 0.2000000E-02 threshold for treating states as degnerate
   RTIME   =   -0.100 relaxation time in fs
  (WPLASMAI=    0.000 imaginary part of plasma frequency in eV, 0.658/RTIME)
   DFIELD  = 0.0000000 0.0000000 0.0000000 field for delta impulse in time

 Orbital magnetization related:
   ORBITALMAG=     F  switch on orbital magnetization
   LCHIMAG   =     F  perturbation theory with respect to B field
   DQ        =  0.001000  dq finite difference perturbation B field
   LLRAUG    =     F  two centre corrections for induced B field



--------------------------------------------------------------------------------------------------------


 Static calculation
 charge density and potential will be updated during run
 non-spin polarized calculation
 Variant of blocked Davidson
 Davidson routine will perform the subspace rotation
 perform sub-space diagonalisation
    after iterative eigenvector-optimisation
 modified Broyden-mixing scheme, WC =      100.0
 initial mixing is a Kerker type mixing with AMIX =  0.4000 and BMIX =      1.0000
 Hartree-type preconditioning will be used
 using additional bands            4
 reciprocal scheme for non local part
 use partial core corrections
 calculate Harris-corrections to forces
   (improved forces if not selfconsistent)
 use gradient corrections
 use of overlap-Matrix (Vanderbilt PP)
 Gauss-broadening in eV      SIGMA  =   0.01


--------------------------------------------------------------------------------------------------------


  energy-cutoff  :      700.00
  volume of cell :       64.27
      direct lattice vectors                 reciprocal lattice vectors
     0.000000000  3.179242193  3.179242193    -0.157270183  0.157270183  0.157270183
     3.179242193  0.000000000  3.179242193     0.157270183 -0.157270183  0.157270183
     3.179242193  3.179242193  0.000000000     0.157270183  0.157270183 -0.157270183

  length of vectors
     4.496127428  4.496127428  4.496127428     0.272399947  0.272399947  0.272399947



 k-points in units of 2pi/SCALE and weight: KPOINTS
   0.00000000  0.00000000  0.00000000       0.000
  -0.01159304  0.01159304  0.01159304       0.004
  -0.02318608  0.02318608  0.02318608       0.004
  -0.03477911  0.03477911  0.03477911       0.004
  -0.04637215  0.04637215  0.04637215       0.004
  -0.05796519  0.05796519  0.05796519       0.004
  -0.06955823  0.06955823  0.06955823       0.004
   0.00000000 -0.00000000  0.02318608       0.003
  -0.01159304  0.01159304  0.03477911       0.011
  -0.02318608  0.02318608  0.04637215       0.011
  -0.03477911  0.03477911  0.05796519       0.011
  -0.04637215  0.04637215  0.06955823       0.011
  -0.05796519  0.05796519  0.08115127       0.011
   0.08115127 -0.08115127 -0.05796519       0.011
   0.06955823 -0.06955823 -0.04637215       0.011
   0.05796519 -0.05796519 -0.03477911       0.011
   0.04637215 -0.04637215 -0.02318608       0.011
   0.03477911 -0.03477911 -0.01159304       0.011
   0.02318608 -0.02318608  0.00000000       0.005
  -0.00000000 -0.00000000  0.04637215       0.003
  -0.01159304  0.01159304  0.05796519       0.011
  -0.02318608  0.02318608  0.06955823       0.011
  -0.03477911  0.03477911  0.08115127       0.011
  -0.04637215  0.04637215  0.09274430       0.011
   0.09274430 -0.09274430 -0.04637215       0.011
   0.08115127 -0.08115127 -0.03477911       0.011
   0.06955823 -0.06955823 -0.02318608       0.011
   0.05796519 -0.05796519 -0.01159304       0.011
   0.04637215 -0.04637215  0.00000000       0.005
  -0.00000000  0.00000000  0.06955823       0.003
  -0.01159304  0.01159304  0.08115127       0.011
  -0.02318608  0.02318608  0.09274430       0.011
  -0.03477911  0.03477911  0.10433734       0.011
   0.10433734 -0.10433734 -0.03477911       0.011
   0.09274430 -0.09274430 -0.02318608       0.011
   0.08115127 -0.08115127 -0.01159304       0.011
   0.06955823 -0.06955823 -0.00000000       0.005
  -0.00000000 -0.00000000  0.09274430       0.003
  -0.01159304  0.01159304  0.10433734       0.011
  -0.02318608  0.02318608  0.11593038       0.011
   0.11593038 -0.11593038 -0.02318608       0.011
   0.10433734 -0.10433734 -0.01159304       0.011
   0.09274430 -0.09274430  0.00000000       0.005
  -0.00000000 -0.00000000  0.11593038       0.003
  -0.01159304  0.01159304  0.12752342       0.011
   0.12752342 -0.12752342 -0.01159304       0.011
   0.11593038 -0.11593038  0.00000000       0.005
  -0.00000000  0.00000000  0.13911646       0.003
   0.13911646 -0.13911646 -0.00000000       0.005
  -0.00000000  0.02318608  0.04637215       0.011
  -0.01159304  0.03477911  0.05796519       0.022
  -0.02318608  0.04637215  0.06955823       0.022
  -0.03477911  0.05796519  0.08115127       0.022
   0.10433734 -0.08115127 -0.05796519       0.022
   0.00000000  0.02318608  0.06955823       0.011
  -0.01159304  0.03477911  0.08115127       0.022
  -0.02318608  0.04637215  0.09274430       0.022
   0.11593038 -0.09274430 -0.04637215       0.022
   0.10433734 -0.08115127 -0.03477911       0.022
   0.09274430 -0.06955823 -0.02318608       0.022
   0.08115127 -0.05796519 -0.01159304       0.022
   0.06955823 -0.04637215 -0.00000000       0.011
   0.00000000  0.02318608  0.09274430       0.011
  -0.01159304  0.03477911  0.10433734       0.022
   0.12752342 -0.10433734 -0.03477911       0.022
   0.11593038 -0.09274430 -0.02318608       0.022
   0.10433734 -0.08115127 -0.01159304       0.022
   0.09274430 -0.06955823 -0.00000000       0.011
   0.00000000  0.02318608  0.11593038       0.011
   0.13911646 -0.11593038 -0.02318608       0.022
   0.12752342 -0.10433734 -0.01159304       0.022
   0.11593038 -0.09274430  0.00000000       0.011
   0.15070950 -0.12752342 -0.01159304       0.011
   0.13911646 -0.11593038 -0.00000000       0.011
  -0.00000000  0.04637215  0.09274430       0.011
   0.13911646 -0.09274430 -0.04637215       0.022
   0.12752342 -0.08115127 -0.03477911       0.022
   0.15070950 -0.10433734 -0.03477911       0.011
   0.13911646 -0.09274430 -0.02318608       0.022
   0.12752342 -0.08115127 -0.01159304       0.022
   0.11593038 -0.06955823  0.00000000       0.011
   0.15070950 -0.10433734 -0.01159304       0.011
   0.13911646 -0.09274430 -0.00000000       0.011
   0.15070950 -0.08115127 -0.01159304       0.011

 k-points in reciprocal lattice and weights: KPOINTS
   0.00000000  0.00000000  0.00000000       0.000
   0.07692308 -0.00000000  0.00000000       0.004
   0.15384615 -0.00000000  0.00000000       0.004
   0.23076923 -0.00000000 -0.00000000       0.004
   0.30769231 -0.00000000  0.00000000       0.004
   0.38461538 -0.00000000  0.00000000       0.004
   0.46153846  0.00000000 -0.00000000       0.004
   0.07692308  0.07692308 -0.00000000       0.003
   0.15384615  0.07692308 -0.00000000       0.011
   0.23076923  0.07692308  0.00000000       0.011
   0.30769231  0.07692308 -0.00000000       0.011
   0.38461538  0.07692308  0.00000000       0.011
   0.46153846  0.07692308 -0.00000000       0.011
  -0.46153846  0.07692308 -0.00000000       0.011
  -0.38461538  0.07692308  0.00000000       0.011
  -0.30769231  0.07692308 -0.00000000       0.011
  -0.23076923  0.07692308 -0.00000000       0.011
  -0.15384615  0.07692308  0.00000000       0.011
  -0.07692308  0.07692308 -0.00000000       0.005
   0.15384615  0.15384615 -0.00000000       0.003
   0.23076923  0.15384615 -0.00000000       0.011
   0.30769231  0.15384615 -0.00000000       0.011
   0.38461538  0.15384615 -0.00000000       0.011
   0.46153846  0.15384615 -0.00000000       0.011
  -0.46153846  0.15384615 -0.00000000       0.011
  -0.38461538  0.15384615 -0.00000000       0.011
  -0.30769231  0.15384615  0.00000000       0.011
  -0.23076923  0.15384615 -0.00000000       0.011
  -0.15384615  0.15384615 -0.00000000       0.005
   0.23076923  0.23076923 -0.00000000       0.003
   0.30769231  0.23076923 -0.00000000       0.011
   0.38461538  0.23076923 -0.00000000       0.011
   0.46153846  0.23076923 -0.00000000       0.011
  -0.46153846  0.23076923  0.00000000       0.011
  -0.38461538  0.23076923  0.00000000       0.011
  -0.30769231  0.23076923 -0.00000000       0.011
  -0.23076923  0.23076923 -0.00000000       0.005
   0.30769231  0.30769231 -0.00000000       0.003
   0.38461538  0.30769231 -0.00000000       0.011
   0.46153846  0.30769231 -0.00000000       0.011
  -0.46153846  0.30769231  0.00000000       0.011
  -0.38461538  0.30769231  0.00000000       0.011
  -0.30769231  0.30769231 -0.00000000       0.005
   0.38461538  0.38461538 -0.00000000       0.003
   0.46153846  0.38461538 -0.00000000       0.011
  -0.46153846  0.38461538 -0.00000000       0.011
  -0.38461538  0.38461538 -0.00000000       0.005
   0.46153846  0.46153846 -0.00000000       0.003
  -0.46153846  0.46153846  0.00000000       0.005
   0.23076923  0.15384615  0.07692308       0.011
   0.30769231  0.15384615  0.07692308       0.022
   0.38461538  0.15384615  0.07692308       0.022
   0.46153846  0.15384615  0.07692308       0.022
  -0.46153846  0.15384615  0.07692308       0.022
   0.30769231  0.23076923  0.07692308       0.011
   0.38461538  0.23076923  0.07692308       0.022
   0.46153846  0.23076923  0.07692308       0.022
  -0.46153846  0.23076923  0.07692308       0.022
  -0.38461538  0.23076923  0.07692308       0.022
  -0.30769231  0.23076923  0.07692308       0.022
  -0.23076923  0.23076923  0.07692308       0.022
  -0.15384615  0.23076923  0.07692308       0.011
   0.38461538  0.30769231  0.07692308       0.011
   0.46153846  0.30769231  0.07692308       0.022
  -0.46153846  0.30769231  0.07692308       0.022
  -0.38461538  0.30769231  0.07692308       0.022
  -0.30769231  0.30769231  0.07692308       0.022
  -0.23076923  0.30769231  0.07692308       0.011
   0.46153846  0.38461538  0.07692308       0.011
  -0.46153846  0.38461538  0.07692308       0.022
  -0.38461538  0.38461538  0.07692308       0.022
  -0.30769231  0.38461538  0.07692308       0.011
  -0.46153846  0.46153846  0.07692308       0.011
  -0.38461538  0.46153846  0.07692308       0.011
   0.46153846  0.30769231  0.15384615       0.011
  -0.46153846  0.30769231  0.15384615       0.022
  -0.38461538  0.30769231  0.15384615       0.022
  -0.46153846  0.38461538  0.15384615       0.011
  -0.38461538  0.38461538  0.15384615       0.022
  -0.30769231  0.38461538  0.15384615       0.022
  -0.23076923  0.38461538  0.15384615       0.011
  -0.38461538  0.46153846  0.15384615       0.011
  -0.30769231  0.46153846  0.15384615       0.011
  -0.30769231  0.46153846  0.23076923       0.011

 position of ions in fractional coordinates (direct lattice)
   0.25000000  0.25000000  0.25000000
   0.75000000  0.75000000  0.75000000
   0.00000000  0.00000000  0.00000000

 position of ions in cartesian coordinates  (Angst):
   1.58962110  1.58962110  1.58962110
   4.76886329  4.76886329  4.76886329
   0.00000000  0.00000000  0.00000000



--------------------------------------------------------------------------------------------------------


 k-point  1 :   0.0000 0.0000 0.0000  plane waves:    2733
 k-point  2 :   0.0769-0.0000 0.0000  plane waves:    2718
 k-point  3 :   0.1538-0.0000 0.0000  plane waves:    2704
 k-point  4 :   0.2308-0.0000-0.0000  plane waves:    2701
 k-point  5 :   0.3077-0.0000 0.0000  plane waves:    2695
 k-point  6 :   0.3846-0.0000 0.0000  plane waves:    2713
 k-point  7 :   0.4615 0.0000-0.0000  plane waves:    2719
 k-point  8 :   0.0769 0.0769-0.0000  plane waves:    2717
 k-point  9 :   0.1538 0.0769-0.0000  plane waves:    2707
 k-point 10 :   0.2308 0.0769 0.0000  plane waves:    2706
 k-point 11 :   0.3077 0.0769-0.0000  plane waves:    2709
 k-point 12 :   0.3846 0.0769 0.0000  plane waves:    2709
 k-point 13 :   0.4615 0.0769-0.0000  plane waves:    2703
 k-point 14 :  -0.4615 0.0769-0.0000  plane waves:    2712
 k-point 15 :  -0.3846 0.0769 0.0000  plane waves:    2705
 k-point 16 :  -0.3077 0.0769-0.0000  plane waves:    2704
 k-point 17 :  -0.2308 0.0769-0.0000  plane waves:    2704
 k-point 18 :  -0.1538 0.0769 0.0000  plane waves:    2718
 k-point 19 :  -0.0769 0.0769-0.0000  plane waves:    2707
 k-point 20 :   0.1538 0.1538-0.0000  plane waves:    2714
 k-point 21 :   0.2308 0.1538-0.0000  plane waves:    2702
 k-point 22 :   0.3077 0.1538-0.0000  plane waves:    2705
 k-point 23 :   0.3846 0.1538-0.0000  plane waves:    2703
 k-point 24 :   0.4615 0.1538-0.0000  plane waves:    2707
 k-point 25 :  -0.4615 0.1538-0.0000  plane waves:    2701
 k-point 26 :  -0.3846 0.1538-0.0000  plane waves:    2703
 k-point 27 :  -0.3077 0.1538 0.0000  plane waves:    2703
 k-point 28 :  -0.2308 0.1538-0.0000  plane waves:    2698
 k-point 29 :  -0.1538 0.1538-0.0000  plane waves:    2712
 k-point 30 :   0.2308 0.2308-0.0000  plane waves:    2698
 k-point 31 :   0.3077 0.2308-0.0000  plane waves:    2700
 k-point 32 :   0.3846 0.2308-0.0000  plane waves:    2712
 k-point 33 :   0.4615 0.2308-0.0000  plane waves:    2698
 k-point 34 :  -0.4615 0.2308 0.0000  plane waves:    2694
 k-point 35 :  -0.3846 0.2308 0.0000  plane waves:    2697
 k-point 36 :  -0.3077 0.2308-0.0000  plane waves:    2702
 k-point 37 :  -0.2308 0.2308-0.0000  plane waves:    2710
 k-point 38 :   0.3077 0.3077-0.0000  plane waves:    2714
 k-point 39 :   0.3846 0.3077-0.0000  plane waves:    2702
 k-point 40 :   0.4615 0.3077-0.0000  plane waves:    2708
 k-point 41 :  -0.4615 0.3077 0.0000  plane waves:    2695
 k-point 42 :  -0.3846 0.3077 0.0000  plane waves:    2696
 k-point 43 :  -0.3077 0.3077-0.0000  plane waves:    2704
 k-point 44 :   0.3846 0.3846-0.0000  plane waves:    2710
 k-point 45 :   0.4615 0.3846-0.0000  plane waves:    2711
 k-point 46 :  -0.4615 0.3846-0.0000  plane waves:    2697
 k-point 47 :  -0.3846 0.3846-0.0000  plane waves:    2694
 k-point 48 :   0.4615 0.4615-0.0000  plane waves:    2714
 k-point 49 :  -0.4615 0.4615 0.0000  plane waves:    2714
 k-point 50 :   0.2308 0.1538 0.0769  plane waves:    2717
 k-point 51 :   0.3077 0.1538 0.0769  plane waves:    2701
 k-point 52 :   0.3846 0.1538 0.0769  plane waves:    2709
 k-point 53 :   0.4615 0.1538 0.0769  plane waves:    2705
 k-point 54 :  -0.4615 0.1538 0.0769  plane waves:    2705
 k-point 55 :   0.3077 0.2308 0.0769  plane waves:    2700
 k-point 56 :   0.3846 0.2308 0.0769  plane waves:    2712
 k-point 57 :   0.4615 0.2308 0.0769  plane waves:    2713
 k-point 58 :  -0.4615 0.2308 0.0769  plane waves:    2699
 k-point 59 :  -0.3846 0.2308 0.0769  plane waves:    2697
 k-point 60 :  -0.3077 0.2308 0.0769  plane waves:    2690
 k-point 61 :  -0.2308 0.2308 0.0769  plane waves:    2706
 k-point 62 :  -0.1538 0.2308 0.0769  plane waves:    2695
 k-point 63 :   0.3846 0.3077 0.0769  plane waves:    2708
 k-point 64 :   0.4615 0.3077 0.0769  plane waves:    2700
 k-point 65 :  -0.4615 0.3077 0.0769  plane waves:    2700
 k-point 66 :  -0.3846 0.3077 0.0769  plane waves:    2703
 k-point 67 :  -0.3077 0.3077 0.0769  plane waves:    2696
 k-point 68 :  -0.2308 0.3077 0.0769  plane waves:    2698
 k-point 69 :   0.4615 0.3846 0.0769  plane waves:    2699
 k-point 70 :  -0.4615 0.3846 0.0769  plane waves:    2698
 k-point 71 :  -0.3846 0.3846 0.0769  plane waves:    2691
 k-point 72 :  -0.3077 0.3846 0.0769  plane waves:    2692
 k-point 73 :  -0.4615 0.4615 0.0769  plane waves:    2708
 k-point 74 :  -0.3846 0.4615 0.0769  plane waves:    2699
 k-point 75 :   0.4615 0.3077 0.1538  plane waves:    2707
 k-point 76 :  -0.4615 0.3077 0.1538  plane waves:    2699
 k-point 77 :  -0.3846 0.3077 0.1538  plane waves:    2702
 k-point 78 :  -0.4615 0.3846 0.1538  plane waves:    2702
 k-point 79 :  -0.3846 0.3846 0.1538  plane waves:    2704
 k-point 80 :  -0.3077 0.3846 0.1538  plane waves:    2697
 k-point 81 :  -0.2308 0.3846 0.1538  plane waves:    2705
 k-point 82 :  -0.3846 0.4615 0.1538  plane waves:    2698
 k-point 83 :  -0.3077 0.4615 0.1538  plane waves:    2691
 k-point 84 :  -0.3077 0.4615 0.2308  plane waves:    2707

 maximum and minimum number of plane-waves per node :       689      661

 maximum number of plane-waves:      2733
 maximum index in each direction:
   IXMAX=   10   IYMAX=    9   IZMAX=    9
   IXMIN=  -10   IYMIN=  -10   IZMIN=   -9


 parallel 3D FFT for wavefunctions:
    minimum data exchange during FFTs selected (reduces bandwidth)
 parallel 3D FFT for charge:
    minimum data exchange during FFTs selected (reduces bandwidth)


 total amount of memory used by VASP MPI-rank0    88498. kBytes
=======================================================================

   base      :      30000. kBytes
   nonl-proj :      44675. kBytes
   fftplans  :       5204. kBytes
   grid      :       2732. kBytes
   one-center:         49. kBytes
   wavefun   :       5838. kBytes

     INWAV:  cpu time    0.0002: real time    0.0012
 Broyden mixing: mesh for mixing (old mesh)
   NGX = 19   NGY = 19   NGZ = 19
  (NGX  = 80   NGY  = 80   NGZ  = 80)
  gives a total of   6859 points

 initial charge density was supplied:
 charge density of overlapping atoms calculated
 number of electron      39.0000000 magnetization
 keeping initial charge density in first step


--------------------------------------------------------------------------------------------------------


 Maximum index for augmentation-charges        29427 (set IRDMAX)


--------------------------------------------------------------------------------------------------------


 First call to EWALD:  gamma=   0.442
 Maximum number of real-space cells 3x 3x 3
 Maximum number of reciprocal cells 3x 3x 3

    FEWALD:  cpu time    0.0054: real time    0.0063


--------------------------------------- Iteration      1(   1)  ---------------------------------------


    POTLOK:  cpu time    0.0458: real time    0.1409
    SETDIJ:  cpu time    0.0953: real time    0.0960
     EDDAV:  cpu time    1.4181: real time    1.4202
       DOS:  cpu time    0.0039: real time    0.0048
    --------------------------------------------
      LOOP:  cpu time    1.5635: real time    1.6629

 eigenvalue-minimisations  :  4032
 total energy-change (2. order) : 0.4362220E+03  (-0.2270916E+04)
 number of electron      39.0000000 magnetization
 augmentation part       39.0000000 magnetization

 Free energy of the ion-electron system (eV)
  ---------------------------------------------------
  alpha Z        PSCENC =       244.67177403
  Ewald energy   TEWEN  =     -3749.73311731
  -Hartree energ DENC   =      -720.13906596
  -exchange      EXHF   =         0.00000000
  -V(xc)+E(xc)   XCENC  =        92.00940774
  PAW double counting   =      3513.29252893    -3436.88002192
  entropy T*S    EENTRO =        -0.00013059
  eigenvalues    EBANDS =       397.64855159
  atomic energy  EATOM  =      4095.35208632
  Solvation  Ediel_sol  =         0.00000000
  ---------------------------------------------------
  free energy    TOTEN  =       436.22201283 eV

  energy without entropy =      436.22214342  energy(sigma->0) =      436.22207812


--------------------------------------------------------------------------------------------------------




--------------------------------------- Iteration      1(   2)  ---------------------------------------


     EDDAV:  cpu time    1.4521: real time    1.4953
       DOS:  cpu time    0.0030: real time    0.0033
    --------------------------------------------
      LOOP:  cpu time    1.4551: real time    1.4990

 eigenvalue-minimisations  :  4224
 total energy-change (2. order) :-0.4038319E+03  (-0.3955108E+03)
 number of electron      39.0000000 magnetization
 augmentation part       39.0000000 magnetization

 Free energy of the ion-electron system (eV)
  ---------------------------------------------------
  alpha Z        PSCENC =       244.67177403
  Ewald energy   TEWEN  =     -3749.73311731
  -Hartree energ DENC   =      -720.13906596
  -exchange      EXHF   =         0.00000000
  -V(xc)+E(xc)   XCENC  =        92.00940774
  PAW double counting   =      3513.29252893    -3436.88002192
  entropy T*S    EENTRO =        -0.00028705
  eigenvalues    EBANDS =        -6.18319133
  atomic energy  EATOM  =      4095.35208632
  Solvation  Ediel_sol  =         0.00000000
  ---------------------------------------------------
  free energy    TOTEN  =        32.39011345 eV

  energy without entropy =       32.39040050  energy(sigma->0) =       32.39025697


--------------------------------------------------------------------------------------------------------




--------------------------------------- Iteration      1(   3)  ---------------------------------------


     EDDAV:  cpu time    1.6564: real time    1.6699
       DOS:  cpu time    0.0031: real time    0.0035
    --------------------------------------------
      LOOP:  cpu time    1.6595: real time    1.6736

 eigenvalue-minimisations  :  4888
 total energy-change (2. order) :-0.5224004E+02  (-0.5114346E+02)
 number of electron      39.0000000 magnetization
 augmentation part       39.0000000 magnetization

 Free energy of the ion-electron system (eV)
  ---------------------------------------------------
  alpha Z        PSCENC =       244.67177403
  Ewald energy   TEWEN  =     -3749.73311731
  -Hartree energ DENC   =      -720.13906596
  -exchange      EXHF   =         0.00000000
  -V(xc)+E(xc)   XCENC  =        92.00940774
  PAW double counting   =      3513.29252893    -3436.88002192
  entropy T*S    EENTRO =        -0.00063967
  eigenvalues    EBANDS =       -58.42288226
  atomic energy  EATOM  =      4095.35208632
  Solvation  Ediel_sol  =         0.00000000
  ---------------------------------------------------
  free energy    TOTEN  =       -19.84993011 eV

  energy without entropy =      -19.84929044  energy(sigma->0) =      -19.84961027


--------------------------------------------------------------------------------------------------------




--------------------------------------- Iteration      1(   4)  ---------------------------------------


     EDDAV:  cpu time    2.3357: real time    2.3635
       DOS:  cpu time    0.0030: real time    0.0034
    --------------------------------------------
      LOOP:  cpu time    2.3387: real time    2.3681

 eigenvalue-minimisations  :  7528
 total energy-change (2. order) :-0.5741640E+01  (-0.5715327E+01)
 number of electron      39.0000000 magnetization
 augmentation part       39.0000000 magnetization

 Free energy of the ion-electron system (eV)
  ---------------------------------------------------
  alpha Z        PSCENC =       244.67177403
  Ewald energy   TEWEN  =     -3749.73311731
  -Hartree energ DENC   =      -720.13906596
  -exchange      EXHF   =         0.00000000
  -V(xc)+E(xc)   XCENC  =        92.00940774
  PAW double counting   =      3513.29252893    -3436.88002192
  entropy T*S    EENTRO =        -0.00071641
  eigenvalues    EBANDS =       -64.16444558
  atomic energy  EATOM  =      4095.35208632
  Solvation  Ediel_sol  =         0.00000000
  ---------------------------------------------------
  free energy    TOTEN  =       -25.59157016 eV

  energy without entropy =      -25.59085376  energy(sigma->0) =      -25.59121196


--------------------------------------------------------------------------------------------------------




--------------------------------------- Iteration      1(   5)  ---------------------------------------


     EDDAV:  cpu time    1.7750: real time    1.7948
       DOS:  cpu time    0.0031: real time    0.0034
    CHARGE:  cpu time    0.3398: real time    0.3405
    MIXING:  cpu time    0.0103: real time    0.0113
    --------------------------------------------
      LOOP:  cpu time    2.1283: real time    2.1487

 eigenvalue-minimisations  :  5432
 total energy-change (2. order) :-0.1689590E+00  (-0.1684862E+00)
 number of electron      39.0000000 magnetization
 augmentation part        8.6233847 magnetization

 Broyden mixing:
  rms(total) = 0.16634E+01    rms(broyden)= 0.16634E+01
  rms(prec ) = 0.44070E+01
  weight for this iteration     100.00

 Free energy of the ion-electron system (eV)
  ---------------------------------------------------
  alpha Z        PSCENC =       244.67177403
  Ewald energy   TEWEN  =     -3749.73311731
  -Hartree energ DENC   =      -720.13906596
  -exchange      EXHF   =         0.00000000
  -V(xc)+E(xc)   XCENC  =        92.00940774
  PAW double counting   =      3513.29252893    -3436.88002192
  entropy T*S    EENTRO =        -0.00081274
  eigenvalues    EBANDS =       -64.33330828
  atomic energy  EATOM  =      4095.35208632
  Solvation  Ediel_sol  =         0.00000000
  ---------------------------------------------------
  free energy    TOTEN  =       -25.76052920 eV

  energy without entropy =      -25.75971645  energy(sigma->0) =      -25.76012282


--------------------------------------------------------------------------------------------------------




--------------------------------------- Iteration      1(   6)  ---------------------------------------


    POTLOK:  cpu time    0.0648: real time    0.0870
    SETDIJ:  cpu time    0.0963: real time    0.0963
     EDDAV:  cpu time    1.9101: real time    1.9104
       DOS:  cpu time    0.0030: real time    0.0033
    CHARGE:  cpu time    0.2986: real time    0.2986
    MIXING:  cpu time    0.0084: real time    0.0086
    --------------------------------------------
      LOOP:  cpu time    2.3811: real time    2.4080

 eigenvalue-minimisations  :  6176
 total energy-change (2. order) :-0.4948180E+01  (-0.1607900E+02)
 number of electron      39.0000000 magnetization
 augmentation part        7.0500381 magnetization

 Broyden mixing:
  rms(total) = 0.22771E+01    rms(broyden)= 0.22771E+01
  rms(prec ) = 0.56581E+01
  weight for this iteration     100.00

 eigenvalues of (default mixing * dielectric matrix)
  average eigenvalue GAMMA=   0.3384
  0.3384

 Free energy of the ion-electron system (eV)
  ---------------------------------------------------
  alpha Z        PSCENC =       244.67177403
  Ewald energy   TEWEN  =     -3749.73311731
  -Hartree energ DENC   =      -723.36404453
  -exchange      EXHF   =         0.00000000
  -V(xc)+E(xc)   XCENC  =        92.39127062
  PAW double counting   =      3957.67352757    -3882.79766236
  entropy T*S    EENTRO =        -0.00024793
  eigenvalues    EBANDS =       -64.90229522
  atomic energy  EATOM  =      4095.35208632
  Solvation  Ediel_sol  =         0.00000000
  ---------------------------------------------------
  free energy    TOTEN  =       -30.70870881 eV

  energy without entropy =      -30.70846088  energy(sigma->0) =      -30.70858485


--------------------------------------------------------------------------------------------------------




--------------------------------------- Iteration      1(   7)  ---------------------------------------


    POTLOK:  cpu time    0.0545: real time    0.0770
    SETDIJ:  cpu time    0.0917: real time    0.0919
     EDDAV:  cpu time    1.8441: real time    1.8443
       DOS:  cpu time    0.0031: real time    0.0033
    CHARGE:  cpu time    0.3031: real time    0.3032
    MIXING:  cpu time    0.0061: real time    0.0066
    --------------------------------------------
      LOOP:  cpu time    2.3028: real time    2.3218

 eigenvalue-minimisations  :  5784
 total energy-change (2. order) : 0.6910782E+01  (-0.2490770E+01)
 number of electron      39.0000000 magnetization
 augmentation part        7.6383735 magnetization

 Broyden mixing:
  rms(total) = 0.90139E+00    rms(broyden)= 0.90139E+00
  rms(prec ) = 0.22570E+01
  weight for this iteration     100.00

 eigenvalues of (default mixing * dielectric matrix)
  average eigenvalue GAMMA=   0.8184
  0.8847  0.7521

 Free energy of the ion-electron system (eV)
  ---------------------------------------------------
  alpha Z        PSCENC =       244.67177403
  Ewald energy   TEWEN  =     -3749.73311731
  -Hartree energ DENC   =      -711.82031470
  -exchange      EXHF   =         0.00000000
  -V(xc)+E(xc)   XCENC  =        91.82402406
  PAW double counting   =      4109.32175280    -4038.69922011
  entropy T*S    EENTRO =        -0.00062741
  eigenvalues    EBANDS =       -64.71428485
  atomic energy  EATOM  =      4095.35208632
  Solvation  Ediel_sol  =         0.00000000
  ---------------------------------------------------
  free energy    TOTEN  =       -23.79792718 eV

  energy without entropy =      -23.79729977  energy(sigma->0) =      -23.79761348


--------------------------------------------------------------------------------------------------------




--------------------------------------- Iteration      1(   8)  ---------------------------------------


    POTLOK:  cpu time    0.0547: real time    0.0716
    SETDIJ:  cpu time    0.0933: real time    0.0937
     EDDAV:  cpu time    1.8750: real time    1.8753
       DOS:  cpu time    0.0033: real time    0.0036
    CHARGE:  cpu time    0.2844: real time    0.2845
    MIXING:  cpu time    0.0045: real time    0.0047
    --------------------------------------------
      LOOP:  cpu time    2.3154: real time    2.3360

 eigenvalue-minimisations  :  5992
 total energy-change (2. order) :-0.2665900E-01  (-0.2019461E+01)
 number of electron      39.0000000 magnetization
 augmentation part        8.5267775 magnetization

 Broyden mixing:
  rms(total) = 0.64798E+00    rms(broyden)= 0.64798E+00
  rms(prec ) = 0.21589E+01
  weight for this iteration     100.00

 eigenvalues of (default mixing * dielectric matrix)
  average eigenvalue GAMMA=   1.0471
  1.9707  0.5852  0.5852

 Free energy of the ion-electron system (eV)
  ---------------------------------------------------
  alpha Z        PSCENC =       244.67177403
  Ewald energy   TEWEN  =     -3749.73311731
  -Hartree energ DENC   =      -702.08068514
  -exchange      EXHF   =         0.00000000
  -V(xc)+E(xc)   XCENC  =        91.41911476
  PAW double counting   =      4315.44731639    -4248.76287483
  entropy T*S    EENTRO =        -0.00120852
  eigenvalues    EBANDS =       -70.13699189
  atomic energy  EATOM  =      4095.35208632
  Solvation  Ediel_sol  =         0.00000000
  ---------------------------------------------------
  free energy    TOTEN  =       -23.82458619 eV

  energy without entropy =      -23.82337767  energy(sigma->0) =      -23.82398193


--------------------------------------------------------------------------------------------------------




--------------------------------------- Iteration      1(   9)  ---------------------------------------


    POTLOK:  cpu time    0.1007: real time    0.1391
    SETDIJ:  cpu time    0.0940: real time    0.0941
     EDDAV:  cpu time    1.9081: real time    1.9084
       DOS:  cpu time    0.0033: real time    0.0048
    CHARGE:  cpu time    0.2835: real time    0.2839
    MIXING:  cpu time    0.0039: real time    0.0045
    --------------------------------------------
      LOOP:  cpu time    2.3934: real time    2.4324

 eigenvalue-minimisations  :  6144
 total energy-change (2. order) : 0.5781606E+00  (-0.6103629E+00)
 number of electron      39.0000000 magnetization
 augmentation part        7.9013427 magnetization

 Broyden mixing:
  rms(total) = 0.10749E+00    rms(broyden)= 0.10749E+00
  rms(prec ) = 0.21678E+00
  weight for this iteration     100.00

 eigenvalues of (default mixing * dielectric matrix)
  average eigenvalue GAMMA=   1.0282
  2.2782  0.5865  0.5865  0.6615

 Free energy of the ion-electron system (eV)
  ---------------------------------------------------
  alpha Z        PSCENC =       244.67177403
  Ewald energy   TEWEN  =     -3749.73311731
  -Hartree energ DENC   =      -704.12124533
  -exchange      EXHF   =         0.00000000
  -V(xc)+E(xc)   XCENC  =        91.55437257
  PAW double counting   =      4509.15397265    -4443.87714798
  entropy T*S    EENTRO =        -0.00154754
  eigenvalues    EBANDS =       -66.24557302
  atomic energy  EATOM  =      4095.35208632
  Solvation  Ediel_sol  =         0.00000000
  ---------------------------------------------------
  free energy    TOTEN  =       -23.24642563 eV

  energy without entropy =      -23.24487809  energy(sigma->0) =      -23.24565186


--------------------------------------------------------------------------------------------------------




--------------------------------------- Iteration      1(  10)  ---------------------------------------


    POTLOK:  cpu time    0.0387: real time    0.0782
    SETDIJ:  cpu time    0.0920: real time    0.0922
     EDDAV:  cpu time    1.9080: real time    1.9088
       DOS:  cpu time    0.0033: real time    0.0038
    CHARGE:  cpu time    0.2778: real time    0.2785
    MIXING:  cpu time    0.0072: real time    0.0079
    --------------------------------------------
      LOOP:  cpu time    2.3271: real time    2.3727

 eigenvalue-minimisations  :  6040
 total energy-change (2. order) :-0.8607279E-02  (-0.1839758E-01)
 number of electron      39.0000000 magnetization
 augmentation part        7.9139568 magnetization

 Broyden mixing:
  rms(total) = 0.60114E-01    rms(broyden)= 0.60114E-01
  rms(prec ) = 0.18374E+00
  weight for this iteration     100.00

 eigenvalues of (default mixing * dielectric matrix)
  average eigenvalue GAMMA=   0.9852
  1.9638  0.5753  0.5753  0.9058  0.9058

 Free energy of the ion-electron system (eV)
  ---------------------------------------------------
  alpha Z        PSCENC =       244.67177403
  Ewald energy   TEWEN  =     -3749.73311731
  -Hartree energ DENC   =      -702.88256778
  -exchange      EXHF   =         0.00000000
  -V(xc)+E(xc)   XCENC  =        91.51224343
  PAW double counting   =      4570.45771969    -4505.78854917
  entropy T*S    EENTRO =        -0.00157114
  eigenvalues    EBANDS =       -66.84305098
  atomic energy  EATOM  =      4095.35208632
  Solvation  Ediel_sol  =         0.00000000
  ---------------------------------------------------
  free energy    TOTEN  =       -23.25503291 eV

  energy without entropy =      -23.25346177  energy(sigma->0) =      -23.25424734


--------------------------------------------------------------------------------------------------------




--------------------------------------- Iteration      1(  11)  ---------------------------------------


    POTLOK:  cpu time    0.0717: real time    0.1161
    SETDIJ:  cpu time    0.0895: real time    0.0898
     EDDAV:  cpu time    1.9911: real time    1.9915
       DOS:  cpu time    0.0031: real time    0.0035
    CHARGE:  cpu time    0.2835: real time    0.2837
    MIXING:  cpu time    0.0043: real time    0.0044
    --------------------------------------------
      LOOP:  cpu time    2.4432: real time    2.4866

 eigenvalue-minimisations  :  6384
 total energy-change (2. order) : 0.5148740E-02  (-0.7961337E-02)
 number of electron      39.0000000 magnetization
 augmentation part        7.9734293 magnetization

 Broyden mixing:
  rms(total) = 0.34146E-01    rms(broyden)= 0.34146E-01
  rms(prec ) = 0.80520E-01
  weight for this iteration     100.00

 eigenvalues of (default mixing * dielectric matrix)
  average eigenvalue GAMMA=   1.2669
  2.4801  2.4179  0.5729  0.5729  0.8378  0.7196

 Free energy of the ion-electron system (eV)
  ---------------------------------------------------
  alpha Z        PSCENC =       244.67177403
  Ewald energy   TEWEN  =     -3749.73311731
  -Hartree energ DENC   =      -702.59472492
  -exchange      EXHF   =         0.00000000
  -V(xc)+E(xc)   XCENC  =        91.49129839
  PAW double counting   =      4564.85100580    -4500.17687166
  entropy T*S    EENTRO =        -0.00150585
  eigenvalues    EBANDS =       -67.10982897
  atomic energy  EATOM  =      4095.35208632
  Solvation  Ediel_sol  =         0.00000000
  ---------------------------------------------------
  free energy    TOTEN  =       -23.24988417 eV

  energy without entropy =      -23.24837832  energy(sigma->0) =      -23.24913124


--------------------------------------------------------------------------------------------------------




--------------------------------------- Iteration      1(  12)  ---------------------------------------


    POTLOK:  cpu time    0.0736: real time    0.1485
    SETDIJ:  cpu time    0.0934: real time    0.0935
     EDDAV:  cpu time    2.0248: real time    2.0251
       DOS:  cpu time    0.0032: real time    0.0035
    CHARGE:  cpu time    0.2941: real time    0.2942
    MIXING:  cpu time    0.0052: real time    0.0054
    --------------------------------------------
      LOOP:  cpu time    2.4943: real time    2.5694

 eigenvalue-minimisations  :  6576
 total energy-change (2. order) : 0.4546528E-03  (-0.5152369E-03)
 number of electron      39.0000000 magnetization
 augmentation part        7.9623524 magnetization

 Broyden mixing:
  rms(total) = 0.61065E-02    rms(broyden)= 0.61064E-02
  rms(prec ) = 0.16991E-01
  weight for this iteration     100.00

 eigenvalues of (default mixing * dielectric matrix)
  average eigenvalue GAMMA=   1.2263
  2.7071  2.0421  0.5755  0.5755  0.9987  0.9987  0.6864

 Free energy of the ion-electron system (eV)
  ---------------------------------------------------
  alpha Z        PSCENC =       244.67177403
  Ewald energy   TEWEN  =     -3749.73311731
  -Hartree energ DENC   =      -702.69299562
  -exchange      EXHF   =         0.00000000
  -V(xc)+E(xc)   XCENC  =        91.49161946
  PAW double counting   =      4583.04856029    -4518.33740655
  entropy T*S    EENTRO =        -0.00153952
  eigenvalues    EBANDS =       -67.04841060
  atomic energy  EATOM  =      4095.35208632
  Solvation  Ediel_sol  =         0.00000000
  ---------------------------------------------------
  free energy    TOTEN  =       -23.24942951 eV

  energy without entropy =      -23.24788999  energy(sigma->0) =      -23.24865975


--------------------------------------------------------------------------------------------------------




--------------------------------------- Iteration      1(  13)  ---------------------------------------


    POTLOK:  cpu time    0.1005: real time    0.1755
    SETDIJ:  cpu time    0.0929: real time    0.0930
     EDDAV:  cpu time    2.0228: real time    2.0232
       DOS:  cpu time    0.0033: real time    0.0072
    CHARGE:  cpu time    0.2799: real time    0.2801
    MIXING:  cpu time    0.0080: real time    0.0088
    --------------------------------------------
      LOOP:  cpu time    2.5073: real time    2.5902

 eigenvalue-minimisations  :  6536
 total energy-change (2. order) :-0.1129181E-04  (-0.1523976E-03)
 number of electron      39.0000000 magnetization
 augmentation part        7.9532607 magnetization

 Broyden mixing:
  rms(total) = 0.57276E-02    rms(broyden)= 0.57275E-02
  rms(prec ) = 0.19010E-01
  weight for this iteration     100.00

 eigenvalues of (default mixing * dielectric matrix)
  average eigenvalue GAMMA=   1.2196
  2.5506  1.8888  1.5537  0.5757  0.5757  0.9546  0.9546  0.7028

 Free energy of the ion-electron system (eV)
  ---------------------------------------------------
  alpha Z        PSCENC =       244.67177403
  Ewald energy   TEWEN  =     -3749.73311731
  -Hartree energ DENC   =      -702.73951105
  -exchange      EXHF   =         0.00000000
  -V(xc)+E(xc)   XCENC  =        91.49395447
  PAW double counting   =      4584.06804841    -4519.31809573
  entropy T*S    EENTRO =        -0.00155146
  eigenvalues    EBANDS =       -67.04302848
  atomic energy  EATOM  =      4095.35208632
  Solvation  Ediel_sol  =         0.00000000
  ---------------------------------------------------
  free energy    TOTEN  =       -23.24944081 eV

  energy without entropy =      -23.24788934  energy(sigma->0) =      -23.24866507


--------------------------------------------------------------------------------------------------------




--------------------------------------- Iteration      1(  14)  ---------------------------------------


    POTLOK:  cpu time    0.0382: real time    0.1079
    SETDIJ:  cpu time    0.0853: real time    0.0866
     EDDAV:  cpu time    1.8330: real time    1.8334
       DOS:  cpu time    0.0031: real time    0.0035
    CHARGE:  cpu time    0.2740: real time    0.2761
    MIXING:  cpu time    0.0067: real time    0.0098
    --------------------------------------------
      LOOP:  cpu time    2.2404: real time    2.3162

 eigenvalue-minimisations  :  5824
 total energy-change (2. order) : 0.4751033E-04  (-0.6853103E-04)
 number of electron      39.0000000 magnetization
 augmentation part        7.9583887 magnetization

 Broyden mixing:
  rms(total) = 0.16810E-02    rms(broyden)= 0.16810E-02
  rms(prec ) = 0.50034E-02
  weight for this iteration     100.00

 eigenvalues of (default mixing * dielectric matrix)
  average eigenvalue GAMMA=   1.2852
  2.7117  2.0791  1.4888  1.4888  0.5757  0.5757  0.9743  0.9743  0.6987

 Free energy of the ion-electron system (eV)
  ---------------------------------------------------
  alpha Z        PSCENC =       244.67177403
  Ewald energy   TEWEN  =     -3749.73311731
  -Hartree energ DENC   =      -702.69690815
  -exchange      EXHF   =         0.00000000
  -V(xc)+E(xc)   XCENC  =        91.49186283
  PAW double counting   =      4583.87579240    -4519.11386309
  entropy T*S    EENTRO =        -0.00154565
  eigenvalues    EBANDS =       -67.09547467
  atomic energy  EATOM  =      4095.35208632
  Solvation  Ediel_sol  =         0.00000000
  ---------------------------------------------------
  free energy    TOTEN  =       -23.24939330 eV

  energy without entropy =      -23.24784764  energy(sigma->0) =      -23.24862047


--------------------------------------------------------------------------------------------------------




--------------------------------------- Iteration      1(  15)  ---------------------------------------


    POTLOK:  cpu time    0.0397: real time    0.0805
    SETDIJ:  cpu time    0.0895: real time    0.0897
     EDDAV:  cpu time    1.8888: real time    1.8893
       DOS:  cpu time    0.0030: real time    0.0033
    CHARGE:  cpu time    0.2822: real time    0.2825
    MIXING:  cpu time    0.0064: real time    0.0067
    --------------------------------------------
      LOOP:  cpu time    2.3097: real time    2.3517

 eigenvalue-minimisations  :  6104
 total energy-change (2. order) : 0.1285035E-05  (-0.7298898E-05)
 number of electron      39.0000000 magnetization
 augmentation part        7.9570182 magnetization

 Broyden mixing:
  rms(total) = 0.74865E-03    rms(broyden)= 0.74861E-03
  rms(prec ) = 0.23278E-02
  weight for this iteration     100.00

 eigenvalues of (default mixing * dielectric matrix)
  average eigenvalue GAMMA=   1.3011
  2.6530  2.2825  1.8870  1.4288  0.5757  0.5757  0.9998  0.9998  0.7018  0.9069

 Free energy of the ion-electron system (eV)
  ---------------------------------------------------
  alpha Z        PSCENC =       244.67177403
  Ewald energy   TEWEN  =     -3749.73311731
  -Hartree energ DENC   =      -702.71210536
  -exchange      EXHF   =         0.00000000
  -V(xc)+E(xc)   XCENC  =        91.49248462
  PAW double counting   =      4584.21828065    -4519.45164314
  entropy T*S    EENTRO =        -0.00154785
  eigenvalues    EBANDS =       -67.08560397
  atomic energy  EATOM  =      4095.35208632
  Solvation  Ediel_sol  =         0.00000000
  ---------------------------------------------------
  free energy    TOTEN  =       -23.24939201 eV

  energy without entropy =      -23.24784416  energy(sigma->0) =      -23.24861809


--------------------------------------------------------------------------------------------------------




--------------------------------------- Iteration      1(  16)  ---------------------------------------


    POTLOK:  cpu time    0.0365: real time    0.0695
    SETDIJ:  cpu time    0.0877: real time    0.0879
     EDDAV:  cpu time    1.9083: real time    1.9087
       DOS:  cpu time    0.0033: real time    0.0037
    CHARGE:  cpu time    0.2789: real time    0.2791
    MIXING:  cpu time    0.0083: real time    0.0107
    --------------------------------------------
      LOOP:  cpu time    2.3231: real time    2.3614

 eigenvalue-minimisations  :  6080
 total energy-change (2. order) : 0.7898498E-06  (-0.3665522E-06)
 number of electron      39.0000000 magnetization
 augmentation part        7.9573850 magnetization

 Broyden mixing:
  rms(total) = 0.28379E-03    rms(broyden)= 0.28369E-03
  rms(prec ) = 0.86201E-03
  weight for this iteration     100.00

 eigenvalues of (default mixing * dielectric matrix)
  average eigenvalue GAMMA=   1.3168
  2.7122  2.2409  2.2409  0.5757  0.5757  1.4130  1.1055  1.1055  0.7000  0.9074
  0.9074

 Free energy of the ion-electron system (eV)
  ---------------------------------------------------
  alpha Z        PSCENC =       244.67177403
  Ewald energy   TEWEN  =     -3749.73311731
  -Hartree energ DENC   =      -702.71078196
  -exchange      EXHF   =         0.00000000
  -V(xc)+E(xc)   XCENC  =        91.49245398
  PAW double counting   =      4584.13620357    -4519.36783460
  entropy T*S    EENTRO =        -0.00154761
  eigenvalues    EBANDS =       -67.08862764
  atomic energy  EATOM  =      4095.35208632
  Solvation  Ediel_sol  =         0.00000000
  ---------------------------------------------------
  free energy    TOTEN  =       -23.24939122 eV

  energy without entropy =      -23.24784361  energy(sigma->0) =      -23.24861742


--------------------------------------------------------------------------------------------------------




--------------------------------------- Iteration      1(  17)  ---------------------------------------


    POTLOK:  cpu time    0.0497: real time    0.0855
    SETDIJ:  cpu time    0.0877: real time    0.0879
     EDDAV:  cpu time    1.5450: real time    1.5454
       DOS:  cpu time    0.0030: real time    0.0037
    CHARGE:  cpu time    0.2828: real time    0.2830
    MIXING:  cpu time    0.0069: real time    0.0071
    --------------------------------------------
      LOOP:  cpu time    1.9752: real time    2.0106

 eigenvalue-minimisations  :  4544
 total energy-change (2. order) : 0.1031822E-06  (-0.5053320E-07)
 number of electron      39.0000000 magnetization
 augmentation part        7.9574452 magnetization

 Broyden mixing:
  rms(total) = 0.99304E-04    rms(broyden)= 0.99011E-04
  rms(prec ) = 0.31656E-03
  weight for this iteration     100.00

 eigenvalues of (default mixing * dielectric matrix)
  average eigenvalue GAMMA=   1.3304
  2.7514  2.2970  2.2970  1.6898  0.5757  0.5757  1.1032  1.1032  0.7001  1.0009
  0.9352  0.9352

 Free energy of the ion-electron system (eV)
  ---------------------------------------------------
  alpha Z        PSCENC =       244.67177403
  Ewald energy   TEWEN  =     -3749.73311731
  -Hartree energ DENC   =      -702.71027597
  -exchange      EXHF   =         0.00000000
  -V(xc)+E(xc)   XCENC  =        91.49245691
  PAW double counting   =      4584.15072053    -4519.38281930
  entropy T*S    EENTRO =        -0.00154762
  eigenvalues    EBANDS =       -67.08866870
  atomic energy  EATOM  =      4095.35208632
  Solvation  Ediel_sol  =         0.00000000
  ---------------------------------------------------
  free energy    TOTEN  =       -23.24939112 eV

  energy without entropy =      -23.24784350  energy(sigma->0) =      -23.24861731


--------------------------------------------------------------------------------------------------------




--------------------------------------- Iteration      1(  18)  ---------------------------------------


    POTLOK:  cpu time    0.0316: real time    0.0655
    SETDIJ:  cpu time    0.0907: real time    0.0909
     EDDAV:  cpu time    1.3805: real time    1.3807
       DOS:  cpu time    0.0032: real time    0.0045
    --------------------------------------------
      LOOP:  cpu time    1.5060: real time    1.5419

 eigenvalue-minimisations  :  3728
 total energy-change (2. order) : 0.1387889E-07  (-0.5923040E-08)
 number of electron      39.0000000 magnetization
 augmentation part        7.9574452 magnetization

 Free energy of the ion-electron system (eV)
  ---------------------------------------------------
  alpha Z        PSCENC =       244.67177403
  Ewald energy   TEWEN  =     -3749.73311731
  -Hartree energ DENC   =      -702.71001783
  -exchange      EXHF   =         0.00000000
  -V(xc)+E(xc)   XCENC  =        91.49245242
  PAW double counting   =      4584.14460444    -4519.37702324
  entropy T*S    EENTRO =        -0.00154756
  eigenvalues    EBANDS =       -67.08860237
  atomic energy  EATOM  =      4095.35208632
  Solvation  Ediel_sol  =         0.00000000
  ---------------------------------------------------
  free energy    TOTEN  =       -23.24939110 eV

  energy without entropy =      -23.24784354  energy(sigma->0) =      -23.24861732


--------------------------------------------------------------------------------------------------------




 average (electrostatic) potential at core
  the test charge radii are     1.2087  1.0856  1.2059
  (the norm of the test charge is              1.0000)
       1 -81.5350       2 -98.9811       3 -63.0906



 E-fermi :  11.9537     XC(G=0): -12.1997     alpha+bet :-18.2312


 k-point     1 :       0.0000    0.0000    0.0000
  band No.  band energies     occupation
      1     -32.0566      2.00000
      2     -11.2183      2.00000
      3     -11.2183      2.00000
      4     -11.1800      2.00000
      5     -11.1800      2.00000
[...]
  212              fftbas_plan_mpi                       0.062263                     12   6
  213                dfftw_execute                         0.025930                   36   7
  214                map_backward                          0.004343                   12   7
  215                  map_gather                            0.000720                  6   8
  216                  m_alltoallv_z                         0.002221                  6   8
  217                  map_scatter                           0.001121                  6   8
  218                map_forward                           0.028851                   12   7
  219                  map_gather                            0.016353                  6   8
  220                  m_alltoallv_z                         0.005403                  6   8
  221                  map_scatter                           0.006790                  6   8
  222            M_sumb_d                              0.007062                        6   5
  223          M_sumb_d                              0.000025                          1   4
  224        setdij_                               1.523241                           20   3
  225          fft3d_mpi                             0.218477                         40   4
  226            fftbas_plan_mpi                       0.200045                       40   5
  227              dfftw_execute                         0.086258                    120   6
  228              map_backward                          0.013018                     40   6
  229                map_gather                            0.002700                   20   7
  230                m_alltoallv_z                         0.005447                   20   7
  231                map_scatter                           0.003919                   20   7
  232              map_forward                           0.090185                     40   6
  233                map_gather                            0.051126                   20   7
  234                m_alltoallv_z                         0.017211                   20   7
  235                map_scatter                           0.020837                   20   7
  236          M_sumb_d                              0.015838                         20   4
  237        set_dd_magatom                        0.000003                            1   3
  238        set_dd_paw                            0.015785                            1   3
  239          set_rsgf_all                          0.000004                          1   4
  240          M_sumb_d                              0.015611                          8   4
  241        strkin                                0.001065                            1   3
  242          M_sumb_d                              0.000437                          1   4
  243        strelo                                0.002747                            1   3
  244          M_sumb_d                              0.000606                          2   4
  245        strenl                                0.950143                            1   3
  246          spher                                 0.703641                         19   4
  247          phase                                 0.011393                        189   4
  248          proj1                                 0.208230                       1134   4
  249            crexp_mul_wave                        0.029491                     3402   5
  250            M_sumb_d                              0.056800                     1134   5
  251          M_sumb_d                              0.005291                          1   4
  252        M_sumb_d                              0.000294                            6   3
  253        fft3d_mpi                             0.015175                           11   3
  254          fftbas_plan_mpi                       0.014117                         11   4
  255            dfftw_execute                         0.004874                       33   5
  256            map_forward                           0.002872                       10   5
  257              map_gather                            0.000584                      5   6
  258              m_alltoallv_z                         0.001400                      5   6
  259              map_scatter                           0.000650                      5   6
  260            map_backward                          0.003757                       12   5
  261              map_gather                            0.000823                      6   6
  262              m_alltoallv_z                         0.001526                      6   6
  263              map_scatter                           0.001120                      6   6
  264        ggaall_grid                           0.001574                            1   3
  265        forhar                                0.005976                            2   3
  266          M_sumb_d                              0.000276                          2   4
  267        strehar                               0.002670                            1   3
  268          M_sumb_d                              0.000114                          1   4
  269        chggra                                0.006187                            1   3
  270          fft3d_mpi                             0.004278                          3   4
  271            fftbas_plan_mpi                       0.004000                        3   5
  272              dfftw_execute                         0.001325                      9   6
  273              map_backward                          0.000743                      2   6
  274                map_gather                            0.000124                    1   7
  275                m_alltoallv_z                         0.000270                    1   7
  276                map_scatter                           0.000293                    1   7
  277              map_forward                           0.001111                      4   6
  278                map_gather                            0.000276                    2   7
  279                m_alltoallv_z                         0.000484                    2   7
  280                map_scatter                           0.000252                    2   7
  281          M_sumb_d                              0.000128                          3   4
  282        brmix                                 0.036629                            1   3
  283          M_sumb_d                              0.000332                          6   4
  284          brpre                                 0.000047                          1   4
  285          setg0                                 0.001393                          1   4
  286          broyd                                 0.002668                          1   4
  287            M_sumb_d                              0.000768                       20   5
  288            brget                                 0.000352                       74   5
  289            brsav                                 0.000082                       18   5
  290          M_bcast_z                             0.031258                          1   4
  291          M_bcast_d                             0.000036                          1   4
  292        M_bcast_d                             0.000052                            2   3
  293      potlok                                0.027224                              1   2
  294        fft3d_mpi                             0.019004                           13   3
  295          fftbas_plan_mpi                       0.017639                         13   4
  296            dfftw_execute                         0.006037                       39   5
  297            map_forward                           0.004338                       14   5
  298              map_gather                            0.000809                      8   6
  299              m_alltoallv_z                         0.002134                      8   6
  300              map_scatter                           0.001050                      8   6
  301            map_backward                          0.004154                       12   5
  302              map_gather                            0.000911                      6   6
  303              m_alltoallv_z                         0.001719                      6   6
  304              map_scatter                           0.001225                      6   6
  305        ggaall_grid                           0.001541                            1   3
  306        M_sumb_d                              0.000273                            6   3
  307        M_bcast_d                             0.000151                            1   3
  308      potlok_metagga                        0.000003                              1   2
  309      set_dd_magatom                        0.000003                              1   2
  310      set_dd_paw                            0.000461                              1   2
  311        set_rsgf_all                          0.000004                            1   3
  312        M_sumb_d                              0.000269                            8   3
  313      densta                                0.002560                              1   2
  314        M_sumb_d                              0.000927                           44   3
  315      lprj_proall                           0.000007                              1   2

 Flat profile
 ============

             routine name                   CPU           calls
 ---------------------------------------------------------------
 total_time                             14.233960           1
 eddav                                   6.092377          18
 dfftw_execute                           5.584032       57564
 fftbas_plan_mpi                         3.901867       19190
 M_sumb_d                                3.068825       52770
 setdij_                                 2.827631          42
 set_charge                              2.448938          14
 elmin                                   2.285861           1
 m_alltoallv_z                           2.158949       19217
 pdssyex_zheevx                          1.661500         378
 M_alltoall_d                            1.327232       63490
 orth1                                   1.005684       13005
 proj1                                   0.963024        7648
 vhamil                                  0.877769        8656
 gemm                                    0.867163       25968
 spher                                   0.806995          20
 fftwav_mpi                              0.740007       10210
 map_forward                             0.731974       20730
 map_gather                              0.691705       19217
 map_scatter                             0.631884       19217
 vnlac0                                  0.572739        8656
 M_bcast_z                               0.558618        6883
 redis_pw                                0.531862       24498
 redis_proj                              0.469334       30907
 hamiltmu                                0.468152        4328
 w1_copy                                 0.357898       25968
 map_backward                            0.308363       17646
 fft3d_mpi                               0.300369       19188
 crpa_reader                             0.291390           1
 work_mul_crexp                          0.274531       25968
 fftext_mpi                              0.274317        8656
 crexp_mul_wave                          0.213428       22944
 eccp                                    0.202768        2268
 kinhamil                                0.169631        8656
 overl                                   0.166730       15065
 M_bcast_d                               0.139820        4364
 overl1                                  0.107451        8656
 potlok                                  0.095377          15
 pw_charge                               0.094227        1554
 apply_precond                           0.086782        6388
 setup_precond                           0.075076        2268
 w1_projall                              0.069765        3194
 lincom                                  0.060704         399
 force_and_stress                        0.055682           1
 fornl                                   0.042704           1
 truncate_high_frequency_w1              0.037815       10924
 soft_charge                             0.037627          14
 phase                                   0.036930         610
 densta                                  0.030766          19
 brmix                                   0.028944          14
 ggaall_grid                             0.024760          16
 strenl                                  0.021588           1
 setg0                                   0.016928          15
 brgrid                                  0.013812           1
 broyd                                   0.013797          14
 depsum                                  0.006087          14
 forhar                                  0.005700           2
 set_dd_paw                              0.003438          16
 forloc                                  0.002941           1
 brget                                   0.002695         575
 strehar                                 0.002556           1
 strelo                                  0.002141           1
 orthch                                  0.002079           1
 chggra                                  0.001781           1
 choleski                                0.001749          21
 proj                                    0.001502          21
 brpre                                   0.001260          14
 brsav                                   0.001166         163
 strkin                                  0.000628           1
 fordep                                  0.000119           1
 vectorpot                               0.000076          15
 set_rsgf_all                            0.000071          16
 set_dd_magatom                          0.000060          16
 potlok_metagga                          0.000055          15
 set_kineden                             0.000047          13
 rotate_active_occupied_orbital          0.000015           1
 lprj_proall                             0.000007           1
 redis_pw_over_bands                     0.000003           1
 ---------------------------------------------------------------
  summed up times    59.1942420005798

 Accumulative profile
 ====================

             routine name                   CPU           calls
 ---------------------------------------------------------------
 total_time                             59.194242           1
 elmin                                  40.376248           1
 eddav                                  32.556978          18
 fft3d_mpi                              14.249043       19188
 fftbas_plan_mpi                        14.008775       19190
 hamiltmu                               10.034155        4328
 fftwav_mpi                              8.077064       10210
 kinhamil                                6.318526        8656
 fftext_mpi                              6.148895        8656
 dfftw_execute                           5.584032       57564
 set_charge                              4.037337          14
 force_and_stress                        3.424994           1
 setdij_                                 3.358469          42
 M_sumb_d                                3.068825       52770
 map_forward                             2.644654       20730
 vnlac0                                  2.262257        8656
 m_alltoallv_z                           2.158949       19217
 map_backward                            1.878221       17646
 pdssyex_zheevx                          1.661500         378
 proj1                                   1.656082        7648
 w1_projall                              1.494347        3194
 soft_charge                             1.337548          14
 M_alltoall_d                            1.327232       63490
 redis_pw                                1.280224       24498
 redis_proj                              1.048204       30907
 orth1                                   1.005684       13005
 strenl                                  0.950143           1
 vhamil                                  0.877769        8656
 gemm                                    0.867163       25968
 spher                                   0.806995          20
 map_gather                              0.691705       19217
 map_scatter                             0.631884       19217
 M_bcast_z                               0.558618        6883
 fordep                                  0.468672           1
 potlok                                  0.390471          15
 w1_copy                                 0.357898       25968
 eccp                                    0.338993        2268
 crpa_reader                             0.291390           1
 work_mul_crexp                          0.274531       25968
 crexp_mul_wave                          0.213428       22944
 set_dd_paw                              0.169907          16
 overl                                   0.166730       15065
 M_bcast_d                               0.139820        4364
 setup_precond                           0.129238        2268
 brmix                                   0.122546          14
 overl1                                  0.107451        8656
 pw_charge                               0.094227        1554
 apply_precond                           0.086782        6388
 lincom                                  0.060704         399
 fornl                                   0.056720           1
 densta                                  0.046001          19
 truncate_high_frequency_w1              0.037815       10924
 phase                                   0.036930         610
 orthch                                  0.027514           1
 proj                                    0.024771          21
 ggaall_grid                             0.024760          16
 broyd                                   0.023864          14
 setg0                                   0.016928          15
 brgrid                                  0.013812           1
 depsum                                  0.010679          14
 chggra                                  0.006187           1
 forhar                                  0.005976           2
 forloc                                  0.003394           1
 strelo                                  0.002747           1
 brget                                   0.002695         575
 strehar                                 0.002670           1
 choleski                                0.001749          21
 brpre                                   0.001260          14
 brsav                                   0.001166         163
 strkin                                  0.001065           1
 vectorpot                               0.000076          15
 set_rsgf_all                            0.000071          16
 set_dd_magatom                          0.000060          16
 potlok_metagga                          0.000055          15
 set_kineden                             0.000047          13
 rotate_active_occupied_orbital          0.000015           1
 lprj_proall                             0.000007           1
 redis_pw_over_bands                     0.000003           1
 ---------------------------------------------------------------

Profiling took   1.496712  1.819683  0.005768  0.004373 seconds
Profiling took   1.454429 seconds
