 ----------------------------------------------------
    OOO  PPPP  EEEEE N   N M   M PPPP
   O   O P   P E     NN  N MM MM P   P
   O   O PPPP  EEEEE N N N M M M PPPP   -- VERSION
   O   O P     E     N  NN M   M P
    OOO  P     EEEEE N   N M   M P
 ----------------------------------------------------
 running   64 mpi-ranks, with    1 threads/rank
 distrk:  each k-point on   16 cores,    4 groups
 distr:  one band on    4 cores,    4 groups
 using from now: INCAR
 vasp.6.0.8 29Jun18 (build Jun 13 2019 12:54:44) complex

 POSCAR found type information on POSCAR  U  Bi Pt
 POSCAR found :  3 types and       3 ions
 scaLAPACK will be used
 WARNING: PSMAXN for non-local potential too small

 -----------------------------------------------------------------------------
|                                                                             |
|  ADVICE TO THIS USER RUNNING 'VASP/VAMP'   (HEAR YOUR MASTER'S VOICE ...):  |
|                                                                             |
|      You enforced a specific xc-type in the INCAR file,                     |
|      a different type was found on the POTCAR file                          |
|          I HOPE YOU KNOW, WHAT YOU ARE  DOING                               |
|                                                                             |
 -----------------------------------------------------------------------------

 LDA part: xc-table for Pade appr. of Perdew
 POSCAR, INCAR and KPOINTS ok, starting setup
 FFT: planning ...
 WAVECAR not read
 entering main loop
       N       E                     dE             d eps       ncg     rms          rms(c)
 ELPA: falling back to scaLAPACK
 ELPA: falling back to scaLAPACK
 ELPA: falling back to scaLAPACK
 ELPA: falling back to scaLAPACK
DAV:   1     0.436222012831E+03    0.43622E+03   -0.22709E+04  4032   0.241E+03
DAV:   2     0.323901134455E+02   -0.40383E+03   -0.39551E+03  4224   0.511E+02
DAV:   3    -0.198499301062E+02   -0.52240E+02   -0.51143E+02  4888   0.185E+02
DAV:   4    -0.255915701635E+02   -0.57416E+01   -0.57153E+01  7528   0.481E+01
DAV:   5    -0.257605291951E+02   -0.16896E+00   -0.16849E+00  5432   0.720E+00    0.166E+01
DAV:   6    -0.307087088096E+02   -0.49482E+01   -0.16079E+02  6176   0.881E+01    0.228E+01
DAV:   7    -0.237979271815E+02    0.69108E+01   -0.24908E+01  5784   0.289E+01    0.901E+00
DAV:   8    -0.238245861851E+02   -0.26659E-01   -0.20195E+01  5992   0.217E+01    0.648E+00
DAV:   9    -0.232464256271E+02    0.57816E+00   -0.61036E+00  6144   0.154E+01    0.107E+00
DAV:  10    -0.232550329064E+02   -0.86073E-02   -0.18398E-01  6040   0.248E+00    0.601E-01
DAV:  11    -0.232498841667E+02    0.51487E-02   -0.79613E-02  6384   0.170E+00    0.341E-01
DAV:  12    -0.232494295139E+02    0.45465E-03   -0.51524E-03  6576   0.492E-01    0.611E-02
DAV:  13    -0.232494408057E+02   -0.11292E-04   -0.15240E-03  6536   0.228E-01    0.573E-02
DAV:  14    -0.232493932954E+02    0.47510E-04   -0.68531E-04  5824   0.147E-01    0.168E-02
DAV:  15    -0.232493920104E+02    0.12850E-05   -0.72989E-05  6104   0.518E-02    0.749E-03
DAV:  16    -0.232493912205E+02    0.78985E-06   -0.36655E-06  6080   0.124E-02    0.284E-03
DAV:  17    -0.232493911173E+02    0.10318E-06   -0.50533E-07  4544   0.395E-03    0.993E-04
DAV:  18    -0.232493911035E+02    0.13879E-07   -0.59230E-08  3728   0.176E-03
   1 F= -.23249391E+02 E0= -.23248617E+02  d E =-.154756E-02
