<?xml version="1.0" encoding="ISO-8859-1"?>
<modeling>
 <generator>
  <i name="program" type="string">vasp </i>
  <i name="version" type="string">6.0.8  </i>
  <i name="subversion" type="string">29Jun18 (build Jun 13 2019 12:54:44) complex                          parallel </i>
  <i name="platform" type="string">IFC18_CrayMPICH </i>
  <i name="date" type="string">2021 12 05 </i>
  <i name="time" type="string">14:21:49 </i>
 </generator>
 <incar>
  <i type="int" name="KPAR">     4</i>
  <i type="int" name="NPAR">     4</i>
  <i type="int" name="ISTART">     0</i>
  <i type="string" name="PREC"> ACC</i>
  <i type="string" name="ALGO"> Normal</i>
  <i type="logical" name="ADDGRID"> T  </i>
  <i type="int" name="ISPIN">     1</i>
  <i type="int" name="NELMIN">     5</i>
  <i type="int" name="IBRION">    -1</i>
  <i name="EDIFF">      0.00000010</i>
  <i type="int" name="NSW">     0</i>
  <i type="int" name="ISIF">     3</i>
  <i name="ENCUT">    700.00000000</i>
  <i type="logical" name="LREAL"> F  </i>
  <i type="int" name="ISMEAR">     0</i>
  <i name="SIGMA">      0.01000000</i>
  <i type="logical" name="LWAVE"> F  </i>
  <i type="logical" name="LCHARG"> F  </i>
  <i type="logical" name="LVTOT"> F  </i>
  <i type="string" name="ALGO"> Normal</i>
  <i type="string" name="GGA"> PS</i>
  <i name="EDIFF">      0.00000010</i>
  <i type="int" name="ISPIN">     1</i>
 </incar>
 <structure name="primitive_cell" >
  <crystal>
   <varray name="basis" >
    <v>       0.00000000       3.17924219       3.17924219 </v>
    <v>       3.17924219       0.00000000       3.17924219 </v>
    <v>       3.17924219       3.17924219       0.00000000 </v>
   </varray>
   <i name="volume">     64.26889548 </i>
   <varray name="rec_basis" >
    <v>      -0.15727018       0.15727018       0.15727018 </v>
    <v>       0.15727018      -0.15727018       0.15727018 </v>
    <v>       0.15727018       0.15727018      -0.15727018 </v>
   </varray>
  </crystal>
  <varray name="positions" >
   <v>       0.25000000       0.25000000       0.25000000 </v>
   <v>       0.75000000       0.75000000       0.75000000 </v>
   <v>       0.00000000       0.00000000       0.00000000 </v>
  </varray>
 </structure>
 <varray name="primitive_index" >
  <v type="int" >        1 </v>
  <v type="int" >        2 </v>
  <v type="int" >        3 </v>
 </varray>
 <kpoints>
  <generation param="Gamma">
   <v type="int" name="divisions">      13       13       13 </v>
   <v name="usershift">      0.00000000       0.00000000       0.00000000 </v>
   <v name="genvec1">      0.07692308      -0.00000000       0.00000000 </v>
   <v name="genvec2">     -0.00000000       0.07692308      -0.00000000 </v>
   <v name="genvec3">      0.00000000       0.00000000       0.07692308 </v>
   <v name="shift">      0.00000000       0.00000000       0.00000000 </v>
  </generation>
  <varray name="kpointlist" >
   <v>       0.00000000       0.00000000       0.00000000 </v>
   <v>       0.07692308      -0.00000000       0.00000000 </v>
   <v>       0.15384615      -0.00000000       0.00000000 </v>
   <v>       0.23076923      -0.00000000      -0.00000000 </v>
   <v>       0.30769231      -0.00000000       0.00000000 </v>
   <v>       0.38461538      -0.00000000       0.00000000 </v>
   <v>       0.46153846       0.00000000      -0.00000000 </v>
   <v>       0.07692308       0.07692308      -0.00000000 </v>
   <v>       0.15384615       0.07692308      -0.00000000 </v>
   <v>       0.23076923       0.07692308       0.00000000 </v>
   <v>       0.30769231       0.07692308      -0.00000000 </v>
   <v>       0.38461538       0.07692308       0.00000000 </v>
   <v>       0.46153846       0.07692308      -0.00000000 </v>
   <v>      -0.46153846       0.07692308      -0.00000000 </v>
   <v>      -0.38461538       0.07692308       0.00000000 </v>
   <v>      -0.30769231       0.07692308      -0.00000000 </v>
   <v>      -0.23076923       0.07692308      -0.00000000 </v>
   <v>      -0.15384615       0.07692308       0.00000000 </v>
   <v>      -0.07692308       0.07692308      -0.00000000 </v>
   <v>       0.15384615       0.15384615      -0.00000000 </v>
   <v>       0.23076923       0.15384615      -0.00000000 </v>
   <v>       0.30769231       0.15384615      -0.00000000 </v>
   <v>       0.38461538       0.15384615      -0.00000000 </v>
   <v>       0.46153846       0.15384615      -0.00000000 </v>
   <v>      -0.46153846       0.15384615      -0.00000000 </v>
   <v>      -0.38461538       0.15384615      -0.00000000 </v>
   <v>      -0.30769231       0.15384615       0.00000000 </v>
   <v>      -0.23076923       0.15384615      -0.00000000 </v>
   <v>      -0.15384615       0.15384615      -0.00000000 </v>
   <v>       0.23076923       0.23076923      -0.00000000 </v>
   <v>       0.30769231       0.23076923      -0.00000000 </v>
   <v>       0.38461538       0.23076923      -0.00000000 </v>
   <v>       0.46153846       0.23076923      -0.00000000 </v>
   <v>      -0.46153846       0.23076923       0.00000000 </v>
   <v>      -0.38461538       0.23076923       0.00000000 </v>
   <v>      -0.30769231       0.23076923      -0.00000000 </v>
   <v>      -0.23076923       0.23076923      -0.00000000 </v>
   <v>       0.30769231       0.30769231      -0.00000000 </v>
   <v>       0.38461538       0.30769231      -0.00000000 </v>
   <v>       0.46153846       0.30769231      -0.00000000 </v>
   <v>      -0.46153846       0.30769231       0.00000000 </v>
   <v>      -0.38461538       0.30769231       0.00000000 </v>
   <v>      -0.30769231       0.30769231      -0.00000000 </v>
   <v>       0.38461538       0.38461538      -0.00000000 </v>
   <v>       0.46153846       0.38461538      -0.00000000 </v>
   <v>      -0.46153846       0.38461538      -0.00000000 </v>
   <v>      -0.38461538       0.38461538      -0.00000000 </v>
   <v>       0.46153846       0.46153846      -0.00000000 </v>
   <v>      -0.46153846       0.46153846       0.00000000 </v>
   <v>       0.23076923       0.15384615       0.07692308 </v>
   <v>       0.30769231       0.15384615       0.07692308 </v>
   <v>       0.38461538       0.15384615       0.07692308 </v>
   <v>       0.46153846       0.15384615       0.07692308 </v>
   <v>      -0.46153846       0.15384615       0.07692308 </v>
   <v>       0.30769231       0.23076923       0.07692308 </v>
   <v>       0.38461538       0.23076923       0.07692308 </v>
   <v>       0.46153846       0.23076923       0.07692308 </v>
   <v>      -0.46153846       0.23076923       0.07692308 </v>
   <v>      -0.38461538       0.23076923       0.07692308 </v>
   <v>      -0.30769231       0.23076923       0.07692308 </v>
   <v>      -0.23076923       0.23076923       0.07692308 </v>
   <v>      -0.15384615       0.23076923       0.07692308 </v>
   <v>       0.38461538       0.30769231       0.07692308 </v>
   <v>       0.46153846       0.30769231       0.07692308 </v>
   <v>      -0.46153846       0.30769231       0.07692308 </v>
   <v>      -0.38461538       0.30769231       0.07692308 </v>
   <v>      -0.30769231       0.30769231       0.07692308 </v>
   <v>      -0.23076923       0.30769231       0.07692308 </v>
   <v>       0.46153846       0.38461538       0.07692308 </v>
   <v>      -0.46153846       0.38461538       0.07692308 </v>
   <v>      -0.38461538       0.38461538       0.07692308 </v>
   <v>      -0.30769231       0.38461538       0.07692308 </v>
   <v>      -0.46153846       0.46153846       0.07692308 </v>
   <v>      -0.38461538       0.46153846       0.07692308 </v>
   <v>       0.46153846       0.30769231       0.15384615 </v>
   <v>      -0.46153846       0.30769231       0.15384615 </v>
   <v>      -0.38461538       0.30769231       0.15384615 </v>
   <v>      -0.46153846       0.38461538       0.15384615 </v>
   <v>      -0.38461538       0.38461538       0.15384615 </v>
   <v>      -0.30769231       0.38461538       0.15384615 </v>
   <v>      -0.23076923       0.38461538       0.15384615 </v>
   <v>      -0.38461538       0.46153846       0.15384615 </v>
   <v>      -0.30769231       0.46153846       0.15384615 </v>
   <v>      -0.30769231       0.46153846       0.23076923 </v>
  </varray>
  <varray name="weights" >
   <v>       0.00045517 </v>
   <v>       0.00364133 </v>
   <v>       0.00364133 </v>
   <v>       0.00364133 </v>
   <v>       0.00364133 </v>
   <v>       0.00364133 </v>
   <v>       0.00364133 </v>
   <v>       0.00273100 </v>
   <v>       0.01092399 </v>
   <v>       0.01092399 </v>
   <v>       0.01092399 </v>
   <v>       0.01092399 </v>
   <v>       0.01092399 </v>
   <v>       0.01092399 </v>
   <v>       0.01092399 </v>
   <v>       0.01092399 </v>
   <v>       0.01092399 </v>
   <v>       0.01092399 </v>
   <v>       0.00546199 </v>
   <v>       0.00273100 </v>
   <v>       0.01092399 </v>
   <v>       0.01092399 </v>
   <v>       0.01092399 </v>
   <v>       0.01092399 </v>
   <v>       0.01092399 </v>
   <v>       0.01092399 </v>
   <v>       0.01092399 </v>
   <v>       0.01092399 </v>
   <v>       0.00546199 </v>
   <v>       0.00273100 </v>
   <v>       0.01092399 </v>
   <v>       0.01092399 </v>
   <v>       0.01092399 </v>
   <v>       0.01092399 </v>
   <v>       0.01092399 </v>
   <v>       0.01092399 </v>
   <v>       0.00546199 </v>
   <v>       0.00273100 </v>
   <v>       0.01092399 </v>
   <v>       0.01092399 </v>
   <v>       0.01092399 </v>
   <v>       0.01092399 </v>
   <v>       0.00546199 </v>
   <v>       0.00273100 </v>
   <v>       0.01092399 </v>
   <v>       0.01092399 </v>
   <v>       0.00546199 </v>
   <v>       0.00273100 </v>
   <v>       0.00546199 </v>
   <v>       0.01092399 </v>
   <v>       0.02184797 </v>
   <v>       0.02184797 </v>
   <v>       0.02184797 </v>
   <v>       0.02184797 </v>
   <v>       0.01092399 </v>
   <v>       0.02184797 </v>
   <v>       0.02184797 </v>
   <v>       0.02184797 </v>
   <v>       0.02184797 </v>
   <v>       0.02184797 </v>
   <v>       0.02184797 </v>
   <v>       0.01092399 </v>
   <v>       0.01092399 </v>
   <v>       0.02184797 </v>
   <v>       0.02184797 </v>
   <v>       0.02184797 </v>
   <v>       0.02184797 </v>
   <v>       0.01092399 </v>
   <v>       0.01092399 </v>
   <v>       0.02184797 </v>
   <v>       0.02184797 </v>
   <v>       0.01092399 </v>
   <v>       0.01092399 </v>
   <v>       0.01092399 </v>
   <v>       0.01092399 </v>
   <v>       0.02184797 </v>
   <v>       0.02184797 </v>
   <v>       0.01092399 </v>
   <v>       0.02184797 </v>
   <v>       0.02184797 </v>
   <v>       0.01092399 </v>
   <v>       0.01092399 </v>
   <v>       0.01092399 </v>
   <v>       0.01092399 </v>
  </varray>
 </kpoints>
 <parameters>
  <separator name="general" >
   <i type="string" name="SYSTEM">unknown system</i>
   <i type="logical" name="LCOMPAT"> F  </i>
  </separator>
  <separator name="electronic" >
   <i type="string" name="PREC">acc</i>
   <i name="ENMAX">    700.00000000</i>
   <i name="ENAUG">    526.41000000</i>
   <i name="EDIFF">      0.00000010</i>
   <i type="int" name="IALGO">    38</i>
   <i type="int" name="IWAVPR">    10</i>
   <i type="int" name="NBANDS">    24</i>
   <i type="int" name="NBANDSLOW">    -1</i>
   <i type="int" name="NBANDSHIGH">    -1</i>
   <i name="NELECT">     39.00000000</i>
   <i type="int" name="TURBO">     0</i>
   <i type="int" name="IRESTART">     0</i>
   <i type="int" name="NREBOOT">     0</i>
   <i type="int" name="NMIN">     0</i>
   <i name="EREF">      0.00000000</i>
   <separator name="electronic smearing" >
    <i type="int" name="ISMEAR">     0</i>
    <i name="SIGMA">      0.01000000</i>
    <i name="KSPACING">      0.50000000</i>
    <i type="logical" name="KGAMMA"> T  </i>
    <i type="logical" name="KBLOWUP"> T  </i>
   </separator>
   <separator name="electronic projectors" >
    <i type="logical" name="LREAL"> F  </i>
    <v name="ROPT">      0.00000000      0.00000000      0.00000000</v>
    <i type="int" name="LMAXPAW">  -100</i>
    <i type="int" name="LMAXMIX">     2</i>
    <i type="logical" name="NLSPLINE"> F  </i>
   </separator>
   <separator name="electronic startup" >
    <i type="int" name="ISTART">     0</i>
    <i type="int" name="ICHARG">     2</i>
    <i type="int" name="INIWAV">     1</i>
   </separator>
   <separator name="electronic spin" >
    <i type="int" name="ISPIN">     1</i>
    <i type="logical" name="LNONCOLLINEAR"> F  </i>
    <v name="MAGMOM">      1.00000000      1.00000000      1.00000000</v>
    <i name="NUPDOWN">     -1.00000000</i>
    <i type="logical" name="LSORBIT"> F  </i>
    <v name="SAXIS">      0.00000000      0.00000000      1.00000000</v>
    <i type="logical" name="LSPIRAL"> F  </i>
    <v name="QSPIRAL">      0.00000000      0.00000000      0.00000000</v>
    <i type="logical" name="LZEROZ"> F  </i>
   </separator>
   <separator name="electronic exchange-correlation" >
    <i type="logical" name="LASPH"> F  </i>
    <i type="logical" name="LMETAGGA"> F  </i>
   </separator>
   <separator name="electronic convergence" >
    <i type="int" name="NELM">    60</i>
    <i type="int" name="NELMDL">    -5</i>
    <i type="int" name="NELMIN">     5</i>
    <i name="ENINI">    700.00000000</i>
    <separator name="electronic convergence detail" >
     <i type="logical" name="LDIAG"> T  </i>
     <i type="logical" name="LSUBROT"> F  </i>
     <i name="WEIMIN">      0.00000000</i>
     <i name="EBREAK">      0.00000000</i>
     <i name="DEPER">      0.30000000</i>
     <i type="int" name="NRMM">     4</i>
     <i name="TIME">      0.40000000</i>
    </separator>
   </separator>
   <separator name="electronic mixer" >
    <i name="AMIX">      0.40000000</i>
    <i name="BMIX">      1.00000000</i>
    <i name="AMIN">      0.10000000</i>
    <i name="AMIX_MAG">      1.60000000</i>
    <i name="BMIX_MAG">      1.00000000</i>
    <separator name="electronic mixer details" >
     <i type="int" name="IMIX">     4</i>
     <i type="logical" name="MIXFIRST"> F  </i>
     <i type="int" name="MAXMIX">   -45</i>
     <i name="WC">    100.00000000</i>
     <i type="int" name="INIMIX">     1</i>
     <i type="int" name="MIXPRE">     1</i>
     <i type="int" name="MREMOVE">     5</i>
    </separator>
   </separator>
   <separator name="electronic dipolcorrection" >
    <i type="logical" name="LDIPOL"> F  </i>
    <i type="logical" name="LMONO"> F  </i>
    <i type="int" name="IDIPOL">     0</i>
    <i name="EPSILON">      1.00000000</i>
    <v name="DIPOL">   -100.00000000   -100.00000000   -100.00000000</v>
    <i name="EFIELD">      0.00000000</i>
   </separator>
  </separator>
  <separator name="grids" >
   <i type="int" name="NGX">    40</i>
   <i type="int" name="NGY">    40</i>
   <i type="int" name="NGZ">    40</i>
   <i type="int" name="NGXF">    80</i>
   <i type="int" name="NGYF">    80</i>
   <i type="int" name="NGZF">    80</i>
   <i type="logical" name="ADDGRID"> T  </i>
  </separator>
  <separator name="ionic" >
   <i type="int" name="NSW">     0</i>
   <i type="int" name="IBRION">    -1</i>
   <i type="int" name="MDALGO">     0</i>
   <i type="int" name="ISIF">     3</i>
   <i name="PSTRESS">      0.00000000</i>
   <i name="EDIFFG">      0.00000100</i>
   <i type="int" name="NFREE">     0</i>
   <i name="POTIM">      0.50000000</i>
   <i name="SMASS">     -3.00000000</i>
   <i name="SCALEE">      1.00000000</i>
  </separator>
  <separator name="ionic md" >
   <i name="TEBEG">      0.00010000</i>
   <i name="TEEND">      0.00010000</i>
   <i type="int" name="NBLOCK">     1</i>
   <i type="int" name="KBLOCK">     1</i>
   <i type="int" name="NPACO">   256</i>
   <i name="APACO">     16.00000000</i>
  </separator>
  <separator name="symmetry" >
   <i type="int" name="ISYM">     2</i>
   <i name="SYMPREC">      0.00001000</i>
  </separator>
  <separator name="dos" >
   <i type="int" name="LORBIT">     0</i>
   <v name="RWIGS">     -1.00000000     -1.00000000     -1.00000000</v>
   <i type="int" name="NEDOS">   301</i>
   <i name="EMIN">     10.00000000</i>
   <i name="EMAX">    -10.00000000</i>
   <i name="EFERMI">      0.00000000</i>
  </separator>
  <separator name="writing" >
   <i type="int" name="NWRITE">     2</i>
   <i type="logical" name="LWAVE"> F  </i>
   <i type="logical" name="LDOWNSAMPLE"> F  </i>
   <i type="logical" name="LCHARG"> F  </i>
   <i type="logical" name="LPARD"> F  </i>
   <i type="logical" name="LVTOT"> F  </i>
   <i type="logical" name="LVHAR"> F  </i>
   <i type="logical" name="LELF"> F  </i>
   <i type="logical" name="LOPTICS"> F  </i>
   <v name="STM">      0.00000000      0.00000000      0.00000000      0.00000000      0.00000000      0.00000000      0.00000000</v>
  </separator>
  <separator name="performance" >
   <i type="int" name="NPAR">     4</i>
   <i type="int" name="NSIM">     4</i>
   <i type="int" name="NBLK">    -1</i>
   <i type="logical" name="LPLANE"> T  </i>
   <i type="logical" name="LSCALAPACK"> T  </i>
   <i type="logical" name="LSCAAWARE"> F  </i>
   <i type="logical" name="LSCALU"> F  </i>
   <i type="logical" name="LASYNC"> F  </i>
   <i type="logical" name="LORBITALREAL"> F  </i>
  </separator>
  <separator name="miscellaneous" >
   <i type="int" name="IDIOT">     3</i>
   <i type="int" name="PHON_NSTRUCT">    -1</i>
   <i type="logical" name="LMUSIC"> F  </i>
   <v name="POMASS">    238.02900000    208.98000000    195.08000000</v>
   <v name="DARWINR">      0.00000000      0.00000000      0.00000000</v>
   <v name="DARWINV">      1.00000000      1.00000000      1.00000000</v>
   <i type="logical" name="LCORR"> T  </i>
  </separator>
  <i type="logical" name="GGA_COMPAT"> T  </i>
  <i type="logical" name="LBERRY"> F  </i>
  <i type="int" name="ICORELEVEL">     0</i>
  <i type="logical" name="LDAU"> F  </i>
  <i type="int" name="I_CONSTRAINED_M">     0</i>
  <separator name="electronic exchange-correlation" >
   <i type="string" name="GGA">PS</i>
   <i type="int" name="VOSKOWN">     0</i>
   <i type="logical" name="LHFCALC"> F  </i>
   <i type="string" name="PRECFOCK"></i>
   <i type="logical" name="LSYMGRAD"> F  </i>
   <i type="logical" name="LHFONE"> F  </i>
   <i type="logical" name="LRHFCALC"> F  </i>
   <i type="logical" name="LTHOMAS"> F  </i>
   <i type="logical" name="LMODELHF"> F  </i>
   <i type="logical" name="LFOCKACE"> F  </i>
   <i name="ENCUT4O">     -1.00000000</i>
   <i type="int" name="EXXOEP">     0</i>
   <i type="int" name="FOURORBIT">     0</i>
   <i name="AEXX">      0.00000000</i>
   <i name="HFALPHA">      0.00000000</i>
   <i name="MCALPHA">      0.00000000</i>
   <i name="ALDAX">      1.00000000</i>
   <i name="AGGAX">      1.00000000</i>
   <i name="ALDAC">      1.00000000</i>
   <i name="AGGAC">      1.00000000</i>
   <i type="int" name="NKREDX">     1</i>
   <i type="int" name="NKREDY">     1</i>
   <i type="int" name="NKREDZ">     1</i>
   <i type="logical" name="SHIFTRED"> F  </i>
   <i type="logical" name="ODDONLY"> F  </i>
   <i type="logical" name="EVENONLY"> F  </i>
   <i type="int" name="LMAXFOCK">     0</i>
   <i type="int" name="NMAXFOCKAE">     0</i>
   <i type="logical" name="LFOCKAEDFT"> F  </i>
   <i name="HFSCREEN">      0.00000000</i>
   <i name="HFSCREENC">      0.00000000</i>
   <i type="int" name="NBANDSGWLOW">     0</i>
  </separator>
  <separator name="vdW DFT" >
   <i type="logical" name="LUSE_VDW"> F  </i>
   <i name="Zab_VDW">     -0.84910000</i>
   <i name="PARAM1">      0.12340000</i>
   <i name="PARAM2">      1.00000000</i>
   <i name="PARAM3">      0.00000000</i>
  </separator>
  <separator name="model GW" >
   <i type="int" name="MODEL_GW">     0</i>
   <i name="MODEL_EPS0">     12.85377910</i>
   <i name="MODEL_ALPHA">      1.00000000</i>
  </separator>
  <separator name="linear response parameters" >
   <i type="logical" name="LEPSILON"> F  </i>
   <i type="logical" name="LRPA"> F  </i>
   <i type="logical" name="LNABLA"> F  </i>
   <i type="logical" name="LVEL"> F  </i>
   <i type="int" name="KINTER">     0</i>
   <i name="CSHIFT">      0.10000000</i>
   <i name="OMEGAMAX">     -1.00000000</i>
   <i name="DEG_THRESHOLD">      0.00200000</i>
   <i name="RTIME">     -0.10000000</i>
   <i name="WPLASMAI">      0.00000000</i>
   <v name="DFIELD">      0.00000000      0.00000000      0.00000000</v>
   <v name="WPLASMA">      0.00000000      0.00000000      0.00000000      0.00000000      0.00000000      0.00000000      0.00000000      0.00000000      0.00000000</v>
  </separator>
  <separator name="orbital magnetization" >
   <i type="logical" name="NUCIND"> F  </i>
   <v name="MAGPOS">      0.00000000      0.00000000      0.00000000</v>
   <i type="logical" name="LNICSALL"> T  </i>
   <i type="logical" name="ORBITALMAG"> F  </i>
   <i type="logical" name="LMAGBLOCH"> F  </i>
   <i type="logical" name="LCHIMAG"> F  </i>
   <i type="logical" name="LGAUGE"> T  </i>
   <i type="int" name="MAGATOM">     0</i>
   <v name="MAGDIPOL">      0.00000000      0.00000000      0.00000000</v>
   <v name="AVECCONST">      0.00000000      0.00000000      0.00000000</v>
  </separator>
  <separator name="response functions" >
   <i type="logical" name="LFINITE_TEMPERATURE"> F  </i>
   <i type="logical" name="LADDER"> F  </i>
   <i type="logical" name="LRPAFORCE"> F  </i>
   <i type="logical" name="LFXC"> F  </i>
   <i type="logical" name="LHARTREE"> T  </i>
   <i type="int" name="IBSE">     0</i>
   <v type="int" name="KPOINT">    -1     0     0     0</v>
   <i type="logical" name="LTCTC"> F  </i>
   <i type="logical" name="LTCTE"> F  </i>
   <i type="logical" name="LTETE"> F  </i>
   <i type="logical" name="LTRIPLET"> F  </i>
   <i type="logical" name="LFXCEPS"> F  </i>
   <i type="logical" name="LFXHEG"> F  </i>
   <i type="int" name="NATURALO">     2</i>
   <i type="logical" name="L2ORDER"> F  </i>
   <i type="logical" name="LDMP1"> F  </i>
   <i type="logical" name="LMP2LT"> F  </i>
   <i type="logical" name="LSMP2LT"> F  </i>
   <i type="logical" name="LUSEW"> F  </i>
   <i name="ENCUTGW">     -2.00000000</i>
   <i name="ENCUTGWSOFT">     -2.00000000</i>
   <i name="ENCUTLF">     -1.00000000</i>
   <i type="int" name="LMAXMP2">    -1</i>
   <i name="SCISSOR">      0.00000000</i>
   <i type="int" name="NOMEGA">     0</i>
   <i type="int" name="NOMEGAR">     0</i>
   <i type="int" name="NBANDSGW">    -1</i>
   <i type="int" name="NBANDSO">    -1</i>
   <i type="int" name="NBANDSV">    -1</i>
   <i type="int" name="NELM">     1</i>
   <i type="int" name="NELMHF">     1</i>
   <i type="int" name="DIM">     3</i>
   <i type="int" name="IESPILON">     4</i>
   <i type="int" name="ANTIRES">     0</i>
   <i name="OMEGAMAX">    -30.00000000</i>
   <i name="OMEGAMIN">    -30.00000000</i>
   <i name="OMEGATL">   -200.00000000</i>
   <i type="int" name="OMEGAGRID">   145</i>
   <i name="CSHIFT">     -0.10000000</i>
   <i type="logical" name="LSELFENERGY"> F  </i>
   <i type="logical" name="LSPECTRAL"> F  </i>
   <i type="logical" name="LSPECTRALGW"> F  </i>
   <i type="logical" name="LSINGLES"> F  </i>
   <i type="logical" name="LFERMIGW"> F  </i>
   <i type="logical" name="ODDONLYGW"> F  </i>
   <i type="logical" name="EVENONLYGW"> F  </i>
   <i type="int" name="NKREDLFX">     1</i>
   <i type="int" name="NKREDLFY">     1</i>
   <i type="int" name="NKREDLFZ">     1</i>
   <i type="int" name="MAXMEM">  2800</i>
   <i type="int" name="TELESCOPE">     0</i>
   <i type="int" name="NTAUPAR">     1</i>
   <i type="int" name="NOMEGAPAR">    -1</i>
   <i name="LAMBDA">      1.00000000</i>
  </separator>
  <separator name="External order field" >
   <i name="OFIELD_KAPPA">      0.00000000</i>
   <v name="OFIELD_K">      0.00000000      0.00000000      0.00000000</v>
   <i name="OFIELD_Q6_NEAR">      0.00000000</i>
   <i name="OFIELD_Q6_FAR">      0.00000000</i>
   <i name="OFIELD_A">      0.00000000</i>
  </separator>
 </parameters>
 <atominfo>
  <atoms>       3 </atoms>
  <types>       3 </types>
  <array name="atoms" >
   <dimension dim="1">ion</dimension>
   <field type="string">element</field>
   <field type="int">atomtype</field>
   <set>
    <rc><c>U </c><c>   1</c></rc>
    <rc><c>Bi</c><c>   2</c></rc>
    <rc><c>Pt</c><c>   3</c></rc>
   </set>
  </array>
  <array name="atomtypes" >
   <dimension dim="1">type</dimension>
   <field type="int">atomspertype</field>
   <field type="string">element</field>
   <field>mass</field>
   <field>valence</field>
   <field type="string">pseudopotential</field>
   <set>
    <rc><c>   1</c><c>U </c><c>    238.02900000</c><c>     14.00000000</c><c>  PAW_PBE U 06Sep2000                   </c></rc>
    <rc><c>   1</c><c>Bi</c><c>    208.98000000</c><c>     15.00000000</c><c>  PAW_PBE Bi_d 06Sep2000                </c></rc>
    <rc><c>   1</c><c>Pt</c><c>    195.08000000</c><c>     10.00000000</c><c>  PAW_PBE Pt 04Feb2005                  </c></rc>
   </set>
  </array>
 </atominfo>
 <structure name="initialpos" >
  <crystal>
   <varray name="basis" >
    <v>       0.00000000       3.17924219       3.17924219 </v>
    <v>       3.17924219       0.00000000       3.17924219 </v>
    <v>       3.17924219       3.17924219       0.00000000 </v>
   </varray>
   <i name="volume">     64.26889548 </i>
   <varray name="rec_basis" >
    <v>      -0.15727018       0.15727018       0.15727018 </v>
    <v>       0.15727018      -0.15727018       0.15727018 </v>
    <v>       0.15727018       0.15727018      -0.15727018 </v>
   </varray>
  </crystal>
  <varray name="positions" >
   <v>       0.25000000       0.25000000       0.25000000 </v>
   <v>       0.75000000       0.75000000       0.75000000 </v>
   <v>       0.00000000       0.00000000       0.00000000 </v>
  </varray>
 </structure>
 <calculation>
  <scstep>
   <time name="dav">    1.42    1.42</time>
   <time name="total">    1.56    1.66</time>
   <energy>
    <i name="alphaZ">    244.67177403 </i>
    <i name="ewald">  -3749.73311731 </i>
    <i name="hartreedc">   -720.13906596 </i>
    <i name="XCdc">     92.00940774 </i>
    <i name="pawpsdc">   3513.29252893 </i>
    <i name="pawaedc">  -3436.88002192 </i>
    <i name="eentropy">     -0.00013059 </i>
    <i name="bandstr">    397.64855159 </i>
    <i name="atom">   4095.35208632 </i>
    <i name="e_fr_energy">    436.22201283 </i>
    <i name="e_wo_entrp">    436.22214342 </i>
    <i name="e_0_energy">    436.22207812 </i>
   </energy>
  </scstep>
  <scstep>
   <time name="dav">    1.45    1.50</time>
   <time name="total">    1.46    1.50</time>
   <energy>
    <i name="e_fr_energy">     32.39011345 </i>
    <i name="e_wo_entrp">     32.39040050 </i>
    <i name="e_0_energy">     32.39025697 </i>
   </energy>
  </scstep>
  <scstep>
   <time name="dav">    1.66    1.67</time>
   <time name="total">    1.66    1.67</time>
   <energy>
    <i name="e_fr_energy">    -19.84993011 </i>
    <i name="e_wo_entrp">    -19.84929044 </i>
    <i name="e_0_energy">    -19.84961027 </i>
   </energy>
  </scstep>
  <scstep>
   <time name="dav">    2.34    2.36</time>
   <time name="total">    2.34    2.37</time>
   <energy>
    <i name="e_fr_energy">    -25.59157016 </i>
    <i name="e_wo_entrp">    -25.59085376 </i>
    <i name="e_0_energy">    -25.59121196 </i>
   </energy>
  </scstep>
  <scstep>
   <time name="dav">    1.78    1.79</time>
   <time name="total">    2.13    2.15</time>
   <energy>
    <i name="e_fr_energy">    -25.76052920 </i>
    <i name="e_wo_entrp">    -25.75971645 </i>
    <i name="e_0_energy">    -25.76012282 </i>
   </energy>
  </scstep>
  <scstep>
   <time name="dav">    1.91    1.91</time>
   <time name="total">    2.38    2.41</time>
   <energy>
    <i name="e_fr_energy">    -30.70870881 </i>
    <i name="e_wo_entrp">    -30.70846088 </i>
    <i name="e_0_energy">    -30.70858485 </i>
   </energy>
  </scstep>
  <scstep>
   <time name="dav">    1.84    1.84</time>
   <time name="total">    2.30    2.32</time>
   <energy>
    <i name="e_fr_energy">    -23.79792718 </i>
    <i name="e_wo_entrp">    -23.79729977 </i>
    <i name="e_0_energy">    -23.79761348 </i>
   </energy>
  </scstep>
  <scstep>
   <time name="dav">    1.88    1.88</time>
   <time name="total">    2.32    2.34</time>
   <energy>
    <i name="e_fr_energy">    -23.82458619 </i>
    <i name="e_wo_entrp">    -23.82337767 </i>
    <i name="e_0_energy">    -23.82398193 </i>
   </energy>
  </scstep>
  <scstep>
   <time name="dav">    1.91    1.91</time>
   <time name="total">    2.39    2.43</time>
   <energy>
    <i name="e_fr_energy">    -23.24642563 </i>
    <i name="e_wo_entrp">    -23.24487809 </i>
    <i name="e_0_energy">    -23.24565186 </i>
   </energy>
  </scstep>
  <scstep>
   <time name="dav">    1.91    1.91</time>
   <time name="total">    2.33    2.37</time>
   <energy>
    <i name="e_fr_energy">    -23.25503291 </i>
    <i name="e_wo_entrp">    -23.25346177 </i>
    <i name="e_0_energy">    -23.25424734 </i>
   </energy>
  </scstep>
  <scstep>
   <time name="dav">    1.99    1.99</time>
   <time name="total">    2.44    2.49</time>
   <energy>
    <i name="e_fr_energy">    -23.24988417 </i>
    <i name="e_wo_entrp">    -23.24837832 </i>
    <i name="e_0_energy">    -23.24913124 </i>
   </energy>
  </scstep>
  <scstep>
   <time name="dav">    2.02    2.03</time>
   <time name="total">    2.49    2.57</time>
   <energy>
    <i name="e_fr_energy">    -23.24942951 </i>
    <i name="e_wo_entrp">    -23.24788999 </i>
    <i name="e_0_energy">    -23.24865975 </i>
   </energy>
  </scstep>
  <scstep>
   <time name="dav">    2.02    2.02</time>
   <time name="total">    2.51    2.59</time>
   <energy>
    <i name="e_fr_energy">    -23.24944081 </i>
    <i name="e_wo_entrp">    -23.24788934 </i>
    <i name="e_0_energy">    -23.24866507 </i>
   </energy>
  </scstep>
  <scstep>
   <time name="dav">    1.83    1.83</time>
   <time name="total">    2.24    2.32</time>
   <energy>
    <i name="e_fr_energy">    -23.24939330 </i>
    <i name="e_wo_entrp">    -23.24784764 </i>
    <i name="e_0_energy">    -23.24862047 </i>
   </energy>
  </scstep>
  <scstep>
   <time name="dav">    1.89    1.89</time>
   <time name="total">    2.31    2.35</time>
   <energy>
    <i name="e_fr_energy">    -23.24939201 </i>
    <i name="e_wo_entrp">    -23.24784416 </i>
    <i name="e_0_energy">    -23.24861809 </i>
   </energy>
  </scstep>
  <scstep>
   <time name="dav">    1.91    1.91</time>
   <time name="total">    2.32    2.36</time>
   <energy>
    <i name="e_fr_energy">    -23.24939122 </i>
    <i name="e_wo_entrp">    -23.24784361 </i>
    <i name="e_0_energy">    -23.24861742 </i>
   </energy>
  </scstep>
  <scstep>
   <time name="dav">    1.55    1.55</time>
   <time name="total">    1.98    2.01</time>
   <energy>
    <i name="e_fr_energy">    -23.24939112 </i>
    <i name="e_wo_entrp">    -23.24784350 </i>
    <i name="e_0_energy">    -23.24861731 </i>
   </energy>
  </scstep>
  <scstep>
   <time name="dav">    1.38    1.38</time>
   <time name="total">    1.51    1.54</time>
   <energy>
    <i name="alphaZ">    244.67177403 </i>
    <i name="ewald">  -3749.73311731 </i>
    <i name="hartreedc">   -702.71001783 </i>
    <i name="XCdc">     91.49245242 </i>
    <i name="pawpsdc">   4584.14460444 </i>
    <i name="pawaedc">  -4519.37702324 </i>
    <i name="eentropy">     -0.00154756 </i>
    <i name="bandstr">    -67.08860237 </i>
    <i name="atom">   4095.35208632 </i>
    <i name="e_fr_energy">    -23.24939110 </i>
    <i name="e_wo_entrp">    -23.24784354 </i>
    <i name="e_0_energy">    -23.24861732 </i>
   </energy>
  </scstep>
  <structure>
   <crystal>
    <varray name="basis" >
     <v>       0.00000000       3.17924219       3.17924219 </v>
     <v>       3.17924219       0.00000000       3.17924219 </v>
     <v>       3.17924219       3.17924219       0.00000000 </v>
    </varray>
    <i name="volume">     64.26889548 </i>
    <varray name="rec_basis" >
     <v>      -0.15727018       0.15727018       0.15727018 </v>
     <v>       0.15727018      -0.15727018       0.15727018 </v>
     <v>       0.15727018       0.15727018      -0.15727018 </v>
    </varray>
   </crystal>
   <varray name="positions" >
    <v>       0.25000000       0.25000000       0.25000000 </v>
    <v>       0.75000000       0.75000000       0.75000000 </v>
    <v>       0.00000000       0.00000000       0.00000000 </v>
   </varray>
  </structure>
  <varray name="forces" >
   <v>       0.00000000       0.00000000       0.00000000 </v>
   <v>       0.00000000       0.00000000       0.00000000 </v>
   <v>      -0.00000000      -0.00000000      -0.00000000 </v>
  </varray>
  <varray name="stress" >
   <v>     215.12308824       0.00000000      -0.00000000 </v>
   <v>       0.00000000     215.12308824       0.00000000 </v>
   <v>      -0.00000000      -0.00000000     215.12308824 </v>
  </varray>
  <energy>
   <i name="e_fr_energy">    -23.24939110 </i>
   <i name="e_wo_entrp">    -23.24861732 </i>
   <i name="e_0_energy">     -0.00154756 </i>
  </energy>
  <time name="totalsc">   42.34   44.00</time>
  <eigenvalues>
   <array>
    <dimension dim="1">band</dimension>
    <dimension dim="2">kpoint</dimension>
    <dimension dim="3">spin</dimension>
    <field>eigene</field>
    <field>occ</field>
    <set>
     <set comment="spin 1">
      <set comment="kpoint 1">
       <r>  -32.0566    1.0000 </r>
       <r>  -11.2183    1.0000 </r>
       <r>  -11.2183    1.0000 </r>
       <r>  -11.1800    1.0000 </r>
       <r>  -11.1800    1.0000 </r>
       <r>  -11.1800    1.0000 </r>
       <r>   -7.5039    1.0000 </r>
       <r>   -7.5039    1.0000 </r>
       <r>   -7.5039    1.0000 </r>
       <r>   -1.3705    1.0000 </r>
       <r>    6.7592    1.0000 </r>
       <r>    6.7592    1.0000 </r>
       <r>    6.7592    1.0000 </r>
       <r>    6.8575    1.0000 </r>
       <r>    6.8575    1.0000 </r>
       <r>   10.5511    1.0000 </r>
       <r>   10.5511    1.0000 </r>
       <r>   10.5511    1.0000 </r>
       <r>   10.6880    1.0000 </r>
       <r>   11.7925    1.0000 </r>
       <r>   11.7925    1.0000 </r>
       <r>   11.7925    1.0000 </r>
       <r>   12.2837    0.0000 </r>
       <r>   12.2837    0.0000 </r>
      </set>
      <set comment="kpoint 2">
       <r>  -32.0560    1.0000 </r>
       <r>  -11.2215    1.0000 </r>
       <r>  -11.2215    1.0000 </r>
       <r>  -11.1806    1.0000 </r>
       <r>  -11.1797    1.0000 </r>
       <r>  -11.1797    1.0000 </r>
       <r>   -7.5315    1.0000 </r>
       <r>   -7.4965    1.0000 </r>
       <r>   -7.4965    1.0000 </r>
       <r>   -1.2729    1.0000 </r>
       <r>    6.5360    1.0000 </r>
       <r>    6.5360    1.0000 </r>
       <r>    6.6296    1.0000 </r>
       <r>    7.0679    1.0000 </r>
       <r>    7.0679    1.0000 </r>
       <r>    9.8956    1.0000 </r>
       <r>   10.4822    1.0000 </r>
       <r>   10.4822    1.0000 </r>
       <r>   11.0400    1.0000 </r>
       <r>   11.8101    1.0000 </r>
       <r>   11.8101    1.0000 </r>
       <r>   11.8912    1.0000 </r>
       <r>   12.3405    0.0000 </r>
       <r>   12.3535    0.0000 </r>
      </set>
      <set comment="kpoint 3">
       <r>  -32.0543    1.0000 </r>
       <r>  -11.2304    1.0000 </r>
       <r>  -11.2304    1.0000 </r>
       <r>  -11.1826    1.0000 </r>
       <r>  -11.1787    1.0000 </r>
       <r>  -11.1787    1.0000 </r>
       <r>   -7.6034    1.0000 </r>
       <r>   -7.4759    1.0000 </r>
       <r>   -7.4759    1.0000 </r>
       <r>   -1.0032    1.0000 </r>
       <r>    6.2916    1.0000 </r>
       <r>    6.3047    1.0000 </r>
       <r>    6.3047    1.0000 </r>
       <r>    7.2461    1.0000 </r>
       <r>    7.2461    1.0000 </r>
       <r>    9.1400    1.0000 </r>
       <r>   10.3432    1.0000 </r>
       <r>   10.3432    1.0000 </r>
       <r>   11.0518    1.0000 </r>
       <r>   11.8467    1.0000 </r>
       <r>   11.8467    1.0000 </r>
       <r>   12.1811    0.0000 </r>
       <r>   12.5040    0.0000 </r>
       <r>   12.5101    0.0000 </r>
      </set>
      <set comment="kpoint 4">
       <r>  -32.0520    1.0000 </r>
       <r>  -11.2429    1.0000 </r>
       <r>  -11.2429    1.0000 </r>
       <r>  -11.1859    1.0000 </r>
       <r>  -11.1772    1.0000 </r>
       <r>  -11.1772    1.0000 </r>
       <r>   -7.6946    1.0000 </r>
       <r>   -7.4471    1.0000 </r>
       <r>   -7.4471    1.0000 </r>
       <r>   -0.6239    1.0000 </r>
       <r>    5.8600    1.0000 </r>
       <r>    6.1367    1.0000 </r>
       <r>    6.1367    1.0000 </r>
       <r>    7.2951    1.0000 </r>
       <r>    7.2951    1.0000 </r>
       <r>    8.4754    1.0000 </r>
       <r>   10.2428    1.0000 </r>
       <r>   10.2428    1.0000 </r>
       <r>   11.0199    1.0000 </r>
       <r>   11.8921    1.0000 </r>
       <r>   11.8921    1.0000 </r>
       <r>   12.2970    0.0000 </r>
       <r>   12.3663    0.0000 </r>
       <r>   12.6266    0.0000 </r>
      </set>
      <set comment="kpoint 5">
       <r>  -32.0495    1.0000 </r>
       <r>  -11.2559    1.0000 </r>
       <r>  -11.2559    1.0000 </r>
       <r>  -11.1902    1.0000 </r>
       <r>  -11.1757    1.0000 </r>
       <r>  -11.1757    1.0000 </r>
       <r>   -7.7799    1.0000 </r>
       <r>   -7.4169    1.0000 </r>
       <r>   -7.4169    1.0000 </r>
       <r>   -0.2217    1.0000 </r>
       <r>    5.4523    1.0000 </r>
       <r>    6.0460    1.0000 </r>
       <r>    6.0460    1.0000 </r>
       <r>    7.2094    1.0000 </r>
       <r>    7.2094    1.0000 </r>
       <r>    7.9614    1.0000 </r>
       <r>   10.2241    1.0000 </r>
       <r>   10.2241    1.0000 </r>
       <r>   11.0530    1.0000 </r>
       <r>   11.9493    0.7330 </r>
       <r>   11.9493    0.7330 </r>
       <r>   12.3042    0.0000 </r>
       <r>   12.4668    0.0000 </r>
       <r>   12.6158    0.0000 </r>
      </set>
      <set comment="kpoint 6">
       <r>  -32.0475    1.0000 </r>
       <r>  -11.2665    1.0000 </r>
       <r>  -11.2665    1.0000 </r>
       <r>  -11.1944    1.0000 </r>
       <r>  -11.1744    1.0000 </r>
       <r>  -11.1744    1.0000 </r>
       <r>   -7.8427    1.0000 </r>
       <r>   -7.3920    1.0000 </r>
       <r>   -7.3920    1.0000 </r>
       <r>    0.1107    1.0000 </r>
       <r>    5.1536    1.0000 </r>
       <r>    6.0255    1.0000 </r>
       <r>    6.0255    1.0000 </r>
       <r>    7.0545    1.0000 </r>
       <r>    7.0545    1.0000 </r>
       <r>    7.6155    1.0000 </r>
       <r>   10.2561    1.0000 </r>
       <r>   10.2561    1.0000 </r>
       <r>   11.1405    1.0000 </r>
       <r>   12.0183    0.0000 </r>
       <r>   12.0183    0.0000 </r>
       <r>   12.3101    0.0000 </r>
       <r>   12.5241    0.0000 </r>
       <r>   12.5362    0.0000 </r>
      </set>
      <set comment="kpoint 7">
       <r>  -32.0463    1.0000 </r>
       <r>  -11.2724    1.0000 </r>
       <r>  -11.2724    1.0000 </r>
       <r>  -11.1971    1.0000 </r>
       <r>  -11.1736    1.0000 </r>
       <r>  -11.1736    1.0000 </r>
       <r>   -7.8753    1.0000 </r>
       <r>   -7.3781    1.0000 </r>
       <r>   -7.3781    1.0000 </r>
       <r>    0.2971    1.0000 </r>
       <r>    5.0021    1.0000 </r>
       <r>    6.0404    1.0000 </r>
       <r>    6.0404    1.0000 </r>
       <r>    6.9325    1.0000 </r>
       <r>    6.9325    1.0000 </r>
       <r>    7.4416    1.0000 </r>
       <r>   10.2873    1.0000 </r>
       <r>   10.2873    1.0000 </r>
       <r>   11.2230    1.0000 </r>
       <r>   12.0799    0.0000 </r>
       <r>   12.0799    0.0000 </r>
       <r>   12.3135    0.0000 </r>
       <r>   12.4377    0.0000 </r>
       <r>   12.4377    0.0000 </r>
      </set>
      <set comment="kpoint 8">
       <r>  -32.0558    1.0000 </r>
       <r>  -11.2271    1.0000 </r>
       <r>  -11.2175    1.0000 </r>
       <r>  -11.1809    1.0000 </r>
       <r>  -11.1795    1.0000 </r>
       <r>  -11.1795    1.0000 </r>
       <r>   -7.5183    1.0000 </r>
       <r>   -7.5055    1.0000 </r>
       <r>   -7.5055    1.0000 </r>
       <r>   -1.2424    1.0000 </r>
       <r>    6.2422    1.0000 </r>
       <r>    6.7706    1.0000 </r>
       <r>    6.7706    1.0000 </r>
       <r>    6.8715    1.0000 </r>
       <r>    7.1349    1.0000 </r>
       <r>    9.8988    1.0000 </r>
       <r>   10.3679    1.0000 </r>
       <r>   10.3679    1.0000 </r>
       <r>   11.1623    1.0000 </r>
       <r>   11.8023    1.0000 </r>
       <r>   11.8582    1.0000 </r>
       <r>   11.8582    1.0000 </r>
       <r>   12.2975    0.0000 </r>
       <r>   12.3710    0.0000 </r>
      </set>
      <set comment="kpoint 9">
       <r>  -32.0545    1.0000 </r>
       <r>  -11.2369    1.0000 </r>
       <r>  -11.2201    1.0000 </r>
       <r>  -11.1824    1.0000 </r>
       <r>  -11.1788    1.0000 </r>
       <r>  -11.1787    1.0000 </r>
       <r>   -7.5732    1.0000 </r>
       <r>   -7.4996    1.0000 </r>
       <r>   -7.4829    1.0000 </r>
       <r>   -1.0368    1.0000 </r>
       <r>    5.9259    1.0000 </r>
       <r>    6.5897    1.0000 </r>
       <r>    6.6173    1.0000 </r>
       <r>    7.0483    1.0000 </r>
       <r>    7.2758    1.0000 </r>
       <r>    9.3720    1.0000 </r>
       <r>   10.2172    1.0000 </r>
       <r>   10.2288    1.0000 </r>
       <r>   11.2029    1.0000 </r>
       <r>   11.8164    1.0000 </r>
       <r>   11.8923    1.0000 </r>
       <r>   12.0851    0.0000 </r>
       <r>   12.3052    0.0000 </r>
       <r>   12.4871    0.0000 </r>
      </set>
      <set comment="kpoint 10">
       <r>  -32.0524    1.0000 </r>
       <r>  -11.2486    1.0000 </r>
       <r>  -11.2288    1.0000 </r>
       <r>  -11.1850    1.0000 </r>
       <r>  -11.1778    1.0000 </r>
       <r>  -11.1771    1.0000 </r>
       <r>   -7.6588    1.0000 </r>
       <r>   -7.4801    1.0000 </r>
       <r>   -7.4515    1.0000 </r>
       <r>   -0.7066    1.0000 </r>
       <r>    5.6412    1.0000 </r>
       <r>    6.3180    1.0000 </r>
       <r>    6.4126    1.0000 </r>
       <r>    7.1420    1.0000 </r>
       <r>    7.3826    1.0000 </r>
       <r>    8.7436    1.0000 </r>
       <r>   10.0934    1.0000 </r>
       <r>   10.1287    1.0000 </r>
       <r>   11.1720    1.0000 </r>
       <r>   11.8592    1.0000 </r>
       <r>   11.9173    1.0000 </r>
       <r>   12.3016    0.0000 </r>
       <r>   12.3097    0.0000 </r>
       <r>   12.5968    0.0000 </r>
      </set>
      <set comment="kpoint 11">
       <r>  -32.0500    1.0000 </r>
       <r>  -11.2596    1.0000 </r>
       <r>  -11.2412    1.0000 </r>
       <r>  -11.1886    1.0000 </r>
       <r>  -11.1767    1.0000 </r>
       <r>  -11.1755    1.0000 </r>
       <r>   -7.7458    1.0000 </r>
       <r>   -7.4518    1.0000 </r>
       <r>   -7.4221    1.0000 </r>
       <r>   -0.3311    1.0000 </r>
       <r>    5.3941    1.0000 </r>
       <r>    6.0658    1.0000 </r>
       <r>    6.2906    1.0000 </r>
       <r>    7.0978    1.0000 </r>
       <r>    7.3711    1.0000 </r>
       <r>    8.1901    1.0000 </r>
       <r>   10.0340    1.0000 </r>
       <r>   10.1338    1.0000 </r>
       <r>   11.1583    1.0000 </r>
       <r>   11.9287    0.9998 </r>
       <r>   11.9517    0.6098 </r>
       <r>   12.3138    0.0000 </r>
       <r>   12.4095    0.0000 </r>
       <r>   12.6109    0.0000 </r>
      </set>
      <set comment="kpoint 12">
       <r>  -32.0478    1.0000 </r>
       <r>  -11.2673    1.0000 </r>
       <r>  -11.2544    1.0000 </r>
       <r>  -11.1926    1.0000 </r>
       <r>  -11.1755    1.0000 </r>
       <r>  -11.1741    1.0000 </r>
       <r>   -7.8153    1.0000 </r>
       <r>   -7.4212    1.0000 </r>
       <r>   -7.4013    1.0000 </r>
       <r>    0.0009    1.0000 </r>
       <r>    5.2004    1.0000 </r>
       <r>    5.9494    1.0000 </r>
       <r>    6.2096    1.0000 </r>
       <r>    6.9853    1.0000 </r>
       <r>    7.2527    1.0000 </r>
       <r>    7.7738    1.0000 </r>
       <r>   10.0501    1.0000 </r>
       <r>   10.1890    1.0000 </r>
       <r>   11.1969    1.0000 </r>
       <r>   12.0044    0.0000 </r>
       <r>   12.0053    0.0000 </r>
       <r>   12.3153    0.0000 </r>
       <r>   12.4523    0.0000 </r>
       <r>   12.5707    0.0000 </r>
      </set>
      <set comment="kpoint 13">
       <r>  -32.0464    1.0000 </r>
       <r>  -11.2703    1.0000 </r>
       <r>  -11.2654    1.0000 </r>
       <r>  -11.1956    1.0000 </r>
       <r>  -11.1746    1.0000 </r>
       <r>  -11.1733    1.0000 </r>
       <r>   -7.8569    1.0000 </r>
       <r>   -7.3951    1.0000 </r>
       <r>   -7.3935    1.0000 </r>
       <r>    0.2160    1.0000 </r>
       <r>    5.0880    1.0000 </r>
       <r>    5.9637    1.0000 </r>
       <r>    6.1236    1.0000 </r>
       <r>    6.9245    1.0000 </r>
       <r>    7.0912    1.0000 </r>
       <r>    7.5250    1.0000 </r>
       <r>   10.0911    1.0000 </r>
       <r>   10.2345    1.0000 </r>
       <r>   11.2653    1.0000 </r>
       <r>   12.0692    0.0000 </r>
       <r>   12.0704    0.0000 </r>
       <r>   12.3093    0.0000 </r>
       <r>   12.4271    0.0000 </r>
       <r>   12.5072    0.0000 </r>
      </set>
      <set comment="kpoint 14">
       <r>  -32.0460    1.0000 </r>
       <r>  -11.2719    1.0000 </r>
       <r>  -11.2678    1.0000 </r>
       <r>  -11.1964    1.0000 </r>
       <r>  -11.1741    1.0000 </r>
       <r>  -11.1733    1.0000 </r>
       <r>   -7.8671    1.0000 </r>
       <r>   -7.4001    1.0000 </r>
       <r>   -7.3794    1.0000 </r>
       <r>    0.2743    1.0000 </r>
       <r>    5.0604    1.0000 </r>
       <r>    6.0072    1.0000 </r>
       <r>    6.0584    1.0000 </r>
       <r>    6.9650    1.0000 </r>
       <r>    6.9892    1.0000 </r>
       <r>    7.4635    1.0000 </r>
       <r>   10.1031    1.0000 </r>
       <r>   10.2424    1.0000 </r>
       <r>   11.2950    1.0000 </r>
       <r>   12.0776    0.0000 </r>
       <r>   12.1120    0.0000 </r>
       <r>   12.2968    0.0000 </r>
       <r>   12.4349    0.0000 </r>
       <r>   12.4484    0.0000 </r>
      </set>
      <set comment="kpoint 15">
       <r>  -32.0468    1.0000 </r>
       <r>  -11.2724    1.0000 </r>
       <r>  -11.2604    1.0000 </r>
       <r>  -11.1946    1.0000 </r>
       <r>  -11.1744    1.0000 </r>
       <r>  -11.1741    1.0000 </r>
       <r>   -7.8456    1.0000 </r>
       <r>   -7.4195    1.0000 </r>
       <r>   -7.3775    1.0000 </r>
       <r>    0.1660    1.0000 </r>
       <r>    5.1208    1.0000 </r>
       <r>    5.9025    1.0000 </r>
       <r>    6.1736    1.0000 </r>
       <r>    6.9399    1.0000 </r>
       <r>    7.1480    1.0000 </r>
       <r>    7.5923    1.0000 </r>
       <r>   10.0567    1.0000 </r>
       <r>   10.2223    1.0000 </r>
       <r>   11.2522    1.0000 </r>
       <r>   12.0295    0.0000 </r>
       <r>   12.0725    0.0000 </r>
       <r>   12.3042    0.0000 </r>
       <r>   12.4728    0.0000 </r>
       <r>   12.4936    0.0000 </r>
      </set>
      <set comment="kpoint 16">
       <r>  -32.0485    1.0000 </r>
       <r>  -11.2670    1.0000 </r>
       <r>  -11.2497    1.0000 </r>
       <r>  -11.1910    1.0000 </r>
       <r>  -11.1753    1.0000 </r>
       <r>  -11.1752    1.0000 </r>
       <r>   -7.7940    1.0000 </r>
       <r>   -7.4471    1.0000 </r>
       <r>   -7.3901    1.0000 </r>
       <r>   -0.0926    1.0000 </r>
       <r>    5.2925    1.0000 </r>
       <r>    5.8600    1.0000 </r>
       <r>    6.2858    1.0000 </r>
       <r>    7.0149    1.0000 </r>
       <r>    7.3230    1.0000 </r>
       <r>    7.8975    1.0000 </r>
       <r>    9.9630    1.0000 </r>
       <r>   10.2100    1.0000 </r>
       <r>   11.1890    1.0000 </r>
       <r>   11.9740    0.0020 </r>
       <r>   11.9928    0.0000 </r>
       <r>   12.3098    0.0000 </r>
       <r>   12.4697    0.0000 </r>
       <r>   12.5464    0.0000 </r>
      </set>
      <set comment="kpoint 17">
       <r>  -32.0508    1.0000 </r>
       <r>  -11.2567    1.0000 </r>
       <r>  -11.2379    1.0000 </r>
       <r>  -11.1870    1.0000 </r>
       <r>  -11.1768    1.0000 </r>
       <r>  -11.1765    1.0000 </r>
       <r>   -7.7181    1.0000 </r>
       <r>   -7.4764    1.0000 </r>
       <r>   -7.4143    1.0000 </r>
       <r>   -0.4493    1.0000 </r>
       <r>    5.5783    1.0000 </r>
       <r>    5.9055    1.0000 </r>
       <r>    6.4288    1.0000 </r>
       <r>    7.0958    1.0000 </r>
       <r>    7.4323    1.0000 </r>
       <r>    8.3603    1.0000 </r>
       <r>    9.8810    1.0000 </r>
       <r>   10.2503    1.0000 </r>
       <r>   11.1612    1.0000 </r>
       <r>   11.9125    1.0000 </r>
       <r>   11.9322    0.9988 </r>
       <r>   12.3072    0.0000 </r>
       <r>   12.3947    0.0000 </r>
       <r>   12.5973    0.0000 </r>
      </set>
      <set comment="kpoint 18">
       <r>  -32.0532    1.0000 </r>
       <r>  -11.2437    1.0000 </r>
       <r>  -11.2276    1.0000 </r>
       <r>  -11.1837    1.0000 </r>
       <r>  -11.1782    1.0000 </r>
       <r>  -11.1779    1.0000 </r>
       <r>   -7.6322    1.0000 </r>
       <r>   -7.4998    1.0000 </r>
       <r>   -7.4447    1.0000 </r>
       <r>   -0.8216    1.0000 </r>
       <r>    5.9309    1.0000 </r>
       <r>    6.0441    1.0000 </r>
       <r>    6.6264    1.0000 </r>
       <r>    7.0772    1.0000 </r>
       <r>    7.4187    1.0000 </r>
       <r>    8.9414    1.0000 </r>
       <r>    9.9061    1.0000 </r>
       <r>   10.3572    1.0000 </r>
       <r>   11.1772    1.0000 </r>
       <r>   11.8423    1.0000 </r>
       <r>   11.9017    1.0000 </r>
       <r>   12.2652    0.0000 </r>
       <r>   12.3013    0.0000 </r>
       <r>   12.5527    0.0000 </r>
      </set>
      <set comment="kpoint 19">
       <r>  -32.0550    1.0000 </r>
       <r>  -11.2310    1.0000 </r>
       <r>  -11.2217    1.0000 </r>
       <r>  -11.1816    1.0000 </r>
       <r>  -11.1792    1.0000 </r>
       <r>  -11.1791    1.0000 </r>
       <r>   -7.5616    1.0000 </r>
       <r>   -7.5077    1.0000 </r>
       <r>   -7.4745    1.0000 </r>
       <r>   -1.1202    1.0000 </r>
       <r>    6.2641    1.0000 </r>
       <r>    6.2839    1.0000 </r>
       <r>    6.7809    1.0000 </r>
       <r>    6.9812    1.0000 </r>
       <r>    7.2821    1.0000 </r>
       <r>    9.5150    1.0000 </r>
       <r>   10.1415    1.0000 </r>
       <r>   10.4700    1.0000 </r>
       <r>   11.1703    1.0000 </r>
       <r>   11.7986    1.0000 </r>
       <r>   11.8644    1.0000 </r>
       <r>   12.0506    0.0000 </r>
       <r>   12.2935    0.0000 </r>
       <r>   12.4333    0.0000 </r>
      </set>
      <set comment="kpoint 20">
       <r>  -32.0536    1.0000 </r>
       <r>  -11.2452    1.0000 </r>
       <r>  -11.2153    1.0000 </r>
       <r>  -11.1837    1.0000 </r>
       <r>  -11.1780    1.0000 </r>
       <r>  -11.1780    1.0000 </r>
       <r>   -7.5583    1.0000 </r>
       <r>   -7.5103    1.0000 </r>
       <r>   -7.5103    1.0000 </r>
       <r>   -0.9161    1.0000 </r>
       <r>    5.5810    1.0000 </r>
       <r>    6.7829    1.0000 </r>
       <r>    6.7829    1.0000 </r>
       <r>    6.9108    1.0000 </r>
       <r>    7.2053    1.0000 </r>
       <r>    9.3448    1.0000 </r>
       <r>   10.0699    1.0000 </r>
       <r>   10.0699    1.0000 </r>
       <r>   11.1899    1.0000 </r>
       <r>   11.9282    0.9998 </r>
       <r>   11.9282    0.9998 </r>
       <r>   12.0373    0.0000 </r>
       <r>   12.3395    0.0000 </r>
       <r>   12.5519    0.0000 </r>
      </set>
      <set comment="kpoint 21">
       <r>  -32.0519    1.0000 </r>
       <r>  -11.2534    1.0000 </r>
       <r>  -11.2176    1.0000 </r>
       <r>  -11.1858    1.0000 </r>
       <r>  -11.1771    1.0000 </r>
       <r>  -11.1767    1.0000 </r>
       <r>   -7.6213    1.0000 </r>
       <r>   -7.5055    1.0000 </r>
       <r>   -7.4875    1.0000 </r>
       <r>   -0.6777    1.0000 </r>
       <r>    5.3206    1.0000 </r>
       <r>    6.6039    1.0000 </r>
       <r>    6.6624    1.0000 </r>
       <r>    7.0069    1.0000 </r>
       <r>    7.2731    1.0000 </r>
       <r>    9.0071    1.0000 </r>
       <r>    9.9033    1.0000 </r>
       <r>    9.9931    1.0000 </r>
       <r>   11.2275    1.0000 </r>
       <r>   11.8976    1.0000 </r>
       <r>   11.9488    0.7549 </r>
       <r>   12.2110    0.0000 </r>
       <r>   12.3562    0.0000 </r>
       <r>   12.6319    0.0000 </r>
      </set>
      <set comment="kpoint 22">
       <r>  -32.0498    1.0000 </r>
       <r>  -11.2596    1.0000 </r>
       <r>  -11.2262    1.0000 </r>
       <r>  -11.1883    1.0000 </r>
       <r>  -11.1765    1.0000 </r>
       <r>  -11.1749    1.0000 </r>
       <r>   -7.7031    1.0000 </r>
       <r>   -7.4867    1.0000 </r>
       <r>   -7.4589    1.0000 </r>
       <r>   -0.3889    1.0000 </r>
       <r>    5.1803    1.0000 </r>
       <r>    6.3050    1.0000 </r>
       <r>    6.5309    1.0000 </r>
       <r>    7.0137    1.0000 </r>
       <r>    7.3530    1.0000 </r>
       <r>    8.5467    1.0000 </r>
       <r>    9.7508    1.0000 </r>
       <r>   10.0148    1.0000 </r>
       <r>   11.2860    1.0000 </r>
       <r>   11.9192    1.0000 </r>
       <r>   11.9720    0.0049 </r>
       <r>   12.3201    0.0000 </r>
       <r>   12.3580    0.0000 </r>
       <r>   12.6479    0.0000 </r>
      </set>
      <set comment="kpoint 23">
       <r>  -32.0477    1.0000 </r>
       <r>  -11.2624    1.0000 </r>
       <r>  -11.2388    1.0000 </r>
       <r>  -11.1910    1.0000 </r>
       <r>  -11.1761    1.0000 </r>
       <r>  -11.1733    1.0000 </r>
       <r>   -7.7730    1.0000 </r>
       <r>   -7.4581    1.0000 </r>
       <r>   -7.4418    1.0000 </r>
       <r>   -0.1239    1.0000 </r>
       <r>    5.1685    1.0000 </r>
       <r>    6.0717    1.0000 </r>
       <r>    6.4008    1.0000 </r>
       <r>    6.9629    1.0000 </r>
       <r>    7.3430    1.0000 </r>
       <r>    8.0954    1.0000 </r>
       <r>    9.6944    1.0000 </r>
       <r>   10.0847    1.0000 </r>
       <r>   11.3134    1.0000 </r>
       <r>   11.9872    0.0000 </r>
       <r>   12.0115    0.0000 </r>
       <r>   12.3513    0.0000 </r>
       <r>   12.3665    0.0000 </r>
       <r>   12.6166    0.0000 </r>
      </set>
      <set comment="kpoint 24">
       <r>  -32.0461    1.0000 </r>
       <r>  -11.2615    1.0000 </r>
       <r>  -11.2524    1.0000 </r>
       <r>  -11.1932    1.0000 </r>
       <r>  -11.1759    1.0000 </r>
       <r>  -11.1725    1.0000 </r>
       <r>   -7.8183    1.0000 </r>
       <r>   -7.4402    1.0000 </r>
       <r>   -7.4264    1.0000 </r>
       <r>    0.0634    1.0000 </r>
       <r>    5.2397    1.0000 </r>
       <r>    5.9673    1.0000 </r>
       <r>    6.2297    1.0000 </r>
       <r>    6.9697    1.0000 </r>
       <r>    7.2476    1.0000 </r>
       <r>    7.7576    1.0000 </r>
       <r>    9.6978    1.0000 </r>
       <r>   10.1342    1.0000 </r>
       <r>   11.3548    1.0000 </r>
       <r>   12.0451    0.0000 </r>
       <r>   12.0716    0.0000 </r>
       <r>   12.3327    0.0000 </r>
       <r>   12.3900    0.0000 </r>
       <r>   12.5858    0.0000 </r>
      </set>
      <set comment="kpoint 25">
       <r>  -32.0454    1.0000 </r>
       <r>  -11.2640    1.0000 </r>
       <r>  -11.2571    1.0000 </r>
       <r>  -11.1940    1.0000 </r>
       <r>  -11.1759    1.0000 </r>
       <r>  -11.1725    1.0000 </r>
       <r>   -7.8345    1.0000 </r>
       <r>   -7.4536    1.0000 </r>
       <r>   -7.3987    1.0000 </r>
       <r>    0.1514    1.0000 </r>
       <r>    5.2896    1.0000 </r>
       <r>    6.0084    1.0000 </r>
       <r>    6.0321    1.0000 </r>
       <r>    7.0745    1.0000 </r>
       <r>    7.1119    1.0000 </r>
       <r>    7.6178    1.0000 </r>
       <r>    9.6957    1.0000 </r>
       <r>   10.1364    1.0000 </r>
       <r>   11.3976    1.0000 </r>
       <r>   12.0501    0.0000 </r>
       <r>   12.1390    0.0000 </r>
       <r>   12.2940    0.0000 </r>
       <r>   12.4305    0.0000 </r>
       <r>   12.5172    0.0000 </r>
      </set>
      <set comment="kpoint 26">
       <r>  -32.0458    1.0000 </r>
       <r>  -11.2710    1.0000 </r>
       <r>  -11.2505    1.0000 </r>
       <r>  -11.1927    1.0000 </r>
       <r>  -11.1760    1.0000 </r>
       <r>  -11.1732    1.0000 </r>
       <r>   -7.8219    1.0000 </r>
       <r>   -7.4776    1.0000 </r>
       <r>   -7.3811    1.0000 </r>
       <r>    0.1333    1.0000 </r>
       <r>    5.2665    1.0000 </r>
       <r>    5.8625    1.0000 </r>
       <r>    6.1592    1.0000 </r>
       <r>    7.0037    1.0000 </r>
       <r>    7.2418    1.0000 </r>
       <r>    7.7089    1.0000 </r>
       <r>    9.6336    1.0000 </r>
       <r>   10.1110    1.0000 </r>
       <r>   11.3988    1.0000 </r>
       <r>   12.0126    0.0000 </r>
       <r>   12.1518    0.0000 </r>
       <r>   12.2744    0.0000 </r>
       <r>   12.4716    0.0000 </r>
       <r>   12.4871    0.0000 </r>
      </set>
      <set comment="kpoint 27">
       <r>  -32.0471    1.0000 </r>
       <r>  -11.2721    1.0000 </r>
       <r>  -11.2426    1.0000 </r>
       <r>  -11.1901    1.0000 </r>
       <r>  -11.1762    1.0000 </r>
       <r>  -11.1745    1.0000 </r>
       <r>   -7.7838    1.0000 </r>
       <r>   -7.5046    1.0000 </r>
       <r>   -7.3776    1.0000 </r>
       <r>    0.0003    1.0000 </r>
       <r>    5.2511    1.0000 </r>
       <r>    5.7632    1.0000 </r>
       <r>    6.3593    1.0000 </r>
       <r>    6.9595    1.0000 </r>
       <r>    7.4126    1.0000 </r>
       <r>    7.9910    1.0000 </r>
       <r>    9.5025    1.0000 </r>
       <r>   10.1023    1.0000 </r>
       <r>   11.3630    1.0000 </r>
       <r>   11.9750    0.0013 </r>
       <r>   12.0771    0.0000 </r>
       <r>   12.3036    0.0000 </r>
       <r>   12.4573    0.0000 </r>
       <r>   12.5077    0.0000 </r>
      </set>
      <set comment="kpoint 28">
       <r>  -32.0491    1.0000 </r>
       <r>  -11.2671    1.0000 </r>
       <r>  -11.2349    1.0000 </r>
       <r>  -11.1874    1.0000 </r>
       <r>  -11.1766    1.0000 </r>
       <r>  -11.1759    1.0000 </r>
       <r>   -7.7282    1.0000 </r>
       <r>   -7.5245    1.0000 </r>
       <r>   -7.3892    1.0000 </r>
       <r>   -0.2407    1.0000 </r>
       <r>    5.3493    1.0000 </r>
       <r>    5.7577    1.0000 </r>
       <r>    6.5725    1.0000 </r>
       <r>    6.9512    1.0000 </r>
       <r>    7.5211    1.0000 </r>
       <r>    8.3935    1.0000 </r>
       <r>    9.3673    1.0000 </r>
       <r>   10.1529    1.0000 </r>
       <r>   11.3220    1.0000 </r>
       <r>   11.9517    0.6085 </r>
       <r>   11.9856    0.0000 </r>
       <r>   12.3174    0.0000 </r>
       <r>   12.4132    0.0000 </r>
       <r>   12.5535    0.0000 </r>
      </set>
      <set comment="kpoint 29">
       <r>  -32.0513    1.0000 </r>
       <r>  -11.2569    1.0000 </r>
       <r>  -11.2294    1.0000 </r>
       <r>  -11.1853    1.0000 </r>
       <r>  -11.1772    1.0000 </r>
       <r>  -11.1772    1.0000 </r>
       <r>   -7.6716    1.0000 </r>
       <r>   -7.5247    1.0000 </r>
       <r>   -7.4134    1.0000 </r>
       <r>   -0.5414    1.0000 </r>
       <r>    5.5911    1.0000 </r>
       <r>    5.8538    1.0000 </r>
       <r>    6.7551    1.0000 </r>
       <r>    6.9262    1.0000 </r>
       <r>    7.5225    1.0000 </r>
       <r>    8.7646    1.0000 </r>
       <r>    9.4377    1.0000 </r>
       <r>   10.2622    1.0000 </r>
       <r>   11.2773    1.0000 </r>
       <r>   11.8990    1.0000 </r>
       <r>   11.9339    0.9974 </r>
       <r>   12.3143    0.0000 </r>
       <r>   12.3486    0.0000 </r>
       <r>   12.5789    0.0000 </r>
      </set>
      <set comment="kpoint 30">
       <r>  -32.0507    1.0000 </r>
       <r>  -11.2559    1.0000 </r>
       <r>  -11.2123    1.0000 </r>
       <r>  -11.1879    1.0000 </r>
       <r>  -11.1756    1.0000 </r>
       <r>  -11.1756    1.0000 </r>
       <r>   -7.6175    1.0000 </r>
       <r>   -7.5175    1.0000 </r>
       <r>   -7.5175    1.0000 </r>
       <r>   -0.5581    1.0000 </r>
       <r>    5.1161    1.0000 </r>
       <r>    6.7499    1.0000 </r>
       <r>    6.7499    1.0000 </r>
       <r>    6.9675    1.0000 </r>
       <r>    7.0738    1.0000 </r>
       <r>    8.9821    1.0000 </r>
       <r>    9.9266    1.0000 </r>
       <r>    9.9266    1.0000 </r>
       <r>   11.1592    1.0000 </r>
       <r>   11.9703    0.0093 </r>
       <r>   11.9703    0.0093 </r>
       <r>   12.1670    0.0000 </r>
       <r>   12.4103    0.0000 </r>
       <r>   12.7070    0.0000 </r>
      </set>
      <set comment="kpoint 31">
       <r>  -32.0489    1.0000 </r>
       <r>  -11.2555    1.0000 </r>
       <r>  -11.2145    1.0000 </r>
       <r>  -11.1902    1.0000 </r>
       <r>  -11.1746    1.0000 </r>
       <r>  -11.1739    1.0000 </r>
       <r>   -7.6735    1.0000 </r>
       <r>   -7.5134    1.0000 </r>
       <r>   -7.5054    1.0000 </r>
       <r>   -0.3953    1.0000 </r>
       <r>    5.0737    1.0000 </r>
       <r>    6.5287    1.0000 </r>
       <r>    6.6653    1.0000 </r>
       <r>    6.9959    1.0000 </r>
       <r>    7.1268    1.0000 </r>
       <r>    8.7548    1.0000 </r>
       <r>    9.7898    1.0000 </r>
       <r>    9.9595    1.0000 </r>
       <r>   11.2741    1.0000 </r>
       <r>   11.9521    0.5897 </r>
       <r>   11.9904    0.0000 </r>
       <r>   12.2252    0.0000 </r>
       <r>   12.4347    0.0000 </r>
       <r>   12.7241    0.0000 </r>
      </set>
      <set comment="kpoint 32">
       <r>  -32.0471    1.0000 </r>
       <r>  -11.2524    1.0000 </r>
       <r>  -11.2232    1.0000 </r>
       <r>  -11.1919    1.0000 </r>
       <r>  -11.1746    1.0000 </r>
       <r>  -11.1723    1.0000 </r>
       <r>   -7.7349    1.0000 </r>
       <r>   -7.4943    1.0000 </r>
       <r>   -7.4939    1.0000 </r>
       <r>   -0.2387    1.0000 </r>
       <r>    5.1972    1.0000 </r>
       <r>    6.2497    1.0000 </r>
       <r>    6.5252    1.0000 </r>
       <r>    7.0003    1.0000 </r>
       <r>    7.2242    1.0000 </r>
       <r>    8.4227    1.0000 </r>
       <r>    9.5726    1.0000 </r>
       <r>   10.0371    1.0000 </r>
       <r>   11.4014    1.0000 </r>
       <r>   11.9632    0.0882 </r>
       <r>   12.0215    0.0000 </r>
       <r>   12.2789    0.0000 </r>
       <r>   12.4287    0.0000 </r>
       <r>   12.6776    0.0000 </r>
      </set>
      <set comment="kpoint 33">
       <r>  -32.0456    1.0000 </r>
       <r>  -11.2474    1.0000 </r>
       <r>  -11.2362    1.0000 </r>
       <r>  -11.1927    1.0000 </r>
       <r>  -11.1755    1.0000 </r>
       <r>  -11.1713    1.0000 </r>
       <r>   -7.7757    1.0000 </r>
       <r>   -7.4992    1.0000 </r>
       <r>   -7.4648    1.0000 </r>
       <r>   -0.1159    1.0000 </r>
       <r>    5.4281    1.0000 </r>
       <r>    6.0687    1.0000 </r>
       <r>    6.3289    1.0000 </r>
       <r>    7.0451    1.0000 </r>
       <r>    7.2493    1.0000 </r>
       <r>    8.0757    1.0000 </r>
       <r>    9.4155    1.0000 </r>
       <r>   10.0798    1.0000 </r>
       <r>   11.4546    1.0000 </r>
       <r>   12.0058    0.0000 </r>
       <r>   12.0710    0.0000 </r>
       <r>   12.3322    0.0000 </r>
       <r>   12.4001    0.0000 </r>
       <r>   12.6173    0.0000 </r>
      </set>
      <set comment="kpoint 34">
       <r>  -32.0448    1.0000 </r>
       <r>  -11.2504    1.0000 </r>
       <r>  -11.2423    1.0000 </r>
       <r>  -11.1919    1.0000 </r>
       <r>  -11.1770    1.0000 </r>
       <r>  -11.1712    1.0000 </r>
       <r>   -7.7891    1.0000 </r>
       <r>   -7.5210    1.0000 </r>
       <r>   -7.4314    1.0000 </r>
       <r>   -0.0302    1.0000 </r>
       <r>    5.6272    1.0000 </r>
       <r>    6.0044    1.0000 </r>
       <r>    6.1060    1.0000 </r>
       <r>    7.1551    1.0000 </r>
       <r>    7.1833    1.0000 </r>
       <r>    7.8694    1.0000 </r>
       <r>    9.3064    1.0000 </r>
       <r>   10.0598    1.0000 </r>
       <r>   11.4935    1.0000 </r>
       <r>   12.0052    0.0000 </r>
       <r>   12.1343    0.0000 </r>
       <r>   12.3480    0.0000 </r>
       <r>   12.4117    0.0000 </r>
       <r>   12.5666    0.0000 </r>
      </set>
      <set comment="kpoint 35">
       <r>  -32.0448    1.0000 </r>
       <r>  -11.2626    1.0000 </r>
       <r>  -11.2383    1.0000 </r>
       <r>  -11.1895    1.0000 </r>
       <r>  -11.1785    1.0000 </r>
       <r>  -11.1719    1.0000 </r>
       <r>   -7.7779    1.0000 </r>
       <r>   -7.5509    1.0000 </r>
       <r>   -7.4017    1.0000 </r>
       <r>    0.0190    1.0000 </r>
       <r>    5.6143    1.0000 </r>
       <r>    5.9045    1.0000 </r>
       <r>    6.0659    1.0000 </r>
       <r>    7.0830    1.0000 </r>
       <r>    7.3053    1.0000 </r>
       <r>    7.9222    1.0000 </r>
       <r>    9.1961    1.0000 </r>
       <r>   10.0099    1.0000 </r>
       <r>   11.5192    1.0000 </r>
       <r>   11.9646    0.0617 </r>
       <r>   12.1930    0.0000 </r>
       <r>   12.2815    0.0000 </r>
       <r>   12.4635    0.0000 </r>
       <r>   12.5358    0.0000 </r>
      </set>
      <set comment="kpoint 36">
       <r>  -32.0457    1.0000 </r>
       <r>  -11.2703    1.0000 </r>
       <r>  -11.2357    1.0000 </r>
       <r>  -11.1873    1.0000 </r>
       <r>  -11.1789    1.0000 </r>
       <r>  -11.1732    1.0000 </r>
       <r>   -7.7531    1.0000 </r>
       <r>   -7.5732    1.0000 </r>
       <r>   -7.3823    1.0000 </r>
       <r>    0.0149    1.0000 </r>
       <r>    5.4300    1.0000 </r>
       <r>    5.7638    1.0000 </r>
       <r>    6.2301    1.0000 </r>
       <r>    7.0157    1.0000 </r>
       <r>    7.4480    1.0000 </r>
       <r>    8.1760    1.0000 </r>
       <r>    9.0597    1.0000 </r>
       <r>    9.9883    1.0000 </r>
       <r>   11.4997    1.0000 </r>
       <r>   11.9381    0.9860 </r>
       <r>   12.1679    0.0000 </r>
       <r>   12.2772    0.0000 </r>
       <r>   12.4533    0.0000 </r>
       <r>   12.5137    0.0000 </r>
      </set>
      <set comment="kpoint 37">
       <r>  -32.0473    1.0000 </r>
       <r>  -11.2720    1.0000 </r>
       <r>  -11.2344    1.0000 </r>
       <r>  -11.1870    1.0000 </r>
       <r>  -11.1778    1.0000 </r>
       <r>  -11.1746    1.0000 </r>
       <r>   -7.7344    1.0000 </r>
       <r>   -7.5655    1.0000 </r>
       <r>   -7.3777    1.0000 </r>
       <r>   -0.0706    1.0000 </r>
       <r>    5.2992    1.0000 </r>
       <r>    5.7103    1.0000 </r>
       <r>    6.4331    1.0000 </r>
       <r>    6.9693    1.0000 </r>
       <r>    7.5299    1.0000 </r>
       <r>    8.4173    1.0000 </r>
       <r>    9.0244    1.0000 </r>
       <r>   10.0393    1.0000 </r>
       <r>   11.4296    1.0000 </r>
       <r>   11.9447    0.8979 </r>
       <r>   12.0795    0.0000 </r>
       <r>   12.3087    0.0000 </r>
       <r>   12.4331    0.0000 </r>
       <r>   12.5199    0.0000 </r>
      </set>
      <set comment="kpoint 38">
       <r>  -32.0476    1.0000 </r>
       <r>  -11.2482    1.0000 </r>
       <r>  -11.2091    1.0000 </r>
       <r>  -11.1926    1.0000 </r>
       <r>  -11.1726    1.0000 </r>
       <r>  -11.1726    1.0000 </r>
       <r>   -7.6867    1.0000 </r>
       <r>   -7.5259    1.0000 </r>
       <r>   -7.5259    1.0000 </r>
       <r>   -0.3698    1.0000 </r>
       <r>    5.1390    1.0000 </r>
       <r>    6.6554    1.0000 </r>
       <r>    6.6554    1.0000 </r>
       <r>    6.8530    1.0000 </r>
       <r>    7.0297    1.0000 </r>
       <r>    8.6622    1.0000 </r>
       <r>   10.0055    1.0000 </r>
       <r>   10.0055    1.0000 </r>
       <r>   11.2537    1.0000 </r>
       <r>   12.0079    0.0000 </r>
       <r>   12.0079    0.0000 </r>
       <r>   12.1575    0.0000 </r>
       <r>   12.5083    0.0000 </r>
       <r>   12.8225    0.0000 </r>
      </set>
      <set comment="kpoint 39">
       <r>  -32.0462    1.0000 </r>
       <r>  -11.2393    1.0000 </r>
       <r>  -11.2115    1.0000 </r>
       <r>  -11.1943    1.0000 </r>
       <r>  -11.1718    1.0000 </r>
       <r>  -11.1711    1.0000 </r>
       <r>   -7.7274    1.0000 </r>
       <r>   -7.5268    1.0000 </r>
       <r>   -7.5215    1.0000 </r>
       <r>   -0.3305    1.0000 </r>
       <r>    5.3692    1.0000 </r>
       <r>    6.4185    1.0000 </r>
       <r>    6.5640    1.0000 </r>
       <r>    6.9387    1.0000 </r>
       <r>    7.0545    1.0000 </r>
       <r>    8.4326    1.0000 </r>
       <r>    9.9014    1.0000 </r>
       <r>   10.0969    1.0000 </r>
       <r>   11.4228    1.0000 </r>
       <r>   11.9846    0.0000 </r>
       <r>   12.0329    0.0000 </r>
       <r>   12.1876    0.0000 </r>
       <r>   12.5356    0.0000 </r>
       <r>   12.7664    0.0000 </r>
      </set>
      <set comment="kpoint 40">
       <r>  -32.0450    1.0000 </r>
       <r>  -11.2311    1.0000 </r>
       <r>  -11.2206    1.0000 </r>
       <r>  -11.1947    1.0000 </r>
       <r>  -11.1727    1.0000 </r>
       <r>  -11.1700    1.0000 </r>
       <r>   -7.7562    1.0000 </r>
       <r>   -7.5389    1.0000 </r>
       <r>   -7.5013    1.0000 </r>
       <r>   -0.2815    1.0000 </r>
       <r>    5.6849    1.0000 </r>
       <r>    6.2134    1.0000 </r>
       <r>    6.4077    1.0000 </r>
       <r>    7.0736    1.0000 </r>
       <r>    7.1016    1.0000 </r>
       <r>    8.1462    1.0000 </r>
       <r>    9.5936    1.0000 </r>
       <r>   10.1366    1.0000 </r>
       <r>   11.5588    1.0000 </r>
       <r>   11.9734    0.0027 </r>
       <r>   12.0713    0.0000 </r>
       <r>   12.2625    0.0000 </r>
       <r>   12.5119    0.0000 </r>
       <r>   12.6580    0.0000 </r>
      </set>
      <set comment="kpoint 41">
       <r>  -32.0442    1.0000 </r>
       <r>  -11.2342    1.0000 </r>
       <r>  -11.2262    1.0000 </r>
       <r>  -11.1929    1.0000 </r>
       <r>  -11.1752    1.0000 </r>
       <r>  -11.1699    1.0000 </r>
       <r>   -7.7575    1.0000 </r>
       <r>   -7.5703    1.0000 </r>
       <r>   -7.4699    1.0000 </r>
       <r>   -0.2165    1.0000 </r>
       <r>    5.8875    1.0000 </r>
       <r>    6.1905    1.0000 </r>
       <r>    6.2102    1.0000 </r>
       <r>    7.1379    1.0000 </r>
       <r>    7.1937    1.0000 </r>
       <r>    7.9282    1.0000 </r>
       <r>    9.2640    1.0000 </r>
       <r>   10.0880    1.0000 </r>
       <r>   11.5960    1.0000 </r>
       <r>   11.9670    0.0300 </r>
       <r>   12.1205    0.0000 </r>
       <r>   12.3732    0.0000 </r>
       <r>   12.4439    0.0000 </r>
       <r>   12.5662    0.0000 </r>
      </set>
      <set comment="kpoint 42">
       <r>  -32.0441    1.0000 </r>
       <r>  -11.2491    1.0000 </r>
       <r>  -11.2261    1.0000 </r>
       <r>  -11.1887    1.0000 </r>
       <r>  -11.1789    1.0000 </r>
       <r>  -11.1706    1.0000 </r>
       <r>   -7.7340    1.0000 </r>
       <r>   -7.6124    1.0000 </r>
       <r>   -7.4344    1.0000 </r>
       <r>   -0.1321    1.0000 </r>
       <r>    5.9410    1.0000 </r>
       <r>    6.0127    1.0000 </r>
       <r>    6.1402    1.0000 </r>
       <r>    7.1015    1.0000 </r>
       <r>    7.3106    1.0000 </r>
       <r>    7.9825    1.0000 </r>
       <r>    8.9932    1.0000 </r>
       <r>    9.9991    1.0000 </r>
       <r>   11.6121    1.0000 </r>
       <r>   11.9262    0.9999 </r>
       <r>   12.1706    0.0000 </r>
       <r>   12.3581    0.0000 </r>
       <r>   12.4568    0.0000 </r>
       <r>   12.5437    0.0000 </r>
      </set>
      <set comment="kpoint 43">
       <r>  -32.0446    1.0000 </r>
       <r>  -11.2621    1.0000 </r>
       <r>  -11.2298    1.0000 </r>
       <r>  -11.1844    1.0000 </r>
       <r>  -11.1823    1.0000 </r>
       <r>  -11.1718    1.0000 </r>
       <r>   -7.7209    1.0000 </r>
       <r>   -7.6256    1.0000 </r>
       <r>   -7.4028    1.0000 </r>
       <r>   -0.0428    1.0000 </r>
       <r>    5.7707    1.0000 </r>
       <r>    5.8539    1.0000 </r>
       <r>    6.0881    1.0000 </r>
       <r>    7.0616    1.0000 </r>
       <r>    7.4095    1.0000 </r>
       <r>    8.2006    1.0000 </r>
       <r>    8.8520    1.0000 </r>
       <r>    9.9487    1.0000 </r>
       <r>   11.5913    1.0000 </r>
       <r>   11.9035    1.0000 </r>
       <r>   12.2080    0.0000 </r>
       <r>   12.2831    0.0000 </r>
       <r>   12.4583    0.0000 </r>
       <r>   12.5455    0.0000 </r>
      </set>
      <set comment="kpoint 44">
       <r>  -32.0452    1.0000 </r>
       <r>  -11.2262    1.0000 </r>
       <r>  -11.2064    1.0000 </r>
       <r>  -11.1964    1.0000 </r>
       <r>  -11.1698    1.0000 </r>
       <r>  -11.1698    1.0000 </r>
       <r>   -7.7516    1.0000 </r>
       <r>   -7.5334    1.0000 </r>
       <r>   -7.5334    1.0000 </r>
       <r>   -0.3889    1.0000 </r>
       <r>    5.6783    1.0000 </r>
       <r>    6.5422    1.0000 </r>
       <r>    6.5422    1.0000 </r>
       <r>    6.6618    1.0000 </r>
       <r>    7.0829    1.0000 </r>
       <r>    8.2197    1.0000 </r>
       <r>   10.2167    1.0000 </r>
       <r>   10.2167    1.0000 </r>
       <r>   11.4716    1.0000 </r>
       <r>   12.0504    0.0000 </r>
       <r>   12.0504    0.0000 </r>
       <r>   12.1098    0.0000 </r>
       <r>   12.6213    0.0000 </r>
       <r>   12.8250    0.0000 </r>
      </set>
      <set comment="kpoint 45">
       <r>  -32.0443    1.0000 </r>
       <r>  -11.2164    1.0000 </r>
       <r>  -11.2093    1.0000 </r>
       <r>  -11.1973    1.0000 </r>
       <r>  -11.1697    1.0000 </r>
       <r>  -11.1689    1.0000 </r>
       <r>   -7.7723    1.0000 </r>
       <r>   -7.5425    1.0000 </r>
       <r>   -7.5276    1.0000 </r>
       <r>   -0.4034    1.0000 </r>
       <r>    6.0151    1.0000 </r>
       <r>    6.3853    1.0000 </r>
       <r>    6.4598    1.0000 </r>
       <r>    6.7938    1.0000 </r>
       <r>    7.1146    1.0000 </r>
       <r>    7.9224    1.0000 </r>
       <r>   10.0969    1.0000 </r>
       <r>   10.2798    1.0000 </r>
       <r>   11.6370    1.0000 </r>
       <r>   11.9978    0.0000 </r>
       <r>   12.0766    0.0000 </r>
       <r>   12.1850    0.0000 </r>
       <r>   12.6452    0.0000 </r>
       <r>   12.6569    0.0000 </r>
      </set>
      <set comment="kpoint 46">
       <r>  -32.0438    1.0000 </r>
       <r>  -11.2190    1.0000 </r>
       <r>  -11.2128    1.0000 </r>
       <r>  -11.1959    1.0000 </r>
       <r>  -11.1717    1.0000 </r>
       <r>  -11.1687    1.0000 </r>
       <r>   -7.7677    1.0000 </r>
       <r>   -7.5699    1.0000 </r>
       <r>   -7.5054    1.0000 </r>
       <r>   -0.3648    1.0000 </r>
       <r>    6.0265    1.0000 </r>
       <r>    6.3231    1.0000 </r>
       <r>    6.5494    1.0000 </r>
       <r>    6.9691    1.0000 </r>
       <r>    7.1784    1.0000 </r>
       <r>    7.6637    1.0000 </r>
       <r>    9.6876    1.0000 </r>
       <r>   10.2209    1.0000 </r>
       <r>   11.6992    1.0000 </r>
       <r>   11.9562    0.3613 </r>
       <r>   12.1087    0.0000 </r>
       <r>   12.3292    0.0000 </r>
       <r>   12.5295    0.0000 </r>
       <r>   12.5917    0.0000 </r>
      </set>
      <set comment="kpoint 47">
       <r>  -32.0437    1.0000 </r>
       <r>  -11.2334    1.0000 </r>
       <r>  -11.2167    1.0000 </r>
       <r>  -11.1921    1.0000 </r>
       <r>  -11.1754    1.0000 </r>
       <r>  -11.1694    1.0000 </r>
       <r>   -7.7401    1.0000 </r>
       <r>   -7.6091    1.0000 </r>
       <r>   -7.4719    1.0000 </r>
       <r>   -0.2707    1.0000 </r>
       <r>    5.9597    1.0000 </r>
       <r>    6.1624    1.0000 </r>
       <r>    6.5228    1.0000 </r>
       <r>    7.0607    1.0000 </r>
       <r>    7.2573    1.0000 </r>
       <r>    7.7393    1.0000 </r>
       <r>    9.2359    1.0000 </r>
       <r>   10.0921    1.0000 </r>
       <r>   11.6715    1.0000 </r>
       <r>   11.9296    0.9997 </r>
       <r>   12.1409    0.0000 </r>
       <r>   12.4468    0.0000 </r>
       <r>   12.4621    0.0000 </r>
       <r>   12.4880    0.0000 </r>
      </set>
      <set comment="kpoint 48">
       <r>  -32.0439    1.0000 </r>
       <r>  -11.2072    1.0000 </r>
       <r>  -11.2049    1.0000 </r>
       <r>  -11.1986    1.0000 </r>
       <r>  -11.1681    1.0000 </r>
       <r>  -11.1681    1.0000 </r>
       <r>   -7.7922    1.0000 </r>
       <r>   -7.5379    1.0000 </r>
       <r>   -7.5379    1.0000 </r>
       <r>   -0.4627    1.0000 </r>
       <r>    6.3375    1.0000 </r>
       <r>    6.4687    1.0000 </r>
       <r>    6.4687    1.0000 </r>
       <r>    6.6805    1.0000 </r>
       <r>    7.1136    1.0000 </r>
       <r>    7.6056    1.0000 </r>
       <r>   10.3904    1.0000 </r>
       <r>   10.3904    1.0000 </r>
       <r>   11.7204    1.0000 </r>
       <r>   12.0866    0.0000 </r>
       <r>   12.0866    0.0000 </r>
       <r>   12.1007    0.0000 </r>
       <r>   12.5421    0.0000 </r>
       <r>   12.7102    0.0000 </r>
      </set>
      <set comment="kpoint 49">
       <r>  -32.0437    1.0000 </r>
       <r>  -11.2085    1.0000 </r>
       <r>  -11.2057    1.0000 </r>
       <r>  -11.1983    1.0000 </r>
       <r>  -11.1689    1.0000 </r>
       <r>  -11.1680    1.0000 </r>
       <r>   -7.7902    1.0000 </r>
       <r>   -7.5481    1.0000 </r>
       <r>   -7.5299    1.0000 </r>
       <r>   -0.4502    1.0000 </r>
       <r>    6.1982    1.0000 </r>
       <r>    6.4189    1.0000 </r>
       <r>    6.6938    1.0000 </r>
       <r>    6.8201    1.0000 </r>
       <r>    7.1376    1.0000 </r>
       <r>    7.4237    1.0000 </r>
       <r>   10.1915    1.0000 </r>
       <r>   10.3626    1.0000 </r>
       <r>   11.7638    1.0000 </r>
       <r>   11.9980    0.0000 </r>
       <r>   12.0980    0.0000 </r>
       <r>   12.2393    0.0000 </r>
       <r>   12.4734    0.0000 </r>
       <r>   12.7138    0.0000 </r>
      </set>
      <set comment="kpoint 50">
       <r>  -32.0530    1.0000 </r>
       <r>  -11.2474    1.0000 </r>
       <r>  -11.2216    1.0000 </r>
       <r>  -11.1841    1.0000 </r>
       <r>  -11.1779    1.0000 </r>
       <r>  -11.1778    1.0000 </r>
       <r>   -7.6127    1.0000 </r>
       <r>   -7.5140    1.0000 </r>
       <r>   -7.4590    1.0000 </r>
       <r>   -0.8093    1.0000 </r>
       <r>    5.6150    1.0000 </r>
       <r>    6.3437    1.0000 </r>
       <r>    6.7875    1.0000 </r>
       <r>    6.9602    1.0000 </r>
       <r>    7.3804    1.0000 </r>
       <r>    9.0915    1.0000 </r>
       <r>    9.8018    1.0000 </r>
       <r>   10.2377    1.0000 </r>
       <r>   11.2495    1.0000 </r>
       <r>   11.8443    1.0000 </r>
       <r>   11.9255    1.0000 </r>
       <r>   12.2186    0.0000 </r>
       <r>   12.3208    0.0000 </r>
       <r>   12.5666    0.0000 </r>
      </set>
      <set comment="kpoint 51">
       <r>  -32.0509    1.0000 </r>
       <r>  -11.2579    1.0000 </r>
       <r>  -11.2282    1.0000 </r>
       <r>  -11.1864    1.0000 </r>
       <r>  -11.1771    1.0000 </r>
       <r>  -11.1763    1.0000 </r>
       <r>   -7.6829    1.0000 </r>
       <r>   -7.5091    1.0000 </r>
       <r>   -7.4283    1.0000 </r>
       <r>   -0.4987    1.0000 </r>
       <r>    5.3775    1.0000 </r>
       <r>    6.1020    1.0000 </r>
       <r>    6.6404    1.0000 </r>
       <r>    6.9974    1.0000 </r>
       <r>    7.4506    1.0000 </r>
       <r>    8.6557    1.0000 </r>
       <r>    9.6180    1.0000 </r>
       <r>   10.1704    1.0000 </r>
       <r>   11.2729    1.0000 </r>
       <r>   11.8956    1.0000 </r>
       <r>   11.9500    0.6996 </r>
       <r>   12.3279    0.0000 </r>
       <r>   12.3377    0.0000 </r>
       <r>   12.6085    0.0000 </r>
      </set>
      <set comment="kpoint 52">
       <r>  -32.0486    1.0000 </r>
       <r>  -11.2656    1.0000 </r>
       <r>  -11.2383    1.0000 </r>
       <r>  -11.1893    1.0000 </r>
       <r>  -11.1764    1.0000 </r>
       <r>  -11.1747    1.0000 </r>
       <r>   -7.7561    1.0000 </r>
       <r>   -7.4877    1.0000 </r>
       <r>   -7.4046    1.0000 </r>
       <r>   -0.1863    1.0000 </r>
       <r>    5.2380    1.0000 </r>
       <r>    5.9344    1.0000 </r>
[...]
       <r>   11.6469    1.0000 </r>
       <r>   11.9606    0.1646 </r>
       <r>   12.2459    0.0000 </r>
       <r>   12.3053    0.0000 </r>
       <r>   12.4588    0.0000 </r>
       <r>   12.5457    0.0000 </r>
      </set>
      <set comment="kpoint 81">
       <r>  -32.0443    1.0000 </r>
       <r>  -11.2543    1.0000 </r>
       <r>  -11.2213    1.0000 </r>
       <r>  -11.1879    1.0000 </r>
       <r>  -11.1813    1.0000 </r>
       <r>  -11.1696    1.0000 </r>
       <r>   -7.7201    1.0000 </r>
       <r>   -7.6136    1.0000 </r>
       <r>   -7.4431    1.0000 </r>
       <r>   -0.1323    1.0000 </r>
       <r>    5.7296    1.0000 </r>
       <r>    6.0517    1.0000 </r>
       <r>    6.3252    1.0000 </r>
       <r>    7.0589    1.0000 </r>
       <r>    7.3698    1.0000 </r>
       <r>    8.1787    1.0000 </r>
       <r>    8.5673    1.0000 </r>
       <r>   10.2252    1.0000 </r>
       <r>   11.6235    1.0000 </r>
       <r>   11.9411    0.9628 </r>
       <r>   12.2304    0.0000 </r>
       <r>   12.2960    0.0000 </r>
       <r>   12.4240    0.0000 </r>
       <r>   12.5685    0.0000 </r>
      </set>
      <set comment="kpoint 82">
       <r>  -32.0437    1.0000 </r>
       <r>  -11.2345    1.0000 </r>
       <r>  -11.2072    1.0000 </r>
       <r>  -11.1942    1.0000 </r>
       <r>  -11.1763    1.0000 </r>
       <r>  -11.1677    1.0000 </r>
       <r>   -7.7438    1.0000 </r>
       <r>   -7.5826    1.0000 </r>
       <r>   -7.5044    1.0000 </r>
       <r>   -0.3086    1.0000 </r>
       <r>    5.8313    1.0000 </r>
       <r>    6.4662    1.0000 </r>
       <r>    6.5680    1.0000 </r>
       <r>    6.9584    1.0000 </r>
       <r>    7.3147    1.0000 </r>
       <r>    7.7147    1.0000 </r>
       <r>    8.9474    1.0000 </r>
       <r>   10.4399    1.0000 </r>
       <r>   11.7110    1.0000 </r>
       <r>   11.9609    0.1530 </r>
       <r>   12.1610    0.0000 </r>
       <r>   12.4000    0.0000 </r>
       <r>   12.4705    0.0000 </r>
       <r>   12.5345    0.0000 </r>
      </set>
      <set comment="kpoint 83">
       <r>  -32.0435    1.0000 </r>
       <r>  -11.2428    1.0000 </r>
       <r>  -11.2076    1.0000 </r>
       <r>  -11.1910    1.0000 </r>
       <r>  -11.1803    1.0000 </r>
       <r>  -11.1676    1.0000 </r>
       <r>   -7.7194    1.0000 </r>
       <r>   -7.6107    1.0000 </r>
       <r>   -7.4914    1.0000 </r>
       <r>   -0.2615    1.0000 </r>
       <r>    5.7632    1.0000 </r>
       <r>    6.4233    1.0000 </r>
       <r>    6.6346    1.0000 </r>
       <r>    6.9942    1.0000 </r>
       <r>    7.3864    1.0000 </r>
       <r>    7.7709    1.0000 </r>
       <r>    8.5592    1.0000 </r>
       <r>   10.4219    1.0000 </r>
       <r>   11.6946    1.0000 </r>
       <r>   11.9719    0.0049 </r>
       <r>   12.2062    0.0000 </r>
       <r>   12.3886    0.0000 </r>
       <r>   12.4735    0.0000 </r>
       <r>   12.5045    0.0000 </r>
      </set>
      <set comment="kpoint 84">
       <r>  -32.0436    1.0000 </r>
       <r>  -11.2475    1.0000 </r>
       <r>  -11.2076    1.0000 </r>
       <r>  -11.1890    1.0000 </r>
       <r>  -11.1832    1.0000 </r>
       <r>  -11.1675    1.0000 </r>
       <r>   -7.7053    1.0000 </r>
       <r>   -7.6207    1.0000 </r>
       <r>   -7.4885    1.0000 </r>
       <r>   -0.2345    1.0000 </r>
       <r>    5.7200    1.0000 </r>
       <r>    6.4506    1.0000 </r>
       <r>    6.5758    1.0000 </r>
       <r>    6.9983    1.0000 </r>
       <r>    7.4357    1.0000 </r>
       <r>    7.9677    1.0000 </r>
       <r>    8.2331    1.0000 </r>
       <r>   10.4438    1.0000 </r>
       <r>   11.6839    1.0000 </r>
       <r>   11.9870    0.0000 </r>
       <r>   12.2574    0.0000 </r>
       <r>   12.3212    0.0000 </r>
       <r>   12.4623    0.0000 </r>
       <r>   12.5445    0.0000 </r>
      </set>
     </set>
    </set>
   </array>
  </eigenvalues>
  <separator name="orbital magnetization" >
   <v name="MAGDIPOLOUT">      0.00000000      0.00000000      0.00000000</v>
  </separator>
  <dos>
   <i name="efermi">     11.95367874 </i>
   <total>
    <array>
     <dimension dim="1">gridpoints</dimension>
     <dimension dim="2">spin</dimension>
     <field>energy</field>
     <field>total</field>
     <field>integrated</field>
     <set>
      <set comment="spin 1">
       <r>   -34.3007     0.0000     0.0000 </r>
       <r>   -34.1361     0.0000     0.0000 </r>
       <r>   -33.9715     0.0000     0.0000 </r>
       <r>   -33.8070     0.0000     0.0000 </r>
       <r>   -33.6424     0.0000     0.0000 </r>
       <r>   -33.4778     0.0000     0.0000 </r>
       <r>   -33.3133     0.0000     0.0000 </r>
       <r>   -33.1487     0.0000     0.0000 </r>
       <r>   -32.9841     0.0000     0.0000 </r>
       <r>   -32.8196     0.0000     0.0000 </r>
       <r>   -32.6550     0.0000     0.0000 </r>
       <r>   -32.4904     0.0000     0.0000 </r>
       <r>   -32.3259     0.0000     0.0000 </r>
       <r>   -32.1613     0.0000     0.0000 </r>
       <r>   -31.9967    12.1532     2.0000 </r>
       <r>   -31.8322     0.0000     2.0000 </r>
       <r>   -31.6676     0.0000     2.0000 </r>
       <r>   -31.5030     0.0000     2.0000 </r>
       <r>   -31.3385     0.0000     2.0000 </r>
       <r>   -31.1739     0.0000     2.0000 </r>
       <r>   -31.0093     0.0000     2.0000 </r>
       <r>   -30.8448     0.0000     2.0000 </r>
       <r>   -30.6802     0.0000     2.0000 </r>
       <r>   -30.5156     0.0000     2.0000 </r>
       <r>   -30.3511     0.0000     2.0000 </r>
       <r>   -30.1865     0.0000     2.0000 </r>
       <r>   -30.0220     0.0000     2.0000 </r>
       <r>   -29.8574     0.0000     2.0000 </r>
       <r>   -29.6928     0.0000     2.0000 </r>
       <r>   -29.5283     0.0000     2.0000 </r>
       <r>   -29.3637     0.0000     2.0000 </r>
       <r>   -29.1991     0.0000     2.0000 </r>
       <r>   -29.0346     0.0000     2.0000 </r>
       <r>   -28.8700     0.0000     2.0000 </r>
       <r>   -28.7054     0.0000     2.0000 </r>
       <r>   -28.5409     0.0000     2.0000 </r>
       <r>   -28.3763     0.0000     2.0000 </r>
       <r>   -28.2117     0.0000     2.0000 </r>
       <r>   -28.0472     0.0000     2.0000 </r>
       <r>   -27.8826     0.0000     2.0000 </r>
       <r>   -27.7180     0.0000     2.0000 </r>
       <r>   -27.5535     0.0000     2.0000 </r>
       <r>   -27.3889     0.0000     2.0000 </r>
       <r>   -27.2243     0.0000     2.0000 </r>
       <r>   -27.0598     0.0000     2.0000 </r>
       <r>   -26.8952     0.0000     2.0000 </r>
       <r>   -26.7306     0.0000     2.0000 </r>
       <r>   -26.5661     0.0000     2.0000 </r>
       <r>   -26.4015     0.0000     2.0000 </r>
       <r>   -26.2369     0.0000     2.0000 </r>
       <r>   -26.0724     0.0000     2.0000 </r>
       <r>   -25.9078     0.0000     2.0000 </r>
       <r>   -25.7432     0.0000     2.0000 </r>
       <r>   -25.5787     0.0000     2.0000 </r>
       <r>   -25.4141     0.0000     2.0000 </r>
       <r>   -25.2495     0.0000     2.0000 </r>
       <r>   -25.0850     0.0000     2.0000 </r>
       <r>   -24.9204     0.0000     2.0000 </r>
       <r>   -24.7558     0.0000     2.0000 </r>
       <r>   -24.5913     0.0000     2.0000 </r>
       <r>   -24.4267     0.0000     2.0000 </r>
       <r>   -24.2621     0.0000     2.0000 </r>
       <r>   -24.0976     0.0000     2.0000 </r>
       <r>   -23.9330     0.0000     2.0000 </r>
       <r>   -23.7684     0.0000     2.0000 </r>
       <r>   -23.6039     0.0000     2.0000 </r>
       <r>   -23.4393     0.0000     2.0000 </r>
       <r>   -23.2747     0.0000     2.0000 </r>
       <r>   -23.1102     0.0000     2.0000 </r>
       <r>   -22.9456     0.0000     2.0000 </r>
       <r>   -22.7811     0.0000     2.0000 </r>
       <r>   -22.6165     0.0000     2.0000 </r>
       <r>   -22.4519     0.0000     2.0000 </r>
       <r>   -22.2874     0.0000     2.0000 </r>
       <r>   -22.1228     0.0000     2.0000 </r>
       <r>   -21.9582     0.0000     2.0000 </r>
       <r>   -21.7937     0.0000     2.0000 </r>
       <r>   -21.6291     0.0000     2.0000 </r>
       <r>   -21.4645     0.0000     2.0000 </r>
       <r>   -21.3000     0.0000     2.0000 </r>
       <r>   -21.1354     0.0000     2.0000 </r>
       <r>   -20.9708     0.0000     2.0000 </r>
       <r>   -20.8063     0.0000     2.0000 </r>
       <r>   -20.6417     0.0000     2.0000 </r>
       <r>   -20.4771     0.0000     2.0000 </r>
       <r>   -20.3126     0.0000     2.0000 </r>
       <r>   -20.1480     0.0000     2.0000 </r>
       <r>   -19.9834     0.0000     2.0000 </r>
       <r>   -19.8189     0.0000     2.0000 </r>
       <r>   -19.6543     0.0000     2.0000 </r>
       <r>   -19.4897     0.0000     2.0000 </r>
       <r>   -19.3252     0.0000     2.0000 </r>
       <r>   -19.1606     0.0000     2.0000 </r>
       <r>   -18.9960     0.0000     2.0000 </r>
       <r>   -18.8315     0.0000     2.0000 </r>
       <r>   -18.6669     0.0000     2.0000 </r>
       <r>   -18.5023     0.0000     2.0000 </r>
       <r>   -18.3378     0.0000     2.0000 </r>
       <r>   -18.1732     0.0000     2.0000 </r>
       <r>   -18.0086     0.0000     2.0000 </r>
       <r>   -17.8441     0.0000     2.0000 </r>
       <r>   -17.6795     0.0000     2.0000 </r>
       <r>   -17.5149     0.0000     2.0000 </r>
       <r>   -17.3504     0.0000     2.0000 </r>
       <r>   -17.1858     0.0000     2.0000 </r>
       <r>   -17.0212     0.0000     2.0000 </r>
       <r>   -16.8567     0.0000     2.0000 </r>
       <r>   -16.6921     0.0000     2.0000 </r>
       <r>   -16.5275     0.0000     2.0000 </r>
       <r>   -16.3630     0.0000     2.0000 </r>
       <r>   -16.1984     0.0000     2.0000 </r>
       <r>   -16.0339     0.0000     2.0000 </r>
       <r>   -15.8693     0.0000     2.0000 </r>
       <r>   -15.7047     0.0000     2.0000 </r>
       <r>   -15.5402     0.0000     2.0000 </r>
       <r>   -15.3756     0.0000     2.0000 </r>
       <r>   -15.2110     0.0000     2.0000 </r>
       <r>   -15.0465     0.0000     2.0000 </r>
       <r>   -14.8819     0.0000     2.0000 </r>
       <r>   -14.7173     0.0000     2.0000 </r>
       <r>   -14.5528     0.0000     2.0000 </r>
       <r>   -14.3882     0.0000     2.0000 </r>
       <r>   -14.2236     0.0000     2.0000 </r>
       <r>   -14.0591     0.0000     2.0000 </r>
       <r>   -13.8945     0.0000     2.0000 </r>
       <r>   -13.7299     0.0000     2.0000 </r>
       <r>   -13.5654     0.0000     2.0000 </r>
       <r>   -13.4008     0.0000     2.0000 </r>
       <r>   -13.2362     0.0000     2.0000 </r>
       <r>   -13.0717     0.0000     2.0000 </r>
       <r>   -12.9071     0.0000     2.0000 </r>
       <r>   -12.7425     0.0000     2.0000 </r>
       <r>   -12.5780     0.0000     2.0000 </r>
       <r>   -12.4134     0.0000     2.0000 </r>
       <r>   -12.2488     0.0000     2.0000 </r>
       <r>   -12.0843     0.0000     2.0000 </r>
       <r>   -11.9197     0.0000     2.0000 </r>
       <r>   -11.7551     0.0000     2.0000 </r>
       <r>   -11.5906     0.0000     2.0000 </r>
       <r>   -11.4260     0.0000     2.0000 </r>
       <r>   -11.2614     4.5235     2.7444 </r>
       <r>   -11.0969    18.1883    12.0000 </r>
       <r>   -10.9323     0.0000    12.0000 </r>
       <r>   -10.7677     0.0000    12.0000 </r>
       <r>   -10.6032     0.0000    12.0000 </r>
       <r>   -10.4386     0.0000    12.0000 </r>
       <r>   -10.2740     0.0000    12.0000 </r>
       <r>   -10.1095     0.0000    12.0000 </r>
       <r>    -9.9449     0.0000    12.0000 </r>
       <r>    -9.7803     0.0000    12.0000 </r>
       <r>    -9.6158     0.0000    12.0000 </r>
       <r>    -9.4512     0.0000    12.0000 </r>
       <r>    -9.2867     0.0000    12.0000 </r>
       <r>    -9.1221     0.0000    12.0000 </r>
       <r>    -8.9575     0.0000    12.0000 </r>
       <r>    -8.7930     0.0000    12.0000 </r>
       <r>    -8.6284     0.0000    12.0000 </r>
       <r>    -8.4638     0.0000    12.0000 </r>
       <r>    -8.2993     0.0000    12.0000 </r>
       <r>    -8.1347     0.0000    12.0000 </r>
       <r>    -7.9701     0.0000    12.0000 </r>
       <r>    -7.8056     1.6357    12.2692 </r>
       <r>    -7.6410     2.5026    13.8757 </r>
       <r>    -7.4764     9.0931    16.1491 </r>
       <r>    -7.3119     1.3497    18.0000 </r>
       <r>    -7.1473     0.0000    18.0000 </r>
       <r>    -6.9827     0.0000    18.0000 </r>
       <r>    -6.8182     0.0000    18.0000 </r>
       <r>    -6.6536     0.0000    18.0000 </r>
       <r>    -6.4890     0.0000    18.0000 </r>
       <r>    -6.3245     0.0000    18.0000 </r>
       <r>    -6.1599     0.0000    18.0000 </r>
       <r>    -5.9953     0.0000    18.0000 </r>
       <r>    -5.8308     0.0000    18.0000 </r>
       <r>    -5.6662     0.0000    18.0000 </r>
       <r>    -5.5016     0.0000    18.0000 </r>
       <r>    -5.3371     0.0000    18.0000 </r>
       <r>    -5.1725     0.0000    18.0000 </r>
       <r>    -5.0079     0.0000    18.0000 </r>
       <r>    -4.8434     0.0000    18.0000 </r>
       <r>    -4.6788     0.0000    18.0000 </r>
       <r>    -4.5142     0.0000    18.0000 </r>
       <r>    -4.3497     0.0000    18.0000 </r>
       <r>    -4.1851     0.0000    18.0000 </r>
       <r>    -4.0205     0.0000    18.0000 </r>
       <r>    -3.8560     0.0000    18.0000 </r>
       <r>    -3.6914     0.0000    18.0000 </r>
       <r>    -3.5268     0.0000    18.0000 </r>
       <r>    -3.3623     0.0000    18.0000 </r>
       <r>    -3.1977     0.0000    18.0000 </r>
       <r>    -3.0331     0.0000    18.0000 </r>
       <r>    -2.8686     0.0000    18.0000 </r>
       <r>    -2.7040     0.0000    18.0000 </r>
       <r>    -2.5394     0.0000    18.0000 </r>
       <r>    -2.3749     0.0000    18.0000 </r>
       <r>    -2.2103     0.0000    18.0000 </r>
       <r>    -2.0458     0.0000    18.0000 </r>
       <r>    -1.8812     0.0000    18.0000 </r>
       <r>    -1.7166     0.0000    18.0000 </r>
       <r>    -1.5521     0.0000    18.0000 </r>
       <r>    -1.3875     0.0000    18.0000 </r>
       <r>    -1.2229     0.0773    18.0136 </r>
       <r>    -1.0584     0.0665    18.0246 </r>
       <r>    -0.8938     0.0332    18.0592 </r>
       <r>    -0.7292     0.0001    18.1029 </r>
       <r>    -0.5647     0.0502    18.1548 </r>
       <r>    -0.4001     0.6280    18.3173 </r>
       <r>    -0.2355     1.7931    18.7766 </r>
       <r>    -0.0710     1.8128    19.4098 </r>
       <r>     0.0936     1.4607    19.8326 </r>
       <r>     0.2582     0.1343    19.9711 </r>
       <r>     0.4227     0.0000    20.0000 </r>
       <r>     0.5873     0.0000    20.0000 </r>
       <r>     0.7519     0.0000    20.0000 </r>
       <r>     0.9164     0.0000    20.0000 </r>
       <r>     1.0810     0.0000    20.0000 </r>
       <r>     1.2456     0.0000    20.0000 </r>
       <r>     1.4101     0.0000    20.0000 </r>
       <r>     1.5747     0.0000    20.0000 </r>
       <r>     1.7393     0.0000    20.0000 </r>
       <r>     1.9038     0.0000    20.0000 </r>
       <r>     2.0684     0.0000    20.0000 </r>
       <r>     2.2330     0.0000    20.0000 </r>
       <r>     2.3975     0.0000    20.0000 </r>
       <r>     2.5621     0.0000    20.0000 </r>
       <r>     2.7267     0.0000    20.0000 </r>
       <r>     2.8912     0.0000    20.0000 </r>
       <r>     3.0558     0.0000    20.0000 </r>
       <r>     3.2204     0.0000    20.0000 </r>
       <r>     3.3849     0.0000    20.0000 </r>
       <r>     3.5495     0.0000    20.0000 </r>
       <r>     3.7141     0.0000    20.0000 </r>
       <r>     3.8786     0.0000    20.0000 </r>
       <r>     4.0432     0.0000    20.0000 </r>
       <r>     4.2078     0.0000    20.0000 </r>
       <r>     4.3723     0.0000    20.0000 </r>
       <r>     4.5369     0.0000    20.0000 </r>
       <r>     4.7014     0.0000    20.0000 </r>
       <r>     4.8660     0.0000    20.0000 </r>
       <r>     5.0306     0.0443    20.0073 </r>
       <r>     5.1951     1.2206    20.2737 </r>
       <r>     5.3597     0.6015    20.7144 </r>
       <r>     5.5243     0.7224    21.0511 </r>
       <r>     5.6888     0.8067    21.2634 </r>
       <r>     5.8534     1.3168    21.8771 </r>
       <r>     6.0180     1.9816    22.8459 </r>
       <r>     6.1825     2.3674    23.6304 </r>
       <r>     6.3471     3.1752    24.5589 </r>
       <r>     6.5117     1.9340    25.2996 </r>
       <r>     6.6762     1.7343    25.8712 </r>
       <r>     6.8408     0.6652    26.0658 </r>
       <r>     7.0054     5.2591    26.9711 </r>
       <r>     7.1699     2.9319    28.3250 </r>
       <r>     7.3345     2.6103    29.2024 </r>
       <r>     7.4991     1.6666    29.9902 </r>
       <r>     7.6636     0.8071    30.2166 </r>
       <r>     7.8282     1.2021    30.4800 </r>
       <r>     7.9928     2.1290    30.9166 </r>
       <r>     8.1573     0.8236    31.1897 </r>
       <r>     8.3219     0.4796    31.4990 </r>
       <r>     8.4865     0.5110    31.6572 </r>
       <r>     8.6510     0.3356    31.8650 </r>
       <r>     8.8156     0.4714    32.0239 </r>
       <r>     8.9802     0.9604    32.2791 </r>
       <r>     9.1447     0.4472    32.5169 </r>
       <r>     9.3093     0.5520    32.7162 </r>
       <r>     9.4739     0.5974    33.0897 </r>
       <r>     9.6384     0.9160    33.2732 </r>
       <r>     9.8030     0.9805    33.5678 </r>
       <r>     9.9676     0.8228    33.7603 </r>
       <r>    10.1321     4.7516    34.7910 </r>
       <r>    10.2967     2.4681    35.6824 </r>
       <r>    10.4613     0.6037    35.9728 </r>
       <r>    10.6258     0.0166    36.0000 </r>
       <r>    10.7904     0.0000    36.0009 </r>
       <r>    10.9550     0.0000    36.0009 </r>
       <r>    11.1195     0.1328    36.0301 </r>
       <r>    11.2841     1.1976    36.4147 </r>
       <r>    11.4487     1.6518    36.9719 </r>
       <r>    11.6132     1.9741    37.5875 </r>
       <r>    11.7778     0.6295    37.9998 </r>
       <r>    11.9423     3.4367    38.7121 </r>
       <r>    12.1069     4.1849    41.1147 </r>
       <r>    12.2715     3.0198    42.3704 </r>
       <r>    12.4360     6.8216    45.0953 </r>
       <r>    12.6006     7.5830    47.3781 </r>
       <r>    12.7652     0.5885    47.9767 </r>
       <r>    12.9297     0.0000    48.0000 </r>
       <r>    13.0943     0.0000    48.0000 </r>
       <r>    13.2589     0.0000    48.0000 </r>
       <r>    13.4234     0.0000    48.0000 </r>
       <r>    13.5880     0.0000    48.0000 </r>
       <r>    13.7526     0.0000    48.0000 </r>
       <r>    13.9171     0.0000    48.0000 </r>
       <r>    14.0817     0.0000    48.0000 </r>
       <r>    14.2463     0.0000    48.0000 </r>
       <r>    14.4108     0.0000    48.0000 </r>
       <r>    14.5754     0.0000    48.0000 </r>
       <r>    14.7400     0.0000    48.0000 </r>
       <r>    14.9045     0.0000    48.0000 </r>
       <r>    15.0691     0.0000    48.0000 </r>
      </set>
     </set>
    </array>
   </total>
  </dos>
 </calculation>
 <structure name="finalpos" >
  <crystal>
   <varray name="basis" >
    <v>       0.00000000       3.17924219       3.17924219 </v>
    <v>       3.17924219       0.00000000       3.17924219 </v>
    <v>       3.17924219       3.17924219       0.00000000 </v>
   </varray>
   <i name="volume">     64.26889548 </i>
   <varray name="rec_basis" >
    <v>      -0.15727018       0.15727018       0.15727018 </v>
    <v>       0.15727018      -0.15727018       0.15727018 </v>
    <v>       0.15727018       0.15727018      -0.15727018 </v>
   </varray>
  </crystal>
  <varray name="positions" >
   <v>       0.25000000       0.25000000       0.25000000 </v>
   <v>       0.75000000       0.75000000       0.75000000 </v>
   <v>       0.00000000       0.00000000       0.00000000 </v>
  </varray>
 </structure>
</modeling>
