   3   3   0   0
  0.2525625E+02  0.4749724E-09  0.4749724E-09  0.4749724E-09  0.5000000E-15
  1.000000000000000E-004
  CAR
 unknown system
     10.83327620    -27.36567206  301      6.90284055      1.00000000
    -27.366  0.0000E+00  0.0000E+00
    -27.238  0.0000E+00  0.0000E+00
    -27.111  0.0000E+00  0.0000E+00
    -26.984  0.0000E+00  0.0000E+00
    -26.856  0.0000E+00  0.0000E+00
    -26.729  0.0000E+00  0.0000E+00
    -26.602  0.0000E+00  0.0000E+00
    -26.474  0.0000E+00  0.0000E+00
    -26.347  0.0000E+00  0.0000E+00
    -26.220  0.0000E+00  0.0000E+00
    -26.092  0.0000E+00  0.0000E+00
    -25.965  0.0000E+00  0.0000E+00
    -25.838  0.0000E+00  0.0000E+00
    -25.710  0.0000E+00  0.0000E+00
    -25.583  0.4712E+02  0.6000E+01
    -25.456  0.0000E+00  0.6000E+01
    -25.328  0.0000E+00  0.6000E+01
    -25.201  0.0000E+00  0.6000E+01
    -25.074  0.0000E+00  0.6000E+01
    -24.946  0.0000E+00  0.6000E+01
    -24.819  0.0000E+00  0.6000E+01
    -24.692  0.0000E+00  0.6000E+01
    -24.564  0.0000E+00  0.6000E+01
    -24.437  0.0000E+00  0.6000E+01
    -24.310  0.0000E+00  0.6000E+01
    -24.182  0.0000E+00  0.6000E+01
    -24.055  0.0000E+00  0.6000E+01
    -23.928  0.0000E+00  0.6000E+01
    -23.800  0.0000E+00  0.6000E+01
    -23.673  0.0000E+00  0.6000E+01
    -23.546  0.0000E+00  0.6000E+01
    -23.418  0.0000E+00  0.6000E+01
    -23.291  0.0000E+00  0.6000E+01
    -23.164  0.0000E+00  0.6000E+01
    -23.036  0.0000E+00  0.6000E+01
    -22.909  0.0000E+00  0.6000E+01
    -22.782  0.0000E+00  0.6000E+01
    -22.654  0.0000E+00  0.6000E+01
    -22.527  0.0000E+00  0.6000E+01
    -22.400  0.0000E+00  0.6000E+01
    -22.272  0.0000E+00  0.6000E+01
    -22.145  0.0000E+00  0.6000E+01
    -22.018  0.0000E+00  0.6000E+01
    -21.890  0.0000E+00  0.6000E+01
    -21.763  0.0000E+00  0.6000E+01
    -21.636  0.0000E+00  0.6000E+01
    -21.508  0.0000E+00  0.6000E+01
    -21.381  0.0000E+00  0.6000E+01
    -21.254  0.0000E+00  0.6000E+01
    -21.127  0.0000E+00  0.6000E+01
    -20.999  0.0000E+00  0.6000E+01
    -20.872  0.0000E+00  0.6000E+01
    -20.745  0.0000E+00  0.6000E+01
    -20.617  0.0000E+00  0.6000E+01
    -20.490  0.0000E+00  0.6000E+01
    -20.363  0.0000E+00  0.6000E+01
    -20.235  0.0000E+00  0.6000E+01
    -20.108  0.0000E+00  0.6000E+01
    -19.981  0.0000E+00  0.6000E+01
    -19.853  0.0000E+00  0.6000E+01
    -19.726  0.0000E+00  0.6000E+01
    -19.599  0.0000E+00  0.6000E+01
    -19.471  0.0000E+00  0.6000E+01
    -19.344  0.0000E+00  0.6000E+01
    -19.217  0.0000E+00  0.6000E+01
    -19.089  0.0000E+00  0.6000E+01
    -18.962  0.0000E+00  0.6000E+01
    -18.835  0.0000E+00  0.6000E+01
    -18.707  0.0000E+00  0.6000E+01
    -18.580  0.0000E+00  0.6000E+01
    -18.453  0.0000E+00  0.6000E+01
    -18.325  0.0000E+00  0.6000E+01
    -18.198  0.0000E+00  0.6000E+01
    -18.071  0.0000E+00  0.6000E+01
    -17.943  0.0000E+00  0.6000E+01
    -17.816  0.0000E+00  0.6000E+01
    -17.689  0.0000E+00  0.6000E+01
    -17.561  0.0000E+00  0.6000E+01
    -17.434  0.0000E+00  0.6000E+01
    -17.307  0.0000E+00  0.6000E+01
    -17.179  0.0000E+00  0.6000E+01
    -17.052  0.0000E+00  0.6000E+01
    -16.925  0.0000E+00  0.6000E+01
    -16.797  0.0000E+00  0.6000E+01
    -16.670  0.0000E+00  0.6000E+01
    -16.543  0.0000E+00  0.6000E+01
    -16.415  0.0000E+00  0.6000E+01
    -16.288  0.0000E+00  0.6000E+01
    -16.161  0.0000E+00  0.6000E+01
    -16.033  0.0000E+00  0.6000E+01
    -15.906  0.0000E+00  0.6000E+01
    -15.779  0.0000E+00  0.6000E+01
    -15.651  0.0000E+00  0.6000E+01
    -15.524  0.0000E+00  0.6000E+01
    -15.397  0.0000E+00  0.6000E+01
    -15.269  0.0000E+00  0.6000E+01
    -15.142  0.0000E+00  0.6000E+01
    -15.015  0.0000E+00  0.6000E+01
    -14.887  0.0000E+00  0.6000E+01
    -14.760  0.0000E+00  0.6000E+01
    -14.633  0.0000E+00  0.6000E+01
    -14.505  0.0000E+00  0.6000E+01
    -14.378  0.0000E+00  0.6000E+01
    -14.251  0.0000E+00  0.6000E+01
    -14.123  0.0000E+00  0.6000E+01
    -13.996  0.0000E+00  0.6000E+01
    -13.869  0.0000E+00  0.6000E+01
    -13.741  0.0000E+00  0.6000E+01
    -13.614  0.0000E+00  0.6000E+01
    -13.487  0.0000E+00  0.6000E+01
    -13.359  0.0000E+00  0.6000E+01
    -13.232  0.0000E+00  0.6000E+01
    -13.105  0.0000E+00  0.6000E+01
    -12.977  0.0000E+00  0.6000E+01
    -12.850  0.0000E+00  0.6000E+01
    -12.723  0.0000E+00  0.6000E+01
    -12.595  0.0000E+00  0.6000E+01
    -12.468  0.0000E+00  0.6000E+01
    -12.341  0.0000E+00  0.6000E+01
    -12.213  0.0000E+00  0.6000E+01
    -12.086  0.0000E+00  0.6000E+01
    -11.959  0.0000E+00  0.6000E+01
    -11.831  0.0000E+00  0.6000E+01
    -11.704  0.0000E+00  0.6000E+01
    -11.577  0.0000E+00  0.6000E+01
    -11.449  0.0000E+00  0.6000E+01
    -11.322  0.0000E+00  0.6000E+01
    -11.195  0.0000E+00  0.6000E+01
    -11.067  0.0000E+00  0.6000E+01
    -10.940  0.0000E+00  0.6000E+01
    -10.813  0.0000E+00  0.6000E+01
    -10.685  0.0000E+00  0.6000E+01
    -10.558  0.0000E+00  0.6000E+01
    -10.431  0.0000E+00  0.6000E+01
    -10.303  0.0000E+00  0.6000E+01
    -10.176  0.0000E+00  0.6000E+01
    -10.049  0.0000E+00  0.6000E+01
     -9.921  0.0000E+00  0.6000E+01
     -9.794  0.0000E+00  0.6000E+01
     -9.667  0.0000E+00  0.6000E+01
     -9.539  0.0000E+00  0.6000E+01
     -9.412  0.0000E+00  0.6000E+01
     -9.285  0.0000E+00  0.6000E+01
     -9.158  0.0000E+00  0.6000E+01
     -9.030  0.0000E+00  0.6000E+01
     -8.903  0.0000E+00  0.6000E+01
     -8.776  0.0000E+00  0.6000E+01
     -8.648  0.0000E+00  0.6000E+01
     -8.521  0.0000E+00  0.6000E+01
     -8.394  0.0000E+00  0.6000E+01
     -8.266  0.0000E+00  0.6000E+01
     -8.139  0.0000E+00  0.6000E+01
     -8.012  0.0000E+00  0.6000E+01
     -7.884  0.0000E+00  0.6000E+01
     -7.757  0.0000E+00  0.6000E+01
     -7.630  0.0000E+00  0.6000E+01
     -7.502  0.0000E+00  0.6000E+01
     -7.375  0.0000E+00  0.6000E+01
     -7.248  0.0000E+00  0.6000E+01
     -7.120  0.0000E+00  0.6000E+01
     -6.993  0.0000E+00  0.6000E+01
     -6.866  0.0000E+00  0.6000E+01
     -6.738  0.0000E+00  0.6000E+01
     -6.611  0.0000E+00  0.6000E+01
     -6.484  0.0000E+00  0.6000E+01
     -6.356  0.0000E+00  0.6000E+01
     -6.229  0.0000E+00  0.6000E+01
     -6.102  0.0000E+00  0.6000E+01
     -5.974  0.0000E+00  0.6000E+01
     -5.847  0.0000E+00  0.6000E+01
     -5.720  0.0000E+00  0.6000E+01
     -5.592  0.0000E+00  0.6000E+01
     -5.465  0.0000E+00  0.6000E+01
     -5.338  0.0000E+00  0.6000E+01
     -5.210  0.0000E+00  0.6000E+01
     -5.083  0.0000E+00  0.6000E+01
     -4.956  0.0000E+00  0.6000E+01
     -4.828  0.0000E+00  0.6000E+01
     -4.701  0.0000E+00  0.6000E+01
     -4.574  0.2270E-01  0.6003E+01
     -4.446  0.1163E+00  0.6028E+01
     -4.319  0.1076E+00  0.6067E+01
     -4.192  0.3863E+00  0.6152E+01
     -4.064  0.6407E+00  0.6235E+01
     -3.937  0.3597E+00  0.6303E+01
     -3.810  0.8233E+00  0.6479E+01
     -3.682  0.8661E+00  0.6599E+01
     -3.555  0.1391E+01  0.6859E+01
     -3.428  0.2840E+01  0.7362E+01
     -3.300  0.2488E+01  0.8000E+01
     -3.173  0.0000E+00  0.8000E+01
     -3.046  0.0000E+00  0.8000E+01
     -2.918  0.0000E+00  0.8000E+01
     -2.791  0.0000E+00  0.8000E+01
     -2.664  0.0000E+00  0.8000E+01
     -2.536  0.0000E+00  0.8000E+01
     -2.409  0.0000E+00  0.8000E+01
     -2.282  0.0000E+00  0.8000E+01
     -2.154  0.0000E+00  0.8000E+01
     -2.027  0.0000E+00  0.8000E+01
     -1.900  0.0000E+00  0.8000E+01
     -1.772  0.0000E+00  0.8000E+01
     -1.645  0.0000E+00  0.8000E+01
     -1.518  0.0000E+00  0.8000E+01
     -1.390  0.0000E+00  0.8000E+01
     -1.263  0.0000E+00  0.8000E+01
     -1.136  0.0000E+00  0.8000E+01
     -1.008  0.0000E+00  0.8000E+01
     -0.881  0.0000E+00  0.8000E+01
     -0.754  0.0000E+00  0.8000E+01
     -0.626  0.0000E+00  0.8000E+01
     -0.499  0.0000E+00  0.8000E+01
     -0.372  0.0000E+00  0.8000E+01
     -0.244  0.0000E+00  0.8000E+01
     -0.117  0.0000E+00  0.8000E+01
      0.010  0.0000E+00  0.8000E+01
      0.138  0.0000E+00  0.8000E+01
      0.265  0.6987E-01  0.8009E+01
      0.392  0.6827E+00  0.8116E+01
      0.520  0.1287E+01  0.8324E+01
      0.647  0.3603E+01  0.8959E+01
      0.774  0.1419E+01  0.9435E+01
      0.902  0.1004E+01  0.9728E+01
      1.029  0.6612E+00  0.9854E+01
      1.156  0.1132E-05  0.9868E+01
      1.284  0.2145E+00  0.9924E+01
      1.411  0.9135E-11  0.9946E+01
      1.538  0.5589E-01  0.9975E+01
      1.666  0.1591E+01  0.1018E+02
      1.793  0.7272E+01  0.1134E+02
      1.920  0.4237E+01  0.1220E+02
      2.048  0.2764E+01  0.1295E+02
      2.175  0.1763E+01  0.1350E+02
      2.302  0.2357E+01  0.1404E+02
      2.430  0.1642E+01  0.1437E+02
      2.557  0.1238E+01  0.1475E+02
      2.684  0.3107E+01  0.1536E+02
      2.811  0.4967E+01  0.1643E+02
      2.939  0.8594E+01  0.1804E+02
      3.066  0.5784E+01  0.1906E+02
      3.193  0.1979E+01  0.1957E+02
      3.321  0.1192E+01  0.1974E+02
      3.448  0.1005E+01  0.1989E+02
      3.575  0.5151E+00  0.2000E+02
      3.703  0.1892E+01  0.2030E+02
      3.830  0.6888E+00  0.2053E+02
      3.957  0.7675E+00  0.2065E+02
      4.085  0.1546E+01  0.2096E+02
      4.212  0.7306E+00  0.2113E+02
      4.339  0.1607E+01  0.2140E+02
      4.467  0.1613E+01  0.2175E+02
      4.594  0.2949E+01  0.2239E+02
      4.721  0.1676E+01  0.2277E+02
      4.849  0.1753E+01  0.2317E+02
      4.976  0.1397E+01  0.2352E+02
      5.103  0.4568E+00  0.2368E+02
      5.231  0.5154E+00  0.2380E+02
      5.358  0.6003E+00  0.2393E+02
      5.485  0.2863E+00  0.2396E+02
      5.613  0.1064E+00  0.2399E+02
      5.740  0.2145E-01  0.2400E+02
      5.867  0.5720E-01  0.2401E+02
      5.995  0.4290E-01  0.2401E+02
      6.122  0.8579E-01  0.2403E+02
      6.249  0.2343E+00  0.2406E+02
      6.377  0.1514E+00  0.2409E+02
      6.504  0.8405E+00  0.2421E+02
      6.631  0.9997E+00  0.2439E+02
      6.759  0.9261E+00  0.2458E+02
      6.886  0.1222E+01  0.2494E+02
      7.013  0.2378E+01  0.2536E+02
      7.141  0.2927E+01  0.2587E+02
      7.268  0.1667E+01  0.2629E+02
      7.395  0.2481E+01  0.2669E+02
      7.523  0.2482E+01  0.2709E+02
      7.650  0.4988E+01  0.2794E+02
      7.777  0.4076E+01  0.2872E+02
      7.905  0.3901E+01  0.2935E+02
      8.032  0.2706E+01  0.2997E+02
      8.159  0.1337E+01  0.3029E+02
      8.287  0.2081E+01  0.3071E+02
      8.414  0.3446E+01  0.3128E+02
      8.541  0.1758E+01  0.3164E+02
      8.669  0.1017E+01  0.3184E+02
      8.796  0.7721E+00  0.3196E+02
      8.923  0.1716E+00  0.3199E+02
      9.051  0.1667E-11  0.3199E+02
      9.178  0.0000E+00  0.3200E+02
      9.305  0.0000E+00  0.3200E+02
      9.433  0.0000E+00  0.3200E+02
      9.560  0.0000E+00  0.3200E+02
      9.687  0.0000E+00  0.3200E+02
      9.815  0.0000E+00  0.3200E+02
      9.942  0.0000E+00  0.3200E+02
     10.069  0.0000E+00  0.3200E+02
     10.197  0.0000E+00  0.3200E+02
     10.324  0.0000E+00  0.3200E+02
     10.451  0.0000E+00  0.3200E+02
     10.579  0.0000E+00  0.3200E+02
     10.706  0.0000E+00  0.3200E+02
     10.833  0.0000E+00  0.3200E+02
