    3    3    1    1
  0.2525625E+02  0.4749724E-09  0.4749724E-09  0.4749724E-09  0.5000000E-15
  1.000000000000000E-004
  CAR
 unknown system
     25     84     16

  0.0000000E+00  0.0000000E+00  0.0000000E+00  0.4551661E-03
    1      -25.621742   1.000000
    2      -25.621742   1.000000
    3      -25.621742   1.000000
    4       -4.619718   1.000000
    5        1.856887   1.000000
    6        1.856887   1.000000
    7        1.856887   1.000000
    8        2.637087   1.000000
    9        2.637087   1.000000
   10        5.136058   1.000000
   11        5.684351   1.000000
   12        5.684351   1.000000
   13        5.684351   1.000000
   14        7.675588   0.000000
   15        7.675588   0.000000
   16        7.675588   0.000000

  0.7692308E-01 -0.3155431E-17  0.4148088E-17  0.3641329E-02
    1      -25.622179   1.000000
    2      -25.621752   1.000000
    3      -25.621752   1.000000
    4       -4.569315   1.000000
    5        1.766650   1.000000
    6        1.843123   1.000000
    7        1.843123   1.000000
    8        2.661445   1.000000
    9        2.661445   1.000000
   10        4.811615   1.000000
   11        5.618032   1.000000
   12        5.618032   1.000000
   13        5.812317   1.000000
   14        7.531521   0.000000
   15        7.531521   0.000000
   16        7.950707   0.000000

  0.1538462E+00  0.6313027E-17 -0.4327713E-17  0.3641329E-02
    1      -25.623381   1.000000
    2      -25.621770   1.000000
    3      -25.621770   1.000000
    4       -4.423584   1.000000
    5        1.524068   1.000000
    6        1.812829   1.000000
    7        1.812829   1.000000
    8        2.718691   1.000000
    9        2.718691   1.000000
   10        4.206312   1.000000
   11        5.451730   1.000000
   12        5.451730   1.000000
   13        6.025706   1.000000
   14        7.459678   0.000000
   15        7.459678   0.000000
   16        8.557395   0.000000

  0.2307692E+00 -0.1555863E-17  0.4533833E-17  0.3641329E-02
    1      -25.625042   1.000000
    2      -25.621777   1.000000
    3      -25.621777   1.000000
    4       -4.200217   1.000000
    5        1.186125   1.000000
    6        1.785501   1.000000
    7        1.785501   1.000000
    8        2.776807   1.000000
    9        2.776807   1.000000
   10        3.609321   1.000000
   11        5.254804   1.000000
   12        5.254804   1.000000
   13        6.251582   1.000000
   14        7.503860   0.000000
   15        7.503860   0.000000
   16        9.096960   0.000000

  0.3076923E+00  0.1262605E-16 -0.8655426E-17  0.3641329E-02
    1      -25.626813   1.000000
    2      -25.621800   1.000000
    3      -25.621800   1.000000
    4       -3.933033   1.000000
    5        0.811159   1.000000
    6        1.772417   1.000000
    7        1.772417   1.000000
    8        2.810949   1.000000
    9        2.810949   1.000000
   10        3.133923   1.000000
   11        5.086087   1.000000
   12        5.086087   1.000000
   13        6.468366   1.000000
   14        7.629072   0.000000
   15        7.629072   0.000000
   16        8.825035   0.000000

  0.3846154E+00  0.1195865E-16 -0.6995362E-17  0.3641329E-02
    1      -25.628281   1.000000
    2      -25.621822   1.000000
    3      -25.621822   1.000000
    4       -3.678330   1.000000
    5        0.470677   1.000000
    6        1.772937   1.000000
    7        1.772937   1.000000
    8        2.816816   1.000000
    9        2.816816   1.000000
   10        2.819653   1.000000
   11        4.973967   1.000000
   12        4.973967   1.000000
   13        6.673469   1.000000
   14        7.788580   0.000000
   15        7.788580   0.000000
   16        8.236548   0.000000

  0.4615385E+00  0.7286728E-17 -0.1330786E-17  0.3641329E-02
    1      -25.629092   1.000000
    2      -25.621829   1.000000
    3      -25.621829   1.000000
    4       -3.515580   1.000000
    5        0.259619   1.000000
    6        1.777867   1.000000
    7        1.777867   1.000000
    8        2.667035   1.000000
    9        2.810476   1.000000
   10        2.810476   1.000000
   11        4.921018   1.000000
   12        4.921018   1.000000
   13        6.841529   1.000000
   14        7.834352   0.000000
   15        7.908926   0.000000
   16        7.908926   0.000000

  0.7692308E-01  0.7692308E-01  0.5187153E-18  0.2730997E-02
    1      -25.622180   1.000000
    2      -25.621834   1.000000
    3      -25.621834   1.000000
    4       -4.552807   1.000000
    5        1.663910   1.000000
    6        1.882526   1.000000
    7        1.882526   1.000000
    8        2.663606   1.000000
    9        2.665097   1.000000
   10        4.797948   1.000000
   11        5.504129   1.000000
   12        5.504129   1.000000
   13        5.950995   1.000000
   14        7.372604   0.000000
   15        7.914711   0.000000
   16        7.915460   0.000000

  0.1538462E+00  0.7692308E-01  0.6274583E-17  0.1092399E-01
    1      -25.623061   1.000000
    2      -25.621901   1.000000
    3      -25.621829   1.000000
    4       -4.439762   1.000000
    5        1.456530   1.000000
    6        1.867122   1.000000
    7        1.893739   1.000000
    8        2.697261   1.000000
    9        2.708784   1.000000
   10        4.377961   1.000000
   11        5.324188   1.000000
   12        5.336691   1.000000
   13        6.172846   1.000000
   14        7.259884   0.000000
   15        7.673212   0.000000
   16        8.286591   0.000000

  0.2307692E+00  0.7692308E-01 -0.2342399E-17  0.1092399E-01
    1      -25.624544   1.000000
    2      -25.621961   1.000000
    3      -25.621839   1.000000
    4       -4.243696   1.000000
    5        1.188365   1.000000
    6        1.808331   1.000000
    7        1.885300   1.000000
    8        2.748560   1.000000
    9        2.769203   1.000000
   10        3.806522   1.000000
   11        5.139896   1.000000
   12        5.153569   1.000000
   13        6.431841   1.000000
   14        7.292184   0.000000
   15        7.599962   0.000000
   16        8.732598   0.000000

  0.3076923E+00  0.7692308E-01  0.9998482E-17  0.1092399E-01
    1      -25.626240   1.000000
    2      -25.621997   1.000000
    3      -25.621891   1.000000
    4       -3.992677   1.000000
    5        0.877246   1.000000
    6        1.758479   1.000000
    7        1.870370   1.000000
    8        2.792364   1.000000
    9        2.811670   1.000000
   10        3.290292   1.000000
   11        4.986232   1.000000
   12        4.993240   1.000000
   13        6.606930   1.000000
   14        7.497249   0.000000
   15        7.635176   0.000000
   16        8.863930   0.000000

  0.3846154E+00  0.7692308E-01 -0.6670112E-17  0.1092399E-01
    1      -25.627763   1.000000
    2      -25.621983   1.000000
    3      -25.621970   1.000000
    4       -3.734406   1.000000
    5        0.568057   1.000000
    6        1.738370   1.000000
    7        1.852649   1.000000
    8        2.800662   1.000000
    9        2.824821   1.000000
   10        2.927561   1.000000
   11        4.857127   1.000000
   12        4.902485   1.000000
   13        6.740311   1.000000
   14        7.752659   0.000000
   15        7.760921   0.000000
   16        8.381852   0.000000

  0.4615385E+00  0.7692308E-01  0.3445333E-17  0.1092399E-01
    1      -25.628773   1.000000
    2      -25.622077   1.000000
    3      -25.621940   1.000000
    4       -3.539408   1.000000
    5        0.337772   1.000000
    6        1.747639   1.000000
    7        1.827093   1.000000
    8        2.682557   1.000000
    9        2.823732   1.000000
   10        2.834199   1.000000
   11        4.775161   1.000000
   12        4.865862   1.000000
   13        6.881436   0.998765
   14        7.870505   0.000000
   15        7.886007   0.000000
   16        8.014414   0.000000

 -0.4615385E+00  0.7692308E-01  0.6106906E-17  0.1092399E-01
    1      -25.629031   1.000000
    2      -25.622164   1.000000
    3      -25.621868   1.000000
    4       -3.483090   1.000000
    5        0.272237   1.000000
    6        1.777537   1.000000
    7        1.790148   1.000000
    8        2.632419   1.000000
    9        2.826420   1.000000
   10        2.828050   1.000000
   11        4.733271   1.000000
   12        4.877807   1.000000
   13        6.954658   0.000000
   14        7.724602   0.000000
   15        7.929821   0.000000
   16        8.075186   0.000000

 -0.3846154E+00  0.7692308E-01 -0.7082353E-17  0.1092399E-01
    1      -25.628492   1.000000
    2      -25.622220   1.000000
    3      -25.621792   1.000000
    4       -3.591994   1.000000
    5        0.402426   1.000000
    6        1.749068   1.000000
    7        1.817596   1.000000
    8        2.717176   1.000000
    9        2.838197   1.000000
   10        2.844487   1.000000
   11        4.721775   1.000000
   12        4.942050   1.000000
   13        6.860929   1.000000
   14        7.834467   0.000000
   15        7.884243   0.000000
   16        8.098608   0.000000

 -0.3076923E+00  0.7692308E-01  0.8980676E-17  0.1092399E-01
    1      -25.627282   1.000000
    2      -25.622231   1.000000
    3      -25.621727   1.000000
    4       -3.816929   1.000000
    5        0.674644   1.000000
    6        1.719189   1.000000
    7        1.859276   1.000000
    8        2.790708   1.000000
    9        2.837069   1.000000
   10        3.033761   1.000000
   11        4.743880   1.000000
   12        5.067372   1.000000
   13        6.730285   1.000000
   14        7.657446   0.000000
   15        7.752874   0.000000
   16        8.567622   0.000000

 -0.2307692E+00  0.7692308E-01  0.4693157E-17  0.1092399E-01
    1      -25.625661   1.000000
    2      -25.622178   1.000000
    3      -25.621677   1.000000
    4       -4.079565   1.000000
    5        1.003988   1.000000
    6        1.713996   1.000000
    7        1.896389   1.000000
    8        2.776591   1.000000
    9        2.810073   1.000000
   10        3.451001   1.000000
   11        4.818585   1.000000
   12        5.249758   1.000000
   13        6.586919   1.000000
   14        7.474276   0.000000
   15        7.605558   0.000000
   16        8.752705   0.000000

 -0.1538462E+00  0.7692308E-01 -0.2548520E-17  0.1092399E-01
    1      -25.624025   1.000000
    2      -25.622082   1.000000
    3      -25.621665   1.000000
    4       -4.316569   1.000000
    5        1.325656   1.000000
    6        1.738642   1.000000
    7        1.918755   1.000000
    8        2.731005   1.000000
    9        2.758951   1.000000
   10        3.988866   1.000000
   11        4.976396   1.000000
   12        5.453302   1.000000
   13        6.368341   1.000000
   14        7.346773   0.000000
   15        7.575471   0.000000
   16        8.373673   0.000000

 -0.7692308E-01  0.7692308E-01 -0.6310862E-17  0.5461994E-02
    1      -25.622770   1.000000
    2      -25.621924   1.000000
    3      -25.621694   1.000000
    4       -4.487413   1.000000
    5        1.596480   1.000000
    6        1.787423   1.000000
    7        1.903950   1.000000
    8        2.684064   1.000000
    9        2.700906   1.000000
   10        4.501182   1.000000
   11        5.270108   1.000000
   12        5.601937   1.000000
   13        6.068249   1.000000
   14        7.345404   0.000000
   15        7.645029   0.000000
   16        8.026491   0.000000

  0.1538462E+00  0.1538462E+00  0.1037431E-17  0.2730997E-02
    1      -25.623369   1.000000
    2      -25.622056   1.000000
    3      -25.622056   1.000000
    4       -4.363153   1.000000
    5        1.246403   1.000000
    6        1.956227   1.000000
    7        1.956227   1.000000
    8        2.672794   1.000000
    9        2.739322   1.000000
   10        4.315578   1.000000
   11        5.139132   1.000000
   12        5.139132   1.000000
   13        6.237235   1.000000
   14        7.155260   0.000000
   15        7.728136   0.000000
   16        8.402066   0.000000

  0.2307692E+00  0.1538462E+00  0.5893280E-17  0.1092399E-01
    1      -25.624454   1.000000
    2      -25.622178   1.000000
    3      -25.622145   1.000000
    4       -4.203690   1.000000
    5        1.021446   1.000000
    6        1.954889   1.000000
    7        1.987920   1.000000
    8        2.682071   1.000000
    9        2.796158   1.000000
   10        3.947261   1.000000
   11        4.920006   1.000000
   12        4.959511   1.000000
   13        6.502848   1.000000
   14        7.097596   0.000000
   15        7.633569   0.000000
   16        8.659848   0.000000

  0.3076923E+00  0.1538462E+00  0.1868349E-17  0.1092399E-01
    1      -25.625890   1.000000
    2      -25.622275   1.000000
    3      -25.622249   1.000000
    4       -3.984640   1.000000
    5        0.805052   1.000000
    6        1.884488   1.000000
    7        1.992465   1.000000
    8        2.726172   1.000000
    9        2.845112   1.000000
   10        3.463550   1.000000
   11        4.705807   1.000000
   12        4.825677   1.000000
   13        6.792497   1.000000
   14        7.250086   0.000000
   15        7.602102   0.000000
   16        8.771131   0.000000

  0.3846154E+00  0.1538462E+00  0.8504461E-17  0.1092399E-01
    1      -25.627258   1.000000
    2      -25.622488   1.000000
    3      -25.622256   1.000000
    4       -3.745916   1.000000
    5        0.608768   1.000000
    6        1.801050   1.000000
    7        1.973886   1.000000
    8        2.763401   1.000000
    9        2.865360   1.000000
   10        3.046016   1.000000
   11        4.542344   1.000000
   12        4.751999   1.000000
   13        6.842331   1.000000
   14        7.679512   0.000000
   15        7.710951   0.000000
   16        8.455331   0.000000

  0.4615385E+00  0.1538462E+00 -0.4684799E-17  0.1092399E-01
    1      -25.628233   1.000000
    2      -25.622749   1.000000
    3      -25.622182   1.000000
    4       -3.545630   1.000000
    5        0.454344   1.000000
    6        1.745579   1.000000
    7        1.929940   1.000000
    8        2.683198   1.000000
    9        2.868080   1.000000
   10        2.873389   1.000000
   11        4.429918   1.000000
   12        4.730420   1.000000
   13        6.907673   0.247176
   14        7.832942   0.000000
   15        7.988432   0.000000
   16        8.125047   0.000000

 -0.4615385E+00  0.1538462E+00  0.2128148E-16  0.1092399E-01
    1      -25.628611   1.000000
    2      -25.622990   1.000000
    3      -25.622053   1.000000
    4       -3.449693   1.000000
    5        0.383006   1.000000
    6        1.742969   1.000000
    7        1.862134   1.000000
    8        2.580535   1.000000
    9        2.873741   1.000000
   10        2.876856   1.000000
   11        4.354828   1.000000
   12        4.751628   1.000000
   13        7.023331   0.000000
   14        7.691625   0.000000
   15        7.946008   0.000000
   16        8.365767   0.000000

 -0.3846154E+00  0.1538462E+00  0.8092220E-17  0.1092399E-01
    1      -25.628322   1.000000
    2      -25.623133   1.000000
    3      -25.621904   1.000000
    4       -3.497167   1.000000
    5        0.428654   1.000000
    6        1.785066   1.000000
    7        1.799416   1.000000
    8        2.611147   1.000000
    9        2.883321   1.000000
   10        2.907676   1.000000
   11        4.296699   1.000000
   12        4.820481   1.000000
   13        7.065567   0.000000
   14        7.754784   0.000000
   15        7.905221   0.000000
   16        8.383913   0.000000

 -0.3076923E+00  0.1538462E+00  0.5301414E-17  0.1092399E-01
    1      -25.627453   1.000000
    2      -25.623130   1.000000
    3      -25.621761   1.000000
    4       -3.668233   1.000000
    5        0.581554   1.000000
    6        1.720545   1.000000
    7        1.890483   1.000000
    8        2.719594   1.000000
    9        2.881333   1.000000
   10        3.021722   1.000000
   11        4.254170   1.000000
   12        4.947374   1.000000
   13        7.044710   0.000000
   14        7.746686   0.000000
   15        7.973756   0.000000
   16        8.362745   0.000000

 -0.2307692E+00  0.1538462E+00 -0.7887846E-17  0.1092399E-01
    1      -25.626247   1.000000
    2      -25.622942   1.000000
    3      -25.621663   1.000000
    4       -3.901311   1.000000
    5        0.803921   1.000000
    6        1.686687   1.000000
    7        1.967300   1.000000
    8        2.764608   1.000000
    9        2.856252   1.000000
   10        3.331313   1.000000
   11        4.275103   1.000000
   12        5.127006   1.000000
   13        7.030573   0.000000
   14        7.554737   0.000000
   15        7.751275   0.000000
   16        8.499439   0.000000

 -0.1538462E+00  0.1538462E+00  0.1262605E-16  0.5461994E-02
    1      -25.625015   1.000000
    2      -25.622555   1.000000
    3      -25.621628   1.000000
    4       -4.132930   1.000000
    5        1.062379   1.000000
    6        1.692883   1.000000
    7        1.984826   1.000000
    8        2.751316   1.000000
    9        2.810892   1.000000
   10        3.714417   1.000000
   11        4.484370   1.000000
   12        5.320862   1.000000
   13        6.820970   1.000000
   14        7.396991   0.000000
   15        7.592951   0.000000
   16        8.361579   0.000000

  0.2307692E+00  0.2307692E+00  0.1556146E-17  0.2730997E-02
    1      -25.625073   1.000000
    2      -25.622373   1.000000
    3      -25.622373   1.000000
    4       -4.086332   1.000000
    5        0.831508   1.000000
    6        2.067375   1.000000
    7        2.067375   1.000000
    8        2.612187   1.000000
    9        2.852299   1.000000
   10        3.843438   1.000000
   11        4.776543   1.000000
   12        4.776543   1.000000
   13        6.400789   1.000000
   14        7.088195   0.000000
   15        7.559196   0.000000
   16        8.750233   0.000000

  0.3076923E+00  0.2307692E+00 -0.7233318E-17  0.1092399E-01
    1      -25.626130   1.000000
    2      -25.622574   1.000000
    3      -25.622507   1.000000
    4       -3.910725   1.000000
    5        0.676734   1.000000
    6        2.062815   1.000000
    7        2.109983   1.000000
    8        2.613068   1.000000
    9        2.909086   1.000000
   10        3.519949   1.000000
   11        4.549655   1.000000
   12        4.638789   1.000000
   13        6.605281   1.000000
   14        7.147304   0.000000
   15        7.492048   0.000000
   16        8.759301   0.000000

  0.3846154E+00  0.2307692E+00  0.8304533E-17  0.1092399E-01
    1      -25.627190   1.000000
    2      -25.622916   1.000000
    3      -25.622550   1.000000
    4       -3.709822   1.000000
    5        0.579453   1.000000
    6        1.959354   1.000000
    7        2.111578   1.000000
    8        2.680310   1.000000
    9        2.937245   1.000000
   10        3.127821   1.000000
   11        4.295546   1.000000
   12        4.567896   1.000000
   13        6.756049   1.000000
   14        7.529920   0.000000
   15        7.539279   0.000000
   16        8.507195   0.000000

  0.4615385E+00  0.2307692E+00  0.1396911E-16  0.1092399E-01
    1      -25.627899   1.000000
    2      -25.623400   1.000000
    3      -25.622488   1.000000
    4       -3.529355   1.000000
    5        0.543326   1.000000
    6        1.829807   1.000000
    7        2.067953   1.000000
    8        2.660455   1.000000
    9        2.892993   1.000000
   10        2.940790   1.000000
   11        4.099772   1.000000
   12        4.554264   1.000000
   13        6.805629   1.000000
   14        7.699268   0.000000
   15        8.057422   0.000000
   16        8.150496   0.000000

 -0.4615385E+00  0.2307692E+00 -0.2945355E-16  0.1092399E-01
    1      -25.628124   1.000000
    2      -25.623917   1.000000
    3      -25.622339   1.000000
    4       -3.419518   1.000000
    5        0.548709   1.000000
    6        1.729998   1.000000
    7        1.982340   1.000000
    8        2.505639   1.000000
    9        2.932686   1.000000
   10        2.941813   1.000000
   11        3.969306   1.000000
   12        4.581675   1.000000
   13        6.911467   0.111229
   14        7.761620   0.000000
   15        7.921918   0.000000
   16        8.472438   0.000000

 -0.3846154E+00  0.2307692E+00  0.2177008E-16  0.1092399E-01
    1      -25.627865   1.000000
    2      -25.624289   1.000000
    3      -25.622137   1.000000
    4       -3.416121   1.000000
    5        0.561671   1.000000
    6        1.725388   1.000000
    7        1.875559   1.000000
    8        2.485612   1.000000
    9        2.943449   1.000000
   10        3.001043   1.000000
   11        3.885963   1.000000
   12        4.652384   1.000000
   13        7.072769   0.000000
   14        7.625739   0.000000
   15        7.987899   0.000000
   16        8.500200   0.000000

 -0.3076923E+00  0.2307692E+00  0.1007753E-16  0.1092399E-01
    1      -25.627328   1.000000
    2      -25.624288   1.000000
    3      -25.621930   1.000000
    4       -3.520752   1.000000
    5        0.584587   1.000000
    6        1.776560   1.000000
    7        1.821938   1.000000
    8        2.589998   1.000000
    9        2.932432   1.000000
   10        3.085022   1.000000
   11        3.846202   1.000000
   12        4.776647   1.000000
   13        7.159063   0.000000
   14        7.839944   0.000000
   15        7.875355   0.000000
   16        8.428349   0.000000

 -0.2307692E+00  0.2307692E+00 -0.3111726E-17  0.5461994E-02
    1      -25.626778   1.000000
    2      -25.623777   1.000000
    3      -25.621761   1.000000
    4       -3.699372   1.000000
    5        0.658266   1.000000
    6        1.708962   1.000000
    7        1.931975   1.000000
    8        2.712927   1.000000
    9        2.901388   1.000000
   10        3.208841   1.000000
   11        3.929349   1.000000
   12        4.947493   1.000000
   13        7.175768   0.000000
   14        7.707579   0.000000
   15        8.077402   0.000000
   16        8.391808   0.000000

  0.3076923E+00  0.3076923E+00  0.2074861E-17  0.2730997E-02
    1      -25.626921   1.000000
    2      -25.622715   1.000000
    3      -25.622715   1.000000
    4       -3.785443   1.000000
    5        0.575755   1.000000
    6        2.196232   1.000000
    7        2.196232   1.000000
    8        2.501994   1.000000
    9        2.981633   1.000000
   10        3.345082   1.000000
   11        4.484508   1.000000
   12        4.484509   1.000000
   13        6.448002   1.000000
   14        7.150067   0.000000
   15        7.369733   0.000000
   16        8.718183   0.000000

  0.3846154E+00  0.3076923E+00 -0.4013880E-17  0.1092399E-01
    1      -25.627733   1.000000
    2      -25.622986   1.000000
    3      -25.622822   1.000000
    4       -3.634993   1.000000
    5        0.543275   1.000000
    6        2.147645   1.000000
    7        2.234177   1.000000
    8        2.541978   1.000000
    9        3.026358   1.000000
   10        3.043555   1.000000
   11        4.269588   1.000000
   12        4.398215   1.000000
   13        6.547900   1.000000
   14        7.320195   0.000000
   15        7.337480   0.000000
   16        8.522461   0.000000

  0.4615385E+00  0.3076923E+00  0.1526589E-16  0.1092399E-01
    1      -25.628211   1.000000
    2      -25.623519   1.000000
    3      -25.622804   1.000000
    4       -3.493566   1.000000
    5        0.590783   1.000000
    6        1.990092   1.000000
    7        2.212149   1.000000
    8        2.588138   1.000000
    9        2.814077   1.000000
   10        3.032565   1.000000
   11        3.980322   1.000000
   12        4.380755   1.000000
   13        6.635916   1.000000
   14        7.465398   0.000000
   15        7.819244   0.000000
   16        8.213208   0.000000

 -0.4615385E+00  0.3076923E+00 -0.5377238E-17  0.1092399E-01
    1      -25.628160   1.000000
    2      -25.624266   1.000000
    3      -25.622660   1.000000
    4       -3.395446   1.000000
    5        0.689163   1.000000
    6        1.809201   1.000000
    7        2.128623   1.000000
    8        2.398725   1.000000
    9        2.924133   1.000000
   10        3.022534   1.000000
   11        3.743714   1.000000
   12        4.411421   1.000000
   13        6.725806   1.000000
   14        7.760345   0.000000
   15        7.869291   0.000000
   16        8.413570   0.000000

 -0.3846154E+00  0.3076923E+00 -0.2746824E-16  0.1092399E-01
    1      -25.627649   1.000000
    2      -25.625011   1.000000
    3      -25.622431   1.000000
    4       -3.365161   1.000000
    5        0.742069   1.000000
    6        1.675790   1.000000
    7        2.005462   1.000000
    8        2.345201   1.000000
    9        3.006697   1.000000
   10        3.066835   1.000000
   11        3.602276   1.000000
   12        4.485701   1.000000
   13        6.890362   0.961194
   14        7.657507   0.000000
   15        8.050681   0.000000
   16        8.371378   0.000000

 -0.3076923E+00  0.3076923E+00  0.2525211E-16  0.5461994E-02
    1      -25.627196   1.000000
    2      -25.625169   1.000000
    3      -25.622167   1.000000
    4       -3.410560   1.000000
    5        0.672028   1.000000
    6        1.708145   1.000000
    7        1.878001   1.000000
    8        2.438434   1.000000
    9        2.977338   1.000000
   10        3.132499   1.000000
   11        3.614437   1.000000
   12        4.610614   1.000000
   13        7.092991   0.000000
   14        7.613363   0.000000
   15        8.006906   0.000000
   16        8.332407   0.000000

  0.3846154E+00  0.3846154E+00  0.2593577E-17  0.2730997E-02
    1      -25.628470   1.000000
    2      -25.623000   1.000000
    3      -25.623000   1.000000
    4       -3.540174   1.000000
    5        0.555178   1.000000
    6        2.313212   1.000000
    7        2.313212   1.000000
    8        2.384489   1.000000
    9        2.812408   1.000000
   10        3.097777   1.000000
   11        4.285074   1.000000
   12        4.285074   1.000000
   13        6.438146   1.000000
   14        7.197691   0.000000
   15        7.203219   0.000000
   16        8.482856   0.000000

  0.4615385E+00  0.3846154E+00 -0.3262691E-17  0.1092399E-01
    1      -25.628886   1.000000
    2      -25.623275   1.000000
    3      -25.623044   1.000000
    4       -3.448890   1.000000
    5        0.633401   1.000000
    6        2.172203   1.000000
    7        2.327839   1.000000
    8        2.455575   1.000000
    9        2.619259   1.000000
   10        3.119965   1.000000
   11        4.099174   1.000000
   12        4.248383   1.000000
   13        6.485564   1.000000
   14        7.223497   0.000000
   15        7.386595   0.000000
   16        8.290758   0.000000

 -0.4615385E+00  0.3846154E+00 -0.6011180E-18  0.1092399E-01
    1      -25.628779   1.000000
    2      -25.623878   1.000000
    3      -25.622943   1.000000
    4       -3.382206   1.000000
    5        0.751613   1.000000
    6        1.987666   1.000000
    7        2.268118   1.000000
    8        2.278365   1.000000
    9        2.778455   1.000000
   10        3.101010   1.000000
   11        3.811691   1.000000
   12        4.275902   1.000000
   13        6.564132   1.000000
   14        7.442559   0.000000
   15        7.840489   0.000000
   16        8.142849   0.000000

 -0.3846154E+00  0.3846154E+00 -0.2269212E-16  0.5461994E-02
    1      -25.628200   1.000000
    2      -25.624641   1.000000
    3      -25.622724   1.000000
    4       -3.352967   1.000000
    5        0.824273   1.000000
    6        1.770059   1.000000
    7        2.148574   1.000000
    8        2.244136   1.000000
    9        2.975196   1.000000
   10        3.061274   1.000000
   11        3.594660   1.000000
   12        4.355492   1.000000
   13        6.694030   1.000000
   14        7.794187   0.000000
   15        7.828618   0.000000
   16        8.227520   0.000000

  0.4615385E+00  0.4615385E+00  0.3112292E-17  0.2730997E-02
    1      -25.629356   1.000000
    2      -25.623157   1.000000
    3      -25.623157   1.000000
    4       -3.409264   1.000000
    5        0.691446   1.000000
    6        2.265847   1.000000
    7        2.384055   1.000000
    8        2.384055   1.000000
    9        2.425157   1.000000
   10        3.167640   1.000000
   11        4.184815   1.000000
   12        4.184815   1.000000
   13        6.422892   1.000000
   14        7.104707   0.000000
   15        7.169619   0.000000
   16        8.305836   0.000000

 -0.4615385E+00  0.4615385E+00  0.1457346E-16  0.5461994E-02
    1      -25.629312   1.000000
    2      -25.623389   1.000000
    3      -25.623130   1.000000
    4       -3.385769   1.000000
    5        0.743436   1.000000
    6        2.200079   1.000000
    7        2.218305   1.000000
    8        2.362713   1.000000
    9        2.579707   1.000000
   10        3.157059   1.000000
   11        4.042383   1.000000
   12        4.196643   1.000000
   13        6.461670   1.000000
   14        7.182304   0.000000
   15        7.375852   0.000000
   16        8.215217   0.000000

  0.2307692E+00  0.1538462E+00  0.7692308E-01  0.1092399E-01
    1      -25.623942   1.000000
    2      -25.622193   1.000000
    3      -25.621811   1.000000
    4       -4.302565   1.000000
    5        1.224899   1.000000
    6        1.827325   1.000000
    7        1.964489   1.000000
    8        2.712427   1.000000
    9        2.759358   1.000000
   10        4.074745   1.000000
   11        4.879337   1.000000
   12        5.313612   1.000000
   13        6.470008   1.000000
   14        7.187230   0.000000
   15        7.651489   0.000000
   16        8.360125   0.000000

  0.3076923E+00  0.1538462E+00  0.7692308E-01  0.2184797E-01
    1      -25.625279   1.000000
    2      -25.622443   1.000000
    3      -25.621799   1.000000
    4       -4.094261   1.000000
    5        0.971927   1.000000
    6        1.775983   1.000000
    7        1.978335   1.000000
    8        2.748151   1.000000