       N       E                     dE             d eps       ncg     rms          rms(c)
DAV:   1     0.132291099602E+03    0.13229E+03   -0.13908E+04  2712   0.171E+03
DAV:   2    -0.192620710458E+02   -0.15155E+03   -0.14958E+03  3360   0.323E+02
DAV:   3    -0.245937267119E+02   -0.53317E+01   -0.52787E+01  3672   0.521E+01
DAV:   4    -0.246697282127E+02   -0.76002E-01   -0.75773E-01  3304   0.697E+00
DAV:   5    -0.246718199975E+02   -0.20918E-02   -0.20907E-02  3760   0.103E+00    0.323E+01
DAV:   6    -0.235925410774E+02    0.10793E+01   -0.27925E+00  3528   0.917E+00    0.213E+01
DAV:   7    -0.234353969059E+02    0.15714E+00   -0.12058E+00  3728   0.741E+00    0.319E+00
DAV:   8    -0.234091515883E+02    0.26245E-01   -0.24937E-01  3320   0.348E+00    0.133E+00
DAV:   9    -0.234072387132E+02    0.19129E-02   -0.29744E-02  3712   0.124E+00    0.214E-01
DAV:  10    -0.234067612101E+02    0.47750E-03   -0.56704E-03  3560   0.309E-01    0.112E-01
DAV:  11    -0.234066714573E+02    0.89753E-04   -0.54674E-04  3352   0.143E-01    0.392E-02
DAV:  12    -0.234066745114E+02   -0.30541E-05   -0.17881E-05  3776   0.285E-02    0.205E-02
DAV:  13    -0.234066743481E+02    0.16325E-06   -0.18364E-06  3568   0.756E-03    0.657E-03
DAV:  14    -0.234066744641E+02   -0.11598E-06   -0.25291E-07  2760   0.266E-03    0.294E-03
DAV:  15    -0.234066744204E+02    0.43688E-07   -0.59094E-08  2136   0.126E-03
   1 F= -.23406674E+02 E0= -.23406586E+02  d E =-.176447E-03
