 vasp.6.0.8 29Jun18 (build Jun 13 2019 12:54:44) complex

 executed on      IFC18_CrayMPICH date 2021.12.05  14:21:51
 running   64 mpi-ranks, with    1 threads/rank
 distrk:  each k-point on   16 cores,    4 groups
 distr:  one band on NCORES_PER_BAND=   4 cores,    4 groups


--------------------------------------------------------------------------------------------------------


 INCAR:
 POTCAR:    PAW_PBE Hf_pv 06Sep2000
 POTCAR:    PAW_PBE Sb 06Sep2000
 POTCAR:    PAW_PBE Pt 04Feb2005
 POTCAR:    PAW_PBE Hf_pv 06Sep2000
   VRHFIN =Hf: 5p6s5d
   LEXCH  = PE
   EATOM  =   860.9206 eV,   63.2759 Ry

   TITEL  = PAW_PBE Hf_pv 06Sep2000
   LULTRA =        F    use ultrasoft PP ?
   IUNSCR =        1    unscreen: 0-lin 1-nonlin 2-no
   RPACOR =    2.500    partial core radius
   POMASS =  178.490; ZVAL   =   10.000    mass and valenz
   RCORE  =    2.600    outmost cutoff radius
   RWIGS  =    3.050; RWIGS  =    1.614    wigner-seitz radius (au A)
   ENMAX  =  220.334; ENMIN  =  165.250 eV
   RCLOC  =    2.212    cutoff for local pot
   LCOR   =        T    correct aug charges
   LPAW   =        T    paw PP
   EAUG   =  380.878
   DEXC   =    0.000
   RMAX   =    2.665    core radius for proj-oper
   RAUG   =    1.300    factor for augmentation sphere
   RDEP   =    2.681    radius for radial grids
   RDEPT  =    2.139    core radius for aug-charge

   Atomic configuration
   15 entries
     n  l   j            E        occ.
     1  0  0.50    -65259.4397   2.0000
     2  0  0.50    -11157.9884   2.0000
     2  1  1.50     -9795.2114   6.0000
     3  0  0.50     -2541.4060   2.0000
     3  1  1.50     -2134.4772   6.0000
     3  2  2.50     -1653.5420  10.0000
     4  0  0.50      -510.9577   2.0000
     4  1  1.50      -377.5024   6.0000
     4  2  2.50      -205.2086  10.0000
     4  3  3.50       -15.4906  14.0000
     5  0  0.50       -65.6020   2.0000
     5  1  1.50       -34.2798   6.0000
     5  2  2.50        -1.9877   3.0000
     6  0  0.50        -4.7357   1.0000
     5  3  2.50        -1.3606   0.0000
   Description
     l       E           TYP  RCUT    TYP  RCUT
     1    -34.2797769     23  2.500
     1    -35.6403595     23  2.500
     2     -1.9876655     23  2.500
     2      0.0744675     23  2.500
     0     -4.7356889     23  2.600
     0      3.2364748     23  2.600
  local pseudopotential read in
  partial core-charges read in
  partial kinetic energy density read in
  atomic valenz-charges read in
  non local Contribution for L=           1  read in
    real space projection operators read in
  non local Contribution for L=           1  read in
    real space projection operators read in
  non local Contribution for L=           2  read in
    real space projection operators read in
  non local Contribution for L=           2  read in
    real space projection operators read in
  non local Contribution for L=           0  read in
    real space projection operators read in
  non local Contribution for L=           0  read in
    real space projection operators read in
    PAW grid and wavefunctions read in

   number of l-projection  operators is LMAX  =           6
   number of lm-projection operators is LMMAX =          18

 POTCAR:    PAW_PBE Sb 06Sep2000
   VRHFIN =Sb: s2p3
   LEXCH  = PE
   EATOM  =   149.9515 eV,   11.0211 Ry

   TITEL  = PAW_PBE Sb 06Sep2000
   LULTRA =        F    use ultrasoft PP ?
   IUNSCR =        1    unscreen: 0-lin 1-nonlin 2-no
   RPACOR =    2.200    partial core radius
   POMASS =  121.750; ZVAL   =    5.000    mass and valenz
   RCORE  =    2.300    outmost cutoff radius
   RWIGS  =    2.980; RWIGS  =    1.577    wigner-seitz radius (au A)
   ENMAX  =  172.069; ENMIN  =  129.052 eV
   ICORE  =        3    local potential
   LCOR   =        T    correct aug charges
   LPAW   =        T    paw PP
   EAUG   =  380.513
   DEXC   =    0.000
   RMAX   =    2.346    core radius for proj-oper
   RAUG   =    1.300    factor for augmentation sphere
   RDEP   =    2.360    radius for radial grids
   RDEPT  =    2.192    core radius for aug-charge

   Atomic configuration
   13 entries
     n  l   j            E        occ.
     1  0  0.50    -30298.2797   2.0000
     2  0  0.50     -4610.2252   2.0000
     2  1  1.50     -4138.3407   6.0000
     3  0  0.50      -903.8815   2.0000
     3  1  1.50      -750.1337   6.0000
     3  2  2.50      -515.7092  10.0000
     4  0  0.50      -148.8034   2.0000
     4  1  1.50      -101.7581   6.0000
     4  2  2.50       -33.5048  10.0000
     5  0  0.50       -12.8298   2.0000
     5  1  0.50        -4.8276   3.0000
     5  2  1.50        -4.0817   0.0000
     4  3  2.50        -4.0817   0.0000
   Description
     l       E           TYP  RCUT    TYP  RCUT
     0    -12.8297861     23  2.300
     0     13.6058260     23  2.300
     1     -4.8275512     23  2.300
     1     -0.7245443     23  2.300
     2     -4.0817478     23  2.300
     3     -1.3605826     23  2.300
  local pseudopotential read in
  partial core-charges read in
  partial kinetic energy density read in
  atomic valenz-charges read in
  non local Contribution for L=           0  read in
    real space projection operators read in
  non local Contribution for L=           0  read in
    real space projection operators read in
  non local Contribution for L=           1  read in
    real space projection operators read in
  non local Contribution for L=           1  read in
    real space projection operators read in
  non local Contribution for L=           2  read in
    real space projection operators read in
    PAW grid and wavefunctions read in

   number of l-projection  operators is LMAX  =           5
   number of lm-projection operators is LMMAX =          13

 POTCAR:    PAW_PBE Pt 04Feb2005
   VRHFIN =Pt: s1d9
   LEXCH  = PE
   EATOM  =   729.1176 eV,   53.5886 Ry

   TITEL  = PAW_PBE Pt 04Feb2005
   LULTRA =        F    use ultrasoft PP ?
   IUNSCR =        1    unscreen: 0-lin 1-nonlin 2-no
   RPACOR =    2.330    partial core radius
   POMASS =  195.080; ZVAL   =   10.000    mass and valenz
   RCORE  =    2.600    outmost cutoff radius
   RWIGS  =    2.750; RWIGS  =    1.455    wigner-seitz radius (au A)
   ENMAX  =  230.283; ENMIN  =  172.712 eV
   ICORE  =        3    local potential
   LCOR   =        T    correct aug charges
   LPAW   =        T    paw PP
   EAUG   =  358.966
   DEXC   =    0.000
   RMAX   =    2.658    core radius for proj-oper
   RAUG   =    1.300    factor for augmentation sphere
   RDEP   =    2.761    radius for radial grids
   RDEPT  =    2.203    core radius for aug-charge

   Atomic configuration
   16 entries
     n  l   j            E        occ.
     1  0  0.50    -78401.1885   2.0000
     2  0  0.50    -13770.7750   2.0000
     2  1  1.50    -11931.0468   6.0000
     3  0  0.50     -3234.7234   2.0000
     3  1  1.50     -2699.2216   6.0000
     3  2  2.50     -2119.5714  10.0000
     4  0  0.50      -695.1528   2.0000
     4  1  1.50      -519.6034   6.0000
     4  2  2.50      -306.6786  10.0000
     4  3  3.50       -70.1041  14.0000
     5  0  0.50      -101.7747   2.0000
     5  1  1.50       -55.9873   6.0000
     5  2  2.50        -6.1423   9.0000
     6  0  0.50        -5.6573   1.0000
     6  1  1.50        -6.8029   0.0000
     5  3  2.50        -1.3606   0.0000
   Description
     l       E           TYP  RCUT    TYP  RCUT
     2     -6.1423404     23  2.500
     2     -7.5029230     23  2.500
     0     -5.6573207     23  2.500
     0      0.7416693     23  2.500
     1     -2.7211652     23  2.600
     1     20.4087390     23  2.600
     3     -1.3605826     23  2.500
  local pseudopotential read in
  partial core-charges read in
  partial kinetic energy density read in
  atomic valenz-charges read in
  non local Contribution for L=           2  read in
    real space projection operators read in
  non local Contribution for L=           2  read in
    real space projection operators read in
  non local Contribution for L=           0  read in
    real space projection operators read in
  non local Contribution for L=           0  read in
    real space projection operators read in
  non local Contribution for L=           1  read in
    real space projection operators read in
  non local Contribution for L=           1  read in
    real space projection operators read in
    PAW grid and wavefunctions read in

   number of l-projection  operators is LMAX  =           6
   number of lm-projection operators is LMMAX =          18


 -----------------------------------------------------------------------------
|                                                                             |
|  ADVICE TO THIS USER RUNNING 'VASP/VAMP'   (HEAR YOUR MASTER'S VOICE ...):  |
|                                                                             |
|      You enforced a specific xc-type in the INCAR file,                     |
|      a different type was found on the POTCAR file                          |
|          I HOPE YOU KNOW, WHAT YOU ARE  DOING                               |
|                                                                             |
 -----------------------------------------------------------------------------

  PAW_PBE Hf_pv 06Sep2000               :
 energy of atom  1       EATOM= -860.9206
 kinetic energy error for atom=    0.0004 (will be added to EATOM!!)
  PAW_PBE Sb 06Sep2000                  :
 energy of atom  2       EATOM= -149.9515
 kinetic energy error for atom=    0.0002 (will be added to EATOM!!)
  PAW_PBE Pt 04Feb2005                  :
 energy of atom  3       EATOM= -729.1176
 kinetic energy error for atom=    0.0010 (will be added to EATOM!!)


 POSCAR: Hf1 Sb1 Pt1
  positions in direct lattice
  No initial velocities read in
 exchange correlation table for  LEXCH =       14
   RHO(1)=    0.500       N(1)  =     2000
   RHO(2)=  100.500       N(2)  =     4000



--------------------------------------------------------------------------------------------------------


 ion  position               nearest neighbor table
   1  0.750  0.750  0.750-   3 2.91   3 2.91   3 2.91   3 2.91   2 3.36   2 3.36   2 3.36   2 3.36
                             2 3.36   2 3.36
   2  0.250  0.250  0.250-   3 2.91   3 2.91   3 2.91   3 2.91   1 3.36   1 3.36   1 3.36   1 3.36
                             1 3.36   1 3.36
   3  0.000  0.000  0.000-   1 2.91   1 2.91   1 2.91   2 2.91   2 2.91   2 2.91   2 2.91   1 2.91


  LATTYP: Found a face centered cubic cell.
 ALAT       =     6.7171240122

  Lattice vectors:

 A1 = (   0.0000000000,   3.3585620061,   3.3585620061)
 A2 = (   3.3585620061,   0.0000000000,   3.3585620061)
 A3 = (   3.3585620061,   3.3585620061,   0.0000000000)


Analysis of symmetry for initial positions (statically):
=====================================================================
 Subroutine PRICEL returns:
 Original cell was already a primitive cell.


 Routine SETGRP: Setting up the symmetry group for a
 face centered cubic supercell.


 Subroutine GETGRP returns: Found 24 space group operations
 (whereof 24 operations were pure point group operations)
 out of a pool of 48 trial point group operations.


The static configuration has the point symmetry T_d .


Analysis of symmetry for dynamics (positions and initial velocities):
=====================================================================
 Subroutine PRICEL returns:
 Original cell was already a primitive cell.


 Routine SETGRP: Setting up the symmetry group for a
 face centered cubic supercell.


 Subroutine GETGRP returns: Found 24 space group operations
 (whereof 24 operations were pure point group operations)
 out of a pool of 48 trial point group operations.


The dynamic configuration has the point symmetry T_d .


 Subroutine INISYM returns: Found 24 space group operations
 (whereof 24 operations are pure point group operations),
 and found     1 'primitive' translations


----------------------------------------------------------------------------------------

                                     Primitive cell

  volume of cell :      75.7687

  direct lattice vectors                    reciprocal lattice vectors
     0.000000000  3.358562006  3.358562006    -0.148873238  0.148873238  0.148873238
     3.358562006  0.000000000  3.358562006     0.148873238 -0.148873238  0.148873238
     3.358562006  3.358562006  0.000000000     0.148873238  0.148873238 -0.148873238

  length of vectors
     4.749723939  4.749723939  4.749723939     0.257856012  0.257856012  0.257856012

  position of ions in fractional coordinates (direct lattice)
     0.750000000  0.750000000  0.750000000
     0.250000000  0.250000000  0.250000000
     0.000000000  0.000000000  0.000000000

  ion indices of the primitive-cell ions
   primitive index   ion index
                 1           1
                 2           2
                 3           3

----------------------------------------------------------------------------------------



 KPOINTS: KPOINTS

Automatic generation of k-mesh.
Space group operators:
 irot       det(A)        alpha          n_x          n_y          n_z        tau_x        tau_y        tau_z
    1     1.000000     0.000000     1.000000     0.000000     0.000000     0.000000     0.000000     0.000000
    2     1.000000   120.000000    -0.577350    -0.577350    -0.577350     0.000000     0.000000     0.000000
    3     1.000000   120.000000     0.577350     0.577350     0.577350     0.000000     0.000000     0.000000
    4    -1.000000    90.000000    -0.000000    -0.000000    -1.000000     0.000000     0.000000     0.000000
    5    -1.000000   180.000000     0.000000     0.707107     0.707107     0.000000     0.000000     0.000000
    6    -1.000000    90.000000    -0.000000     1.000000    -0.000000     0.000000     0.000000     0.000000
    7     1.000000   180.000000    -0.000000    -0.000000     1.000000     0.000000     0.000000     0.000000
    8     1.000000   120.000000    -0.577350     0.577350     0.577350     0.000000     0.000000     0.000000
    9     1.000000   120.000000    -0.577350     0.577350    -0.577350     0.000000     0.000000     0.000000
   10    -1.000000    90.000000     0.000000     0.000000     1.000000     0.000000     0.000000     0.000000
   11    -1.000000    90.000000    -1.000000     0.000000    -0.000000     0.000000     0.000000     0.000000
   12    -1.000000   180.000000     0.707107     0.000000     0.707107     0.000000     0.000000     0.000000
   13     1.000000   120.000000     0.577350    -0.577350     0.577350     0.000000     0.000000     0.000000
   14     1.000000   120.000000    -0.577350    -0.577350     0.577350     0.000000     0.000000     0.000000
   15     1.000000   180.000000     1.000000     0.000000     0.000000     0.000000     0.000000     0.000000
   16    -1.000000    90.000000     0.000000    -1.000000     0.000000     0.000000     0.000000     0.000000
   17    -1.000000   180.000000     0.707107     0.707107    -0.000000     0.000000     0.000000     0.000000
   18    -1.000000    90.000000     1.000000     0.000000     0.000000     0.000000     0.000000     0.000000
   19     1.000000   120.000000     0.577350    -0.577350    -0.577350     0.000000     0.000000     0.000000
   20     1.000000   180.000000     0.000000     1.000000    -0.000000     0.000000     0.000000     0.000000
   21     1.000000   120.000000     0.577350     0.577350    -0.577350     0.000000     0.000000     0.000000
   22    -1.000000   180.000000    -0.000000    -0.707107     0.707107     0.000000     0.000000     0.000000
   23    -1.000000   180.000000     0.707107    -0.707107     0.000000     0.000000     0.000000     0.000000
   24    -1.000000   180.000000    -0.707107     0.000000     0.707107     0.000000     0.000000     0.000000

 Subroutine IBZKPT returns following result:
 ===========================================

 Found     84 irreducible k-points:

 Following reciprocal coordinates:
            Coordinates               Weight
  0.000000  0.000000  0.000000      1.000000
  0.076923 -0.000000  0.000000      8.000000
  0.153846  0.000000 -0.000000      8.000000
  0.230769 -0.000000  0.000000      8.000000
  0.307692  0.000000 -0.000000      8.000000
  0.384615  0.000000 -0.000000      8.000000
  0.461538  0.000000 -0.000000      8.000000
  0.076923  0.076923  0.000000      6.000000
  0.153846  0.076923  0.000000     24.000000
  0.230769  0.076923 -0.000000     24.000000
  0.307692  0.076923  0.000000     24.000000
  0.384615  0.076923 -0.000000     24.000000
  0.461538  0.076923  0.000000     24.000000
 -0.461538  0.076923  0.000000     24.000000
 -0.384615  0.076923 -0.000000     24.000000
 -0.307692  0.076923  0.000000     24.000000
 -0.230769  0.076923  0.000000     24.000000
 -0.153846  0.076923 -0.000000     24.000000
 -0.076923  0.076923 -0.000000     12.000000
  0.153846  0.153846  0.000000      6.000000
  0.230769  0.153846  0.000000     24.000000
  0.307692  0.153846  0.000000     24.000000
  0.384615  0.153846  0.000000     24.000000
  0.461538  0.153846 -0.000000     24.000000
 -0.461538  0.153846  0.000000     24.000000
 -0.384615  0.153846  0.000000     24.000000
 -0.307692  0.153846  0.000000     24.000000
 -0.230769  0.153846 -0.000000     24.000000
 -0.153846  0.153846  0.000000     12.000000
  0.230769  0.230769  0.000000      6.000000
  0.307692  0.230769 -0.000000     24.000000
  0.384615  0.230769  0.000000     24.000000
  0.461538  0.230769  0.000000     24.000000
 -0.461538  0.230769 -0.000000     24.000000
 -0.384615  0.230769  0.000000     24.000000
 -0.307692  0.230769  0.000000     24.000000
 -0.230769  0.230769 -0.000000     12.000000
  0.307692  0.307692  0.000000      6.000000
  0.384615  0.307692 -0.000000     24.000000
  0.461538  0.307692  0.000000     24.000000
 -0.461538  0.307692 -0.000000     24.000000
 -0.384615  0.307692 -0.000000     24.000000
 -0.307692  0.307692  0.000000     12.000000
  0.384615  0.384615  0.000000      6.000000
  0.461538  0.384615 -0.000000     24.000000
 -0.461538  0.384615 -0.000000     24.000000
 -0.384615  0.384615 -0.000000     12.000000
  0.461538  0.461538  0.000000      6.000000
 -0.461538  0.461538  0.000000     12.000000
  0.230769  0.153846  0.076923     24.000000
  0.307692  0.153846  0.076923     48.000000
  0.384615  0.153846  0.076923     48.000000
  0.461538  0.153846  0.076923     48.000000
 -0.461538  0.153846  0.076923     48.000000
  0.307692  0.230769  0.076923     24.000000
  0.384615  0.230769  0.076923     48.000000
  0.461538  0.230769  0.076923     48.000000
 -0.461538  0.230769  0.076923     48.000000
 -0.384615  0.230769  0.076923     48.000000
 -0.307692  0.230769  0.076923     48.000000
 -0.230769  0.230769  0.076923     48.000000
 -0.153846  0.230769  0.076923     24.000000
  0.384615  0.307692  0.076923     24.000000
  0.461538  0.307692  0.076923     48.000000
 -0.461538  0.307692  0.076923     48.000000
 -0.384615  0.307692  0.076923     48.000000
 -0.307692  0.307692  0.076923     48.000000
 -0.230769  0.307692  0.076923     24.000000
  0.461538  0.384615  0.076923     24.000000
 -0.461538  0.384615  0.076923     48.000000
 -0.384615  0.384615  0.076923     48.000000
 -0.307692  0.384615  0.076923     24.000000
 -0.461538  0.461538  0.076923     24.000000
 -0.384615  0.461538  0.076923     24.000000
  0.461538  0.307692  0.153846     24.000000
 -0.461538  0.307692  0.153846     48.000000
 -0.384615  0.307692  0.153846     48.000000
 -0.461538  0.384615  0.153846     24.000000
 -0.384615  0.384615  0.153846     48.000000
 -0.307692  0.384615  0.153846     48.000000
 -0.230769  0.384615  0.153846     24.000000
 -0.384615  0.461538  0.153846     24.000000
 -0.307692  0.461538  0.153846     24.000000
 -0.307692  0.461538  0.230769     24.000000

 Following cartesian coordinates:
            Coordinates               Weight
  0.000000  0.000000  0.000000      1.000000
 -0.012101  0.012101  0.012101      8.000000
 -0.024203  0.024203  0.024203      8.000000
 -0.036304  0.036304  0.036304      8.000000
 -0.048405  0.048405  0.048405      8.000000
 -0.060507  0.060507  0.060507      8.000000
 -0.072608  0.072608  0.072608      8.000000
 -0.000000  0.000000  0.024203      6.000000
 -0.012101  0.012101  0.036304     24.000000
 -0.024203  0.024203  0.048405     24.000000
 -0.036304  0.036304  0.060507     24.000000
 -0.048405  0.048405  0.072608     24.000000
 -0.060507  0.060507  0.084709     24.000000
  0.084709 -0.084709 -0.060507     24.000000
  0.072608 -0.072608 -0.048405     24.000000
  0.060507 -0.060507 -0.036304     24.000000
  0.048405 -0.048405 -0.024203     24.000000
  0.036304 -0.036304 -0.012101     24.000000
  0.024203 -0.024203  0.000000     12.000000
  0.000000 -0.000000  0.048405      6.000000
 -0.012101  0.012101  0.060507     24.000000
 -0.024203  0.024203  0.072608     24.000000
 -0.036304  0.036304  0.084709     24.000000
 -0.048405  0.048405  0.096811     24.000000
  0.096811 -0.096811 -0.048405     24.000000
  0.084709 -0.084709 -0.036304     24.000000
  0.072608 -0.072608 -0.024203     24.000000
  0.060507 -0.060507 -0.012101     24.000000
  0.048405 -0.048405 -0.000000     12.000000
 -0.000000  0.000000  0.072608      6.000000
 -0.012101  0.012101  0.084709     24.000000
 -0.024203  0.024203  0.096811     24.000000
 -0.036304  0.036304  0.108912     24.000000
  0.108912 -0.108912 -0.036304     24.000000
  0.096811 -0.096811 -0.024203     24.000000
  0.084709 -0.084709 -0.012101     24.000000
  0.072608 -0.072608 -0.000000     12.000000
  0.000000 -0.000000  0.096811      6.000000
 -0.012101  0.012101  0.108912     24.000000
 -0.024203  0.024203  0.121014     24.000000
  0.121014 -0.121014 -0.024203     24.000000
  0.108912 -0.108912 -0.012101     24.000000
  0.096811 -0.096811 -0.000000     12.000000
 -0.000000  0.000000  0.121014      6.000000
 -0.012101  0.012101  0.133115     24.000000
  0.133115 -0.133115 -0.012101     24.000000
  0.121014 -0.121014 -0.000000     12.000000
  0.000000  0.000000  0.145216      6.000000
  0.145216 -0.145216 -0.000000     12.000000
  0.000000  0.024203  0.048405     24.000000
 -0.012101  0.036304  0.060507     48.000000
 -0.024203  0.048405  0.072608     48.000000
 -0.036304  0.060507  0.084709     48.000000
  0.108912 -0.084709 -0.060507     48.000000
  0.000000  0.024203  0.072608     24.000000
 -0.012101  0.036304  0.084709     48.000000
 -0.024203  0.048405  0.096811     48.000000
  0.121014 -0.096811 -0.048405     48.000000
  0.108912 -0.084709 -0.036304     48.000000
  0.096811 -0.072608 -0.024203     48.000000
  0.084709 -0.060507 -0.012101     48.000000
  0.072608 -0.048405 -0.000000     24.000000
 -0.000000  0.024203  0.096811     24.000000
 -0.012101  0.036304  0.108912     48.000000
  0.133115 -0.108912 -0.036304     48.000000
  0.121014 -0.096811 -0.024203     48.000000
  0.108912 -0.084709 -0.012101     48.000000
  0.096811 -0.072608 -0.000000     24.000000
  0.000000  0.024203  0.121014     24.000000
  0.145216 -0.121014 -0.024203     48.000000
  0.133115 -0.108912 -0.012101     48.000000
  0.121014 -0.096811  0.000000     24.000000
  0.157318 -0.133115 -0.012101     24.000000
  0.145216 -0.121014 -0.000000     24.000000
  0.000000  0.048405  0.096811     24.000000
  0.145216 -0.096811 -0.048405     48.000000
  0.133115 -0.084709 -0.036304     48.000000
  0.157318 -0.108912 -0.036304     24.000000
  0.145216 -0.096811 -0.024203     48.000000
  0.133115 -0.084709 -0.012101     48.000000
  0.121014 -0.072608  0.000000     24.000000
  0.157318 -0.108912 -0.012101     24.000000
  0.145216 -0.096811  0.000000     24.000000
  0.157318 -0.084709 -0.012101     24.000000



--------------------------------------------------------------------------------------------------------




 Dimension of arrays:
   k-points           NKPTS =     84   k-points in BZ     NKDIM =     84   number of bands    NBANDS=     16
   number of dos      NEDOS =    301   number of ions     NIONS =      3
   non local maximal  LDIM  =      6   non local SUM 2l+1 LMDIM =     18
   total plane-waves  NPLWV =  74088
   max r-space proj   IRMAX =      1   max aug-charges    IRDMAX= 473935
   dimension x,y,z NGX =    42 NGY =   42 NGZ =   42
   dimension x,y,z NGXF=    84 NGYF=   84 NGZF=   84
   support grid    NGXF=   168 NGYF=  168 NGZF=  168
   ions per type =               1   1   1
   NGX,Y,Z   is equivalent  to a cutoff of  14.70, 14.70, 14.70 a.u.
   NGXF,Y,Z  is equivalent  to a cutoff of  29.40, 29.40, 29.40 a.u.

 SYSTEM =  unknown system
 POSCAR =  Hf1 Sb1 Pt1

 Startparameter for this run:
   NWRITE =      2    write-flag & timer
   PREC   = acc       normal or accurate (medium, high low for compatibility)
   ISTART =      0    job   : 0-new  1-cont  2-samecut
   ICHARG =      2    charge: 1-file 2-atom 10-const
   ISPIN  =      1    spin polarized calculation?
   LNONCOLLINEAR =      F non collinear calculations
   LSORBIT =      F    spin-orbit coupling
   INIWAV =      1    electr: 0-lowe 1-rand  2-diag
   LASPH  =      F    aspherical Exc in radial PAW
   METAGGA=      F    non-selfconsistent MetaGGA calc.

 Electronic Relaxation 1
   ENCUT  =  700.0 eV  51.45 Ry    7.17 a.u.  10.25 10.25 10.25*2*pi/ulx,y,z
   ENINI  =  700.0     initial cutoff
   ENAUG  =  380.9 eV  augmentation charge cutoff
   NELM   =     60;   NELMIN=  5; NELMDL= -5     # of ELM steps
   EDIFF  = 0.1E-06   stopping-criterion for ELM
   LREAL  =      F    real-space projection
   NLSPLINE    = F    spline interpolate recip. space projectors
   LCOMPAT=      F    compatible to vasp.4.4
   GGA_COMPAT  = T    GGA compatible to vasp.4.4-vasp.4.6
   LMAXPAW     = -100 max onsite density
   LMAXMIX     =    2 max onsite mixed and CHGCAR
   VOSKOWN=      0    Vosko Wilk Nusair interpolation
   ROPT   =    0.00000   0.00000   0.00000
 Ionic relaxation
   EDIFFG = 0.1E-05   stopping-criterion for IOM
   NSW    =      0    number of steps for IOM
   NBLOCK =      1;   KBLOCK =      1    inner block; outer block
   IBRION =     -1    ionic relax: 0-MD 1-quasi-New 2-CG
   NFREE  =      0    steps in history (QN), initial steepest desc. (CG)
   ISIF   =      3    stress and relaxation
   IWAVPR =     10    prediction:  0-non 1-charg 2-wave 3-comb
   ISYM   =      2    0-nonsym 1-usesym 2-fastsym
   LCORR  =      T    Harris-Foulkes like correction to forces

   POTIM  = 0.5000    time-step for ionic-motion
   TEIN   =    0.0    initial temperature
   TEBEG  =    0.0;   TEEND  =   0.0 temperature during run
   SMASS  =  -3.00    Nose mass-parameter (am)
   estimated Nose-frequenzy (Omega)   =  0.10E-29 period in steps = 0.13E+47 mass=  -0.516E-27a.u.
   SCALEE = 1.0000    scale energy and forces
   NPACO  =    256;   APACO  = 16.0  distance and # of slots for P.C.
   PSTRESS=    0.0 pullay stress

  Mass of Ions in am
   POMASS = 178.49121.75195.08
  Ionic Valenz
   ZVAL   =  10.00  5.00 10.00
  Atomic Wigner-Seitz radii
   RWIGS  =  -1.00 -1.00 -1.00
  virtual crystal weights
   VCA    =   1.00  1.00  1.00
   NELECT =      25.0000    total number of electrons
   NUPDOWN=      -1.0000    fix difference up-down

 DOS related values:
   EMIN   =  10.00;   EMAX   =-10.00  energy-range for DOS
   EFERMI =   0.00
   ISMEAR =     0;   SIGMA  =   0.01  broadening in eV -4-tet -1-fermi 0-gaus

 Electronic relaxation 2 (details)
   IALGO  =     38    algorithm
   LDIAG  =      T    sub-space diagonalisation (order eigenvalues)
   LSUBROT=      F    optimize rotation matrix (better conditioning)
   TURBO    =      0    0=normal 1=particle mesh
   IRESTART =      0    0=no restart 2=restart with 2 vectors
   NREBOOT  =      0    no. of reboots
   NMIN     =      0    reboot dimension
   EREF     =   0.00    reference energy to select bands
   IMIX   =      4    mixing-type and parameters
     AMIX     =   0.40;   BMIX     =  1.00
     AMIX_MAG =   1.60;   BMIX_MAG =  1.00
     AMIN     =   0.10
     WC   =   100.;   INIMIX=   1;  MIXPRE=   1;  MAXMIX= -45

 Intra band minimization:
   WEIMIN = 0.0000     energy-eigenvalue tresh-hold
   EBREAK =  0.16E-08  absolut break condition
   DEPER  =   0.30     relativ break condition

   TIME   =   0.40     timestep for ELM

  volume/ion in A,a.u.               =      25.26       170.44
  Fermi-wavevector in a.u.,A,eV,Ry     =   1.131249  2.137750 17.411700  1.279724
  Thomas-Fermi vector in A             =   2.267947

 Write flags
   LWAVE        =      F    write WAVECAR
   LDOWNSAMPLE  =      F    k-point downsampling of WAVECAR
   LCHARG       =      F    write CHGCAR
   LVTOT        =      F    write LOCPOT, total local potential
   LVHAR        =      F    write LOCPOT, Hartree potential only
   LELF         =      F    write electronic localiz. function (ELF)
   LORBIT       =      0    0 simple, 1 ext, 2 COOP (PROOUT), +10 PAW based schemes


 Dipole corrections
   LMONO  =      F    monopole corrections only (constant potential shift)
   LDIPOL =      F    correct potential (dipole corrections)
   IDIPOL =      0    1-x, 2-y, 3-z, 4-all directions
   EPSILON=  1.0000000 bulk dielectric constant

 Exchange correlation treatment:
   GGA     =    PS    GGA type
   LEXCH   =    14    internal setting for exchange type
   VOSKOWN=      0    Vosko Wilk Nusair interpolation
   LHFCALC =     F    Hartree Fock is set to
   LHFONE  =     F    Hartree Fock one center treatment
   AEXX    =    0.0000 exact exchange contribution

 Linear response parameters
   LEPSILON=     F    determine dielectric tensor
   LRPA    =     F    only Hartree local field effects (RPA)
   LNABLA  =     F    use nabla operator in PAW spheres
   LVEL    =     F    velocity operator in full k-point grid
   LINTERFAST=   F  fast interpolation
   KINTER  =     0    interpolate to denser k-point grid
   CSHIFT  =0.1000    complex shift for real part using Kramers Kronig
   OMEGAMAX=  -1.0    maximum frequency
   DEG_THRESHOLD= 0.2000000E-02 threshold for treating states as degnerate
   RTIME   =   -0.100 relaxation time in fs
  (WPLASMAI=    0.000 imaginary part of plasma frequency in eV, 0.658/RTIME)
   DFIELD  = 0.0000000 0.0000000 0.0000000 field for delta impulse in time

 Orbital magnetization related:
   ORBITALMAG=     F  switch on orbital magnetization
   LCHIMAG   =     F  perturbation theory with respect to B field
   DQ        =  0.001000  dq finite difference perturbation B field
   LLRAUG    =     F  two centre corrections for induced B field



--------------------------------------------------------------------------------------------------------


 Static calculation
 charge density and potential will be updated during run
 non-spin polarized calculation
 Variant of blocked Davidson
 Davidson routine will perform the subspace rotation
 perform sub-space diagonalisation
    after iterative eigenvector-optimisation
 modified Broyden-mixing scheme, WC =      100.0
 initial mixing is a Kerker type mixing with AMIX =  0.4000 and BMIX =      1.0000
 Hartree-type preconditioning will be used
 using additional bands            3
 reciprocal scheme for non local part
 use partial core corrections
 calculate Harris-corrections to forces
   (improved forces if not selfconsistent)
 use gradient corrections
 use of overlap-Matrix (Vanderbilt PP)
 Gauss-broadening in eV      SIGMA  =   0.01


--------------------------------------------------------------------------------------------------------


  energy-cutoff  :      700.00
  volume of cell :       75.77
      direct lattice vectors                 reciprocal lattice vectors
     0.000000000  3.358562006  3.358562006    -0.148873238  0.148873238  0.148873238
     3.358562006  0.000000000  3.358562006     0.148873238 -0.148873238  0.148873238
     3.358562006  3.358562006  0.000000000     0.148873238  0.148873238 -0.148873238

  length of vectors
     4.749723939  4.749723939  4.749723939     0.257856012  0.257856012  0.257856012



 k-points in units of 2pi/SCALE and weight: KPOINTS
   0.00000000  0.00000000  0.00000000       0.000
  -0.01210135  0.01210135  0.01210135       0.004
  -0.02420271  0.02420271  0.02420271       0.004
  -0.03630406  0.03630406  0.03630406       0.004
  -0.04840541  0.04840541  0.04840541       0.004
  -0.06050677  0.06050677  0.06050677       0.004
  -0.07260812  0.07260812  0.07260812       0.004
  -0.00000000  0.00000000  0.02420271       0.003
  -0.01210135  0.01210135  0.03630406       0.011
  -0.02420271  0.02420271  0.04840541       0.011
  -0.03630406  0.03630406  0.06050677       0.011
  -0.04840541  0.04840541  0.07260812       0.011
  -0.06050677  0.06050677  0.08470948       0.011
   0.08470948 -0.08470948 -0.06050677       0.011
   0.07260812 -0.07260812 -0.04840541       0.011
   0.06050677 -0.06050677 -0.03630406       0.011
   0.04840541 -0.04840541 -0.02420271       0.011
   0.03630406 -0.03630406 -0.01210135       0.011
   0.02420271 -0.02420271  0.00000000       0.005
   0.00000000 -0.00000000  0.04840541       0.003
  -0.01210135  0.01210135  0.06050677       0.011
  -0.02420271  0.02420271  0.07260812       0.011
  -0.03630406  0.03630406  0.08470948       0.011
  -0.04840541  0.04840541  0.09681083       0.011
   0.09681083 -0.09681083 -0.04840541       0.011
   0.08470948 -0.08470948 -0.03630406       0.011
   0.07260812 -0.07260812 -0.02420271       0.011
   0.06050677 -0.06050677 -0.01210135       0.011
   0.04840541 -0.04840541 -0.00000000       0.005
  -0.00000000  0.00000000  0.07260812       0.003
  -0.01210135  0.01210135  0.08470948       0.011
  -0.02420271  0.02420271  0.09681083       0.011
  -0.03630406  0.03630406  0.10891218       0.011
   0.10891218 -0.10891218 -0.03630406       0.011
   0.09681083 -0.09681083 -0.02420271       0.011
   0.08470948 -0.08470948 -0.01210135       0.011
   0.07260812 -0.07260812 -0.00000000       0.005
   0.00000000 -0.00000000  0.09681083       0.003
  -0.01210135  0.01210135  0.10891218       0.011
  -0.02420271  0.02420271  0.12101354       0.011
   0.12101354 -0.12101354 -0.02420271       0.011
   0.10891218 -0.10891218 -0.01210135       0.011
   0.09681083 -0.09681083 -0.00000000       0.005
  -0.00000000  0.00000000  0.12101354       0.003
  -0.01210135  0.01210135  0.13311489       0.011
   0.13311489 -0.13311489 -0.01210135       0.011
   0.12101354 -0.12101354 -0.00000000       0.005
   0.00000000  0.00000000  0.14521624       0.003
   0.14521624 -0.14521624 -0.00000000       0.005
   0.00000000  0.02420271  0.04840541       0.011
  -0.01210135  0.03630406  0.06050677       0.022
  -0.02420271  0.04840541  0.07260812       0.022
  -0.03630406  0.06050677  0.08470948       0.022
   0.10891218 -0.08470948 -0.06050677       0.022
   0.00000000  0.02420271  0.07260812       0.011
  -0.01210135  0.03630406  0.08470948       0.022
  -0.02420271  0.04840541  0.09681083       0.022
   0.12101354 -0.09681083 -0.04840541       0.022
   0.10891218 -0.08470948 -0.03630406       0.022
   0.09681083 -0.07260812 -0.02420271       0.022
   0.08470948 -0.06050677 -0.01210135       0.022
   0.07260812 -0.04840541 -0.00000000       0.011
  -0.00000000  0.02420271  0.09681083       0.011
  -0.01210135  0.03630406  0.10891218       0.022
   0.13311489 -0.10891218 -0.03630406       0.022
   0.12101354 -0.09681083 -0.02420271       0.022
   0.10891218 -0.08470948 -0.01210135       0.022
   0.09681083 -0.07260812 -0.00000000       0.011
   0.00000000  0.02420271  0.12101354       0.011
   0.14521624 -0.12101354 -0.02420271       0.022
   0.13311489 -0.10891218 -0.01210135       0.022
   0.12101354 -0.09681083  0.00000000       0.011
   0.15731760 -0.13311489 -0.01210135       0.011
   0.14521624 -0.12101354 -0.00000000       0.011
   0.00000000  0.04840541  0.09681083       0.011
   0.14521624 -0.09681083 -0.04840541       0.022
   0.13311489 -0.08470948 -0.03630406       0.022
   0.15731760 -0.10891218 -0.03630406       0.011
   0.14521624 -0.09681083 -0.02420271       0.022
   0.13311489 -0.08470948 -0.01210135       0.022
   0.12101354 -0.07260812  0.00000000       0.011
   0.15731760 -0.10891218 -0.01210135       0.011
   0.14521624 -0.09681083  0.00000000       0.011
   0.15731760 -0.08470948 -0.01210135       0.011

 k-points in reciprocal lattice and weights: KPOINTS
   0.00000000  0.00000000  0.00000000       0.000
   0.07692308 -0.00000000  0.00000000       0.004
   0.15384615  0.00000000 -0.00000000       0.004
   0.23076923 -0.00000000  0.00000000       0.004
   0.30769231  0.00000000 -0.00000000       0.004
   0.38461538  0.00000000 -0.00000000       0.004
   0.46153846  0.00000000 -0.00000000       0.004
   0.07692308  0.07692308  0.00000000       0.003
   0.15384615  0.07692308  0.00000000       0.011
   0.23076923  0.07692308 -0.00000000       0.011
   0.30769231  0.07692308  0.00000000       0.011
   0.38461538  0.07692308 -0.00000000       0.011
   0.46153846  0.07692308  0.00000000       0.011
  -0.46153846  0.07692308  0.00000000       0.011
  -0.38461538  0.07692308 -0.00000000       0.011
  -0.30769231  0.07692308  0.00000000       0.011
  -0.23076923  0.07692308  0.00000000       0.011
  -0.15384615  0.07692308 -0.00000000       0.011
  -0.07692308  0.07692308 -0.00000000       0.005
   0.15384615  0.15384615  0.00000000       0.003
   0.23076923  0.15384615  0.00000000       0.011
   0.30769231  0.15384615  0.00000000       0.011
   0.38461538  0.15384615  0.00000000       0.011
   0.46153846  0.15384615 -0.00000000       0.011
  -0.46153846  0.15384615  0.00000000       0.011
  -0.38461538  0.15384615  0.00000000       0.011
  -0.30769231  0.15384615  0.00000000       0.011
  -0.23076923  0.15384615 -0.00000000       0.011
  -0.15384615  0.15384615  0.00000000       0.005
   0.23076923  0.23076923  0.00000000       0.003
   0.30769231  0.23076923 -0.00000000       0.011
   0.38461538  0.23076923  0.00000000       0.011
   0.46153846  0.23076923  0.00000000       0.011
  -0.46153846  0.23076923 -0.00000000       0.011
  -0.38461538  0.23076923  0.00000000       0.011
  -0.30769231  0.23076923  0.00000000       0.011
  -0.23076923  0.23076923 -0.00000000       0.005
   0.30769231  0.30769231  0.00000000       0.003
   0.38461538  0.30769231 -0.00000000       0.011
   0.46153846  0.30769231  0.00000000       0.011
  -0.46153846  0.30769231 -0.00000000       0.011
  -0.38461538  0.30769231 -0.00000000       0.011
  -0.30769231  0.30769231  0.00000000       0.005
   0.38461538  0.38461538  0.00000000       0.003
   0.46153846  0.38461538 -0.00000000       0.011
  -0.46153846  0.38461538 -0.00000000       0.011
  -0.38461538  0.38461538 -0.00000000       0.005
   0.46153846  0.46153846  0.00000000       0.003
  -0.46153846  0.46153846  0.00000000       0.005
   0.23076923  0.15384615  0.07692308       0.011
   0.30769231  0.15384615  0.07692308       0.022
   0.38461538  0.15384615  0.07692308       0.022
   0.46153846  0.15384615  0.07692308       0.022
  -0.46153846  0.15384615  0.07692308       0.022
   0.30769231  0.23076923  0.07692308       0.011
   0.38461538  0.23076923  0.07692308       0.022
   0.46153846  0.23076923  0.07692308       0.022
  -0.46153846  0.23076923  0.07692308       0.022
  -0.38461538  0.23076923  0.07692308       0.022
  -0.30769231  0.23076923  0.07692308       0.022
  -0.23076923  0.23076923  0.07692308       0.022
  -0.15384615  0.23076923  0.07692308       0.011
   0.38461538  0.30769231  0.07692308       0.011
   0.46153846  0.30769231  0.07692308       0.022
  -0.46153846  0.30769231  0.07692308       0.022
  -0.38461538  0.30769231  0.07692308       0.022
  -0.30769231  0.30769231  0.07692308       0.022
  -0.23076923  0.30769231  0.07692308       0.011
   0.46153846  0.38461538  0.07692308       0.011
  -0.46153846  0.38461538  0.07692308       0.022
  -0.38461538  0.38461538  0.07692308       0.022
  -0.30769231  0.38461538  0.07692308       0.011
  -0.46153846  0.46153846  0.07692308       0.011
  -0.38461538  0.46153846  0.07692308       0.011
   0.46153846  0.30769231  0.15384615       0.011
  -0.46153846  0.30769231  0.15384615       0.022
  -0.38461538  0.30769231  0.15384615       0.022
  -0.46153846  0.38461538  0.15384615       0.011
  -0.38461538  0.38461538  0.15384615       0.022
  -0.30769231  0.38461538  0.15384615       0.022
  -0.23076923  0.38461538  0.15384615       0.011
  -0.38461538  0.46153846  0.15384615       0.011
  -0.30769231  0.46153846  0.15384615       0.011
  -0.30769231  0.46153846  0.23076923       0.011

 position of ions in fractional coordinates (direct lattice)
   0.75000000  0.75000000  0.75000000
   0.25000000  0.25000000  0.25000000
   0.00000000  0.00000000  0.00000000

 position of ions in cartesian coordinates  (Angst):
   5.03784301  5.03784301  5.03784301
   1.67928100  1.67928100  1.67928100
   0.00000000  0.00000000  0.00000000



--------------------------------------------------------------------------------------------------------


 k-point  1 :   0.0000 0.0000 0.0000  plane waves:    3143
 k-point  2 :   0.0769-0.0000 0.0000  plane waves:    3179
 k-point  3 :   0.1538 0.0000-0.0000  plane waves:    3200
 k-point  4 :   0.2308-0.0000 0.0000  plane waves:    3179
 k-point  5 :   0.3077 0.0000-0.0000  plane waves:    3185
 k-point  6 :   0.3846 0.0000-0.0000  plane waves:    3187
 k-point  7 :   0.4615 0.0000-0.0000  plane waves:    3190
 k-point  8 :   0.0769 0.0769 0.0000  plane waves:    3183
 k-point  9 :   0.1538 0.0769 0.0000  plane waves:    3196
 k-point 10 :   0.2308 0.0769-0.0000  plane waves:    3194
 k-point 11 :   0.3077 0.0769 0.0000  plane waves:    3189
 k-point 12 :   0.3846 0.0769-0.0000  plane waves:    3186
 k-point 13 :   0.4615 0.0769 0.0000  plane waves:    3188
 k-point 14 :  -0.4615 0.0769 0.0000  plane waves:    3185
 k-point 15 :  -0.3846 0.0769-0.0000  plane waves:    3192
 k-point 16 :  -0.3077 0.0769 0.0000  plane waves:    3188
 k-point 17 :  -0.2308 0.0769 0.0000  plane waves:    3188
 k-point 18 :  -0.1538 0.0769-0.0000  plane waves:    3196
 k-point 19 :  -0.0769 0.0769-0.0000  plane waves:    3183
 k-point 20 :   0.1538 0.1538 0.0000  plane waves:    3195
 k-point 21 :   0.2308 0.1538 0.0000  plane waves:    3183
 k-point 22 :   0.3077 0.1538 0.0000  plane waves:    3196
 k-point 23 :   0.3846 0.1538 0.0000  plane waves:    3181
 k-point 24 :   0.4615 0.1538-0.0000  plane waves:    3190
 k-point 25 :  -0.4615 0.1538 0.0000  plane waves:    3180
 k-point 26 :  -0.3846 0.1538 0.0000  plane waves:    3182
 k-point 27 :  -0.3077 0.1538 0.0000  plane waves:    3186
 k-point 28 :  -0.2308 0.1538-0.0000  plane waves:    3186
 k-point 29 :  -0.1538 0.1538 0.0000  plane waves:    3196
 k-point 30 :   0.2308 0.2308 0.0000  plane waves:    3191
 k-point 31 :   0.3077 0.2308-0.0000  plane waves:    3187
 k-point 32 :   0.3846 0.2308 0.0000  plane waves:    3190
 k-point 33 :   0.4615 0.2308 0.0000  plane waves:    3190
 k-point 34 :  -0.4615 0.2308-0.0000  plane waves:    3172
 k-point 35 :  -0.3846 0.2308 0.0000  plane waves:    3180
 k-point 36 :  -0.3077 0.2308 0.0000  plane waves:    3176
 k-point 37 :  -0.2308 0.2308-0.0000  plane waves:    3168
 k-point 38 :   0.3077 0.3077 0.0000  plane waves:    3182
 k-point 39 :   0.3846 0.3077-0.0000  plane waves:    3183
 k-point 40 :   0.4615 0.3077 0.0000  plane waves:    3191
 k-point 41 :  -0.4615 0.3077-0.0000  plane waves:    3189
 k-point 42 :  -0.3846 0.3077-0.0000  plane waves:    3192
 k-point 43 :  -0.3077 0.3077 0.0000  plane waves:    3194
 k-point 44 :   0.3846 0.3846 0.0000  plane waves:    3194
 k-point 45 :   0.4615 0.3846-0.0000  plane waves:    3200
 k-point 46 :  -0.4615 0.3846-0.0000  plane waves:    3196
 k-point 47 :  -0.3846 0.3846-0.0000  plane waves:    3200
 k-point 48 :   0.4615 0.4615 0.0000  plane waves:    3214
 k-point 49 :  -0.4615 0.4615 0.0000  plane waves:    3206
 k-point 50 :   0.2308 0.1538 0.0769  plane waves:    3195
 k-point 51 :   0.3077 0.1538 0.0769  plane waves:    3188
 k-point 52 :   0.3846 0.1538 0.0769  plane waves:    3179
 k-point 53 :   0.4615 0.1538 0.0769  plane waves:    3183
 k-point 54 :  -0.4615 0.1538 0.0769  plane waves:    3187
 k-point 55 :   0.3077 0.2308 0.0769  plane waves:    3185
 k-point 56 :   0.3846 0.2308 0.0769  plane waves:    3183
 k-point 57 :   0.4615 0.2308 0.0769  plane waves:    3189
 k-point 58 :  -0.4615 0.2308 0.0769  plane waves:    3187
 k-point 59 :  -0.3846 0.2308 0.0769  plane waves:    3184
 k-point 60 :  -0.3077 0.2308 0.0769  plane waves:    3187
 k-point 61 :  -0.2308 0.2308 0.0769  plane waves:    3176
 k-point 62 :  -0.1538 0.2308 0.0769  plane waves:    3188
 k-point 63 :   0.3846 0.3077 0.0769  plane waves:    3176
 k-point 64 :   0.4615 0.3077 0.0769  plane waves:    3188
 k-point 65 :  -0.4615 0.3077 0.0769  plane waves:    3185
 k-point 66 :  -0.3846 0.3077 0.0769  plane waves:    3191
 k-point 67 :  -0.3077 0.3077 0.0769  plane waves:    3181
 k-point 68 :  -0.2308 0.3077 0.0769  plane waves:    3183
 k-point 69 :   0.4615 0.3846 0.0769  plane waves:    3188
 k-point 70 :  -0.4615 0.3846 0.0769  plane waves:    3184
 k-point 71 :  -0.3846 0.3846 0.0769  plane waves:    3189
 k-point 72 :  -0.3077 0.3846 0.0769  plane waves:    3188
 k-point 73 :  -0.4615 0.4615 0.0769  plane waves:    3204
 k-point 74 :  -0.3846 0.4615 0.0769  plane waves:    3194
 k-point 75 :   0.4615 0.3077 0.1538  plane waves:    3176
 k-point 76 :  -0.4615 0.3077 0.1538  plane waves:    3185
 k-point 77 :  -0.3846 0.3077 0.1538  plane waves:    3182
 k-point 78 :  -0.4615 0.3846 0.1538  plane waves:    3184
 k-point 79 :  -0.3846 0.3846 0.1538  plane waves:    3182
 k-point 80 :  -0.3077 0.3846 0.1538  plane waves:    3181
 k-point 81 :  -0.2308 0.3846 0.1538  plane waves:    3190
 k-point 82 :  -0.3846 0.4615 0.1538  plane waves:    3185
 k-point 83 :  -0.3077 0.4615 0.1538  plane waves:    3194
 k-point 84 :  -0.3077 0.4615 0.2308  plane waves:    3187

 maximum and minimum number of plane-waves per node :       810      767

 maximum number of plane-waves:      3214
 maximum index in each direction:
   IXMAX=   10   IYMAX=   10   IZMAX=   10
   IXMIN=  -10   IYMIN=  -10   IZMIN=  -10


 parallel 3D FFT for wavefunctions:
    minimum data exchange during FFTs selected (reduces bandwidth)
 parallel 3D FFT for charge:
    minimum data exchange during FFTs selected (reduces bandwidth)


 total amount of memory used by VASP MPI-rank0    73647. kBytes
=======================================================================

   base      :      30000. kBytes
   nonl-proj :      29359. kBytes
   fftplans  :       6281. kBytes
   grid      :       3541. kBytes
   one-center:         15. kBytes
   wavefun   :       4451. kBytes

     INWAV:  cpu time    0.0002: real time    0.0006
 Broyden mixing: mesh for mixing (old mesh)
   NGX = 21   NGY = 21   NGZ = 21
  (NGX  = 84   NGY  = 84   NGZ  = 84)
  gives a total of   9261 points

 initial charge density was supplied:
 charge density of overlapping atoms calculated
 number of electron      25.0000000 magnetization
 keeping initial charge density in first step


--------------------------------------------------------------------------------------------------------


 Maximum index for augmentation-charges        32148 (set IRDMAX)


--------------------------------------------------------------------------------------------------------


 First call to EWALD:  gamma=   0.419
 Maximum number of real-space cells 3x 3x 3
 Maximum number of reciprocal cells 3x 3x 3

    FEWALD:  cpu time    0.0056: real time    0.0065


--------------------------------------- Iteration      1(   1)  ---------------------------------------


    POTLOK:  cpu time    0.0629: real time    0.1530
    SETDIJ:  cpu time    0.0823: real time    0.0827
     EDDAV:  cpu time    0.9733: real time    0.9877
       DOS:  cpu time    0.0036: real time    0.0042
    --------------------------------------------
      LOOP:  cpu time    1.1223: real time    1.2281

 eigenvalue-minimisations  :  2712
 total energy-change (2. order) : 0.1322911E+03  (-0.1390777E+04)
 number of electron      25.0000000 magnetization
 augmentation part       25.0000000 magnetization

 Free energy of the ion-electron system (eV)
  ---------------------------------------------------
  alpha Z        PSCENC =        89.91508711
  Ewald energy   TEWEN  =     -1480.41321122
  -Hartree energ DENC   =      -355.15429187
  -exchange      EXHF   =         0.00000000
  -V(xc)+E(xc)   XCENC  =       -20.30545266
  PAW double counting   =      1514.36848356    -1421.27055995
  entropy T*S    EENTRO =        -0.00006331
  eigenvalues    EBANDS =        64.04659674
  atomic energy  EATOM  =      1741.10451121
  Solvation  Ediel_sol  =         0.00000000
  ---------------------------------------------------
  free energy    TOTEN  =       132.29109960 eV

  energy without entropy =      132.29116292  energy(sigma->0) =      132.29113126


--------------------------------------------------------------------------------------------------------




--------------------------------------- Iteration      1(   2)  ---------------------------------------


     EDDAV:  cpu time    1.1685: real time    1.1859
       DOS:  cpu time    0.0025: real time    0.0028
    --------------------------------------------
      LOOP:  cpu time    1.1711: real time    1.1899

 eigenvalue-minimisations  :  3360
 total energy-change (2. order) :-0.1515532E+03  (-0.1495837E+03)
 number of electron      25.0000000 magnetization
 augmentation part       25.0000000 magnetization

 Free energy of the ion-electron system (eV)
  ---------------------------------------------------
  alpha Z        PSCENC =        89.91508711
  Ewald energy   TEWEN  =     -1480.41321122
  -Hartree energ DENC   =      -355.15429187
  -exchange      EXHF   =         0.00000000
  -V(xc)+E(xc)   XCENC  =       -20.30545266
  PAW double counting   =      1514.36848356    -1421.27055995
  entropy T*S    EENTRO =        -0.00013220
  eigenvalues    EBANDS =       -87.50650502
  atomic energy  EATOM  =      1741.10451121
  Solvation  Ediel_sol  =         0.00000000
  ---------------------------------------------------
  free energy    TOTEN  =       -19.26207105 eV

  energy without entropy =      -19.26193885  energy(sigma->0) =      -19.26200495


--------------------------------------------------------------------------------------------------------




--------------------------------------- Iteration      1(   3)  ---------------------------------------


     EDDAV:  cpu time    1.2641: real time    1.2945
       DOS:  cpu time    0.0026: real time    0.0029
    --------------------------------------------
      LOOP:  cpu time    1.2667: real time    1.2975

 eigenvalue-minimisations  :  3672
 total energy-change (2. order) :-0.5331656E+01  (-0.5278663E+01)
 number of electron      25.0000000 magnetization
 augmentation part       25.0000000 magnetization

 Free energy of the ion-electron system (eV)
  ---------------------------------------------------
  alpha Z        PSCENC =        89.91508711
  Ewald energy   TEWEN  =     -1480.41321122
  -Hartree energ DENC   =      -355.15429187
  -exchange      EXHF   =         0.00000000
  -V(xc)+E(xc)   XCENC  =       -20.30545266
  PAW double counting   =      1514.36848356    -1421.27055995
  entropy T*S    EENTRO =        -0.00024209
  eigenvalues    EBANDS =       -92.83805080
  atomic energy  EATOM  =      1741.10451121
  Solvation  Ediel_sol  =         0.00000000
  ---------------------------------------------------
  free energy    TOTEN  =       -24.59372671 eV

  energy without entropy =      -24.59348462  energy(sigma->0) =      -24.59360567


--------------------------------------------------------------------------------------------------------




--------------------------------------- Iteration      1(   4)  ---------------------------------------


     EDDAV:  cpu time    1.1656: real time    1.1980
       DOS:  cpu time    0.0024: real time    0.0026
    --------------------------------------------
      LOOP:  cpu time    1.1680: real time    1.2003

 eigenvalue-minimisations  :  3304
 total energy-change (2. order) :-0.7600150E-01  (-0.7577330E-01)
 number of electron      25.0000000 magnetization
 augmentation part       25.0000000 magnetization

 Free energy of the ion-electron system (eV)
  ---------------------------------------------------
  alpha Z        PSCENC =        89.91508711
  Ewald energy   TEWEN  =     -1480.41321122
  -Hartree energ DENC   =      -355.15429187
  -exchange      EXHF   =         0.00000000
  -V(xc)+E(xc)   XCENC  =       -20.30545266
  PAW double counting   =      1514.36848356    -1421.27055995
  entropy T*S    EENTRO =        -0.00008108
  eigenvalues    EBANDS =       -92.91421331
  atomic energy  EATOM  =      1741.10451121
  Solvation  Ediel_sol  =         0.00000000
  ---------------------------------------------------
  free energy    TOTEN  =       -24.66972821 eV

  energy without entropy =      -24.66964714  energy(sigma->0) =      -24.66968767


--------------------------------------------------------------------------------------------------------




--------------------------------------- Iteration      1(   5)  ---------------------------------------


     EDDAV:  cpu time    1.2888: real time    1.3245
       DOS:  cpu time    0.0025: real time    0.0027
    CHARGE:  cpu time    0.2675: real time    0.2682
    MIXING:  cpu time    0.0067: real time    0.0069
    --------------------------------------------
      LOOP:  cpu time    1.5655: real time    1.6025

 eigenvalue-minimisations  :  3760
 total energy-change (2. order) :-0.2091785E-02  (-0.2090700E-02)
 number of electron      25.0000000 magnetization
 augmentation part        4.7674701 magnetization

 Broyden mixing:
  rms(total) = 0.32324E+01    rms(broyden)= 0.32324E+01
  rms(prec ) = 0.35435E+01
  weight for this iteration     100.00

 Free energy of the ion-electron system (eV)
  ---------------------------------------------------
  alpha Z        PSCENC =        89.91508711
  Ewald energy   TEWEN  =     -1480.41321122
  -Hartree energ DENC   =      -355.15429187
  -exchange      EXHF   =         0.00000000
  -V(xc)+E(xc)   XCENC  =       -20.30545266
  PAW double counting   =      1514.36848356    -1421.27055995
  entropy T*S    EENTRO =        -0.00007340
  eigenvalues    EBANDS =       -92.91631278
  atomic energy  EATOM  =      1741.10451121
  Solvation  Ediel_sol  =         0.00000000
  ---------------------------------------------------
  free energy    TOTEN  =       -24.67182000 eV

  energy without entropy =      -24.67174660  energy(sigma->0) =      -24.67178330


--------------------------------------------------------------------------------------------------------




--------------------------------------- Iteration      1(   6)  ---------------------------------------


    POTLOK:  cpu time    0.0566: real time    0.0765
    SETDIJ:  cpu time    0.0774: real time    0.0775
     EDDAV:  cpu time    1.1903: real time    1.1904
       DOS:  cpu time    0.0027: real time    0.0029
    CHARGE:  cpu time    0.2077: real time    0.2078
    MIXING:  cpu time    0.0055: real time    0.0057
    --------------------------------------------
      LOOP:  cpu time    1.5402: real time    1.5607

 eigenvalue-minimisations  :  3528
 total energy-change (2. order) : 0.1079279E+01  (-0.2792459E+00)
 number of electron      25.0000000 magnetization
 augmentation part        4.9020615 magnetization

 Broyden mixing:
  rms(total) = 0.21271E+01    rms(broyden)= 0.21271E+01
  rms(prec ) = 0.22040E+01
  weight for this iteration     100.00

 eigenvalues of (default mixing * dielectric matrix)
  average eigenvalue GAMMA=   2.7695
  2.7695

 Free energy of the ion-electron system (eV)
  ---------------------------------------------------
  alpha Z        PSCENC =        89.91508711
  Ewald energy   TEWEN  =     -1480.41321122
  -Hartree energ DENC   =      -339.15751991
  -exchange      EXHF   =         0.00000000
  -V(xc)+E(xc)   XCENC  =       -20.88918237
  PAW double counting   =      1766.64812783    -1675.68762749
  entropy T*S    EENTRO =        -0.00006898
  eigenvalues    EBANDS =      -105.11265726
  atomic energy  EATOM  =      1741.10451121
  Solvation  Ediel_sol  =         0.00000000
  ---------------------------------------------------
  free energy    TOTEN  =       -23.59254108 eV

  energy without entropy =      -23.59247210  energy(sigma->0) =      -23.59250659


--------------------------------------------------------------------------------------------------------




--------------------------------------- Iteration      1(   7)  ---------------------------------------


    POTLOK:  cpu time    0.0503: real time    0.0737
    SETDIJ:  cpu time    0.0746: real time    0.0746
     EDDAV:  cpu time    1.2327: real time    1.2346
       DOS:  cpu time    0.0027: real time    0.0029
    CHARGE:  cpu time    0.1809: real time    0.1811
    MIXING:  cpu time    0.0051: real time    0.0052
    --------------------------------------------
      LOOP:  cpu time    1.5462: real time    1.5742

 eigenvalue-minimisations  :  3728
 total energy-change (2. order) : 0.1571442E+00  (-0.1205785E+00)
 number of electron      25.0000000 magnetization
 augmentation part        5.0389841 magnetization

 Broyden mixing:
  rms(total) = 0.31950E+00    rms(broyden)= 0.31950E+00
  rms(prec ) = 0.39672E+00
  weight for this iteration     100.00

 eigenvalues of (default mixing * dielectric matrix)
  average eigenvalue GAMMA=   1.8238
  1.3530  2.2945

 Free energy of the ion-electron system (eV)
  ---------------------------------------------------
  alpha Z        PSCENC =        89.91508711
  Ewald energy   TEWEN  =     -1480.41321122
  -Hartree energ DENC   =      -327.55923283
  -exchange      EXHF   =         0.00000000
  -V(xc)+E(xc)   XCENC  =       -21.26509960
  PAW double counting   =      2088.96309542    -2000.44745980
  entropy T*S    EENTRO =        -0.00032793
  eigenvalues    EBANDS =      -113.73275927
  atomic energy  EATOM  =      1741.10451121
  Solvation  Ediel_sol  =         0.00000000
  ---------------------------------------------------
  free energy    TOTEN  =       -23.43539691 eV

  energy without entropy =      -23.43506897  energy(sigma->0) =      -23.43523294


--------------------------------------------------------------------------------------------------------




--------------------------------------- Iteration      1(   8)  ---------------------------------------


    POTLOK:  cpu time    0.0594: real time    0.0774
    SETDIJ:  cpu time    0.0758: real time    0.0759
     EDDAV:  cpu time    1.1438: real time    1.1442
       DOS:  cpu time    0.0025: real time    0.0027
    CHARGE:  cpu time    0.1822: real time    0.1823
    MIXING:  cpu time    0.0045: real time    0.0046
    --------------------------------------------
      LOOP:  cpu time    1.4681: real time    1.4866

 eigenvalue-minimisations  :  3320
 total energy-change (2. order) : 0.2624532E-01  (-0.2493726E-01)
 number of electron      25.0000000 magnetization
 augmentation part        4.9638783 magnetization

 Broyden mixing:
  rms(total) = 0.13314E+00    rms(broyden)= 0.13314E+00
  rms(prec ) = 0.16304E+00
  weight for this iteration     100.00

 eigenvalues of (default mixing * dielectric matrix)
  average eigenvalue GAMMA=   1.5689
  2.5098  1.3554  0.8415

 Free energy of the ion-electron system (eV)
  ---------------------------------------------------
  alpha Z        PSCENC =        89.91508711
  Ewald energy   TEWEN  =     -1480.41321122
  -Hartree energ DENC   =      -331.59563086
  -exchange      EXHF   =         0.00000000
  -V(xc)+E(xc)   XCENC  =       -21.11306041
  PAW double counting   =      2095.79526886    -2007.24750271
  entropy T*S    EENTRO =        -0.00013354
  eigenvalues    EBANDS =      -109.85448003
  atomic energy  EATOM  =      1741.10451121
  Solvation  Ediel_sol  =         0.00000000
  ---------------------------------------------------
  free energy    TOTEN  =       -23.40915159 eV

  energy without entropy =      -23.40901805  energy(sigma->0) =      -23.40908482


--------------------------------------------------------------------------------------------------------




--------------------------------------- Iteration      1(   9)  ---------------------------------------


    POTLOK:  cpu time    0.0394: real time    0.0667
    SETDIJ:  cpu time    0.0744: real time    0.0745
     EDDAV:  cpu time    1.2329: real time    1.2331
       DOS:  cpu time    0.0025: real time    0.0027
    CHARGE:  cpu time    0.1820: real time    0.1822
    MIXING:  cpu time    0.0043: real time    0.0044
    --------------------------------------------
      LOOP:  cpu time    1.5355: real time    1.5632

 eigenvalue-minimisations  :  3712
 total energy-change (2. order) : 0.1912875E-02  (-0.2974446E-02)
 number of electron      25.0000000 magnetization
 augmentation part        4.9821007 magnetization

 Broyden mixing:
  rms(total) = 0.21374E-01    rms(broyden)= 0.21374E-01
  rms(prec ) = 0.43415E-01
  weight for this iteration     100.00

 eigenvalues of (default mixing * dielectric matrix)
  average eigenvalue GAMMA=   1.4326
  2.4795  1.5151  1.0980  0.6377

 Free energy of the ion-electron system (eV)
  ---------------------------------------------------
  alpha Z        PSCENC =        89.91508711
  Ewald energy   TEWEN  =     -1480.41321122
  -Hartree energ DENC   =      -331.00420616
  -exchange      EXHF   =         0.00000000
  -V(xc)+E(xc)   XCENC  =       -21.12489417
  PAW double counting   =      2117.83596442    -2029.34023681
  entropy T*S    EENTRO =        -0.00015746
  eigenvalues    EBANDS =      -110.38009564
  atomic energy  EATOM  =      1741.10451121
  Solvation  Ediel_sol  =         0.00000000
  ---------------------------------------------------
  free energy    TOTEN  =       -23.40723871 eV

  energy without entropy =      -23.40708126  energy(sigma->0) =      -23.40715998


--------------------------------------------------------------------------------------------------------




--------------------------------------- Iteration      1(  10)  ---------------------------------------


    POTLOK:  cpu time    0.0418: real time    0.0687
    SETDIJ:  cpu time    0.0750: real time    0.0752
     EDDAV:  cpu time    1.1812: real time    1.1814
       DOS:  cpu time    0.0024: real time    0.0026
    CHARGE:  cpu time    0.1870: real time    0.1872
    MIXING:  cpu time    0.0051: real time    0.0052
    --------------------------------------------
      LOOP:  cpu time    1.4926: real time    1.5197

 eigenvalue-minimisations  :  3560
 total energy-change (2. order) : 0.4775031E-03  (-0.5670406E-03)
 number of electron      25.0000000 magnetization
 augmentation part        4.9841145 magnetization

 Broyden mixing:
  rms(total) = 0.11167E-01    rms(broyden)= 0.11167E-01
  rms(prec ) = 0.17997E-01
  weight for this iteration     100.00

 eigenvalues of (default mixing * dielectric matrix)
  average eigenvalue GAMMA=   1.4443
  2.4773  1.9404  1.0877  1.0877  0.6285

 Free energy of the ion-electron system (eV)
  ---------------------------------------------------
  alpha Z        PSCENC =        89.91508711
  Ewald energy   TEWEN  =     -1480.41321122
  -Hartree energ DENC   =      -330.88758354
  -exchange      EXHF   =         0.00000000
  -V(xc)+E(xc)   XCENC  =       -21.12735599
  PAW double counting   =      2122.81259379    -2034.29152275
  entropy T*S    EENTRO =        -0.00018764
  eigenvalues    EBANDS =      -110.51909218
  atomic energy  EATOM  =      1741.10451121
  Solvation  Ediel_sol  =         0.00000000
  ---------------------------------------------------
  free energy    TOTEN  =       -23.40676121 eV

  energy without entropy =      -23.40657357  energy(sigma->0) =      -23.40666739


--------------------------------------------------------------------------------------------------------




--------------------------------------- Iteration      1(  11)  ---------------------------------------


    POTLOK:  cpu time    0.0681: real time    0.0800
    SETDIJ:  cpu time    0.0746: real time    0.0747
     EDDAV:  cpu time    1.1554: real time    1.1556
       DOS:  cpu time    0.0026: real time    0.0030
    CHARGE:  cpu time    0.1816: real time    0.1819
    MIXING:  cpu time    0.0049: real time    0.0050
    --------------------------------------------
      LOOP:  cpu time    1.4871: real time    1.5017

 eigenvalue-minimisations  :  3352
 total energy-change (2. order) : 0.8975285E-04  (-0.5467373E-04)
 number of electron      25.0000000 magnetization
 augmentation part        4.9829022 magnetization

 Broyden mixing:
  rms(total) = 0.39226E-02    rms(broyden)= 0.39226E-02
  rms(prec ) = 0.45621E-02
  weight for this iteration     100.00

 eigenvalues of (default mixing * dielectric matrix)
  average eigenvalue GAMMA=   1.4518
  2.5393  2.2522  1.2660  1.0069  1.0069  0.6395

 Free energy of the ion-electron system (eV)
  ---------------------------------------------------
  alpha Z        PSCENC =        89.91508711
  Ewald energy   TEWEN  =     -1480.41321122
  -Hartree energ DENC   =      -331.11352451
  -exchange      EXHF   =         0.00000000
  -V(xc)+E(xc)   XCENC  =       -21.11909621
  PAW double counting   =      2123.45382201    -2034.89281532
  entropy T*S    EENTRO =        -0.00017773
  eigenvalues    EBANDS =      -110.34126680
  atomic energy  EATOM  =      1741.10451121
  Solvation  Ediel_sol  =         0.00000000
  ---------------------------------------------------
  free energy    TOTEN  =       -23.40667146 eV

  energy without entropy =      -23.40649373  energy(sigma->0) =      -23.40658259


--------------------------------------------------------------------------------------------------------




--------------------------------------- Iteration      1(  12)  ---------------------------------------


    POTLOK:  cpu time    0.0375: real time    0.0664
    SETDIJ:  cpu time    0.0744: real time    0.0745
     EDDAV:  cpu time    1.2368: real time    1.2370
       DOS:  cpu time    0.0025: real time    0.0027
    CHARGE:  cpu time    0.1820: real time    0.1826
    MIXING:  cpu time    0.0057: real time    0.0059
    --------------------------------------------
      LOOP:  cpu time    1.5389: real time    1.5714

 eigenvalue-minimisations  :  3776
 total energy-change (2. order) :-0.3054147E-05  (-0.1788075E-05)
 number of electron      25.0000000 magnetization
 augmentation part        4.9825851 magnetization

 Broyden mixing:
  rms(total) = 0.20471E-02    rms(broyden)= 0.20471E-02
  rms(prec ) = 0.22987E-02
  weight for this iteration     100.00

 eigenvalues of (default mixing * dielectric matrix)
  average eigenvalue GAMMA=   1.5268
  2.6125  2.6125  1.8152  1.0388  1.0388  0.9458  0.6241

 Free energy of the ion-electron system (eV)
  ---------------------------------------------------
  alpha Z        PSCENC =        89.91508711
  Ewald energy   TEWEN  =     -1480.41321122
  -Hartree energ DENC   =      -331.13091427
  -exchange      EXHF   =         0.00000000
  -V(xc)+E(xc)   XCENC  =       -21.11817390
  PAW double counting   =      2125.86326507    -2037.29642333
  entropy T*S    EENTRO =        -0.00017712
  eigenvalues    EBANDS =      -110.33063805
  atomic energy  EATOM  =      1741.10451121
  Solvation  Ediel_sol  =         0.00000000
  ---------------------------------------------------
  free energy    TOTEN  =       -23.40667451 eV

  energy without entropy =      -23.40649739  energy(sigma->0) =      -23.40658595


--------------------------------------------------------------------------------------------------------




--------------------------------------- Iteration      1(  13)  ---------------------------------------


    POTLOK:  cpu time    0.0369: real time    0.0698
    SETDIJ:  cpu time    0.0758: real time    0.0759
     EDDAV:  cpu time    1.1877: real time    1.1880
       DOS:  cpu time    0.0183: real time    0.0187
    CHARGE:  cpu time    0.1890: real time    0.1891
    MIXING:  cpu time    0.0048: real time    0.0049
    --------------------------------------------
      LOOP:  cpu time    1.5125: real time    1.5418

 eigenvalue-minimisations  :  3568
 total energy-change (2. order) : 0.1632504E-06  (-0.1836444E-06)
 number of electron      25.0000000 magnetization
 augmentation part        4.9825568 magnetization

 Broyden mixing:
  rms(total) = 0.65693E-03    rms(broyden)= 0.65692E-03
  rms(prec ) = 0.69974E-03
  weight for this iteration     100.00

 eigenvalues of (default mixing * dielectric matrix)
  average eigenvalue GAMMA=   1.4549
  2.5388  2.5388  1.8495  0.6247  1.1622  0.9946  0.9946  0.9360

 Free energy of the ion-electron system (eV)
  ---------------------------------------------------
  alpha Z        PSCENC =        89.91508711
  Ewald energy   TEWEN  =     -1480.41321122
  -Hartree energ DENC   =      -331.13728589
  -exchange      EXHF   =         0.00000000
  -V(xc)+E(xc)   XCENC  =       -21.11788809
  PAW double counting   =      2128.14545324    -2039.56935152
  entropy T*S    EENTRO =        -0.00017642
  eigenvalues    EBANDS =      -110.33381277
  atomic energy  EATOM  =      1741.10451121
  Solvation  Ediel_sol  =         0.00000000
  ---------------------------------------------------
  free energy    TOTEN  =       -23.40667435 eV

  energy without entropy =      -23.40649793  energy(sigma->0) =      -23.40658614


--------------------------------------------------------------------------------------------------------




--------------------------------------- Iteration      1(  14)  ---------------------------------------


    POTLOK:  cpu time    0.0371: real time    0.0694
    SETDIJ:  cpu time    0.0743: real time    0.0744
     EDDAV:  cpu time    1.0061: real time    1.0063
       DOS:  cpu time    0.0026: real time    0.0029
    CHARGE:  cpu time    0.1821: real time    0.1824
    MIXING:  cpu time    0.0055: real time    0.0058
    --------------------------------------------
      LOOP:  cpu time    1.3078: real time    1.3420

 eigenvalue-minimisations  :  2760
 total energy-change (2. order) :-0.1159817E-06  (-0.2529123E-07)
 number of electron      25.0000000 magnetization
 augmentation part        4.9825574 magnetization

 Broyden mixing:
  rms(total) = 0.29429E-03    rms(broyden)= 0.29427E-03
  rms(prec ) = 0.33336E-03
  weight for this iteration     100.00

 eigenvalues of (default mixing * dielectric matrix)
  average eigenvalue GAMMA=   1.4964
  2.6637  2.3931  2.0405  1.7030  0.6246  1.0632  1.0632  1.0297  0.8864

 Free energy of the ion-electron system (eV)
  ---------------------------------------------------
  alpha Z        PSCENC =        89.91508711
  Ewald energy   TEWEN  =     -1480.41321122
  -Hartree energ DENC   =      -331.13770589
  -exchange      EXHF   =         0.00000000
  -V(xc)+E(xc)   XCENC  =       -21.11783266
  PAW double counting   =      2128.11928963    -2039.54459419
  entropy T*S    EENTRO =        -0.00017634
  eigenvalues    EBANDS =      -110.33204211
  atomic energy  EATOM  =      1741.10451121
  Solvation  Ediel_sol  =         0.00000000
  ---------------------------------------------------
  free energy    TOTEN  =       -23.40667446 eV

  energy without entropy =      -23.40649812  energy(sigma->0) =      -23.40658629


--------------------------------------------------------------------------------------------------------




--------------------------------------- Iteration      1(  15)  ---------------------------------------


    POTLOK:  cpu time    0.0414: real time    0.0681
    SETDIJ:  cpu time    0.0747: real time    0.0748
     EDDAV:  cpu time    0.8662: real time    0.8664
       DOS:  cpu time    0.0026: real time    0.0027
    --------------------------------------------
      LOOP:  cpu time    0.9848: real time    1.0102

 eigenvalue-minimisations  :  2136
 total energy-change (2. order) : 0.4368849E-07  (-0.5909415E-08)
 number of electron      25.0000000 magnetization
 augmentation part        4.9825574 magnetization

 Free energy of the ion-electron system (eV)
  ---------------------------------------------------
  alpha Z        PSCENC =        89.91508711
  Ewald energy   TEWEN  =     -1480.41321122
  -Hartree energ DENC   =      -331.13725904
  -exchange      EXHF   =         0.00000000
  -V(xc)+E(xc)   XCENC  =       -21.11785344
  PAW double counting   =      2128.09390536    -2039.51924174
  entropy T*S    EENTRO =        -0.00017645
  eigenvalues    EBANDS =      -110.33243621
  atomic energy  EATOM  =      1741.10451121
  Solvation  Ediel_sol  =         0.00000000
  ---------------------------------------------------
  free energy    TOTEN  =       -23.40667442 eV

  energy without entropy =      -23.40649797  energy(sigma->0) =      -23.40658620


--------------------------------------------------------------------------------------------------------




 average (electrostatic) potential at core
  the test charge radii are     1.1707  1.1712  1.2059
  (the norm of the test charge is              1.0000)
       1 -37.2659       2 -86.3874       3 -67.8426



 E-fermi :   6.9028     XC(G=0): -10.5663     alpha+bet :-11.5534


 k-point     1 :       0.0000    0.0000    0.0000
  band No.  band energies     occupation
      1     -25.6217      2.00000
      2     -25.6217      2.00000
      3     -25.6217      2.00000
      4      -4.6197      2.00000
      5       1.8569      2.00000
      6       1.8569      2.00000
      7       1.8569      2.00000
      8       2.6371      2.00000
      9       2.6371      2.00000
     10       5.1361      2.00000
     11       5.6844      2.00000
     12       5.6844      2.00000
     13       5.6844      2.00000
     14       7.6756      0.00000
     15       7.6756      0.00000
     16       7.6756      0.00000

 k-point     2 :       0.0769   -0.0000    0.0000
  band No.  band energies     occupation
      1     -25.6222      2.00000
      2     -25.6218      2.00000
      3     -25.6218      2.00000
      4      -4.5693      2.00000
      5       1.7667      2.00000
      6       1.8431      2.00000
      7       1.8431      2.00000
      8       2.6614      2.00000
      9       2.6614      2.00000
     10       4.8116      2.00000
     11       5.6180      2.00000
     12       5.6180      2.00000
     13       5.8123      2.00000
     14       7.5315      0.00000
     15       7.5315      0.00000
     16       7.9507      0.00000

 k-point     3 :       0.1538    0.0000   -0.0000
  band No.  band energies     occupation
      1     -25.6234      2.00000
      2     -25.6218      2.00000
      3     -25.6218      2.00000
      4      -4.4236      2.00000
      5       1.5241      2.00000
      6       1.8128      2.00000
      7       1.8128      2.00000
      8       2.7187      2.00000
      9       2.7187      2.00000
     10       4.2063      2.00000
     11       5.4517      2.00000
     12       5.4517      2.00000
     13       6.0257      2.00000
     14       7.4597      0.00000
     15       7.4597      0.00000
     16       8.5574      0.00000

 k-point     4 :       0.2308   -0.0000    0.0000
  band No.  band energies     occupation
      1     -25.6250      2.00000
      2     -25.6218      2.00000
      3     -25.6218      2.00000
      4      -4.2002      2.00000
      5       1.1861      2.00000
      6       1.7855      2.00000
      7       1.7855      2.00000
      8       2.7768      2.00000
      9       2.7768      2.00000
     10       3.6093      2.00000
     11       5.2548      2.00000
     12       5.2548      2.00000
     13       6.2516      2.00000
     14       7.5039      0.00000
     15       7.5039      0.00000
     16       9.0970      0.00000

 k-point     5 :       0.3077    0.0000   -0.0000
  band No.  band energies     occupation
      1     -25.6268      2.00000
      2     -25.6218      2.00000
      3     -25.6218      2.00000
      4      -3.9330      2.00000
      5       0.8112      2.00000
      6       1.7724      2.00000
      7       1.7724      2.00000
      8       2.8109      2.00000
      9       2.8109      2.00000
     10       3.1339      2.00000
     11       5.0861      2.00000
     12       5.0861      2.00000
     13       6.4684      2.00000
     14       7.6291      0.00000
     15       7.6291      0.00000
     16       8.8250      0.00000

 k-point     6 :       0.3846    0.0000   -0.0000
  band No.  band energies     occupation
      1     -25.6283      2.00000
      2     -25.6218      2.00000
      3     -25.6218      2.00000
      4      -3.6783      2.00000
      5       0.4707      2.00000
      6       1.7729      2.00000
      7       1.7729      2.00000
      8       2.8168      2.00000
      9       2.8168      2.00000
     10       2.8197      2.00000
     11       4.9740      2.00000
     12       4.9740      2.00000
     13       6.6735      2.00000
     14       7.7886      0.00000
     15       7.7886      0.00000
     16       8.2365      0.00000

 k-point     7 :       0.4615    0.0000   -0.0000
  band No.  band energies     occupation
      1     -25.6291      2.00000
      2     -25.6218      2.00000
      3     -25.6218      2.00000
      4      -3.5156      2.00000
      5       0.2596      2.00000
      6       1.7779      2.00000
      7       1.7779      2.00000
      8       2.6670      2.00000
      9       2.8105      2.00000
     10       2.8105      2.00000
     11       4.9210      2.00000
     12       4.9210      2.00000
     13       6.8415      2.00000
     14       7.8344      0.00000
     15       7.9089      0.00000
     16       7.9089      0.00000

 k-point     8 :       0.0769    0.0769    0.0000
  band No.  band energies     occupation
      1     -25.6222      2.00000
      2     -25.6218      2.00000
      3     -25.6218      2.00000
      4      -4.5528      2.00000
      5       1.6639      2.00000
      6       1.8825      2.00000
      7       1.8825      2.00000
      8       2.6636      2.00000
      9       2.6651      2.00000
     10       4.7979      2.00000
     11       5.5041      2.00000
     12       5.5041      2.00000
     13       5.9510      2.00000
     14       7.3726      0.00000
     15       7.9147      0.00000
     16       7.9155      0.00000

 k-point     9 :       0.1538    0.0769    0.0000
  band No.  band energies     occupation
      1     -25.6231      2.00000
      2     -25.6219      2.00000
      3     -25.6218      2.00000
      4      -4.4398      2.00000
      5       1.4565      2.00000
      6       1.8671      2.00000
      7       1.8937      2.00000
      8       2.6973      2.00000
      9       2.7088      2.00000
     10       4.3780      2.00000
     11       5.3242      2.00000
     12       5.3367      2.00000
     13       6.1728      2.00000
     14       7.2599      0.00000
     15       7.6732      0.00000
     16       8.2866      0.00000

 k-point    10 :       0.2308    0.0769   -0.0000
  band No.  band energies     occupation
      1     -25.6245      2.00000
      2     -25.6220      2.00000
      3     -25.6218      2.00000
      4      -4.2437      2.00000
      5       1.1884      2.00000
      6       1.8083      2.00000
      7       1.8853      2.00000
      8       2.7486      2.00000
      9       2.7692      2.00000
     10       3.8065      2.00000
     11       5.1399      2.00000
     12       5.1536      2.00000
     13       6.4318      2.00000
     14       7.2922      0.00000
     15       7.6000      0.00000
     16       8.7326      0.00000

 k-point    11 :       0.3077    0.0769    0.0000
  band No.  band energies     occupation
      1     -25.6262      2.00000
      2     -25.6220      2.00000
      3     -25.6219      2.00000
      4      -3.9927      2.00000
      5       0.8772      2.00000
      6       1.7585      2.00000
      7       1.8704      2.00000
      8       2.7924      2.00000
      9       2.8117      2.00000
[...]
  212              fftbas_plan_mpi                       0.082326                     12   6
  213                dfftw_execute                         0.035608                   36   7
  214                map_backward                          0.005371                   12   7
  215                  map_gather                            0.001440                  6   8
  216                  m_alltoallv_z                         0.002407                  6   8
  217                  map_scatter                           0.001218                  6   8
  218                map_forward                           0.038197                   12   7
  219                  map_gather                            0.020261                  6   8
  220                  m_alltoallv_z                         0.006119                  6   8
  221                  map_scatter                           0.011502                  6   8
  222            M_sumb_d                              0.001692                        6   5
  223          M_sumb_d                              0.000032                          1   4
  224        setdij_                               1.328762                           20   3
  225          fft3d_mpi                             0.288569                         40   4
  226            fftbas_plan_mpi                       0.262945                       40   5
  227              dfftw_execute                         0.116685                    120   6
  228              map_backward                          0.015366                     40   6
  229                map_gather                            0.004483                   20   7
  230                m_alltoallv_z                         0.006017                   20   7
  231                map_scatter                           0.003821                   20   7
  232              map_forward                           0.120680                     40   6
  233                map_gather                            0.060020                   20   7
  234                m_alltoallv_z                         0.020423                   20   7
  235                map_scatter                           0.039243                   20   7
  236          M_sumb_d                              0.002752                         20   4
  237        set_dd_magatom                        0.000003                            1   3
  238        set_dd_paw                            0.002354                            1   3
  239          set_rsgf_all                          0.000003                          1   4
  240          M_sumb_d                              0.002214                          8   4
  241        strkin                                0.000790                            1   3
  242          M_sumb_d                              0.000355                          1   4
  243        strelo                                0.003141                            1   3
  244          M_sumb_d                              0.000391                          2   4
  245        strenl                                0.804584                            1   3
  246          spher                                 0.644008                         19   4
  247          phase                                 0.012929                        189   4
  248          proj1                                 0.133611                        756   4
  249            crexp_mul_wave                        0.019042                     2268   5
  250            M_sumb_d                              0.042950                      756   5
  251          M_sumb_d                              0.000848                          1   4
  252        M_sumb_d                              0.000221                            6   3
  253        fft3d_mpi                             0.017336                           11   3
  254          fftbas_plan_mpi                       0.015946                         11   4
  255            dfftw_execute                         0.006282                       33   5
  256            map_forward                           0.003190                       10   5
  257              map_gather                            0.000648                      5   6
  258              m_alltoallv_z                         0.001221                      5   6
  259              map_scatter                           0.001073                      5   6
  260            map_backward                          0.004153                       12   5
  261              map_gather                            0.001178                      6   6
  262              m_alltoallv_z                         0.001534                      6   6
  263              map_scatter                           0.001150                      6   6
  264        ggaall_grid                           0.001966                            1   3
  265        forhar                                0.007309                            2   3
  266          M_sumb_d                              0.000199                          2   4
  267        strehar                               0.003077                            1   3
  268          M_sumb_d                              0.000052                          1   4
  269        chggra                                0.007361                            1   3
  270          fft3d_mpi                             0.004787                          3   4
  271            fftbas_plan_mpi                       0.004338                        3   5
  272              dfftw_execute                         0.001739                      9   6
  273              map_backward                          0.000675                      2   6
  274                map_gather                            0.000196                    1   7
  275                m_alltoallv_z                         0.000245                    1   7
  276                map_scatter                           0.000179                    1   7
  277              map_forward                           0.001272                      4   6
  278                map_gather                            0.000267                    2   7
  279                m_alltoallv_z                         0.000504                    2   7
  280                map_scatter                           0.000403                    2   7
  281          M_sumb_d                              0.000120                          3   4
  282        brmix                                 0.005371                            1   3
  283          M_sumb_d                              0.000271                          6   4
  284          brpre                                 0.000051                          1   4
  285          setg0                                 0.001672                          1   4
  286          broyd                                 0.002022                          1   4
  287            M_sumb_d                              0.000424                       17   5
  288            brsav                                 0.000173                       16   5
  289            brget                                 0.000316                       59   5
  290          M_bcast_z                             0.000161                          1   4
  291          M_bcast_d                             0.000070                          1   4
  292        M_bcast_d                             0.000039                            2   3
  293      potlok                                0.030400                              1   2
  294        fft3d_mpi                             0.020267                           13   3
  295          fftbas_plan_mpi                       0.018758                         13   4
  296            dfftw_execute                         0.007249                       39   5
  297            map_forward                           0.004449                       14   5
  298              map_gather                            0.000823                      8   6
  299              m_alltoallv_z                         0.001678                      8   6
  300              map_scatter                           0.001603                      8   6
  301            map_backward                          0.004363                       12   5
  302              map_gather                            0.001377                      6   6
  303              m_alltoallv_z                         0.001571                      6   6
  304              map_scatter                           0.001113                      6   6
  305        ggaall_grid                           0.001982                            1   3
  306        M_sumb_d                              0.000237                            6   3
  307        M_bcast_d                             0.000101                            1   3
  308      potlok_metagga                        0.000004                              1   2
  309      set_dd_magatom                        0.000003                              1   2
  310      set_dd_paw                            0.000674                              1   2
  311        set_rsgf_all                          0.000004                            1   3
  312        M_sumb_d                              0.000232                            8   3
  313      densta                                0.001890                              1   2
  314        M_sumb_d                              0.000744                           40   3
  315      lprj_proall                           0.000008                              1   2

 Flat profile
 ============

             routine name                   CPU           calls
 ---------------------------------------------------------------
 total_time                             13.923119           1
 dfftw_execute                           3.721782       29685
 eddav                                   3.196571          15
 fftbas_plan_mpi                         2.139759        9897
 setdij_                                 2.090659          39
 M_sumb_d                                1.526992       27853
 elmin                                   1.102409           1
 set_charge                              1.085284          11
 m_alltoallv_z                           1.083873        9918
 spher                                   0.727429          20
 M_alltoall_d                            0.703507       32326
 pdssyex_zheevx                          0.639670         315
 vhamil                                  0.524127        4378
 orth1                                   0.507802        6588
 map_gather                              0.467328        9918
 map_scatter                             0.456784        9918
 fftwav_mpi                              0.443499        5246
 proj1                                   0.443087        3958
 map_forward                             0.440590       10754
 gemm                                    0.381301       13134
 M_bcast_z                               0.337700        3898
 vnlac0                                  0.283574        4378
 redis_pw                                0.270431       12546
 crpa_reader                             0.251136           1
 hamiltmu                                0.243144        2189
 redis_proj                              0.237439       15685
 fft3d_mpi                               0.205076        9895
 w1_copy                                 0.185676       13134
 map_backward                            0.159126        9036
 work_mul_crexp                          0.152555       13134
 fftext_mpi                              0.145623        4378
 eccp                                    0.131896        1260
 crexp_mul_wave                          0.112327       11874
 potlok                                  0.106259          12
 kinhamil                                0.089891        4378
 overl                                   0.083918        7517
 M_bcast_d                               0.072125        2219
 pw_charge                               0.066769         868
 overl1                                  0.053561        4378
 lincom                                  0.051422         336
 force_and_stress                        0.048162           1
 apply_precond                           0.043772        3118
 setup_precond                           0.043574        1260
 phase                                   0.037647         547
 w1_projall                              0.034172        1559
 ggaall_grid                             0.026362          13
 soft_charge                             0.023704          11
 fornl                                   0.023033           1
 truncate_high_frequency_w1              0.019186        5638
 densta                                  0.018347          16
 setg0                                   0.015545          12
 brmix                                   0.013494          11
 strenl                                  0.013188           1
 broyd                                   0.007647          11
 forhar                                  0.007110           2
 forloc                                  0.003505           1
 strehar                                 0.003025           1
 set_dd_paw                              0.002899          13
 strelo                                  0.002750           1
 depsum                                  0.002498          11
 chggra                                  0.002454           1
 brgrid                                  0.002132           1
 orthch                                  0.001964           1
 brget                                   0.001910         368
 brsav                                   0.001126         112
 proj                                    0.001047          21
 choleski                                0.000874          21
 brpre                                   0.000822          11
 strkin                                  0.000435           1
 fordep                                  0.000132           1
 set_rsgf_all                            0.000061          13
 vectorpot                               0.000059          12
 potlok_metagga                          0.000050          12
 set_dd_magatom                          0.000048          13
 set_kineden                             0.000034          10
 rotate_active_occupied_orbital          0.000015           1
 lprj_proall                             0.000008           1
 redis_pw_over_bands                     0.000003           1
 ---------------------------------------------------------------
  summed up times    39.2480180263519

 Accumulative profile
 ====================

             routine name                   CPU           calls
 ---------------------------------------------------------------
 total_time                             39.248018           1
 elmin                                  21.551076           1
 eddav                                  17.227665          15
 fft3d_mpi                               8.648690        9895
 fftbas_plan_mpi                         8.469242        9897
 hamiltmu                                5.440126        2189
 fftwav_mpi                              4.712301        5246
 dfftw_execute                           3.721782       29685
 kinhamil                                3.535466        4378
 fftext_mpi                              3.445575        4378
 force_and_stress                        2.867671           1
 setdij_                                 2.692784          39
 set_charge                              2.129002          11
 map_forward                             1.616920       10754
 M_sumb_d                                1.526992       27853
 m_alltoallv_z                           1.083873        9918
 vnlac0                                  1.083827        4378
 map_backward                            0.990781        9036
 soft_charge                             0.852212          11
 strenl                                  0.804584           1
 proj1                                   0.793571        3958
 spher                                   0.727429          20
 M_alltoall_d                            0.703507       32326
 w1_projall                              0.680210        1559
 redis_pw                                0.657419       12546
 pdssyex_zheevx                          0.639670         315
 redis_proj                              0.553957       15685
 vhamil                                  0.524127        4378
 orth1                                   0.507802        6588
 map_gather                              0.467328        9918
 map_scatter                             0.456784        9918
 fordep                                  0.410304           1
 potlok                                  0.384749          12
 gemm                                    0.381301       13134
 M_bcast_z                               0.337700        3898
 crpa_reader                             0.251136           1
 eccp                                    0.202636        1260
 w1_copy                                 0.185676       13134
 work_mul_crexp                          0.152555       13134
 crexp_mul_wave                          0.112327       11874
 overl                                   0.083918        7517
 set_dd_paw                              0.077105          13
 setup_precond                           0.075300        1260
 M_bcast_d                               0.072125        2219
 pw_charge                               0.066769         868
 brmix                                   0.055323          11
 overl1                                  0.053561        4378
 lincom                                  0.051422         336
 apply_precond                           0.043772        3118
 phase                                   0.037647         547
 fornl                                   0.032357           1
 densta                                  0.029597          16
 ggaall_grid                             0.026362          13
 orthch                                  0.025603           1
 truncate_high_frequency_w1              0.019186        5638
 setg0                                   0.015545          12
 proj                                    0.014970          21
 broyd                                   0.014397          11
 chggra                                  0.007361           1
 forhar                                  0.007309           2
 depsum                                  0.006771          11
 forloc                                  0.003564           1
 strelo                                  0.003141           1
 strehar                                 0.003077           1
 brgrid                                  0.002132           1
 brget                                   0.001910         368
 brsav                                   0.001126         112
 choleski                                0.000874          21
 brpre                                   0.000822          11
 strkin                                  0.000790           1
 set_rsgf_all                            0.000061          13
 vectorpot                               0.000059          12
 potlok_metagga                          0.000050          12
 set_dd_magatom                          0.000048          13
 set_kineden                             0.000034          10
 rotate_active_occupied_orbital          0.000015           1
 lprj_proall                             0.000008           1
 redis_pw_over_bands                     0.000003           1
 ---------------------------------------------------------------

Profiling took   0.777885  0.939454  0.006627  0.005233 seconds
Profiling took   0.758610 seconds
