<?xml version="1.0" encoding="ISO-8859-1"?>
<modeling>
 <generator>
  <i name="program" type="string">vasp </i>
  <i name="version" type="string">6.0.8  </i>
  <i name="subversion" type="string">29Jun18 (build Jun 13 2019 12:54:44) complex                          parallel </i>
  <i name="platform" type="string">IFC18_CrayMPICH </i>
  <i name="date" type="string">2021 12 05 </i>
  <i name="time" type="string">14:21:51 </i>
 </generator>
 <incar>
  <i type="int" name="KPAR">     4</i>
  <i type="int" name="NPAR">     4</i>
  <i type="int" name="ISTART">     0</i>
  <i type="string" name="PREC"> ACC</i>
  <i type="string" name="ALGO"> Normal</i>
  <i type="logical" name="ADDGRID"> T  </i>
  <i type="int" name="ISPIN">     1</i>
  <i type="int" name="NELMIN">     5</i>
  <i type="int" name="IBRION">    -1</i>
  <i name="EDIFF">      0.00000010</i>
  <i type="int" name="NSW">     0</i>
  <i type="int" name="ISIF">     3</i>
  <i name="ENCUT">    700.00000000</i>
  <i type="logical" name="LREAL"> F  </i>
  <i type="int" name="ISMEAR">     0</i>
  <i name="SIGMA">      0.01000000</i>
  <i type="logical" name="LWAVE"> F  </i>
  <i type="logical" name="LCHARG"> F  </i>
  <i type="logical" name="LVTOT"> F  </i>
  <i type="string" name="ALGO"> Normal</i>
  <i type="string" name="GGA"> PS</i>
  <i name="EDIFF">      0.00000010</i>
  <i type="int" name="ISPIN">     1</i>
 </incar>
 <structure name="primitive_cell" >
  <crystal>
   <varray name="basis" >
    <v>       0.00000000       3.35856201       3.35856201 </v>
    <v>       3.35856201       0.00000000       3.35856201 </v>
    <v>       3.35856201       3.35856201       0.00000000 </v>
   </varray>
   <i name="volume">     75.76874743 </i>
   <varray name="rec_basis" >
    <v>      -0.14887324       0.14887324       0.14887324 </v>
    <v>       0.14887324      -0.14887324       0.14887324 </v>
    <v>       0.14887324       0.14887324      -0.14887324 </v>
   </varray>
  </crystal>
  <varray name="positions" >
   <v>       0.75000000       0.75000000       0.75000000 </v>
   <v>       0.25000000       0.25000000       0.25000000 </v>
   <v>       0.00000000       0.00000000       0.00000000 </v>
  </varray>
 </structure>
 <varray name="primitive_index" >
  <v type="int" >        1 </v>
  <v type="int" >        2 </v>
  <v type="int" >        3 </v>
 </varray>
 <kpoints>
  <generation param="Gamma">
   <v type="int" name="divisions">      13       13       13 </v>
   <v name="usershift">      0.00000000       0.00000000       0.00000000 </v>
   <v name="genvec1">      0.07692308      -0.00000000       0.00000000 </v>
   <v name="genvec2">     -0.00000000       0.07692308      -0.00000000 </v>
   <v name="genvec3">      0.00000000       0.00000000       0.07692308 </v>
   <v name="shift">      0.00000000       0.00000000       0.00000000 </v>
  </generation>
  <varray name="kpointlist" >
   <v>       0.00000000       0.00000000       0.00000000 </v>
   <v>       0.07692308      -0.00000000       0.00000000 </v>
   <v>       0.15384615       0.00000000      -0.00000000 </v>
   <v>       0.23076923      -0.00000000       0.00000000 </v>
   <v>       0.30769231       0.00000000      -0.00000000 </v>
   <v>       0.38461538       0.00000000      -0.00000000 </v>
   <v>       0.46153846       0.00000000      -0.00000000 </v>
   <v>       0.07692308       0.07692308       0.00000000 </v>
   <v>       0.15384615       0.07692308       0.00000000 </v>
   <v>       0.23076923       0.07692308      -0.00000000 </v>
   <v>       0.30769231       0.07692308       0.00000000 </v>
   <v>       0.38461538       0.07692308      -0.00000000 </v>
   <v>       0.46153846       0.07692308       0.00000000 </v>
   <v>      -0.46153846       0.07692308       0.00000000 </v>
   <v>      -0.38461538       0.07692308      -0.00000000 </v>
   <v>      -0.30769231       0.07692308       0.00000000 </v>
   <v>      -0.23076923       0.07692308       0.00000000 </v>
   <v>      -0.15384615       0.07692308      -0.00000000 </v>
   <v>      -0.07692308       0.07692308      -0.00000000 </v>
   <v>       0.15384615       0.15384615       0.00000000 </v>
   <v>       0.23076923       0.15384615       0.00000000 </v>
   <v>       0.30769231       0.15384615       0.00000000 </v>
   <v>       0.38461538       0.15384615       0.00000000 </v>
   <v>       0.46153846       0.15384615      -0.00000000 </v>
   <v>      -0.46153846       0.15384615       0.00000000 </v>
   <v>      -0.38461538       0.15384615       0.00000000 </v>
   <v>      -0.30769231       0.15384615       0.00000000 </v>
   <v>      -0.23076923       0.15384615      -0.00000000 </v>
   <v>      -0.15384615       0.15384615       0.00000000 </v>
   <v>       0.23076923       0.23076923       0.00000000 </v>
   <v>       0.30769231       0.23076923      -0.00000000 </v>
   <v>       0.38461538       0.23076923       0.00000000 </v>
   <v>       0.46153846       0.23076923       0.00000000 </v>
   <v>      -0.46153846       0.23076923      -0.00000000 </v>
   <v>      -0.38461538       0.23076923       0.00000000 </v>
   <v>      -0.30769231       0.23076923       0.00000000 </v>
   <v>      -0.23076923       0.23076923      -0.00000000 </v>
   <v>       0.30769231       0.30769231       0.00000000 </v>
   <v>       0.38461538       0.30769231      -0.00000000 </v>
   <v>       0.46153846       0.30769231       0.00000000 </v>
   <v>      -0.46153846       0.30769231      -0.00000000 </v>
   <v>      -0.38461538       0.30769231      -0.00000000 </v>
   <v>      -0.30769231       0.30769231       0.00000000 </v>
   <v>       0.38461538       0.38461538       0.00000000 </v>
   <v>       0.46153846       0.38461538      -0.00000000 </v>
   <v>      -0.46153846       0.38461538      -0.00000000 </v>
   <v>      -0.38461538       0.38461538      -0.00000000 </v>
   <v>       0.46153846       0.46153846       0.00000000 </v>
   <v>      -0.46153846       0.46153846       0.00000000 </v>
   <v>       0.23076923       0.15384615       0.07692308 </v>
   <v>       0.30769231       0.15384615       0.07692308 </v>
   <v>       0.38461538       0.15384615       0.07692308 </v>
   <v>       0.46153846       0.15384615       0.07692308 </v>
   <v>      -0.46153846       0.15384615       0.07692308 </v>
   <v>       0.30769231       0.23076923       0.07692308 </v>
   <v>       0.38461538       0.23076923       0.07692308 </v>
   <v>       0.46153846       0.23076923       0.07692308 </v>
   <v>      -0.46153846       0.23076923       0.07692308 </v>
   <v>      -0.38461538       0.23076923       0.07692308 </v>
   <v>      -0.30769231       0.23076923       0.07692308 </v>
   <v>      -0.23076923       0.23076923       0.07692308 </v>
   <v>      -0.15384615       0.23076923       0.07692308 </v>
   <v>       0.38461538       0.30769231       0.07692308 </v>
   <v>       0.46153846       0.30769231       0.07692308 </v>
   <v>      -0.46153846       0.30769231       0.07692308 </v>
   <v>      -0.38461538       0.30769231       0.07692308 </v>
   <v>      -0.30769231       0.30769231       0.07692308 </v>
   <v>      -0.23076923       0.30769231       0.07692308 </v>
   <v>       0.46153846       0.38461538       0.07692308 </v>
   <v>      -0.46153846       0.38461538       0.07692308 </v>
   <v>      -0.38461538       0.38461538       0.07692308 </v>
   <v>      -0.30769231       0.38461538       0.07692308 </v>
   <v>      -0.46153846       0.46153846       0.07692308 </v>
   <v>      -0.38461538       0.46153846       0.07692308 </v>
   <v>       0.46153846       0.30769231       0.15384615 </v>
   <v>      -0.46153846       0.30769231       0.15384615 </v>
   <v>      -0.38461538       0.30769231       0.15384615 </v>
   <v>      -0.46153846       0.38461538       0.15384615 </v>
   <v>      -0.38461538       0.38461538       0.15384615 </v>
   <v>      -0.30769231       0.38461538       0.15384615 </v>
   <v>      -0.23076923       0.38461538       0.15384615 </v>
   <v>      -0.38461538       0.46153846       0.15384615 </v>
   <v>      -0.30769231       0.46153846       0.15384615 </v>
   <v>      -0.30769231       0.46153846       0.23076923 </v>
  </varray>
  <varray name="weights" >
   <v>       0.00045517 </v>
   <v>       0.00364133 </v>
   <v>       0.00364133 </v>
   <v>       0.00364133 </v>
   <v>       0.00364133 </v>
   <v>       0.00364133 </v>
   <v>       0.00364133 </v>
   <v>       0.00273100 </v>
   <v>       0.01092399 </v>
   <v>       0.01092399 </v>
   <v>       0.01092399 </v>
   <v>       0.01092399 </v>
   <v>       0.01092399 </v>
   <v>       0.01092399 </v>
   <v>       0.01092399 </v>
   <v>       0.01092399 </v>
   <v>       0.01092399 </v>
   <v>       0.01092399 </v>
   <v>       0.00546199 </v>
   <v>       0.00273100 </v>
   <v>       0.01092399 </v>
   <v>       0.01092399 </v>
   <v>       0.01092399 </v>
   <v>       0.01092399 </v>
   <v>       0.01092399 </v>
   <v>       0.01092399 </v>
   <v>       0.01092399 </v>
   <v>       0.01092399 </v>
   <v>       0.00546199 </v>
   <v>       0.00273100 </v>
   <v>       0.01092399 </v>
   <v>       0.01092399 </v>
   <v>       0.01092399 </v>
   <v>       0.01092399 </v>
   <v>       0.01092399 </v>
   <v>       0.01092399 </v>
   <v>       0.00546199 </v>
   <v>       0.00273100 </v>
   <v>       0.01092399 </v>
   <v>       0.01092399 </v>
   <v>       0.01092399 </v>
   <v>       0.01092399 </v>
   <v>       0.00546199 </v>
   <v>       0.00273100 </v>
   <v>       0.01092399 </v>
   <v>       0.01092399 </v>
   <v>       0.00546199 </v>
   <v>       0.00273100 </v>
   <v>       0.00546199 </v>
   <v>       0.01092399 </v>
   <v>       0.02184797 </v>
   <v>       0.02184797 </v>
   <v>       0.02184797 </v>
   <v>       0.02184797 </v>
   <v>       0.01092399 </v>
   <v>       0.02184797 </v>
   <v>       0.02184797 </v>
   <v>       0.02184797 </v>
   <v>       0.02184797 </v>
   <v>       0.02184797 </v>
   <v>       0.02184797 </v>
   <v>       0.01092399 </v>
   <v>       0.01092399 </v>
   <v>       0.02184797 </v>
   <v>       0.02184797 </v>
   <v>       0.02184797 </v>
   <v>       0.02184797 </v>
   <v>       0.01092399 </v>
   <v>       0.01092399 </v>
   <v>       0.02184797 </v>
   <v>       0.02184797 </v>
   <v>       0.01092399 </v>
   <v>       0.01092399 </v>
   <v>       0.01092399 </v>
   <v>       0.01092399 </v>
   <v>       0.02184797 </v>
   <v>       0.02184797 </v>
   <v>       0.01092399 </v>
   <v>       0.02184797 </v>
   <v>       0.02184797 </v>
   <v>       0.01092399 </v>
   <v>       0.01092399 </v>
   <v>       0.01092399 </v>
   <v>       0.01092399 </v>
  </varray>
 </kpoints>
 <parameters>
  <separator name="general" >
   <i type="string" name="SYSTEM">unknown system</i>
   <i type="logical" name="LCOMPAT"> F  </i>
  </separator>
  <separator name="electronic" >
   <i type="string" name="PREC">acc</i>
   <i name="ENMAX">    700.00000000</i>
   <i name="ENAUG">    380.87800000</i>
   <i name="EDIFF">      0.00000010</i>
   <i type="int" name="IALGO">    38</i>
   <i type="int" name="IWAVPR">    10</i>
   <i type="int" name="NBANDS">    16</i>
   <i type="int" name="NBANDSLOW">    -1</i>
   <i type="int" name="NBANDSHIGH">    -1</i>
   <i name="NELECT">     25.00000000</i>
   <i type="int" name="TURBO">     0</i>
   <i type="int" name="IRESTART">     0</i>
   <i type="int" name="NREBOOT">     0</i>
   <i type="int" name="NMIN">     0</i>
   <i name="EREF">      0.00000000</i>
   <separator name="electronic smearing" >
    <i type="int" name="ISMEAR">     0</i>
    <i name="SIGMA">      0.01000000</i>
    <i name="KSPACING">      0.50000000</i>
    <i type="logical" name="KGAMMA"> T  </i>
    <i type="logical" name="KBLOWUP"> T  </i>
   </separator>
   <separator name="electronic projectors" >
    <i type="logical" name="LREAL"> F  </i>
    <v name="ROPT">      0.00000000      0.00000000      0.00000000</v>
    <i type="int" name="LMAXPAW">  -100</i>
    <i type="int" name="LMAXMIX">     2</i>
    <i type="logical" name="NLSPLINE"> F  </i>
   </separator>
   <separator name="electronic startup" >
    <i type="int" name="ISTART">     0</i>
    <i type="int" name="ICHARG">     2</i>
    <i type="int" name="INIWAV">     1</i>
   </separator>
   <separator name="electronic spin" >
    <i type="int" name="ISPIN">     1</i>
    <i type="logical" name="LNONCOLLINEAR"> F  </i>
    <v name="MAGMOM">      1.00000000      1.00000000      1.00000000</v>
    <i name="NUPDOWN">     -1.00000000</i>
    <i type="logical" name="LSORBIT"> F  </i>
    <v name="SAXIS">      0.00000000      0.00000000      1.00000000</v>
    <i type="logical" name="LSPIRAL"> F  </i>
    <v name="QSPIRAL">      0.00000000      0.00000000      0.00000000</v>
    <i type="logical" name="LZEROZ"> F  </i>
   </separator>
   <separator name="electronic exchange-correlation" >
    <i type="logical" name="LASPH"> F  </i>
    <i type="logical" name="LMETAGGA"> F  </i>
   </separator>
   <separator name="electronic convergence" >
    <i type="int" name="NELM">    60</i>
    <i type="int" name="NELMDL">    -5</i>
    <i type="int" name="NELMIN">     5</i>
    <i name="ENINI">    700.00000000</i>
    <separator name="electronic convergence detail" >
     <i type="logical" name="LDIAG"> T  </i>
     <i type="logical" name="LSUBROT"> F  </i>
     <i name="WEIMIN">      0.00000000</i>
     <i name="EBREAK">      0.00000000</i>
     <i name="DEPER">      0.30000000</i>
     <i type="int" name="NRMM">     4</i>
     <i name="TIME">      0.40000000</i>
    </separator>
   </separator>
   <separator name="electronic mixer" >
    <i name="AMIX">      0.40000000</i>
    <i name="BMIX">      1.00000000</i>
    <i name="AMIN">      0.10000000</i>
    <i name="AMIX_MAG">      1.60000000</i>
    <i name="BMIX_MAG">      1.00000000</i>
    <separator name="electronic mixer details" >
     <i type="int" name="IMIX">     4</i>
     <i type="logical" name="MIXFIRST"> F  </i>
     <i type="int" name="MAXMIX">   -45</i>
     <i name="WC">    100.00000000</i>
     <i type="int" name="INIMIX">     1</i>
     <i type="int" name="MIXPRE">     1</i>
     <i type="int" name="MREMOVE">     5</i>
    </separator>
   </separator>
   <separator name="electronic dipolcorrection" >
    <i type="logical" name="LDIPOL"> F  </i>
    <i type="logical" name="LMONO"> F  </i>
    <i type="int" name="IDIPOL">     0</i>
    <i name="EPSILON">      1.00000000</i>
    <v name="DIPOL">   -100.00000000   -100.00000000   -100.00000000</v>
    <i name="EFIELD">      0.00000000</i>
   </separator>
  </separator>
  <separator name="grids" >
   <i type="int" name="NGX">    42</i>
   <i type="int" name="NGY">    42</i>
   <i type="int" name="NGZ">    42</i>
   <i type="int" name="NGXF">    84</i>
   <i type="int" name="NGYF">    84</i>
   <i type="int" name="NGZF">    84</i>
   <i type="logical" name="ADDGRID"> T  </i>
  </separator>
  <separator name="ionic" >
   <i type="int" name="NSW">     0</i>
   <i type="int" name="IBRION">    -1</i>
   <i type="int" name="MDALGO">     0</i>
   <i type="int" name="ISIF">     3</i>
   <i name="PSTRESS">      0.00000000</i>
   <i name="EDIFFG">      0.00000100</i>
   <i type="int" name="NFREE">     0</i>
   <i name="POTIM">      0.50000000</i>
   <i name="SMASS">     -3.00000000</i>
   <i name="SCALEE">      1.00000000</i>
  </separator>
  <separator name="ionic md" >
   <i name="TEBEG">      0.00010000</i>
   <i name="TEEND">      0.00010000</i>
   <i type="int" name="NBLOCK">     1</i>
   <i type="int" name="KBLOCK">     1</i>
   <i type="int" name="NPACO">   256</i>
   <i name="APACO">     16.00000000</i>
  </separator>
  <separator name="symmetry" >
   <i type="int" name="ISYM">     2</i>
   <i name="SYMPREC">      0.00001000</i>
  </separator>
  <separator name="dos" >
   <i type="int" name="LORBIT">     0</i>
   <v name="RWIGS">     -1.00000000     -1.00000000     -1.00000000</v>
   <i type="int" name="NEDOS">   301</i>
   <i name="EMIN">     10.00000000</i>
   <i name="EMAX">    -10.00000000</i>
   <i name="EFERMI">      0.00000000</i>
  </separator>
  <separator name="writing" >
   <i type="int" name="NWRITE">     2</i>
   <i type="logical" name="LWAVE"> F  </i>
   <i type="logical" name="LDOWNSAMPLE"> F  </i>
   <i type="logical" name="LCHARG"> F  </i>
   <i type="logical" name="LPARD"> F  </i>
   <i type="logical" name="LVTOT"> F  </i>
   <i type="logical" name="LVHAR"> F  </i>
   <i type="logical" name="LELF"> F  </i>
   <i type="logical" name="LOPTICS"> F  </i>
   <v name="STM">      0.00000000      0.00000000      0.00000000      0.00000000      0.00000000      0.00000000      0.00000000</v>
  </separator>
  <separator name="performance" >
   <i type="int" name="NPAR">     4</i>
   <i type="int" name="NSIM">     4</i>
   <i type="int" name="NBLK">    -1</i>
   <i type="logical" name="LPLANE"> T  </i>
   <i type="logical" name="LSCALAPACK"> T  </i>
   <i type="logical" name="LSCAAWARE"> F  </i>
   <i type="logical" name="LSCALU"> F  </i>
   <i type="logical" name="LASYNC"> F  </i>
   <i type="logical" name="LORBITALREAL"> F  </i>
  </separator>
  <separator name="miscellaneous" >
   <i type="int" name="IDIOT">     3</i>
   <i type="int" name="PHON_NSTRUCT">    -1</i>
   <i type="logical" name="LMUSIC"> F  </i>
   <v name="POMASS">    178.49000000    121.75000000    195.08000000</v>
   <v name="DARWINR">      0.00000000      0.00000000      0.00000000</v>
   <v name="DARWINV">      1.00000000      1.00000000      1.00000000</v>
   <i type="logical" name="LCORR"> T  </i>
  </separator>
  <i type="logical" name="GGA_COMPAT"> T  </i>
  <i type="logical" name="LBERRY"> F  </i>
  <i type="int" name="ICORELEVEL">     0</i>
  <i type="logical" name="LDAU"> F  </i>
  <i type="int" name="I_CONSTRAINED_M">     0</i>
  <separator name="electronic exchange-correlation" >
   <i type="string" name="GGA">PS</i>
   <i type="int" name="VOSKOWN">     0</i>
   <i type="logical" name="LHFCALC"> F  </i>
   <i type="string" name="PRECFOCK"></i>
   <i type="logical" name="LSYMGRAD"> F  </i>
   <i type="logical" name="LHFONE"> F  </i>
   <i type="logical" name="LRHFCALC"> F  </i>
   <i type="logical" name="LTHOMAS"> F  </i>
   <i type="logical" name="LMODELHF"> F  </i>
   <i type="logical" name="LFOCKACE"> F  </i>
   <i name="ENCUT4O">     -1.00000000</i>
   <i type="int" name="EXXOEP">     0</i>
   <i type="int" name="FOURORBIT">     0</i>
   <i name="AEXX">      0.00000000</i>
   <i name="HFALPHA">      0.00000000</i>
   <i name="MCALPHA">      0.00000000</i>
   <i name="ALDAX">      1.00000000</i>
   <i name="AGGAX">      1.00000000</i>
   <i name="ALDAC">      1.00000000</i>
   <i name="AGGAC">      1.00000000</i>
   <i type="int" name="NKREDX">     1</i>
   <i type="int" name="NKREDY">     1</i>
   <i type="int" name="NKREDZ">     1</i>
   <i type="logical" name="SHIFTRED"> F  </i>
   <i type="logical" name="ODDONLY"> F  </i>
   <i type="logical" name="EVENONLY"> F  </i>
   <i type="int" name="LMAXFOCK">     0</i>
   <i type="int" name="NMAXFOCKAE">     0</i>
   <i type="logical" name="LFOCKAEDFT"> F  </i>
   <i name="HFSCREEN">      0.00000000</i>
   <i name="HFSCREENC">      0.00000000</i>
   <i type="int" name="NBANDSGWLOW">     0</i>
  </separator>
  <separator name="vdW DFT" >
   <i type="logical" name="LUSE_VDW"> F  </i>
   <i name="Zab_VDW">     -0.84910000</i>
   <i name="PARAM1">      0.12340000</i>
   <i name="PARAM2">      1.00000000</i>
   <i name="PARAM3">      0.00000000</i>
  </separator>
  <separator name="model GW" >
   <i type="int" name="MODEL_GW">     0</i>
   <i name="MODEL_EPS0">     15.15374949</i>
   <i name="MODEL_ALPHA">      1.00000000</i>
  </separator>
  <separator name="linear response parameters" >
   <i type="logical" name="LEPSILON"> F  </i>
   <i type="logical" name="LRPA"> F  </i>
   <i type="logical" name="LNABLA"> F  </i>
   <i type="logical" name="LVEL"> F  </i>
   <i type="int" name="KINTER">     0</i>
   <i name="CSHIFT">      0.10000000</i>
   <i name="OMEGAMAX">     -1.00000000</i>
   <i name="DEG_THRESHOLD">      0.00200000</i>
   <i name="RTIME">     -0.10000000</i>
   <i name="WPLASMAI">      0.00000000</i>
   <v name="DFIELD">      0.00000000      0.00000000      0.00000000</v>
   <v name="WPLASMA">      0.00000000      0.00000000      0.00000000      0.00000000      0.00000000      0.00000000      0.00000000      0.00000000      0.00000000</v>
  </separator>
  <separator name="orbital magnetization" >
   <i type="logical" name="NUCIND"> F  </i>
   <v name="MAGPOS">      0.00000000      0.00000000      0.00000000</v>
   <i type="logical" name="LNICSALL"> T  </i>
   <i type="logical" name="ORBITALMAG"> F  </i>
   <i type="logical" name="LMAGBLOCH"> F  </i>
   <i type="logical" name="LCHIMAG"> F  </i>
   <i type="logical" name="LGAUGE"> T  </i>
   <i type="int" name="MAGATOM">     0</i>
   <v name="MAGDIPOL">      0.00000000      0.00000000      0.00000000</v>
   <v name="AVECCONST">      0.00000000      0.00000000      0.00000000</v>
  </separator>
  <separator name="response functions" >
   <i type="logical" name="LFINITE_TEMPERATURE"> F  </i>
   <i type="logical" name="LADDER"> F  </i>
   <i type="logical" name="LRPAFORCE"> F  </i>
   <i type="logical" name="LFXC"> F  </i>
   <i type="logical" name="LHARTREE"> T  </i>
   <i type="int" name="IBSE">     0</i>
   <v type="int" name="KPOINT">    -1     0     0     0</v>
   <i type="logical" name="LTCTC"> F  </i>
   <i type="logical" name="LTCTE"> F  </i>
   <i type="logical" name="LTETE"> F  </i>
   <i type="logical" name="LTRIPLET"> F  </i>
   <i type="logical" name="LFXCEPS"> F  </i>
   <i type="logical" name="LFXHEG"> F  </i>
   <i type="int" name="NATURALO">     2</i>
   <i type="logical" name="L2ORDER"> F  </i>
   <i type="logical" name="LDMP1"> F  </i>
   <i type="logical" name="LMP2LT"> F  </i>
   <i type="logical" name="LSMP2LT"> F  </i>
   <i type="logical" name="LUSEW"> F  </i>
   <i name="ENCUTGW">     -2.00000000</i>
   <i name="ENCUTGWSOFT">     -2.00000000</i>
   <i name="ENCUTLF">     -1.00000000</i>
   <i type="int" name="LMAXMP2">    -1</i>
   <i name="SCISSOR">      0.00000000</i>
   <i type="int" name="NOMEGA">     0</i>
   <i type="int" name="NOMEGAR">     0</i>
   <i type="int" name="NBANDSGW">    -1</i>
   <i type="int" name="NBANDSO">    -1</i>
   <i type="int" name="NBANDSV">    -1</i>
   <i type="int" name="NELM">     1</i>
   <i type="int" name="NELMHF">     1</i>
   <i type="int" name="DIM">     3</i>
   <i type="int" name="IESPILON">     4</i>
   <i type="int" name="ANTIRES">     0</i>
   <i name="OMEGAMAX">    -30.00000000</i>
   <i name="OMEGAMIN">    -30.00000000</i>
   <i name="OMEGATL">   -200.00000000</i>
   <i type="int" name="OMEGAGRID">   145</i>
   <i name="CSHIFT">     -0.10000000</i>
   <i type="logical" name="LSELFENERGY"> F  </i>
   <i type="logical" name="LSPECTRAL"> F  </i>
   <i type="logical" name="LSPECTRALGW"> F  </i>
   <i type="logical" name="LSINGLES"> F  </i>
   <i type="logical" name="LFERMIGW"> F  </i>
   <i type="logical" name="ODDONLYGW"> F  </i>
   <i type="logical" name="EVENONLYGW"> F  </i>
   <i type="int" name="NKREDLFX">     1</i>
   <i type="int" name="NKREDLFY">     1</i>
   <i type="int" name="NKREDLFZ">     1</i>
   <i type="int" name="MAXMEM">  2800</i>
   <i type="int" name="TELESCOPE">     0</i>
   <i type="int" name="NTAUPAR">     1</i>
   <i type="int" name="NOMEGAPAR">    -1</i>
   <i name="LAMBDA">      1.00000000</i>
  </separator>
  <separator name="External order field" >
   <i name="OFIELD_KAPPA">      0.00000000</i>
   <v name="OFIELD_K">      0.00000000      0.00000000      0.00000000</v>
   <i name="OFIELD_Q6_NEAR">      0.00000000</i>
   <i name="OFIELD_Q6_FAR">      0.00000000</i>
   <i name="OFIELD_A">      0.00000000</i>
  </separator>
 </parameters>
 <atominfo>
  <atoms>       3 </atoms>
  <types>       3 </types>
  <array name="atoms" >
   <dimension dim="1">ion</dimension>
   <field type="string">element</field>
   <field type="int">atomtype</field>
   <set>
    <rc><c>Hf</c><c>   1</c></rc>
    <rc><c>Sb</c><c>   2</c></rc>
    <rc><c>Pt</c><c>   3</c></rc>
   </set>
  </array>
  <array name="atomtypes" >
   <dimension dim="1">type</dimension>
   <field type="int">atomspertype</field>
   <field type="string">element</field>
   <field>mass</field>
   <field>valence</field>
   <field type="string">pseudopotential</field>
   <set>
    <rc><c>   1</c><c>Hf</c><c>    178.49000000</c><c>     10.00000000</c><c>  PAW_PBE Hf_pv 06Sep2000               </c></rc>
    <rc><c>   1</c><c>Sb</c><c>    121.75000000</c><c>      5.00000000</c><c>  PAW_PBE Sb 06Sep2000                  </c></rc>
    <rc><c>   1</c><c>Pt</c><c>    195.08000000</c><c>     10.00000000</c><c>  PAW_PBE Pt 04Feb2005                  </c></rc>
   </set>
  </array>
 </atominfo>
 <structure name="initialpos" >
  <crystal>
   <varray name="basis" >
    <v>       0.00000000       3.35856201       3.35856201 </v>
    <v>       3.35856201       0.00000000       3.35856201 </v>
    <v>       3.35856201       3.35856201       0.00000000 </v>
   </varray>
   <i name="volume">     75.76874743 </i>
   <varray name="rec_basis" >
    <v>      -0.14887324       0.14887324       0.14887324 </v>
    <v>       0.14887324      -0.14887324       0.14887324 </v>
    <v>       0.14887324       0.14887324      -0.14887324 </v>
   </varray>
  </crystal>
  <varray name="positions" >
   <v>       0.75000000       0.75000000       0.75000000 </v>
   <v>       0.25000000       0.25000000       0.25000000 </v>
   <v>       0.00000000       0.00000000       0.00000000 </v>
  </varray>
 </structure>
 <calculation>
  <scstep>
   <time name="dav">    0.97    0.99</time>
   <time name="total">    1.12    1.23</time>
   <energy>
    <i name="alphaZ">     89.91508711 </i>
    <i name="ewald">  -1480.41321122 </i>
    <i name="hartreedc">   -355.15429187 </i>
    <i name="XCdc">    -20.30545266 </i>
    <i name="pawpsdc">   1514.36848356 </i>
    <i name="pawaedc">  -1421.27055995 </i>
    <i name="eentropy">     -0.00006331 </i>
    <i name="bandstr">     64.04659674 </i>
    <i name="atom">   1741.10451121 </i>
    <i name="e_fr_energy">    132.29109960 </i>
    <i name="e_wo_entrp">    132.29116292 </i>
    <i name="e_0_energy">    132.29113126 </i>
   </energy>
  </scstep>
  <scstep>
   <time name="dav">    1.17    1.19</time>
   <time name="total">    1.17    1.19</time>
   <energy>
    <i name="e_fr_energy">    -19.26207105 </i>
    <i name="e_wo_entrp">    -19.26193885 </i>
    <i name="e_0_energy">    -19.26200495 </i>
   </energy>
  </scstep>
  <scstep>
   <time name="dav">    1.26    1.29</time>
   <time name="total">    1.27    1.30</time>
   <energy>
    <i name="e_fr_energy">    -24.59372671 </i>
    <i name="e_wo_entrp">    -24.59348462 </i>
    <i name="e_0_energy">    -24.59360567 </i>
   </energy>
  </scstep>
  <scstep>
   <time name="dav">    1.17    1.20</time>
   <time name="total">    1.17    1.20</time>
   <energy>
    <i name="e_fr_energy">    -24.66972821 </i>
    <i name="e_wo_entrp">    -24.66964714 </i>
    <i name="e_0_energy">    -24.66968767 </i>
   </energy>
  </scstep>
  <scstep>
   <time name="dav">    1.29    1.32</time>
   <time name="total">    1.57    1.60</time>
   <energy>
    <i name="e_fr_energy">    -24.67182000 </i>
    <i name="e_wo_entrp">    -24.67174660 </i>
    <i name="e_0_energy">    -24.67178330 </i>
   </energy>
  </scstep>
  <scstep>
   <time name="dav">    1.19    1.19</time>
   <time name="total">    1.54    1.56</time>
   <energy>
    <i name="e_fr_energy">    -23.59254108 </i>
    <i name="e_wo_entrp">    -23.59247210 </i>
    <i name="e_0_energy">    -23.59250659 </i>
   </energy>
  </scstep>
  <scstep>
   <time name="dav">    1.23    1.23</time>
   <time name="total">    1.55    1.57</time>
   <energy>
    <i name="e_fr_energy">    -23.43539691 </i>
    <i name="e_wo_entrp">    -23.43506897 </i>
    <i name="e_0_energy">    -23.43523294 </i>
   </energy>
  </scstep>
  <scstep>
   <time name="dav">    1.14    1.14</time>
   <time name="total">    1.47    1.49</time>
   <energy>
    <i name="e_fr_energy">    -23.40915159 </i>
    <i name="e_wo_entrp">    -23.40901805 </i>
    <i name="e_0_energy">    -23.40908482 </i>
   </energy>
  </scstep>
  <scstep>
   <time name="dav">    1.23    1.23</time>
   <time name="total">    1.54    1.56</time>
   <energy>
    <i name="e_fr_energy">    -23.40723871 </i>
    <i name="e_wo_entrp">    -23.40708126 </i>
    <i name="e_0_energy">    -23.40715998 </i>
   </energy>
  </scstep>
  <scstep>
   <time name="dav">    1.18    1.18</time>
   <time name="total">    1.49    1.52</time>
   <energy>
    <i name="e_fr_energy">    -23.40676121 </i>
    <i name="e_wo_entrp">    -23.40657357 </i>
    <i name="e_0_energy">    -23.40666739 </i>
   </energy>
  </scstep>
  <scstep>
   <time name="dav">    1.16    1.16</time>
   <time name="total">    1.49    1.50</time>
   <energy>
    <i name="e_fr_energy">    -23.40667146 </i>
    <i name="e_wo_entrp">    -23.40649373 </i>
    <i name="e_0_energy">    -23.40658259 </i>
   </energy>
  </scstep>
  <scstep>
   <time name="dav">    1.24    1.24</time>
   <time name="total">    1.54    1.57</time>
   <energy>
    <i name="e_fr_energy">    -23.40667451 </i>
    <i name="e_wo_entrp">    -23.40649739 </i>
    <i name="e_0_energy">    -23.40658595 </i>
   </energy>
  </scstep>
  <scstep>
   <time name="dav">    1.19    1.19</time>
   <time name="total">    1.51    1.54</time>
   <energy>
    <i name="e_fr_energy">    -23.40667435 </i>
    <i name="e_wo_entrp">    -23.40649793 </i>
    <i name="e_0_energy">    -23.40658614 </i>
   </energy>
  </scstep>
  <scstep>
   <time name="dav">    1.01    1.01</time>
   <time name="total">    1.31    1.34</time>
   <energy>
    <i name="e_fr_energy">    -23.40667446 </i>
    <i name="e_wo_entrp">    -23.40649812 </i>
    <i name="e_0_energy">    -23.40658629 </i>
   </energy>
  </scstep>
  <scstep>
   <time name="dav">    0.87    0.87</time>
   <time name="total">    0.98    1.01</time>
   <energy>
    <i name="alphaZ">     89.91508711 </i>
    <i name="ewald">  -1480.41321122 </i>
    <i name="hartreedc">   -331.13725904 </i>
    <i name="XCdc">    -21.11785344 </i>
    <i name="pawpsdc">   2128.09390536 </i>
    <i name="pawaedc">  -2039.51924174 </i>
    <i name="eentropy">     -0.00017645 </i>
    <i name="bandstr">   -110.33243621 </i>
    <i name="atom">   1741.10451121 </i>
    <i name="e_fr_energy">    -23.40667442 </i>
    <i name="e_wo_entrp">    -23.40649797 </i>
    <i name="e_0_energy">    -23.40658620 </i>
   </energy>
  </scstep>
  <structure>
   <crystal>
    <varray name="basis" >
     <v>       0.00000000       3.35856201       3.35856201 </v>
     <v>       3.35856201       0.00000000       3.35856201 </v>
     <v>       3.35856201       3.35856201       0.00000000 </v>
    </varray>
    <i name="volume">     75.76874743 </i>
    <varray name="rec_basis" >
     <v>      -0.14887324       0.14887324       0.14887324 </v>
     <v>       0.14887324      -0.14887324       0.14887324 </v>
     <v>       0.14887324       0.14887324      -0.14887324 </v>
    </varray>
   </crystal>
   <varray name="positions" >
    <v>       0.75000000       0.75000000       0.75000000 </v>
    <v>       0.25000000       0.25000000       0.25000000 </v>
    <v>       0.00000000       0.00000000       0.00000000 </v>
   </varray>
  </structure>
  <varray name="forces" >
   <v>       0.00000000       0.00000000       0.00000000 </v>
   <v>       0.00000000       0.00000000       0.00000000 </v>
   <v>      -0.00000000      -0.00000000      -0.00000000 </v>
  </varray>
  <varray name="stress" >
   <v>    -154.01674946      -0.00000000       0.00000000 </v>
   <v>      -0.00000000    -154.01674946       0.00000000 </v>
   <v>       0.00000000       0.00000000    -154.01674946 </v>
  </varray>
  <energy>
   <i name="e_fr_energy">    -23.40667442 </i>
   <i name="e_wo_entrp">    -23.40658620 </i>
   <i name="e_0_energy">     -0.00017645 </i>
  </energy>
  <time name="totalsc">   23.80   24.61</time>
  <eigenvalues>
   <array>
    <dimension dim="1">band</dimension>
    <dimension dim="2">kpoint</dimension>
    <dimension dim="3">spin</dimension>
    <field>eigene</field>
    <field>occ</field>
    <set>
     <set comment="spin 1">
      <set comment="kpoint 1">
       <r>  -25.6217    1.0000 </r>
       <r>  -25.6217    1.0000 </r>
       <r>  -25.6217    1.0000 </r>
       <r>   -4.6197    1.0000 </r>
       <r>    1.8569    1.0000 </r>
       <r>    1.8569    1.0000 </r>
       <r>    1.8569    1.0000 </r>
       <r>    2.6371    1.0000 </r>
       <r>    2.6371    1.0000 </r>
       <r>    5.1361    1.0000 </r>
       <r>    5.6844    1.0000 </r>
       <r>    5.6844    1.0000 </r>
       <r>    5.6844    1.0000 </r>
       <r>    7.6756    0.0000 </r>
       <r>    7.6756    0.0000 </r>
       <r>    7.6756    0.0000 </r>
      </set>
      <set comment="kpoint 2">
       <r>  -25.6222    1.0000 </r>
       <r>  -25.6218    1.0000 </r>
       <r>  -25.6218    1.0000 </r>
       <r>   -4.5693    1.0000 </r>
       <r>    1.7667    1.0000 </r>
       <r>    1.8431    1.0000 </r>
       <r>    1.8431    1.0000 </r>
       <r>    2.6614    1.0000 </r>
       <r>    2.6614    1.0000 </r>
       <r>    4.8116    1.0000 </r>
       <r>    5.6180    1.0000 </r>
       <r>    5.6180    1.0000 </r>
       <r>    5.8123    1.0000 </r>
       <r>    7.5315    0.0000 </r>
       <r>    7.5315    0.0000 </r>
       <r>    7.9507    0.0000 </r>
      </set>
      <set comment="kpoint 3">
       <r>  -25.6234    1.0000 </r>
       <r>  -25.6218    1.0000 </r>
       <r>  -25.6218    1.0000 </r>
       <r>   -4.4236    1.0000 </r>
       <r>    1.5241    1.0000 </r>
       <r>    1.8128    1.0000 </r>
       <r>    1.8128    1.0000 </r>
       <r>    2.7187    1.0000 </r>
       <r>    2.7187    1.0000 </r>
       <r>    4.2063    1.0000 </r>
       <r>    5.4517    1.0000 </r>
       <r>    5.4517    1.0000 </r>
       <r>    6.0257    1.0000 </r>
       <r>    7.4597    0.0000 </r>
       <r>    7.4597    0.0000 </r>
       <r>    8.5574    0.0000 </r>
      </set>
      <set comment="kpoint 4">
       <r>  -25.6250    1.0000 </r>
       <r>  -25.6218    1.0000 </r>
       <r>  -25.6218    1.0000 </r>
       <r>   -4.2002    1.0000 </r>
       <r>    1.1861    1.0000 </r>
       <r>    1.7855    1.0000 </r>
       <r>    1.7855    1.0000 </r>
       <r>    2.7768    1.0000 </r>
       <r>    2.7768    1.0000 </r>
       <r>    3.6093    1.0000 </r>
       <r>    5.2548    1.0000 </r>
       <r>    5.2548    1.0000 </r>
       <r>    6.2516    1.0000 </r>
       <r>    7.5039    0.0000 </r>
       <r>    7.5039    0.0000 </r>
       <r>    9.0970    0.0000 </r>
      </set>
      <set comment="kpoint 5">
       <r>  -25.6268    1.0000 </r>
       <r>  -25.6218    1.0000 </r>
       <r>  -25.6218    1.0000 </r>
       <r>   -3.9330    1.0000 </r>
       <r>    0.8112    1.0000 </r>
       <r>    1.7724    1.0000 </r>
       <r>    1.7724    1.0000 </r>
       <r>    2.8109    1.0000 </r>
       <r>    2.8109    1.0000 </r>
       <r>    3.1339    1.0000 </r>
       <r>    5.0861    1.0000 </r>
       <r>    5.0861    1.0000 </r>
       <r>    6.4684    1.0000 </r>
       <r>    7.6291    0.0000 </r>
       <r>    7.6291    0.0000 </r>
       <r>    8.8250    0.0000 </r>
      </set>
      <set comment="kpoint 6">
       <r>  -25.6283    1.0000 </r>
       <r>  -25.6218    1.0000 </r>
       <r>  -25.6218    1.0000 </r>
       <r>   -3.6783    1.0000 </r>
       <r>    0.4707    1.0000 </r>
       <r>    1.7729    1.0000 </r>
       <r>    1.7729    1.0000 </r>
       <r>    2.8168    1.0000 </r>
       <r>    2.8168    1.0000 </r>
       <r>    2.8197    1.0000 </r>
       <r>    4.9740    1.0000 </r>
       <r>    4.9740    1.0000 </r>
       <r>    6.6735    1.0000 </r>
       <r>    7.7886    0.0000 </r>
       <r>    7.7886    0.0000 </r>
       <r>    8.2365    0.0000 </r>
      </set>
      <set comment="kpoint 7">
       <r>  -25.6291    1.0000 </r>
       <r>  -25.6218    1.0000 </r>
       <r>  -25.6218    1.0000 </r>
       <r>   -3.5156    1.0000 </r>
       <r>    0.2596    1.0000 </r>
       <r>    1.7779    1.0000 </r>
       <r>    1.7779    1.0000 </r>
       <r>    2.6670    1.0000 </r>
       <r>    2.8105    1.0000 </r>
       <r>    2.8105    1.0000 </r>
       <r>    4.9210    1.0000 </r>
       <r>    4.9210    1.0000 </r>
       <r>    6.8415    1.0000 </r>
       <r>    7.8344    0.0000 </r>
       <r>    7.9089    0.0000 </r>
       <r>    7.9089    0.0000 </r>
      </set>
      <set comment="kpoint 8">
       <r>  -25.6222    1.0000 </r>
       <r>  -25.6218    1.0000 </r>
       <r>  -25.6218    1.0000 </r>
       <r>   -4.5528    1.0000 </r>
       <r>    1.6639    1.0000 </r>
       <r>    1.8825    1.0000 </r>
       <r>    1.8825    1.0000 </r>
       <r>    2.6636    1.0000 </r>
       <r>    2.6651    1.0000 </r>
       <r>    4.7979    1.0000 </r>
       <r>    5.5041    1.0000 </r>
       <r>    5.5041    1.0000 </r>
       <r>    5.9510    1.0000 </r>
       <r>    7.3726    0.0000 </r>
       <r>    7.9147    0.0000 </r>
       <r>    7.9155    0.0000 </r>
      </set>
      <set comment="kpoint 9">
       <r>  -25.6231    1.0000 </r>
       <r>  -25.6219    1.0000 </r>
       <r>  -25.6218    1.0000 </r>
       <r>   -4.4398    1.0000 </r>
       <r>    1.4565    1.0000 </r>
       <r>    1.8671    1.0000 </r>
       <r>    1.8937    1.0000 </r>
       <r>    2.6973    1.0000 </r>
       <r>    2.7088    1.0000 </r>
       <r>    4.3780    1.0000 </r>
       <r>    5.3242    1.0000 </r>
       <r>    5.3367    1.0000 </r>
       <r>    6.1728    1.0000 </r>
       <r>    7.2599    0.0000 </r>
       <r>    7.6732    0.0000 </r>
       <r>    8.2866    0.0000 </r>
      </set>
      <set comment="kpoint 10">
       <r>  -25.6245    1.0000 </r>
       <r>  -25.6220    1.0000 </r>
       <r>  -25.6218    1.0000 </r>
       <r>   -4.2437    1.0000 </r>
       <r>    1.1884    1.0000 </r>
       <r>    1.8083    1.0000 </r>
       <r>    1.8853    1.0000 </r>
       <r>    2.7486    1.0000 </r>
       <r>    2.7692    1.0000 </r>
       <r>    3.8065    1.0000 </r>
       <r>    5.1399    1.0000 </r>
       <r>    5.1536    1.0000 </r>
       <r>    6.4318    1.0000 </r>
       <r>    7.2922    0.0000 </r>
       <r>    7.6000    0.0000 </r>
       <r>    8.7326    0.0000 </r>
      </set>
      <set comment="kpoint 11">
       <r>  -25.6262    1.0000 </r>
       <r>  -25.6220    1.0000 </r>
       <r>  -25.6219    1.0000 </r>
       <r>   -3.9927    1.0000 </r>
       <r>    0.8772    1.0000 </r>
       <r>    1.7585    1.0000 </r>
       <r>    1.8704    1.0000 </r>
       <r>    2.7924    1.0000 </r>
       <r>    2.8117    1.0000 </r>
       <r>    3.2903    1.0000 </r>
       <r>    4.9862    1.0000 </r>
       <r>    4.9932    1.0000 </r>
       <r>    6.6069    1.0000 </r>
       <r>    7.4972    0.0000 </r>
       <r>    7.6352    0.0000 </r>
       <r>    8.8639    0.0000 </r>
      </set>
      <set comment="kpoint 12">
       <r>  -25.6278    1.0000 </r>
       <r>  -25.6220    1.0000 </r>
       <r>  -25.6220    1.0000 </r>
       <r>   -3.7344    1.0000 </r>
       <r>    0.5681    1.0000 </r>
       <r>    1.7384    1.0000 </r>
       <r>    1.8526    1.0000 </r>
       <r>    2.8007    1.0000 </r>
       <r>    2.8248    1.0000 </r>
       <r>    2.9276    1.0000 </r>
       <r>    4.8571    1.0000 </r>
       <r>    4.9025    1.0000 </r>
       <r>    6.7403    1.0000 </r>
       <r>    7.7527    0.0000 </r>
       <r>    7.7609    0.0000 </r>
       <r>    8.3819    0.0000 </r>
      </set>
      <set comment="kpoint 13">
       <r>  -25.6288    1.0000 </r>
       <r>  -25.6221    1.0000 </r>
       <r>  -25.6219    1.0000 </r>
       <r>   -3.5394    1.0000 </r>
       <r>    0.3378    1.0000 </r>
       <r>    1.7476    1.0000 </r>
       <r>    1.8271    1.0000 </r>
       <r>    2.6826    1.0000 </r>
       <r>    2.8237    1.0000 </r>
       <r>    2.8342    1.0000 </r>
       <r>    4.7752    1.0000 </r>
       <r>    4.8659    1.0000 </r>
       <r>    6.8814    0.9988 </r>
       <r>    7.8705    0.0000 </r>
       <r>    7.8860    0.0000 </r>
       <r>    8.0144    0.0000 </r>
      </set>
      <set comment="kpoint 14">
       <r>  -25.6290    1.0000 </r>
       <r>  -25.6222    1.0000 </r>
       <r>  -25.6219    1.0000 </r>
       <r>   -3.4831    1.0000 </r>
       <r>    0.2722    1.0000 </r>
       <r>    1.7775    1.0000 </r>
       <r>    1.7901    1.0000 </r>
       <r>    2.6324    1.0000 </r>
       <r>    2.8264    1.0000 </r>
       <r>    2.8280    1.0000 </r>
       <r>    4.7333    1.0000 </r>
       <r>    4.8778    1.0000 </r>
       <r>    6.9547    0.0000 </r>
       <r>    7.7246    0.0000 </r>
       <r>    7.9298    0.0000 </r>
       <r>    8.0752    0.0000 </r>
      </set>
      <set comment="kpoint 15">
       <r>  -25.6285    1.0000 </r>
       <r>  -25.6222    1.0000 </r>
       <r>  -25.6218    1.0000 </r>
       <r>   -3.5920    1.0000 </r>
       <r>    0.4024    1.0000 </r>
       <r>    1.7491    1.0000 </r>
       <r>    1.8176    1.0000 </r>
       <r>    2.7172    1.0000 </r>
       <r>    2.8382    1.0000 </r>
       <r>    2.8445    1.0000 </r>
       <r>    4.7218    1.0000 </r>
       <r>    4.9420    1.0000 </r>
       <r>    6.8609    1.0000 </r>
       <r>    7.8345    0.0000 </r>
       <r>    7.8842    0.0000 </r>
       <r>    8.0986    0.0000 </r>
      </set>
      <set comment="kpoint 16">
       <r>  -25.6273    1.0000 </r>
       <r>  -25.6222    1.0000 </r>
       <r>  -25.6217    1.0000 </r>
       <r>   -3.8169    1.0000 </r>
       <r>    0.6746    1.0000 </r>
       <r>    1.7192    1.0000 </r>
       <r>    1.8593    1.0000 </r>
       <r>    2.7907    1.0000 </r>
       <r>    2.8371    1.0000 </r>
       <r>    3.0338    1.0000 </r>
       <r>    4.7439    1.0000 </r>
       <r>    5.0674    1.0000 </r>
       <r>    6.7303    1.0000 </r>
       <r>    7.6574    0.0000 </r>
       <r>    7.7529    0.0000 </r>
       <r>    8.5676    0.0000 </r>
      </set>
      <set comment="kpoint 17">
       <r>  -25.6257    1.0000 </r>
       <r>  -25.6222    1.0000 </r>
       <r>  -25.6217    1.0000 </r>
       <r>   -4.0796    1.0000 </r>
       <r>    1.0040    1.0000 </r>
       <r>    1.7140    1.0000 </r>
       <r>    1.8964    1.0000 </r>
       <r>    2.7766    1.0000 </r>
       <r>    2.8101    1.0000 </r>
       <r>    3.4510    1.0000 </r>
       <r>    4.8186    1.0000 </r>
       <r>    5.2498    1.0000 </r>
       <r>    6.5869    1.0000 </r>
       <r>    7.4743    0.0000 </r>
       <r>    7.6056    0.0000 </r>
       <r>    8.7527    0.0000 </r>
      </set>
      <set comment="kpoint 18">
       <r>  -25.6240    1.0000 </r>
       <r>  -25.6221    1.0000 </r>
       <r>  -25.6217    1.0000 </r>
       <r>   -4.3166    1.0000 </r>
       <r>    1.3257    1.0000 </r>
       <r>    1.7386    1.0000 </r>
       <r>    1.9188    1.0000 </r>
       <r>    2.7310    1.0000 </r>
       <r>    2.7590    1.0000 </r>
       <r>    3.9889    1.0000 </r>
       <r>    4.9764    1.0000 </r>
       <r>    5.4533    1.0000 </r>
       <r>    6.3683    1.0000 </r>
       <r>    7.3468    0.0000 </r>
       <r>    7.5755    0.0000 </r>
       <r>    8.3737    0.0000 </r>
      </set>
      <set comment="kpoint 19">
       <r>  -25.6228    1.0000 </r>
       <r>  -25.6219    1.0000 </r>
       <r>  -25.6217    1.0000 </r>
       <r>   -4.4874    1.0000 </r>
       <r>    1.5965    1.0000 </r>
       <r>    1.7874    1.0000 </r>
       <r>    1.9040    1.0000 </r>
       <r>    2.6841    1.0000 </r>
       <r>    2.7009    1.0000 </r>
       <r>    4.5012    1.0000 </r>
       <r>    5.2701    1.0000 </r>
       <r>    5.6019    1.0000 </r>
       <r>    6.0682    1.0000 </r>
       <r>    7.3454    0.0000 </r>
       <r>    7.6450    0.0000 </r>
       <r>    8.0265    0.0000 </r>
      </set>
      <set comment="kpoint 20">
       <r>  -25.6234    1.0000 </r>
       <r>  -25.6221    1.0000 </r>
       <r>  -25.6221    1.0000 </r>
       <r>   -4.3632    1.0000 </r>
       <r>    1.2464    1.0000 </r>
       <r>    1.9562    1.0000 </r>
       <r>    1.9562    1.0000 </r>
       <r>    2.6728    1.0000 </r>
       <r>    2.7393    1.0000 </r>
       <r>    4.3156    1.0000 </r>
       <r>    5.1391    1.0000 </r>
       <r>    5.1391    1.0000 </r>
       <r>    6.2372    1.0000 </r>
       <r>    7.1553    0.0000 </r>
       <r>    7.7281    0.0000 </r>
       <r>    8.4021    0.0000 </r>
      </set>
      <set comment="kpoint 21">
       <r>  -25.6245    1.0000 </r>
       <r>  -25.6222    1.0000 </r>
       <r>  -25.6221    1.0000 </r>
       <r>   -4.2037    1.0000 </r>
       <r>    1.0214    1.0000 </r>
       <r>    1.9549    1.0000 </r>
       <r>    1.9879    1.0000 </r>
       <r>    2.6821    1.0000 </r>
       <r>    2.7962    1.0000 </r>
       <r>    3.9473    1.0000 </r>
       <r>    4.9200    1.0000 </r>
       <r>    4.9595    1.0000 </r>
       <r>    6.5028    1.0000 </r>
       <r>    7.0976    0.0000 </r>
       <r>    7.6336    0.0000 </r>
       <r>    8.6598    0.0000 </r>
      </set>
      <set comment="kpoint 22">
       <r>  -25.6259    1.0000 </r>
       <r>  -25.6223    1.0000 </r>
       <r>  -25.6222    1.0000 </r>
       <r>   -3.9846    1.0000 </r>
       <r>    0.8051    1.0000 </r>
       <r>    1.8845    1.0000 </r>
       <r>    1.9925    1.0000 </r>
       <r>    2.7262    1.0000 </r>
       <r>    2.8451    1.0000 </r>
       <r>    3.4635    1.0000 </r>
       <r>    4.7058    1.0000 </r>
       <r>    4.8257    1.0000 </r>
       <r>    6.7925    1.0000 </r>
       <r>    7.2501    0.0000 </r>
       <r>    7.6021    0.0000 </r>
       <r>    8.7711    0.0000 </r>
      </set>
      <set comment="kpoint 23">
       <r>  -25.6273    1.0000 </r>
       <r>  -25.6225    1.0000 </r>
       <r>  -25.6223    1.0000 </r>
       <r>   -3.7459    1.0000 </r>
       <r>    0.6088    1.0000 </r>
       <r>    1.8011    1.0000 </r>
       <r>    1.9739    1.0000 </r>
       <r>    2.7634    1.0000 </r>
       <r>    2.8654    1.0000 </r>
       <r>    3.0460    1.0000 </r>
       <r>    4.5423    1.0000 </r>
       <r>    4.7520    1.0000 </r>
       <r>    6.8423    1.0000 </r>
       <r>    7.6795    0.0000 </r>
       <r>    7.7110    0.0000 </r>
       <r>    8.4553    0.0000 </r>
      </set>
      <set comment="kpoint 24">
       <r>  -25.6282    1.0000 </r>
       <r>  -25.6227    1.0000 </r>
       <r>  -25.6222    1.0000 </r>
       <r>   -3.5456    1.0000 </r>
       <r>    0.4543    1.0000 </r>
       <r>    1.7456    1.0000 </r>
       <r>    1.9299    1.0000 </r>
       <r>    2.6832    1.0000 </r>
       <r>    2.8681    1.0000 </r>
       <r>    2.8734    1.0000 </r>
       <r>    4.4299    1.0000 </r>
       <r>    4.7304    1.0000 </r>
       <r>    6.9077    0.2472 </r>
       <r>    7.8329    0.0000 </r>
       <r>    7.9884    0.0000 </r>
       <r>    8.1250    0.0000 </r>
      </set>
      <set comment="kpoint 25">
       <r>  -25.6286    1.0000 </r>
       <r>  -25.6230    1.0000 </r>
       <r>  -25.6221    1.0000 </r>
       <r>   -3.4497    1.0000 </r>
       <r>    0.3830    1.0000 </r>
       <r>    1.7430    1.0000 </r>
       <r>    1.8621    1.0000 </r>
       <r>    2.5805    1.0000 </r>
       <r>    2.8737    1.0000 </r>
       <r>    2.8769    1.0000 </r>
       <r>    4.3548    1.0000 </r>
       <r>    4.7516    1.0000 </r>
       <r>    7.0233    0.0000 </r>
       <r>    7.6916    0.0000 </r>
       <r>    7.9460    0.0000 </r>
       <r>    8.3658    0.0000 </r>
      </set>
      <set comment="kpoint 26">
       <r>  -25.6283    1.0000 </r>
       <r>  -25.6231    1.0000 </r>
       <r>  -25.6219    1.0000 </r>
       <r>   -3.4972    1.0000 </r>
       <r>    0.4287    1.0000 </r>
       <r>    1.7851    1.0000 </r>
       <r>    1.7994    1.0000 </r>
       <r>    2.6111    1.0000 </r>
       <r>    2.8833    1.0000 </r>
       <r>    2.9077    1.0000 </r>
       <r>    4.2967    1.0000 </r>
       <r>    4.8205    1.0000 </r>
       <r>    7.0656    0.0000 </r>
       <r>    7.7548    0.0000 </r>
       <r>    7.9052    0.0000 </r>
       <r>    8.3839    0.0000 </r>
      </set>
      <set comment="kpoint 27">
       <r>  -25.6275    1.0000 </r>
       <r>  -25.6231    1.0000 </r>
       <r>  -25.6218    1.0000 </r>
       <r>   -3.6682    1.0000 </r>
       <r>    0.5816    1.0000 </r>
       <r>    1.7205    1.0000 </r>
       <r>    1.8905    1.0000 </r>
       <r>    2.7196    1.0000 </r>
       <r>    2.8813    1.0000 </r>
       <r>    3.0217    1.0000 </r>
       <r>    4.2542    1.0000 </r>
       <r>    4.9474    1.0000 </r>
       <r>    7.0447    0.0000 </r>
       <r>    7.7467    0.0000 </r>
       <r>    7.9738    0.0000 </r>
       <r>    8.3627    0.0000 </r>
      </set>
      <set comment="kpoint 28">
       <r>  -25.6262    1.0000 </r>
       <r>  -25.6229    1.0000 </r>
       <r>  -25.6217    1.0000 </r>
       <r>   -3.9013    1.0000 </r>
       <r>    0.8039    1.0000 </r>
       <r>    1.6867    1.0000 </r>
       <r>    1.9673    1.0000 </r>
       <r>    2.7646    1.0000 </r>
       <r>    2.8563    1.0000 </r>
       <r>    3.3313    1.0000 </r>
       <r>    4.2751    1.0000 </r>
       <r>    5.1270    1.0000 </r>
       <r>    7.0306    0.0000 </r>
       <r>    7.5547    0.0000 </r>
       <r>    7.7513    0.0000 </r>
       <r>    8.4994    0.0000 </r>
      </set>
      <set comment="kpoint 29">
       <r>  -25.6250    1.0000 </r>
       <r>  -25.6226    1.0000 </r>
       <r>  -25.6216    1.0000 </r>
       <r>   -4.1329    1.0000 </r>
       <r>    1.0624    1.0000 </r>
       <r>    1.6929    1.0000 </r>
       <r>    1.9848    1.0000 </r>
       <r>    2.7513    1.0000 </r>
       <r>    2.8109    1.0000 </r>
       <r>    3.7144    1.0000 </r>
       <r>    4.4844    1.0000 </r>
       <r>    5.3209    1.0000 </r>
       <r>    6.8210    1.0000 </r>
       <r>    7.3970    0.0000 </r>
       <r>    7.5930    0.0000 </r>
       <r>    8.3616    0.0000 </r>
      </set>
      <set comment="kpoint 30">
       <r>  -25.6251    1.0000 </r>
       <r>  -25.6224    1.0000 </r>
       <r>  -25.6224    1.0000 </r>
       <r>   -4.0863    1.0000 </r>
       <r>    0.8315    1.0000 </r>
       <r>    2.0674    1.0000 </r>
       <r>    2.0674    1.0000 </r>
       <r>    2.6122    1.0000 </r>
       <r>    2.8523    1.0000 </r>
       <r>    3.8434    1.0000 </r>
       <r>    4.7765    1.0000 </r>
       <r>    4.7765    1.0000 </r>
       <r>    6.4008    1.0000 </r>
       <r>    7.0882    0.0000 </r>
       <r>    7.5592    0.0000 </r>
       <r>    8.7502    0.0000 </r>
      </set>
      <set comment="kpoint 31">
       <r>  -25.6261    1.0000 </r>
       <r>  -25.6226    1.0000 </r>
       <r>  -25.6225    1.0000 </r>
       <r>   -3.9107    1.0000 </r>
       <r>    0.6767    1.0000 </r>
       <r>    2.0628    1.0000 </r>
       <r>    2.1100    1.0000 </r>
       <r>    2.6131    1.0000 </r>
       <r>    2.9091    1.0000 </r>
       <r>    3.5199    1.0000 </r>
       <r>    4.5497    1.0000 </r>
       <r>    4.6388    1.0000 </r>
       <r>    6.6053    1.0000 </r>
       <r>    7.1473    0.0000 </r>
       <r>    7.4920    0.0000 </r>
       <r>    8.7593    0.0000 </r>
      </set>
      <set comment="kpoint 32">
       <r>  -25.6272    1.0000 </r>
       <r>  -25.6229    1.0000 </r>
       <r>  -25.6226    1.0000 </r>
       <r>   -3.7098    1.0000 </r>
       <r>    0.5795    1.0000 </r>
       <r>    1.9594    1.0000 </r>
       <r>    2.1116    1.0000 </r>
       <r>    2.6803    1.0000 </r>
       <r>    2.9372    1.0000 </r>
       <r>    3.1278    1.0000 </r>
       <r>    4.2955    1.0000 </r>
       <r>    4.5679    1.0000 </r>
       <r>    6.7560    1.0000 </r>
       <r>    7.5299    0.0000 </r>
       <r>    7.5393    0.0000 </r>
       <r>    8.5072    0.0000 </r>
      </set>
      <set comment="kpoint 33">
       <r>  -25.6279    1.0000 </r>
       <r>  -25.6234    1.0000 </r>
       <r>  -25.6225    1.0000 </r>
       <r>   -3.5294    1.0000 </r>
       <r>    0.5433    1.0000 </r>
       <r>    1.8298    1.0000 </r>
       <r>    2.0680    1.0000 </r>
       <r>    2.6605    1.0000 </r>
       <r>    2.8930    1.0000 </r>
       <r>    2.9408    1.0000 </r>
       <r>    4.0998    1.0000 </r>
       <r>    4.5543    1.0000 </r>
       <r>    6.8056    1.0000 </r>
       <r>    7.6993    0.0000 </r>
       <r>    8.0574    0.0000 </r>
       <r>    8.1505    0.0000 </r>
      </set>
      <set comment="kpoint 34">
       <r>  -25.6281    1.0000 </r>
       <r>  -25.6239    1.0000 </r>
       <r>  -25.6223    1.0000 </r>
       <r>   -3.4195    1.0000 </r>
       <r>    0.5487    1.0000 </r>
       <r>    1.7300    1.0000 </r>
       <r>    1.9823    1.0000 </r>
       <r>    2.5056    1.0000 </r>
       <r>    2.9327    1.0000 </r>
       <r>    2.9418    1.0000 </r>
       <r>    3.9693    1.0000 </r>
       <r>    4.5817    1.0000 </r>
       <r>    6.9115    0.1112 </r>
       <r>    7.7616    0.0000 </r>
       <r>    7.9219    0.0000 </r>
       <r>    8.4724    0.0000 </r>
      </set>
      <set comment="kpoint 35">
       <r>  -25.6279    1.0000 </r>
       <r>  -25.6243    1.0000 </r>
       <r>  -25.6221    1.0000 </r>
       <r>   -3.4161    1.0000 </r>
       <r>    0.5617    1.0000 </r>
       <r>    1.7254    1.0000 </r>
       <r>    1.8756    1.0000 </r>
       <r>    2.4856    1.0000 </r>
       <r>    2.9434    1.0000 </r>
       <r>    3.0010    1.0000 </r>
       <r>    3.8860    1.0000 </r>
       <r>    4.6524    1.0000 </r>
       <r>    7.0728    0.0000 </r>
       <r>    7.6257    0.0000 </r>
       <r>    7.9879    0.0000 </r>
       <r>    8.5002    0.0000 </r>
      </set>
      <set comment="kpoint 36">
       <r>  -25.6273    1.0000 </r>
       <r>  -25.6243    1.0000 </r>
       <r>  -25.6219    1.0000 </r>
       <r>   -3.5208    1.0000 </r>
       <r>    0.5846    1.0000 </r>
       <r>    1.7766    1.0000 </r>
       <r>    1.8219    1.0000 </r>
       <r>    2.5900    1.0000 </r>
       <r>    2.9324    1.0000 </r>
       <r>    3.0850    1.0000 </r>
       <r>    3.8462    1.0000 </r>
       <r>    4.7766    1.0000 </r>
       <r>    7.1591    0.0000 </r>
       <r>    7.8399    0.0000 </r>
       <r>    7.8754    0.0000 </r>
       <r>    8.4283    0.0000 </r>
      </set>
      <set comment="kpoint 37">
       <r>  -25.6268    1.0000 </r>
       <r>  -25.6238    1.0000 </r>
       <r>  -25.6218    1.0000 </r>
       <r>   -3.6994    1.0000 </r>
       <r>    0.6583    1.0000 </r>
       <r>    1.7090    1.0000 </r>
       <r>    1.9320    1.0000 </r>
       <r>    2.7129    1.0000 </r>
       <r>    2.9014    1.0000 </r>
       <r>    3.2088    1.0000 </r>
       <r>    3.9293    1.0000 </r>
       <r>    4.9475    1.0000 </r>
       <r>    7.1758    0.0000 </r>
       <r>    7.7076    0.0000 </r>
       <r>    8.0774    0.0000 </r>
       <r>    8.3918    0.0000 </r>
      </set>
      <set comment="kpoint 38">
       <r>  -25.6269    1.0000 </r>
       <r>  -25.6227    1.0000 </r>
       <r>  -25.6227    1.0000 </r>
       <r>   -3.7854    1.0000 </r>
       <r>    0.5758    1.0000 </r>
       <r>    2.1962    1.0000 </r>
       <r>    2.1962    1.0000 </r>
       <r>    2.5020    1.0000 </r>
       <r>    2.9816    1.0000 </r>
       <r>    3.3451    1.0000 </r>
       <r>    4.4845    1.0000 </r>
       <r>    4.4845    1.0000 </r>
       <r>    6.4480    1.0000 </r>
       <r>    7.1501    0.0000 </r>
       <r>    7.3697    0.0000 </r>
       <r>    8.7182    0.0000 </r>
      </set>
      <set comment="kpoint 39">
       <r>  -25.6277    1.0000 </r>
       <r>  -25.6230    1.0000 </r>
       <r>  -25.6228    1.0000 </r>
       <r>   -3.6350    1.0000 </r>
       <r>    0.5433    1.0000 </r>
       <r>    2.1476    1.0000 </r>
       <r>    2.2342    1.0000 </r>
       <r>    2.5420    1.0000 </r>
       <r>    3.0264    1.0000 </r>
       <r>    3.0436    1.0000 </r>
       <r>    4.2696    1.0000 </r>
       <r>    4.3982    1.0000 </r>
       <r>    6.5479    1.0000 </r>
       <r>    7.3202    0.0000 </r>
       <r>    7.3375    0.0000 </r>
       <r>    8.5225    0.0000 </r>
      </set>
      <set comment="kpoint 40">
       <r>  -25.6282    1.0000 </r>
       <r>  -25.6235    1.0000 </r>
       <r>  -25.6228    1.0000 </r>
       <r>   -3.4936    1.0000 </r>
       <r>    0.5908    1.0000 </r>
       <r>    1.9901    1.0000 </r>
       <r>    2.2121    1.0000 </r>
       <r>    2.5881    1.0000 </r>
       <r>    2.8141    1.0000 </r>
       <r>    3.0326    1.0000 </r>
       <r>    3.9803    1.0000 </r>
       <r>    4.3808    1.0000 </r>
       <r>    6.6359    1.0000 </r>
       <r>    7.4654    0.0000 </r>
       <r>    7.8192    0.0000 </r>
       <r>    8.2132    0.0000 </r>
      </set>
      <set comment="kpoint 41">
       <r>  -25.6282    1.0000 </r>
       <r>  -25.6243    1.0000 </r>
       <r>  -25.6227    1.0000 </r>
       <r>   -3.3954    1.0000 </r>
       <r>    0.6892    1.0000 </r>
       <r>    1.8092    1.0000 </r>
       <r>    2.1286    1.0000 </r>
       <r>    2.3987    1.0000 </r>
       <r>    2.9241    1.0000 </r>
       <r>    3.0225    1.0000 </r>
       <r>    3.7437    1.0000 </r>
       <r>    4.4114    1.0000 </r>
       <r>    6.7258    1.0000 </r>
       <r>    7.7603    0.0000 </r>
       <r>    7.8693    0.0000 </r>
       <r>    8.4136    0.0000 </r>
      </set>
      <set comment="kpoint 42">
       <r>  -25.6276    1.0000 </r>
       <r>  -25.6250    1.0000 </r>
       <r>  -25.6224    1.0000 </r>
       <r>   -3.3652    1.0000 </r>
       <r>    0.7421    1.0000 </r>
       <r>    1.6758    1.0000 </r>
       <r>    2.0055    1.0000 </r>
       <r>    2.3452    1.0000 </r>
       <r>    3.0067    1.0000 </r>
       <r>    3.0668    1.0000 </r>
       <r>    3.6023    1.0000 </r>
       <r>    4.4857    1.0000 </r>
       <r>    6.8904    0.9612 </r>
       <r>    7.6575    0.0000 </r>
       <r>    8.0507    0.0000 </r>
       <r>    8.3714    0.0000 </r>
      </set>
      <set comment="kpoint 43">
       <r>  -25.6272    1.0000 </r>
       <r>  -25.6252    1.0000 </r>
       <r>  -25.6222    1.0000 </r>
       <r>   -3.4106    1.0000 </r>
       <r>    0.6720    1.0000 </r>
       <r>    1.7081    1.0000 </r>
       <r>    1.8780    1.0000 </r>
       <r>    2.4384    1.0000 </r>
       <r>    2.9773    1.0000 </r>
       <r>    3.1325    1.0000 </r>
       <r>    3.6144    1.0000 </r>
       <r>    4.6106    1.0000 </r>
       <r>    7.0930    0.0000 </r>
       <r>    7.6134    0.0000 </r>
       <r>    8.0069    0.0000 </r>
       <r>    8.3324    0.0000 </r>
      </set>
      <set comment="kpoint 44">
       <r>  -25.6285    1.0000 </r>
       <r>  -25.6230    1.0000 </r>
       <r>  -25.6230    1.0000 </r>
       <r>   -3.5402    1.0000 </r>
       <r>    0.5552    1.0000 </r>
       <r>    2.3132    1.0000 </r>
       <r>    2.3132    1.0000 </r>
       <r>    2.3845    1.0000 </r>
       <r>    2.8124    1.0000 </r>
       <r>    3.0978    1.0000 </r>
       <r>    4.2851    1.0000 </r>
       <r>    4.2851    1.0000 </r>
       <r>    6.4381    1.0000 </r>
       <r>    7.1977    0.0000 </r>
       <r>    7.2032    0.0000 </r>
       <r>    8.4829    0.0000 </r>
      </set>
      <set comment="kpoint 45">
       <r>  -25.6289    1.0000 </r>
       <r>  -25.6233    1.0000 </r>
       <r>  -25.6230    1.0000 </r>
       <r>   -3.4489    1.0000 </r>
       <r>    0.6334    1.0000 </r>
       <r>    2.1722    1.0000 </r>
       <r>    2.3278    1.0000 </r>
       <r>    2.4556    1.0000 </r>
       <r>    2.6193    1.0000 </r>
       <r>    3.1200    1.0000 </r>
       <r>    4.0992    1.0000 </r>
       <r>    4.2484    1.0000 </r>
       <r>    6.4856    1.0000 </r>
       <r>    7.2235    0.0000 </r>
       <r>    7.3866    0.0000 </r>
       <r>    8.2908    0.0000 </r>
      </set>
      <set comment="kpoint 46">
       <r>  -25.6288    1.0000 </r>
       <r>  -25.6239    1.0000 </r>
       <r>  -25.6229    1.0000 </r>
       <r>   -3.3822    1.0000 </r>
       <r>    0.7516    1.0000 </r>
       <r>    1.9877    1.0000 </r>
       <r>    2.2681    1.0000 </r>
       <r>    2.2784    1.0000 </r>
       <r>    2.7785    1.0000 </r>
       <r>    3.1010    1.0000 </r>
       <r>    3.8117    1.0000 </r>
       <r>    4.2759    1.0000 </r>
       <r>    6.5641    1.0000 </r>
       <r>    7.4426    0.0000 </r>
       <r>    7.8405    0.0000 </r>
       <r>    8.1428    0.0000 </r>
      </set>
      <set comment="kpoint 47">
       <r>  -25.6282    1.0000 </r>
       <r>  -25.6246    1.0000 </r>
       <r>  -25.6227    1.0000 </r>
       <r>   -3.3530    1.0000 </r>
       <r>    0.8243    1.0000 </r>
       <r>    1.7701    1.0000 </r>
       <r>    2.1486    1.0000 </r>
       <r>    2.2441    1.0000 </r>
       <r>    2.9752    1.0000 </r>
       <r>    3.0613    1.0000 </r>
       <r>    3.5947    1.0000 </r>
       <r>    4.3555    1.0000 </r>
       <r>    6.6940    1.0000 </r>
       <r>    7.7942    0.0000 </r>
       <r>    7.8286    0.0000 </r>
       <r>    8.2275    0.0000 </r>
      </set>
      <set comment="kpoint 48">
       <r>  -25.6294    1.0000 </r>
       <r>  -25.6232    1.0000 </r>
       <r>  -25.6232    1.0000 </r>
       <r>   -3.4093    1.0000 </r>
       <r>    0.6914    1.0000 </r>
       <r>    2.2658    1.0000 </r>
       <r>    2.3841    1.0000 </r>
       <r>    2.3841    1.0000 </r>
       <r>    2.4252    1.0000 </r>
       <r>    3.1676    1.0000 </r>
       <r>    4.1848    1.0000 </r>
       <r>    4.1848    1.0000 </r>
       <r>    6.4229    1.0000 </r>
       <r>    7.1047    0.0000 </r>
       <r>    7.1696    0.0000 </r>
       <r>    8.3058    0.0000 </r>
      </set>
      <set comment="kpoint 49">
       <r>  -25.6293    1.0000 </r>
       <r>  -25.6234    1.0000 </r>
       <r>  -25.6231    1.0000 </r>
       <r>   -3.3858    1.0000 </r>
       <r>    0.7434    1.0000 </r>
       <r>    2.2001    1.0000 </r>
       <r>    2.2183    1.0000 </r>
       <r>    2.3627    1.0000 </r>
       <r>    2.5797    1.0000 </r>
       <r>    3.1571    1.0000 </r>
       <r>    4.0424    1.0000 </r>
       <r>    4.1966    1.0000 </r>
       <r>    6.4617    1.0000 </r>
       <r>    7.1823    0.0000 </r>
       <r>    7.3759    0.0000 </r>
       <r>    8.2152    0.0000 </r>
      </set>
      <set comment="kpoint 50">
       <r>  -25.6239    1.0000 </r>
       <r>  -25.6222    1.0000 </r>
       <r>  -25.6218    1.0000 </r>
       <r>   -4.3026    1.0000 </r>
       <r>    1.2249    1.0000 </r>
       <r>    1.8273    1.0000 </r>
       <r>    1.9645    1.0000 </r>
       <r>    2.7124    1.0000 </r>
       <r>    2.7594    1.0000 </r>
       <r>    4.0747    1.0000 </r>
       <r>    4.8793    1.0000 </r>
       <r>    5.3136    1.0000 </r>
       <r>    6.4700    1.0000 </r>
       <r>    7.1872    0.0000 </r>
       <r>    7.6515    0.0000 </r>
       <r>    8.3601    0.0000 </r>
      </set>
      <set comment="kpoint 51">
       <r>  -25.6253    1.0000 </r>
       <r>  -25.6224    1.0000 </r>
       <r>  -25.6218    1.0000 </r>
       <r>   -4.0943    1.0000 </r>
       <r>    0.9719    1.0000 </r>
       <r>    1.7760    1.0000 </r>
       <r>    1.9783    1.0000 </r>
       <r>    2.7482    1.0000 </r>
       <r>    2.8134    1.0000 </r>
       <r>    3.6251    1.0000 </r>
       <r>    4.6002    1.0000 </r>
       <r>    5.1666    1.0000 </r>
       <r>    6.7969    1.0000 </r>
       <r>    7.2652    0.0000 </r>
       <r>    7.6235    0.0000 </r>
       <r>    8.5764    0.0000 </r>
      </set>
      <set comment="kpoint 52">
       <r>  -25.6267    1.0000 </r>
       <r>  -25.6226    1.0000 </r>
       <r>  -25.6218    1.0000 </r>
       <r>   -3.8489    1.0000 </r>
       <r>    0.7198    1.0000 </r>
       <r>    1.7444    1.0000 </r>
       <r>    1.9451    1.0000 </r>
       <r>    2.7753    1.0000 </r>
       <r>    2.8458    1.0000 </r>
       <r>    3.1801    1.0000 </r>
       <r>    4.4912    1.0000 </r>
       <r>    4.9961    1.0000 </r>
       <r>    6.8938    0.8983 </r>
       <r>    7.5525    0.0000 </r>
       <r>    7.7400    0.0000 </r>
       <r>    8.6126    0.0000 </r>
      </set>
      <set comment="kpoint 53">
       <r>  -25.6280    1.0000 </r>
       <r>  -25.6227    1.0000 </r>
       <r>  -25.6219    1.0000 </r>
       <r>   -3.6202    1.0000 </r>
       <r>    0.4996    1.0000 </r>
       <r>    1.7375    1.0000 </r>
       <r>    1.8924    1.0000 </r>
       <r>    2.7267    1.0000 </r>
       <r>    2.8515    1.0000 </r>
       <r>    2.9208    1.0000 </r>
       <r>    4.4613    1.0000 </r>
       <r>    4.8673    1.0000 </r>
       <r>    6.9403    0.0000 </r>
       <r>    7.7566    0.0000 </r>
       <r>    7.9841    0.0000 </r>
       <r>    8.1991    0.0000 </r>
      </set>
      <set comment="kpoint 54">
       <r>  -25.6287    1.0000 </r>
       <r>  -25.6227    1.0000 </r>
       <r>  -25.6220    1.0000 </r>
       <r>   -3.4774    1.0000 </r>
       <r>    0.3638    1.0000 </r>
       <r>    1.7458    1.0000 </r>
       <r>    1.8487    1.0000 </r>
       <r>    2.6141    1.0000 </r>
       <r>    2.8419    1.0000 </r>
       <r>    2.8806    1.0000 </r>
       <r>    4.4573    1.0000 </r>
       <r>    4.8029    1.0000 </r>
       <r>    7.0215    0.0000 </r>
       <r>    7.7068    0.0000 </r>
       <r>    7.9429    0.0000 </r>
       <r>    8.2650    0.0000 </r>
      </set>
      <set comment="kpoint 55">
       <r>  -25.6254    1.0000 </r>
       <r>  -25.6226    1.0000 </r>
       <r>  -25.6221    1.0000 </r>
       <r>   -4.0345    1.0000 </r>
       <r>    0.8246    1.0000 </r>
       <r>    1.9374    1.0000 </r>
       <r>    2.0540    1.0000 </r>
       <r>    2.6811    1.0000 </r>
       <r>    2.8493    1.0000 </r>
       <r>    3.6746    1.0000 </r>
       <r>    4.5332    1.0000 </r>
       <r>    4.9175    1.0000 </r>
       <r>    6.7634    1.0000 </r>
       <r>    7.0856    0.0000 </r>
       <r>    7.5835    0.0000 </r>
       <r>    8.6815    0.0000 </r>
      </set>
      <set comment="kpoint 56">
       <r>  -25.6266    1.0000 </r>
       <r>  -25.6229    1.0000 </r>
       <r>  -25.6222    1.0000 </r>
       <r>   -3.8235    1.0000 </r>
       <r>    0.6659    1.0000 </r>
       <r>    1.8764    1.0000 </r>
       <r>    2.0583    1.0000 </r>
       <r>    2.7222    1.0000 </r>
       <r>    2.8799    1.0000 </r>
       <r>    3.3018    1.0000 </r>
       <r>    4.2799    1.0000 </r>
       <r>    4.8018    1.0000 </r>
       <r>    6.9360    0.0000 </r>
       <r>    7.3342    0.0000 </r>
       <r>    7.6626    0.0000 </r>
       <r>    8.6381    0.0000 </r>
      </set>
      <set comment="kpoint 57">
       <r>  -25.6275    1.0000 </r>
       <r>  -25.6232    1.0000 </r>
       <r>  -25.6222    1.0000 </r>
       <r>   -3.6148    1.0000 </r>
       <r>    0.5577    1.0000 </r>
       <r>    1.7976    1.0000 </r>
       <r>    2.0224    1.0000 </r>
       <r>    2.7309    1.0000 </r>
       <r>    2.8602    1.0000 </r>
       <r>    3.0078    1.0000 </r>
       <r>    4.1579    1.0000 </r>
       <r>    4.7027    1.0000 </r>
       <r>    6.9357    0.0000 </r>
       <r>    7.6063    0.0000 </r>
       <r>    8.0332    0.0000 </r>
       <r>    8.2413    0.0000 </r>
      </set>
      <set comment="kpoint 58">
       <r>  -25.6281    1.0000 </r>
       <r>  -25.6235    1.0000 </r>
       <r>  -25.6223    1.0000 </r>
       <r>   -3.4639    1.0000 </r>
       <r>    0.5013    1.0000 </r>
       <r>    1.7265    1.0000 </r>
       <r>    1.9714    1.0000 </r>
       <r>    2.5860    1.0000 </r>
       <r>    2.8623    1.0000 </r>
       <r>    2.9538    1.0000 </r>
       <r>    4.0890    1.0000 </r>
       <r>    4.6619    1.0000 </r>
       <r>    6.9923    0.0000 </r>
       <r>    7.7212    0.0000 </r>
       <r>    7.9169    0.0000 </r>
       <r>    8.3917    0.0000 </r>
      </set>
      <set comment="kpoint 59">
       <r>  -25.6282    1.0000 </r>
       <r>  -25.6237    1.0000 </r>
       <r>  -25.6222    1.0000 </r>
       <r>   -3.4206    1.0000 </r>
       <r>    0.4918    1.0000 </r>
       <r>    1.7056    1.0000 </r>
       <r>    1.9207    1.0000 </r>
       <r>    2.5243    1.0000 </r>
       <r>    2.8801    1.0000 </r>
       <r>    2.9623    1.0000 </r>
       <r>    4.0438    1.0000 </r>
       <r>    4.6770    1.0000 </r>
       <r>    7.0949    0.0000 </r>
       <r>    7.5830    0.0000 </r>
       <r>    7.9610    0.0000 </r>
       <r>    8.5132    0.0000 </r>
      </set>
      <set comment="kpoint 60">
       <r>  -25.6278    1.0000 </r>
       <r>  -25.6238    1.0000 </r>
       <r>  -25.6220    1.0000 </r>
       <r>   -3.5014    1.0000 </r>
       <r>    0.5290    1.0000 </r>
       <r>    1.7348    1.0000 </r>
       <r>    1.9035    1.0000 </r>
       <r>    2.6024    1.0000 </r>
       <r>    2.8908    1.0000 </r>
       <r>    2.9981    1.0000 </r>
       <r>    4.0139    1.0000 </r>
       <r>    4.7476    1.0000 </r>
       <r>    7.1136    0.0000 </r>
       <r>    7.7075    0.0000 </r>
       <r>    7.9149    0.0000 </r>
       <r>    8.4762    0.0000 </r>
      </set>
      <set comment="kpoint 61">
       <r>  -25.6270    1.0000 </r>
       <r>  -25.6236    1.0000 </r>
       <r>  -25.6219    1.0000 </r>
       <r>   -3.6768    1.0000 </r>
       <r>    0.6212    1.0000 </r>
       <r>    1.7416    1.0000 </r>
       <r>    1.9598    1.0000 </r>
       <r>    2.7251    1.0000 </r>
       <r>    2.8809    1.0000 </r>
       <r>    3.1358    1.0000 </r>
       <r>    4.0217    1.0000 </r>
       <r>    4.8770    1.0000 </r>
       <r>    7.1262    0.0000 </r>
       <r>    7.5994    0.0000 </r>
       <r>    8.0485    0.0000 </r>
       <r>    8.4083    0.0000 </r>
      </set>
      <set comment="kpoint 62">
       <r>  -25.6261    1.0000 </r>
       <r>  -25.6231    1.0000 </r>
       <r>  -25.6218    1.0000 </r>
       <r>   -3.8922    1.0000 </r>
       <r>    0.7722    1.0000 </r>
       <r>    1.7455    1.0000 </r>
       <r>    2.0097    1.0000 </r>
       <r>    2.7571    1.0000 </r>
       <r>    2.8552    1.0000 </r>
       <r>    3.4026    1.0000 </r>
       <r>    4.1757    1.0000 </r>
       <r>    5.0407    1.0000 </r>
       <r>    7.1311    0.0000 </r>
       <r>    7.3647    0.0000 </r>
       <r>    7.7381    0.0000 </r>
       <r>    8.5225    0.0000 </r>
      </set>
      <set comment="kpoint 63">
       <r>  -25.6270    1.0000 </r>
       <r>  -25.6230    1.0000 </r>
       <r>  -25.6226    1.0000 </r>
       <r>   -3.7464    1.0000 </r>
       <r>    0.5836    1.0000 </r>
       <r>    2.0397    1.0000 </r>
       <r>    2.1665    1.0000 </r>
       <r>    2.6215    1.0000 </r>
       <r>    2.9509    1.0000 </r>
       <r>    3.2568    1.0000 </r>
       <r>    4.2574    1.0000 </r>
       <r>    4.5794    1.0000 </r>
       <r>    6.7034    1.0000 </r>
       <r>    7.2563    0.0000 </r>
       <r>    7.5104    0.0000 </r>
       <r>    8.6341    0.0000 </r>
      </set>
      <set comment="kpoint 64">
       <r>  -25.6277    1.0000 </r>
       <r>  -25.6234    1.0000 </r>
       <r>  -25.6226    1.0000 </r>
       <r>   -3.5764    1.0000 </r>
       <r>    0.5671    1.0000 </r>
       <r>    1.9286    1.0000 </r>
       <r>    2.1726    1.0000 </r>
       <r>    2.6877    1.0000 </r>
       <r>    2.8737    1.0000 </r>
       <r>    3.0387    1.0000 </r>
       <r>    3.9894    1.0000 </r>
       <r>    4.5225    1.0000 </r>
       <r>    6.7907    1.0000 </r>
       <r>    7.3945    0.0000 </r>
       <r>    7.8918    0.0000 </r>
       <r>    8.2791    0.0000 </r>
      </set>
      <set comment="kpoint 65">
       <r>  -25.6280    1.0000 </r>
       <r>  -25.6240    1.0000 </r>
       <r>  -25.6226    1.0000 </r>
       <r>   -3.4419    1.0000 </r>
       <r>    0.6179    1.0000 </r>
       <r>    1.7862    1.0000 </r>
       <r>    2.1318    1.0000 </r>
       <r>    2.5401    1.0000 </r>
       <r>    2.8627    1.0000 </r>
       <r>    3.0114    1.0000 </r>
       <r>    3.7947    1.0000 </r>
       <r>    4.5085    1.0000 </r>
       <r>    6.8483    1.0000 </r>
       <r>    7.6295    0.0000 </r>
       <r>    7.8911    0.0000 </r>
       <r>    8.3333    0.0000 </r>
      </set>
      <set comment="kpoint 66">
       <r>  -25.6278    1.0000 </r>
       <r>  -25.6246    1.0000 </r>
       <r>  -25.6225    1.0000 </r>
       <r>   -3.3790    1.0000 </r>
       <r>    0.6751    1.0000 </r>
       <r>    1.6710    1.0000 </r>
       <r>    2.0533    1.0000 </r>
       <r>    2.4090    1.0000 </r>
       <r>    2.9355    1.0000 </r>
       <r>    3.0317    1.0000 </r>
       <r>    3.6748    1.0000 </r>
       <r>    4.5363    1.0000 </r>
       <r>    6.9733    0.0000 </r>
       <r>    7.6288    0.0000 </r>
       <r>    7.8928    0.0000 </r>
       <r>    8.3782    0.0000 </r>
      </set>
      <set comment="kpoint 67">
       <r>  -25.6274    1.0000 </r>
       <r>  -25.6249    1.0000 </r>
       <r>  -25.6223    1.0000 </r>
       <r>   -3.4059    1.0000 </r>
       <r>    0.6589    1.0000 </r>
       <r>    1.6736    1.0000 </r>
       <r>    1.9655    1.0000 </r>
       <r>    2.4492    1.0000 </r>
       <r>    2.9471    1.0000 </r>
       <r>    3.0880    1.0000 </r>
       <r>    3.6400    1.0000 </r>
       <r>    4.6064    1.0000 </r>
       <r>    7.1395    0.0000 </r>
       <r>    7.5642    0.0000 </r>
       <r>    7.8808    0.0000 </r>
       <r>    8.4295    0.0000 </r>
      </set>
      <set comment="kpoint 68">
       <r>  -25.6272    1.0000 </r>
       <r>  -25.6245    1.0000 </r>
       <r>  -25.6221    1.0000 </r>
       <r>   -3.5153    1.0000 </r>
       <r>    0.6102    1.0000 </r>
       <r>    1.7365    1.0000 </r>
       <r>    1.9269    1.0000 </r>
       <r>    2.5941    1.0000 </r>
       <r>    2.9200    1.0000 </r>
       <r>    3.1266    1.0000 </r>
       <r>    3.7312    1.0000 </r>
       <r>    4.7261    1.0000 </r>
       <r>    7.1891    0.0000 </r>
       <r>    7.6962    0.0000 </r>
       <r>    7.8706    0.0000 </r>
       <r>    8.4344    0.0000 </r>
      </set>
      <set comment="kpoint 69">
       <r>  -25.6283    1.0000 </r>
       <r>  -25.6233    1.0000 </r>
       <r>  -25.6229    1.0000 </r>
       <r>   -3.5154    1.0000 </r>
       <r>    0.5789    1.0000 </r>
       <r>    2.0774    1.0000 </r>
       <r>    2.2884    1.0000 </r>
       <r>    2.5818    1.0000 </r>
       <r>    2.7712    1.0000 </r>
       <r>    3.0663    1.0000 </r>
       <r>    4.0390    1.0000 </r>
       <r>    4.3657    1.0000 </r>
       <r>    6.5902    1.0000 </r>
       <r>    7.2379    0.0000 </r>
       <r>    7.6155    0.0000 </r>
       <r>    8.3085    0.0000 </r>
      </set>
      <set comment="kpoint 70">
       <r>  -25.6284    1.0000 </r>
       <r>  -25.6238    1.0000 </r>
       <r>  -25.6229    1.0000 </r>
       <r>   -3.4158    1.0000 </r>
       <r>    0.6869    1.0000 </r>
       <r>    1.9231    1.0000 </r>
       <r>    2.2752    1.0000 </r>
       <r>    2.4652    1.0000 </r>
       <r>    2.7561    1.0000 </r>
       <r>    3.0648    1.0000 </r>
       <r>    3.7468    1.0000 </r>
       <r>    4.3785    1.0000 </r>
       <r>    6.6726    1.0000 </r>
       <r>    7.3416    0.0000 </r>
       <r>    7.9698    0.0000 </r>
       <r>    8.2156    0.0000 </r>
      </set>
      <set comment="kpoint 71">
       <r>  -25.6281    1.0000 </r>
       <r>  -25.6246    1.0000 </r>
       <r>  -25.6228    1.0000 </r>
       <r>   -3.3584    1.0000 </r>
       <r>    0.8069    1.0000 </r>
       <r>    1.7387    1.0000 </r>
       <r>    2.2045    1.0000 </r>
       <r>    2.2908    1.0000 </r>
       <r>    2.9391    1.0000 </r>
       <r>    3.0477    1.0000 </r>
       <r>    3.5161    1.0000 </r>
       <r>    4.4200    1.0000 </r>
       <r>    6.7816    1.0000 </r>
       <r>    7.6109    0.0000 </r>
       <r>    7.8222    0.0000 </r>
       <r>    8.1792    0.0000 </r>
      </set>
      <set comment="kpoint 72">
       <r>  -25.6275    1.0000 </r>
       <r>  -25.6252    1.0000 </r>
       <r>  -25.6226    1.0000 </r>
       <r>   -3.3549    1.0000 </r>
       <r>    0.8052    1.0000 </r>
       <r>    1.6288    1.0000 </r>
       <r>    2.0842    1.0000 </r>
       <r>    2.3116    1.0000 </r>
       <r>    2.9979    1.0000 </r>
       <r>    3.1102    1.0000 </r>
       <r>    3.4354    1.0000 </r>
       <r>    4.4930    1.0000 </r>
       <r>    6.9616    0.0000 </r>
       <r>    7.5895    0.0000 </r>
       <r>    7.9262    0.0000 </r>
       <r>    8.2328    0.0000 </r>
      </set>
      <set comment="kpoint 73">
       <r>  -25.6291    1.0000 </r>
       <r>  -25.6235    1.0000 </r>
       <r>  -25.6231    1.0000 </r>
       <r>   -3.3942    1.0000 </r>
       <r>    0.7273    1.0000 </r>
       <r>    2.0854    1.0000 </r>
       <r>    2.2754    1.0000 </r>
       <r>    2.4195    1.0000 </r>
       <r>    2.6100    1.0000 </r>
       <r>    3.1295    1.0000 </r>
       <r>    3.9041    1.0000 </r>
       <r>    4.2751    1.0000 </r>
       <r>    6.5255    1.0000 </r>
       <r>    7.1616    0.0000 </r>
       <r>    7.6681    0.0000 </r>
       <r>    8.2007    0.0000 </r>
      </set>
      <set comment="kpoint 74">
       <r>  -25.6287    1.0000 </r>
       <r>  -25.6240    1.0000 </r>
       <r>  -25.6230    1.0000 </r>
       <r>   -3.3628    1.0000 </r>
       <r>    0.8107    1.0000 </r>
       <r>    1.9164    1.0000 </r>
       <r>    2.2032    1.0000 </r>
       <r>    2.3625    1.0000 </r>
       <r>    2.7647    1.0000 </r>
       <r>    3.0969    1.0000 </r>
       <r>    3.6447    1.0000 </r>
       <r>    4.3378    1.0000 </r>
       <r>    6.6302    1.0000 </r>
       <r>    7.3056    0.0000 </r>
       <r>    7.9873    0.0000 </r>
       <r>    8.1503    0.0000 </r>
      </set>
      <set comment="kpoint 75">
       <r>  -25.6271    1.0000 </r>
       <r>  -25.6236    1.0000 </r>
       <r>  -25.6222    1.0000 </r>
       <r>   -3.6433    1.0000 </r>
       <r>    0.5967    1.0000 </r>
       <r>    1.8267    1.0000 </r>
       <r>    2.0740    1.0000 </r>
       <r>    2.7378    1.0000 </r>
       <r>    2.8585    1.0000 </r>
       <r>    3.1482    1.0000 </r>
       <r>    3.9281    1.0000 </r>
       <r>    4.7123    1.0000 </r>
       <r>    7.0643    0.0000 </r>
       <r>    7.3820    0.0000 </r>
       <r>    8.0062    0.0000 </r>
       <r>    8.3536    0.0000 </r>
      </set>
      <set comment="kpoint 76">
       <r>  -25.6275    1.0000 </r>
       <r>  -25.6242    1.0000 </r>
       <r>  -25.6224    1.0000 </r>
       <r>   -3.4861    1.0000 </r>
       <r>    0.6040    1.0000 </r>
       <r>    1.7426    1.0000 </r>
       <r>    2.0672    1.0000 </r>
       <r>    2.6104    1.0000 </r>
       <r>    2.8605    1.0000 </r>
       <r>    3.0624    1.0000 </r>
       <r>    3.7497    1.0000 </r>
       <r>    4.6260    1.0000 </r>
       <r>    7.0919    0.0000 </r>
       <r>    7.5402    0.0000 </r>
       <r>    7.8656    0.0000 </r>
       <r>    8.4068    0.0000 </r>
      </set>
      <set comment="kpoint 77">
       <r>  -25.6277    1.0000 </r>
       <r>  -25.6245    1.0000 </r>
       <r>  -25.6225    1.0000 </r>
       <r>   -3.3940    1.0000 </r>
       <r>    0.6470    1.0000 </r>
       <r>    1.6553    1.0000 </r>
       <r>    2.0674    1.0000 </r>
       <r>    2.4607    1.0000 </r>
       <r>    2.8850    1.0000 </r>
       <r>    3.0410    1.0000 </r>
       <r>    3.6753    1.0000 </r>
       <r>    4.5857    1.0000 </r>
[...]
       <r>    7.3528    0.0000 </r>
       <r>    7.9108    0.0000 </r>
       <r>    8.2905    0.0000 </r>
      </set>
      <set comment="kpoint 79">
       <r>  -25.6277    1.0000 </r>
       <r>  -25.6247    1.0000 </r>
       <r>  -25.6228    1.0000 </r>
       <r>   -3.3726    1.0000 </r>
       <r>    0.7728    1.0000 </r>
       <r>    1.6817    1.0000 </r>
       <r>    2.2286    1.0000 </r>
       <r>    2.4178    1.0000 </r>
       <r>    2.8604    1.0000 </r>
       <r>    3.0533    1.0000 </r>
       <r>    3.4230    1.0000 </r>
       <r>    4.5087    1.0000 </r>
       <r>    7.0178    0.0000 </r>
       <r>    7.4974    0.0000 </r>
       <r>    7.6476    0.0000 </r>
       <r>    8.2016    0.0000 </r>
      </set>
      <set comment="kpoint 80">
       <r>  -25.6274    1.0000 </r>
       <r>  -25.6251    1.0000 </r>
       <r>  -25.6228    1.0000 </r>
       <r>   -3.3495    1.0000 </r>
       <r>    0.8316    1.0000 </r>
       <r>    1.5964    1.0000 </r>
       <r>    2.1997    1.0000 </r>
       <r>    2.3379    1.0000 </r>
       <r>    2.9292    1.0000 </r>
       <r>    3.0939    1.0000 </r>
       <r>    3.3096    1.0000 </r>
       <r>    4.5276    1.0000 </r>
       <r>    7.1547    0.0000 </r>
       <r>    7.4525    0.0000 </r>
       <r>    7.6816    0.0000 </r>
       <r>    8.1028    0.0000 </r>
      </set>
      <set comment="kpoint 81">
       <r>  -25.6274    1.0000 </r>
       <r>  -25.6250    1.0000 </r>
       <r>  -25.6226    1.0000 </r>
       <r>   -3.3903    1.0000 </r>
       <r>    0.7311    1.0000 </r>
       <r>    1.6476    1.0000 </r>
       <r>    2.1348    1.0000 </r>
       <r>    2.4341    1.0000 </r>
       <r>    2.9069    1.0000 </r>
       <r>    3.1042    1.0000 </r>
       <r>    3.4387    1.0000 </r>
       <r>    4.5617    1.0000 </r>
       <r>    7.2181    0.0000 </r>
       <r>    7.5009    0.0000 </r>
       <r>    7.6039    0.0000 </r>
       <r>    8.3342    0.0000 </r>
      </set>
      <set comment="kpoint 82">
       <r>  -25.6283    1.0000 </r>
       <r>  -25.6243    1.0000 </r>
       <r>  -25.6231    1.0000 </r>
       <r>   -3.3605    1.0000 </r>
       <r>    0.8246    1.0000 </r>
       <r>    1.7902    1.0000 </r>
       <r>    2.2274    1.0000 </r>
       <r>    2.4647    1.0000 </r>
       <r>    2.7593    1.0000 </r>
       <r>    3.0570    1.0000 </r>
       <r>    3.4459    1.0000 </r>
       <r>    4.4365    1.0000 </r>
       <r>    6.8197    1.0000 </r>
       <r>    7.2777    0.0000 </r>
       <r>    7.8714    0.0000 </r>
       <r>    8.1123    0.0000 </r>
      </set>
      <set comment="kpoint 83">
       <r>  -25.6278    1.0000 </r>
       <r>  -25.6249    1.0000 </r>
       <r>  -25.6230    1.0000 </r>
       <r>   -3.3376    1.0000 </r>
       <r>    0.9106    1.0000 </r>
       <r>    1.6488    1.0000 </r>
       <r>    2.1931    1.0000 </r>
       <r>    2.4058    1.0000 </r>
       <r>    2.9049    1.0000 </r>
       <r>    3.0255    1.0000 </r>
       <r>    3.2514    1.0000 </r>
       <r>    4.4860    1.0000 </r>
       <r>    6.9823    0.0000 </r>
       <r>    7.4154    0.0000 </r>
       <r>    7.7265    0.0000 </r>
       <r>    7.9675    0.0000 </r>
      </set>
      <set comment="kpoint 84">
       <r>  -25.6274    1.0000 </r>
       <r>  -25.6252    1.0000 </r>
       <r>  -25.6230    1.0000 </r>
       <r>   -3.3349    1.0000 </r>
       <r>    0.9280    1.0000 </r>
       <r>    1.5908    1.0000 </r>
       <r>    2.1995    1.0000 </r>
       <r>    2.4601    1.0000 </r>
       <r>    2.8765    1.0000 </r>
       <r>    3.0379    1.0000 </r>
       <r>    3.1528    1.0000 </r>
       <r>    4.5238    1.0000 </r>
       <r>    7.2349    0.0000 </r>
       <r>    7.3897    0.0000 </r>
       <r>    7.5053    0.0000 </r>
       <r>    7.9542    0.0000 </r>
      </set>
     </set>
    </set>
   </array>
  </eigenvalues>
  <separator name="orbital magnetization" >
   <v name="MAGDIPOLOUT">      0.00000000      0.00000000      0.00000000</v>
  </separator>
  <dos>
   <i name="efermi">      6.90284055 </i>
   <total>
    <array>
     <dimension dim="1">gridpoints</dimension>
     <dimension dim="2">spin</dimension>
     <field>energy</field>
     <field>total</field>
     <field>integrated</field>
     <set>
      <set comment="spin 1">
       <r>   -27.3657     0.0000     0.0000 </r>
       <r>   -27.2383     0.0000     0.0000 </r>
       <r>   -27.1110     0.0000     0.0000 </r>
       <r>   -26.9837     0.0000     0.0000 </r>
       <r>   -26.8564     0.0000     0.0000 </r>
       <r>   -26.7290     0.0000     0.0000 </r>
       <r>   -26.6017     0.0000     0.0000 </r>
       <r>   -26.4744     0.0000     0.0000 </r>
       <r>   -26.3470     0.0000     0.0000 </r>
       <r>   -26.2197     0.0000     0.0000 </r>
       <r>   -26.0924     0.0000     0.0000 </r>
       <r>   -25.9650     0.0000     0.0000 </r>
       <r>   -25.8377     0.0000     0.0000 </r>
       <r>   -25.7104     0.0000     0.0000 </r>
       <r>   -25.5831    47.1217     6.0000 </r>
       <r>   -25.4557     0.0000     6.0000 </r>
       <r>   -25.3284     0.0000     6.0000 </r>
       <r>   -25.2011     0.0000     6.0000 </r>
       <r>   -25.0737     0.0000     6.0000 </r>
       <r>   -24.9464     0.0000     6.0000 </r>
       <r>   -24.8191     0.0000     6.0000 </r>
       <r>   -24.6917     0.0000     6.0000 </r>
       <r>   -24.5644     0.0000     6.0000 </r>
       <r>   -24.4371     0.0000     6.0000 </r>
       <r>   -24.3098     0.0000     6.0000 </r>
       <r>   -24.1824     0.0000     6.0000 </r>
       <r>   -24.0551     0.0000     6.0000 </r>
       <r>   -23.9278     0.0000     6.0000 </r>
       <r>   -23.8004     0.0000     6.0000 </r>
       <r>   -23.6731     0.0000     6.0000 </r>
       <r>   -23.5458     0.0000     6.0000 </r>
       <r>   -23.4184     0.0000     6.0000 </r>
       <r>   -23.2911     0.0000     6.0000 </r>
       <r>   -23.1638     0.0000     6.0000 </r>
       <r>   -23.0365     0.0000     6.0000 </r>
       <r>   -22.9091     0.0000     6.0000 </r>
       <r>   -22.7818     0.0000     6.0000 </r>
       <r>   -22.6545     0.0000     6.0000 </r>
       <r>   -22.5271     0.0000     6.0000 </r>
       <r>   -22.3998     0.0000     6.0000 </r>
       <r>   -22.2725     0.0000     6.0000 </r>
       <r>   -22.1451     0.0000     6.0000 </r>
       <r>   -22.0178     0.0000     6.0000 </r>
       <r>   -21.8905     0.0000     6.0000 </r>
       <r>   -21.7632     0.0000     6.0000 </r>
       <r>   -21.6358     0.0000     6.0000 </r>
       <r>   -21.5085     0.0000     6.0000 </r>
       <r>   -21.3812     0.0000     6.0000 </r>
       <r>   -21.2538     0.0000     6.0000 </r>
       <r>   -21.1265     0.0000     6.0000 </r>
       <r>   -20.9992     0.0000     6.0000 </r>
       <r>   -20.8719     0.0000     6.0000 </r>
       <r>   -20.7445     0.0000     6.0000 </r>
       <r>   -20.6172     0.0000     6.0000 </r>
       <r>   -20.4899     0.0000     6.0000 </r>
       <r>   -20.3625     0.0000     6.0000 </r>
       <r>   -20.2352     0.0000     6.0000 </r>
       <r>   -20.1079     0.0000     6.0000 </r>
       <r>   -19.9805     0.0000     6.0000 </r>
       <r>   -19.8532     0.0000     6.0000 </r>
       <r>   -19.7259     0.0000     6.0000 </r>
       <r>   -19.5986     0.0000     6.0000 </r>
       <r>   -19.4712     0.0000     6.0000 </r>
       <r>   -19.3439     0.0000     6.0000 </r>
       <r>   -19.2166     0.0000     6.0000 </r>
       <r>   -19.0892     0.0000     6.0000 </r>
       <r>   -18.9619     0.0000     6.0000 </r>
       <r>   -18.8346     0.0000     6.0000 </r>
       <r>   -18.7072     0.0000     6.0000 </r>
       <r>   -18.5799     0.0000     6.0000 </r>
       <r>   -18.4526     0.0000     6.0000 </r>
       <r>   -18.3253     0.0000     6.0000 </r>
       <r>   -18.1979     0.0000     6.0000 </r>
       <r>   -18.0706     0.0000     6.0000 </r>
       <r>   -17.9433     0.0000     6.0000 </r>
       <r>   -17.8159     0.0000     6.0000 </r>
       <r>   -17.6886     0.0000     6.0000 </r>
       <r>   -17.5613     0.0000     6.0000 </r>
       <r>   -17.4339     0.0000     6.0000 </r>
       <r>   -17.3066     0.0000     6.0000 </r>
       <r>   -17.1793     0.0000     6.0000 </r>
       <r>   -17.0520     0.0000     6.0000 </r>
       <r>   -16.9246     0.0000     6.0000 </r>
       <r>   -16.7973     0.0000     6.0000 </r>
       <r>   -16.6700     0.0000     6.0000 </r>
       <r>   -16.5426     0.0000     6.0000 </r>
       <r>   -16.4153     0.0000     6.0000 </r>
       <r>   -16.2880     0.0000     6.0000 </r>
       <r>   -16.1606     0.0000     6.0000 </r>
       <r>   -16.0333     0.0000     6.0000 </r>
       <r>   -15.9060     0.0000     6.0000 </r>
       <r>   -15.7787     0.0000     6.0000 </r>
       <r>   -15.6513     0.0000     6.0000 </r>
       <r>   -15.5240     0.0000     6.0000 </r>
       <r>   -15.3967     0.0000     6.0000 </r>
       <r>   -15.2693     0.0000     6.0000 </r>
       <r>   -15.1420     0.0000     6.0000 </r>
       <r>   -15.0147     0.0000     6.0000 </r>
       <r>   -14.8873     0.0000     6.0000 </r>
       <r>   -14.7600     0.0000     6.0000 </r>
       <r>   -14.6327     0.0000     6.0000 </r>
       <r>   -14.5054     0.0000     6.0000 </r>
       <r>   -14.3780     0.0000     6.0000 </r>
       <r>   -14.2507     0.0000     6.0000 </r>
       <r>   -14.1234     0.0000     6.0000 </r>
       <r>   -13.9960     0.0000     6.0000 </r>
       <r>   -13.8687     0.0000     6.0000 </r>
       <r>   -13.7414     0.0000     6.0000 </r>
       <r>   -13.6141     0.0000     6.0000 </r>
       <r>   -13.4867     0.0000     6.0000 </r>
       <r>   -13.3594     0.0000     6.0000 </r>
       <r>   -13.2321     0.0000     6.0000 </r>
       <r>   -13.1047     0.0000     6.0000 </r>
       <r>   -12.9774     0.0000     6.0000 </r>
       <r>   -12.8501     0.0000     6.0000 </r>
       <r>   -12.7227     0.0000     6.0000 </r>
       <r>   -12.5954     0.0000     6.0000 </r>
       <r>   -12.4681     0.0000     6.0000 </r>
       <r>   -12.3408     0.0000     6.0000 </r>
       <r>   -12.2134     0.0000     6.0000 </r>
       <r>   -12.0861     0.0000     6.0000 </r>
       <r>   -11.9588     0.0000     6.0000 </r>
       <r>   -11.8314     0.0000     6.0000 </r>
       <r>   -11.7041     0.0000     6.0000 </r>
       <r>   -11.5768     0.0000     6.0000 </r>
       <r>   -11.4494     0.0000     6.0000 </r>
       <r>   -11.3221     0.0000     6.0000 </r>
       <r>   -11.1948     0.0000     6.0000 </r>
       <r>   -11.0675     0.0000     6.0000 </r>
       <r>   -10.9401     0.0000     6.0000 </r>
       <r>   -10.8128     0.0000     6.0000 </r>
       <r>   -10.6855     0.0000     6.0000 </r>
       <r>   -10.5581     0.0000     6.0000 </r>
       <r>   -10.4308     0.0000     6.0000 </r>
       <r>   -10.3035     0.0000     6.0000 </r>
       <r>   -10.1761     0.0000     6.0000 </r>
       <r>   -10.0488     0.0000     6.0000 </r>
       <r>    -9.9215     0.0000     6.0000 </r>
       <r>    -9.7942     0.0000     6.0000 </r>
       <r>    -9.6668     0.0000     6.0000 </r>
       <r>    -9.5395     0.0000     6.0000 </r>
       <r>    -9.4122     0.0000     6.0000 </r>
       <r>    -9.2848     0.0000     6.0000 </r>
       <r>    -9.1575     0.0000     6.0000 </r>
       <r>    -9.0302     0.0000     6.0000 </r>
       <r>    -8.9028     0.0000     6.0000 </r>
       <r>    -8.7755     0.0000     6.0000 </r>
       <r>    -8.6482     0.0000     6.0000 </r>
       <r>    -8.5209     0.0000     6.0000 </r>
       <r>    -8.3935     0.0000     6.0000 </r>
       <r>    -8.2662     0.0000     6.0000 </r>
       <r>    -8.1389     0.0000     6.0000 </r>
       <r>    -8.0115     0.0000     6.0000 </r>
       <r>    -7.8842     0.0000     6.0000 </r>
       <r>    -7.7569     0.0000     6.0000 </r>
       <r>    -7.6295     0.0000     6.0000 </r>
       <r>    -7.5022     0.0000     6.0000 </r>
       <r>    -7.3749     0.0000     6.0000 </r>
       <r>    -7.2476     0.0000     6.0000 </r>
       <r>    -7.1202     0.0000     6.0000 </r>
       <r>    -6.9929     0.0000     6.0000 </r>
       <r>    -6.8656     0.0000     6.0000 </r>
       <r>    -6.7382     0.0000     6.0000 </r>
       <r>    -6.6109     0.0000     6.0000 </r>
       <r>    -6.4836     0.0000     6.0000 </r>
       <r>    -6.3563     0.0000     6.0000 </r>
       <r>    -6.2289     0.0000     6.0000 </r>
       <r>    -6.1016     0.0000     6.0000 </r>
       <r>    -5.9743     0.0000     6.0000 </r>
       <r>    -5.8469     0.0000     6.0000 </r>
       <r>    -5.7196     0.0000     6.0000 </r>
       <r>    -5.5923     0.0000     6.0000 </r>
       <r>    -5.4649     0.0000     6.0000 </r>
       <r>    -5.3376     0.0000     6.0000 </r>
       <r>    -5.2103     0.0000     6.0000 </r>
       <r>    -5.0830     0.0000     6.0000 </r>
       <r>    -4.9556     0.0000     6.0000 </r>
       <r>    -4.8283     0.0000     6.0000 </r>
       <r>    -4.7010     0.0000     6.0000 </r>
       <r>    -4.5736     0.0227     6.0029 </r>
       <r>    -4.4463     0.1163     6.0285 </r>
       <r>    -4.3190     0.1076     6.0674 </r>
       <r>    -4.1916     0.3863     6.1521 </r>
       <r>    -4.0643     0.6407     6.2354 </r>
       <r>    -3.9370     0.3597     6.3034 </r>
       <r>    -3.8097     0.8233     6.4790 </r>
       <r>    -3.6823     0.8661     6.5991 </r>
       <r>    -3.5550     1.3913     6.8590 </r>
       <r>    -3.4277     2.8396     7.3620 </r>
       <r>    -3.3003     2.4880     8.0000 </r>
       <r>    -3.1730     0.0000     8.0000 </r>
       <r>    -3.0457     0.0000     8.0000 </r>
       <r>    -2.9183     0.0000     8.0000 </r>
       <r>    -2.7910     0.0000     8.0000 </r>
       <r>    -2.6637     0.0000     8.0000 </r>
       <r>    -2.5364     0.0000     8.0000 </r>
       <r>    -2.4090     0.0000     8.0000 </r>
       <r>    -2.2817     0.0000     8.0000 </r>
       <r>    -2.1544     0.0000     8.0000 </r>
       <r>    -2.0270     0.0000     8.0000 </r>
       <r>    -1.8997     0.0000     8.0000 </r>
       <r>    -1.7724     0.0000     8.0000 </r>
       <r>    -1.6450     0.0000     8.0000 </r>
       <r>    -1.5177     0.0000     8.0000 </r>
       <r>    -1.3904     0.0000     8.0000 </r>
       <r>    -1.2631     0.0000     8.0000 </r>
       <r>    -1.1357     0.0000     8.0000 </r>
       <r>    -1.0084     0.0000     8.0000 </r>
       <r>    -0.8811     0.0000     8.0000 </r>
       <r>    -0.7537     0.0000     8.0000 </r>
       <r>    -0.6264     0.0000     8.0000 </r>
       <r>    -0.4991     0.0000     8.0000 </r>
       <r>    -0.3717     0.0000     8.0000 </r>
       <r>    -0.2444     0.0000     8.0000 </r>
       <r>    -0.1171     0.0000     8.0000 </r>
       <r>     0.0102     0.0000     8.0000 </r>
       <r>     0.1376     0.0000     8.0000 </r>
       <r>     0.2649     0.0699     8.0089 </r>
       <r>     0.3922     0.6827     8.1161 </r>
       <r>     0.5196     1.2868     8.3241 </r>
       <r>     0.6469     3.6031     8.9595 </r>
       <r>     0.7742     1.4190     9.4351 </r>
       <r>     0.9015     1.0038     9.7282 </r>
       <r>     1.0289     0.6612     9.8539 </r>
       <r>     1.1562     0.0000     9.8680 </r>
       <r>     1.2835     0.2145     9.9244 </r>
       <r>     1.4109     0.0000     9.9463 </r>
       <r>     1.5382     0.0559     9.9753 </r>
       <r>     1.6655     1.5913    10.1780 </r>
       <r>     1.7929     7.2716    11.3437 </r>
       <r>     1.9202     4.2373    12.1954 </r>
       <r>     2.0475     2.7638    12.9536 </r>
       <r>     2.1748     1.7635    13.5036 </r>
       <r>     2.3022     2.3573    14.0380 </r>
       <r>     2.4295     1.6419    14.3675 </r>
       <r>     2.5568     1.2381    14.7530 </r>
       <r>     2.6842     3.1065    15.3569 </r>
       <r>     2.8115     4.9671    16.4295 </r>
       <r>     2.9388     8.5942    18.0438 </r>
       <r>     3.0662     5.7841    19.0569 </r>
       <r>     3.1935     1.9788    19.5719 </r>
       <r>     3.3208     1.1925    19.7358 </r>
       <r>     3.4481     1.0051    19.8922 </r>
       <r>     3.5755     0.5151    20.0046 </r>
       <r>     3.7028     1.8917    20.2964 </r>
       <r>     3.8301     0.6888    20.5256 </r>
       <r>     3.9575     0.7675    20.6503 </r>
       <r>     4.0848     1.5461    20.9570 </r>
       <r>     4.2121     0.7306    21.1262 </r>
       <r>     4.3395     1.6067    21.3980 </r>
       <r>     4.4668     1.6127    21.7538 </r>
       <r>     4.5941     2.9488    22.3937 </r>
       <r>     4.7214     1.6764    22.7669 </r>
       <r>     4.8488     1.7533    23.1700 </r>
       <r>     4.9761     1.3970    23.5197 </r>
       <r>     5.1034     0.4568    23.6804 </r>
       <r>     5.2308     0.5154    23.8016 </r>
       <r>     5.3581     0.6003    23.9253 </r>
       <r>     5.4854     0.2863    23.9618 </r>
       <r>     5.6128     0.1064    23.9862 </r>
       <r>     5.7401     0.0214    24.0009 </r>
       <r>     5.8674     0.0572    24.0082 </r>
       <r>     5.9947     0.0429    24.0137 </r>
       <r>     6.1221     0.0858    24.0319 </r>
       <r>     6.2494     0.2343    24.0617 </r>
       <r>     6.3767     0.1514    24.0857 </r>
       <r>     6.5041     0.8405    24.2062 </r>
       <r>     6.6314     0.9997    24.3867 </r>
       <r>     6.7587     0.9261    24.5813 </r>
       <r>     6.8861     1.2215    24.9357 </r>
       <r>     7.0134     2.3784    25.3634 </r>
       <r>     7.1407     2.9270    25.8702 </r>
       <r>     7.2680     1.6674    26.2942 </r>
       <r>     7.3954     2.4810    26.6928 </r>
       <r>     7.5227     2.4820    27.0862 </r>
       <r>     7.6500     4.9876    27.9350 </r>
       <r>     7.7774     4.0762    28.7211 </r>
       <r>     7.9047     3.9013    29.3525 </r>
       <r>     8.0320     2.7063    29.9723 </r>
       <r>     8.1593     1.3366    30.2894 </r>
       <r>     8.2867     2.0810    30.7120 </r>
       <r>     8.4140     3.4461    31.2808 </r>
       <r>     8.5413     1.7581    31.6394 </r>
       <r>     8.6687     1.0173    31.8419 </r>
       <r>     8.7960     0.7721    31.9636 </r>
       <r>     8.9233     0.1716    31.9927 </r>
       <r>     9.0507     0.0000    31.9927 </r>
       <r>     9.1780     0.0000    32.0000 </r>
       <r>     9.3053     0.0000    32.0000 </r>
       <r>     9.4326     0.0000    32.0000 </r>
       <r>     9.5600     0.0000    32.0000 </r>
       <r>     9.6873     0.0000    32.0000 </r>
       <r>     9.8146     0.0000    32.0000 </r>
       <r>     9.9420     0.0000    32.0000 </r>
       <r>    10.0693     0.0000    32.0000 </r>
       <r>    10.1966     0.0000    32.0000 </r>
       <r>    10.3240     0.0000    32.0000 </r>
       <r>    10.4513     0.0000    32.0000 </r>
       <r>    10.5786     0.0000    32.0000 </r>
       <r>    10.7059     0.0000    32.0000 </r>
       <r>    10.8333     0.0000    32.0000 </r>
      </set>
     </set>
    </array>
   </total>
  </dos>
 </calculation>
 <structure name="finalpos" >
  <crystal>
   <varray name="basis" >
    <v>       0.00000000       3.35856201       3.35856201 </v>
    <v>       3.35856201       0.00000000       3.35856201 </v>
    <v>       3.35856201       3.35856201       0.00000000 </v>
   </varray>
   <i name="volume">     75.76874743 </i>
   <varray name="rec_basis" >
    <v>      -0.14887324       0.14887324       0.14887324 </v>
    <v>       0.14887324      -0.14887324       0.14887324 </v>
    <v>       0.14887324       0.14887324      -0.14887324 </v>
   </varray>
  </crystal>
  <varray name="positions" >
   <v>       0.75000000       0.75000000       0.75000000 </v>
   <v>       0.25000000       0.25000000       0.25000000 </v>
   <v>       0.00000000       0.00000000       0.00000000 </v>
  </varray>
 </structure>
</modeling>
