 running  128 mpi-ranks, with    1 threads/rank, on    1 nodes
 distrk:  each k-point on   32 cores,    4 groups
 distr:  one band on   16 cores,    2 groups
 vasp.6.4.3 19Mar24 (build Jun  3 2025 16:21:13) complex                         
 POSCAR found type information on POSCAR Fe
 POSCAR found :  1 types and       1 ions
 Reading from existing POTCAR
 scaLAPACK will be used
 Reading from existing POTCAR
 LDA part: xc-table for (Slater+PW92), standard interpolation
 -----------------------------------------------------------------------------
|                                                                             |
|           W    W    AA    RRRRR   N    N  II  N    N   GGGG   !!!           |
|           W    W   A  A   R    R  NN   N  II  NN   N  G    G  !!!           |
|           W    W  A    A  R    R  N N  N  II  N N  N  G       !!!           |
|           W WW W  AAAAAA  RRRRR   N  N N  II  N  N N  G  GGG   !            |
|           WW  WW  A    A  R   R   N   NN  II  N   NN  G    G                |
|           W    W  A    A  R    R  N    N  II  N    N   GGGG   !!!           |
|                                                                             |
|     The requested file  could not be found or opened for reading            |
|     k-point information. Automatic k-point generation is used as a          |
|     fallback, which may lead to unwanted results.                           |
|                                                                             |
 -----------------------------------------------------------------------------

 INCAR ok, starting setup
 POSCAR ok, starting setup
 FFT: planning ... GRIDC
 FFT: planning ... GRID_SOFT
 FFT: planning ... GRID
 WAVECAR not read
 entering main loop
       N       E                     dE             d eps       ncg     rms          rms(c)
DAV:   1     0.415506337906E+02    0.41551E+02   -0.26699E+03 43496   0.314E+02
DAV:   2    -0.522436001323E+01   -0.46775E+02   -0.41178E+02 38888   0.889E+01
DAV:   3    -0.806812133641E+01   -0.28438E+01   -0.27988E+01 45528   0.197E+01
DAV:   4    -0.807642156098E+01   -0.83002E-02   -0.82954E-02 39992   0.104E+00
DAV:   5    -0.807642304276E+01   -0.14818E-05   -0.14822E-05 43968   0.141E-02    0.135E+01
DAV:   6    -0.826644220589E+01   -0.19002E+00   -0.68951E+00 43808   0.144E+01    0.473E+00
DAV:   7    -0.823672106270E+01    0.29721E-01   -0.35804E-01 40928   0.291E+00    0.308E+00
DAV:   8    -0.822814727528E+01    0.85738E-02   -0.84824E-03 45056   0.322E-01    0.109E+00
DAV:   9    -0.822289161727E+01    0.52557E-02   -0.10540E-02 44472   0.312E-01    0.245E-01
DAV:  10    -0.822267487418E+01    0.21674E-03   -0.10532E-03 42328   0.190E-01    0.597E-02
DAV:  11    -0.822271080641E+01   -0.35932E-04   -0.60531E-05 40736   0.230E-02    0.520E-02
DAV:  12    -0.822270101403E+01    0.97924E-05   -0.95584E-07 45696   0.412E-03    0.246E-02
DAV:  13    -0.822269982756E+01    0.11865E-05   -0.27426E-06 44880   0.800E-03    0.819E-03
DAV:  14    -0.822269923686E+01    0.59071E-06   -0.19921E-07 33640   0.147E-03    0.702E-04
DAV:  15    -0.822269941119E+01   -0.17433E-06   -0.22506E-08 21464   0.596E-04    0.904E-04
DAV:  16    -0.822269939475E+01    0.16439E-07   -0.21617E-09 19784   0.201E-04
   1 F= -.82226994E+01 E0= -.82226994E+01  d E =0.000000E+00  mag=     2.2751
 -----------------------------------------------------------------------------
|                                                                             |
|           W    W    AA    RRRRR   N    N  II  N    N   GGGG   !!!           |
|           W    W   A  A   R    R  NN   N  II  NN   N  G    G  !!!           |
|           W    W  A    A  R    R  N N  N  II  N N  N  G       !!!           |
|           W WW W  AAAAAA  RRRRR   N  N N  II  N  N N  G  GGG   !            |
|           WW  WW  A    A  R   R   N   NN  II  N   NN  G    G                |
|           W    W  A    A  R    R  N    N  II  N    N   GGGG   !!!           |
|                                                                             |
|     Tetrahedron method does not include variations of the Fermi             |
|     occupations, so forces and stress will be inaccurate. We suggest        |
|     using a different smearing scheme ISMEAR = 1 or 2 for metals in         |
|     relaxations.                                                            |
|                                                                             |
 -----------------------------------------------------------------------------

 PROFILE, used timers:     425
