unknown system                          
            1
    -1.441862    1.441862    1.441862
     1.441862   -1.441862    1.441862
     1.441862    1.441862   -1.441862
   Fe
     1
Direct configuration=     1
   0.00000000  0.00000000  0.00000000
