   3   3   0   0
  0.3160231E+02  0.5118213E-09  0.5118213E-09  0.5118213E-09  0.5000000E-15
  1.000000000000000E-004
  CAR
 unknown system
     10.38719737    -36.03959981  301      6.63297044      1.00000000
    -36.040  0.0000E+00  0.0000E+00
    -35.885  0.0000E+00  0.0000E+00
    -35.730  0.0000E+00  0.0000E+00
    -35.575  0.0000E+00  0.0000E+00
    -35.421  0.0000E+00  0.0000E+00
    -35.266  0.0000E+00  0.0000E+00
    -35.111  0.0000E+00  0.0000E+00
    -34.956  0.0000E+00  0.0000E+00
    -34.802  0.0000E+00  0.0000E+00
    -34.647  0.0000E+00  0.0000E+00
    -34.492  0.0000E+00  0.0000E+00
    -34.337  0.0000E+00  0.0000E+00
    -34.183  0.0000E+00  0.0000E+00
    -34.028  0.0000E+00  0.0000E+00
    -33.873  0.1292E+02  0.2000E+01
    -33.718  0.0000E+00  0.2000E+01
    -33.564  0.0000E+00  0.2000E+01
    -33.409  0.0000E+00  0.2000E+01
    -33.254  0.0000E+00  0.2000E+01
    -33.099  0.0000E+00  0.2000E+01
    -32.944  0.0000E+00  0.2000E+01
    -32.790  0.0000E+00  0.2000E+01
    -32.635  0.0000E+00  0.2000E+01
    -32.480  0.0000E+00  0.2000E+01
    -32.325  0.0000E+00  0.2000E+01
    -32.171  0.0000E+00  0.2000E+01
    -32.016  0.0000E+00  0.2000E+01
    -31.861  0.0000E+00  0.2000E+01
    -31.706  0.0000E+00  0.2000E+01
    -31.552  0.0000E+00  0.2000E+01
    -31.397  0.0000E+00  0.2000E+01
    -31.242  0.0000E+00  0.2000E+01
    -31.087  0.0000E+00  0.2000E+01
    -30.933  0.0000E+00  0.2000E+01
    -30.778  0.0000E+00  0.2000E+01
    -30.623  0.0000E+00  0.2000E+01
    -30.468  0.0000E+00  0.2000E+01
    -30.314  0.0000E+00  0.2000E+01
    -30.159  0.0000E+00  0.2000E+01
    -30.004  0.0000E+00  0.2000E+01
    -29.849  0.0000E+00  0.2000E+01
    -29.695  0.0000E+00  0.2000E+01
    -29.540  0.0000E+00  0.2000E+01
    -29.385  0.0000E+00  0.2000E+01
    -29.230  0.0000E+00  0.2000E+01
    -29.076  0.0000E+00  0.2000E+01
    -28.921  0.0000E+00  0.2000E+01
    -28.766  0.0000E+00  0.2000E+01
    -28.611  0.0000E+00  0.2000E+01
    -28.457  0.0000E+00  0.2000E+01
    -28.302  0.0000E+00  0.2000E+01
    -28.147  0.0000E+00  0.2000E+01
    -27.992  0.0000E+00  0.2000E+01
    -27.838  0.0000E+00  0.2000E+01
    -27.683  0.0000E+00  0.2000E+01
    -27.528  0.0000E+00  0.2000E+01
    -27.373  0.0000E+00  0.2000E+01
    -27.219  0.0000E+00  0.2000E+01
    -27.064  0.0000E+00  0.2000E+01
    -26.909  0.0000E+00  0.2000E+01
    -26.754  0.0000E+00  0.2000E+01
    -26.599  0.0000E+00  0.2000E+01
    -26.445  0.0000E+00  0.2000E+01
    -26.290  0.0000E+00  0.2000E+01
    -26.135  0.0000E+00  0.2000E+01
    -25.980  0.0000E+00  0.2000E+01
    -25.826  0.0000E+00  0.2000E+01
    -25.671  0.0000E+00  0.2000E+01
    -25.516  0.0000E+00  0.2000E+01
    -25.361  0.0000E+00  0.2000E+01
    -25.207  0.0000E+00  0.2000E+01
    -25.052  0.0000E+00  0.2000E+01
    -24.897  0.0000E+00  0.2000E+01
    -24.742  0.0000E+00  0.2000E+01
    -24.588  0.0000E+00  0.2000E+01
    -24.433  0.0000E+00  0.2000E+01
    -24.278  0.0000E+00  0.2000E+01
    -24.123  0.0000E+00  0.2000E+01
    -23.969  0.0000E+00  0.2000E+01
    -23.814  0.0000E+00  0.2000E+01
    -23.659  0.0000E+00  0.2000E+01
    -23.504  0.0000E+00  0.2000E+01
    -23.350  0.0000E+00  0.2000E+01
    -23.195  0.0000E+00  0.2000E+01
    -23.040  0.0000E+00  0.2000E+01
    -22.885  0.0000E+00  0.2000E+01
    -22.731  0.0000E+00  0.2000E+01
    -22.576  0.0000E+00  0.2000E+01
    -22.421  0.0000E+00  0.2000E+01
    -22.266  0.0000E+00  0.2000E+01
    -22.112  0.0000E+00  0.2000E+01
    -21.957  0.0000E+00  0.2000E+01
    -21.802  0.0000E+00  0.2000E+01
    -21.647  0.0000E+00  0.2000E+01
    -21.493  0.0000E+00  0.2000E+01
    -21.338  0.0000E+00  0.2000E+01
    -21.183  0.0000E+00  0.2000E+01
    -21.028  0.0000E+00  0.2000E+01
    -20.874  0.0000E+00  0.2000E+01
    -20.719  0.0000E+00  0.2000E+01
    -20.564  0.0000E+00  0.2000E+01
    -20.409  0.0000E+00  0.2000E+01
    -20.254  0.0000E+00  0.2000E+01
    -20.100  0.0000E+00  0.2000E+01
    -19.945  0.0000E+00  0.2000E+01
    -19.790  0.0000E+00  0.2000E+01
    -19.635  0.0000E+00  0.2000E+01
    -19.481  0.0000E+00  0.2000E+01
    -19.326  0.0000E+00  0.2000E+01
    -19.171  0.0000E+00  0.2000E+01
    -19.016  0.0000E+00  0.2000E+01
    -18.862  0.0000E+00  0.2000E+01
    -18.707  0.0000E+00  0.2000E+01
    -18.552  0.0000E+00  0.2000E+01
    -18.397  0.0000E+00  0.2000E+01
    -18.243  0.0000E+00  0.2000E+01
    -18.088  0.0000E+00  0.2000E+01
    -17.933  0.0000E+00  0.2000E+01
    -17.778  0.0000E+00  0.2000E+01
    -17.624  0.0000E+00  0.2000E+01
    -17.469  0.0000E+00  0.2000E+01
    -17.314  0.0000E+00  0.2000E+01
    -17.159  0.0000E+00  0.2000E+01
    -17.005  0.0000E+00  0.2000E+01
    -16.850  0.0000E+00  0.2000E+01
    -16.695  0.0000E+00  0.2000E+01
    -16.540  0.0000E+00  0.2000E+01
    -16.386  0.0000E+00  0.2000E+01
    -16.231  0.0000E+00  0.2000E+01
    -16.076  0.4259E+02  0.8591E+01
    -15.921  0.0000E+00  0.1200E+02
    -15.767  0.0000E+00  0.1200E+02
    -15.612  0.0000E+00  0.1200E+02
    -15.457  0.0000E+00  0.1200E+02
    -15.302  0.0000E+00  0.1200E+02
    -15.148  0.0000E+00  0.1200E+02
    -14.993  0.0000E+00  0.1200E+02
    -14.838  0.0000E+00  0.1200E+02
    -14.683  0.0000E+00  0.1200E+02
    -14.529  0.0000E+00  0.1200E+02
    -14.374  0.0000E+00  0.1200E+02
    -14.219  0.0000E+00  0.1200E+02
    -14.064  0.0000E+00  0.1200E+02
    -13.909  0.0000E+00  0.1200E+02
    -13.755  0.0000E+00  0.1200E+02
    -13.600  0.0000E+00  0.1200E+02
    -13.445  0.0000E+00  0.1200E+02
    -13.290  0.0000E+00  0.1200E+02
    -13.136  0.0000E+00  0.1200E+02
    -12.981  0.0000E+00  0.1200E+02
    -12.826  0.0000E+00  0.1200E+02
    -12.671  0.0000E+00  0.1200E+02
    -12.517  0.0000E+00  0.1200E+02
    -12.362  0.0000E+00  0.1200E+02
    -12.207  0.0000E+00  0.1200E+02
    -12.052  0.0000E+00  0.1200E+02
    -11.898  0.0000E+00  0.1200E+02
    -11.743  0.1855E+02  0.1490E+02
    -11.588  0.0000E+00  0.1800E+02
    -11.433  0.0000E+00  0.1800E+02
    -11.279  0.0000E+00  0.1800E+02
    -11.124  0.0000E+00  0.1800E+02
    -10.969  0.0000E+00  0.1800E+02
    -10.814  0.0000E+00  0.1800E+02
    -10.660  0.0000E+00  0.1800E+02
    -10.505  0.0000E+00  0.1800E+02
    -10.350  0.0000E+00  0.1800E+02
    -10.195  0.0000E+00  0.1800E+02
    -10.041  0.0000E+00  0.1800E+02
     -9.886  0.0000E+00  0.1800E+02
     -9.731  0.0000E+00  0.1800E+02
     -9.576  0.0000E+00  0.1800E+02
     -9.422  0.0000E+00  0.1800E+02
     -9.267  0.0000E+00  0.1800E+02
     -9.112  0.0000E+00  0.1800E+02
     -8.957  0.0000E+00  0.1800E+02
     -8.803  0.0000E+00  0.1800E+02
     -8.648  0.0000E+00  0.1800E+02
     -8.493  0.0000E+00  0.1800E+02
     -8.338  0.0000E+00  0.1800E+02
     -8.184  0.0000E+00  0.1800E+02
     -8.029  0.0000E+00  0.1800E+02
     -7.874  0.0000E+00  0.1800E+02
     -7.719  0.0000E+00  0.1800E+02
     -7.564  0.0000E+00  0.1800E+02
     -7.410  0.0000E+00  0.1800E+02
     -7.255  0.0000E+00  0.1800E+02
     -7.100  0.0000E+00  0.1800E+02
     -6.945  0.0000E+00  0.1800E+02
     -6.791  0.0000E+00  0.1800E+02
     -6.636  0.0000E+00  0.1800E+02
     -6.481  0.0000E+00  0.1800E+02
     -6.326  0.0000E+00  0.1800E+02
     -6.172  0.0000E+00  0.1800E+02
     -6.017  0.0000E+00  0.1800E+02
     -5.862  0.0000E+00  0.1800E+02
     -5.707  0.0000E+00  0.1800E+02
     -5.553  0.0000E+00  0.1800E+02
     -5.398  0.0000E+00  0.1800E+02
     -5.243  0.0000E+00  0.1800E+02
     -5.088  0.0000E+00  0.1800E+02
     -4.934  0.0000E+00  0.1800E+02
     -4.779  0.1223E-01  0.1800E+02
     -4.624  0.2232E+00  0.1806E+02
     -4.469  0.6190E+00  0.1822E+02
     -4.315  0.2723E+01  0.1875E+02
     -4.160  0.2926E+01  0.2000E+02
     -4.005  0.0000E+00  0.2000E+02
     -3.850  0.0000E+00  0.2000E+02
     -3.696  0.0000E+00  0.2000E+02
     -3.541  0.0000E+00  0.2000E+02
     -3.386  0.0000E+00  0.2000E+02
     -3.231  0.0000E+00  0.2000E+02
     -3.077  0.0000E+00  0.2000E+02
     -2.922  0.0000E+00  0.2000E+02
     -2.767  0.0000E+00  0.2000E+02
     -2.612  0.0000E+00  0.2000E+02
     -2.458  0.0000E+00  0.2000E+02
     -2.303  0.0000E+00  0.2000E+02
     -2.148  0.0000E+00  0.2000E+02
     -1.993  0.0000E+00  0.2000E+02
     -1.839  0.0000E+00  0.2000E+02
     -1.684  0.0000E+00  0.2000E+02
     -1.529  0.0000E+00  0.2000E+02
     -1.374  0.0000E+00  0.2000E+02
     -1.220  0.0000E+00  0.2000E+02
     -1.065  0.0000E+00  0.2000E+02
     -0.910  0.0000E+00  0.2000E+02
     -0.755  0.0000E+00  0.2000E+02
     -0.600  0.0000E+00  0.2000E+02
     -0.446  0.0000E+00  0.2000E+02
     -0.291  0.0000E+00  0.2000E+02
     -0.136  0.0000E+00  0.2000E+02
      0.019  0.0000E+00  0.2000E+02
      0.173  0.0000E+00  0.2000E+02
      0.328  0.0000E+00  0.2000E+02
      0.483  0.0000E+00  0.2000E+02
      0.638  0.0000E+00  0.2000E+02
      0.792  0.0000E+00  0.2000E+02
      0.947  0.0000E+00  0.2000E+02
      1.102  0.0000E+00  0.2000E+02
      1.257  0.0000E+00  0.2000E+02
      1.411  0.8942E-01  0.2001E+02
      1.566  0.6086E+00  0.2017E+02
      1.721  0.3079E+01  0.2075E+02
      1.876  0.1078E+01  0.2122E+02
      2.030  0.6366E+00  0.2154E+02
      2.185  0.1161E+01  0.2187E+02
      2.340  0.1519E-11  0.2195E+02
      2.495  0.5802E-01  0.2198E+02
      2.649  0.5972E+01  0.2330E+02
      2.804  0.3712E+01  0.2438E+02
      2.959  0.3841E+01  0.2533E+02
      3.114  0.4941E+00  0.2601E+02
      3.268  0.4528E+00  0.2612E+02
      3.423  0.9526E+01  0.2818E+02
      3.578  0.7157E+01  0.3026E+02
      3.733  0.2898E+01  0.3139E+02
      3.887  0.8328E+00  0.3176E+02
      4.042  0.7070E+00  0.3198E+02
      4.197  0.4423E+00  0.3219E+02
      4.352  0.6481E+00  0.3250E+02
      4.506  0.1169E+01  0.3280E+02
      4.661  0.8323E+00  0.3310E+02
      4.816  0.9482E+00  0.3334E+02
      4.971  0.5762E+00  0.3364E+02
      5.125  0.5487E+01  0.3454E+02
      5.280  0.2297E+01  0.3567E+02
      5.435  0.3164E+00  0.3585E+02
      5.590  0.2351E+00  0.3596E+02
      5.745  0.1619E+00  0.3600E+02
      5.899  0.5295E-01  0.3602E+02
      6.054  0.1529E+00  0.3605E+02
      6.209  0.3899E+00  0.3613E+02
      6.364  0.2490E+00  0.3625E+02
      6.518  0.1753E+01  0.3662E+02
      6.673  0.2258E+01  0.3718E+02
      6.828  0.2378E+01  0.3774E+02
      6.983  0.1167E+01  0.3805E+02
      7.137  0.6284E+00  0.3827E+02
      7.292  0.4630E+00  0.3847E+02
      7.447  0.9062E+00  0.3869E+02
      7.602  0.3135E+01  0.3946E+02
      7.756  0.2625E+01  0.4054E+02
      7.911  0.3701E+01  0.4149E+02
      8.066  0.7336E+01  0.4381E+02
      8.221  0.1024E+02  0.4751E+02
      8.375  0.0000E+00  0.4800E+02
      8.530  0.0000E+00  0.4800E+02
      8.685  0.0000E+00  0.4800E+02
      8.840  0.0000E+00  0.4800E+02
      8.994  0.0000E+00  0.4800E+02
      9.149  0.0000E+00  0.4800E+02
      9.304  0.0000E+00  0.4800E+02
      9.459  0.0000E+00  0.4800E+02
      9.613  0.0000E+00  0.4800E+02
      9.768  0.0000E+00  0.4800E+02
      9.923  0.0000E+00  0.4800E+02
     10.078  0.0000E+00  0.4800E+02
     10.232  0.0000E+00  0.4800E+02
     10.387  0.0000E+00  0.4800E+02
