    3    3    1    1
  0.3160231E+02  0.5118213E-09  0.5118213E-09  0.5118213E-09  0.5000000E-15
  1.000000000000000E-004
  CAR
 unknown system
     37     84     24

  0.0000000E+00  0.0000000E+00  0.0000000E+00  0.4551661E-03
    1      -33.929291   1.000000
    2      -16.098695   1.000000
    3      -16.098695   1.000000
    4      -16.075503   1.000000
    5      -16.075503   1.000000
    6      -16.075503   1.000000
    7      -11.721084   1.000000
    8      -11.721084   1.000000
    9      -11.721084   1.000000
   10       -4.806972   1.000000
   11        2.975427   1.000000
   12        2.975427   1.000000
   13        2.975427   1.000000
   14        3.286732   1.000000
   15        3.286732   1.000000
   16        4.257415   1.000000
   17        5.806936   1.000000
   18        5.806936   1.000000
   19        5.806936   1.000000
   20        6.919954   0.000000
   21        6.919954   0.000000
   22        6.919954   0.000000
   23        7.537854   0.000000
   24        8.173070   0.000000

  0.7692308E-01 -0.1168739E-17  0.1445206E-17  0.3641329E-02
    1      -33.929185   1.000000
    2      -16.098979   1.000000
    3      -16.098979   1.000000
    4      -16.075542   1.000000
    5      -16.075424   1.000000
    6      -16.075424   1.000000
    7      -11.727729   1.000000
    8      -11.720439   1.000000
    9      -11.720439   1.000000
   10       -4.770997   1.000000
   11        2.820853   1.000000
   12        2.913737   1.000000
   13        2.913737   1.000000
   14        3.345128   1.000000
   15        3.345128   1.000000
   16        4.229835   1.000000
   17        5.731237   1.000000
   18        5.731237   1.000000
   19        5.804706   1.000000
   20        6.984807   0.000000
   21        6.999397   0.000000
   22        6.999397   0.000000
   23        7.690629   0.000000
   24        8.183051   0.000000

  0.1538462E+00 -0.3072520E-17  0.3625453E-17  0.3641329E-02
    1      -33.928897   1.000000
    2      -16.099796   1.000000
    3      -16.099796   1.000000
    4      -16.075673   1.000000
    5      -16.075223   1.000000
    6      -16.075223   1.000000
    7      -11.745839   1.000000
    8      -11.718650   1.000000
    9      -11.718650   1.000000
   10       -4.670704   1.000000
   11        2.474642   1.000000
   12        2.808103   1.000000
   13        2.808103   1.000000
   14        3.434352   1.000000
   15        3.434352   1.000000
   16        4.084112   1.000000
   17        5.569225   1.000000
   18        5.569225   1.000000
   19        5.830843   1.000000
   20        7.184583   0.000000
   21        7.184583   0.000000
   22        7.263162   0.000000
   23        7.945400   0.000000
   24        8.205386   0.000000

  0.2307692E+00  0.2697634E-17 -0.1868235E-17  0.3641329E-02
    1      -33.928492   1.000000
    2      -16.100952   1.000000
    3      -16.100952   1.000000
    4      -16.075884   1.000000
    5      -16.074929   1.000000
    6      -16.074929   1.000000
    7      -11.770659   1.000000
    8      -11.716139   1.000000
    9      -11.716139   1.000000
   10       -4.527664   1.000000
   11        2.092305   1.000000
   12        2.720983   1.000000
   13        2.720983   1.000000
   14        3.478919   1.000000
   15        3.478919   1.000000
   16        3.848756   1.000000
   17        5.414752   1.000000
   18        5.414752   1.000000
   19        5.907398   1.000000
   20        7.401899   0.000000
   21        7.401899   0.000000
   22        7.684763   0.000000
   23        8.124300   0.000000
   24        8.216082   0.000000

  0.3076923E+00 -0.6145041E-17  0.7250906E-17  0.3641329E-02
    1      -33.928062   1.000000
    2      -16.102185   1.000000
    3      -16.102185   1.000000
    4      -16.076125   1.000000
    5      -16.074605   1.000000
    6      -16.074605   1.000000
    7      -11.796124   1.000000
    8      -11.713480   1.000000
    9      -11.713480   1.000000
   10       -4.373590   1.000000
   11        1.756689   1.000000
   12        2.668644   1.000000
   13        2.668644   1.000000
   14        3.460687   1.000000
   15        3.460687   1.000000
   16        3.626632   1.000000
   17        5.313271   1.000000
   18        5.313271   1.000000
   19        6.026153   1.000000
   20        7.600749   0.000000
   21        7.600749   0.000000
   22        8.051062   0.000000
   23        8.182356   0.000000
   24        8.183407   0.000000

  0.3846154E+00  0.3589409E-17 -0.2207078E-17  0.3641329E-02
    1      -33.927705   1.000000
    2      -16.103219   1.000000
    3      -16.103219   1.000000
    4      -16.076342   1.000000
    5      -16.074326   1.000000
    6      -16.074326   1.000000
    7      -11.816573   1.000000
    8      -11.711282   1.000000
    9      -11.711282   1.000000
   10       -4.244035   1.000000
   11        1.511674   1.000000
   12        2.649026   1.000000
   13        2.649026   1.000000
   14        3.403670   1.000000
   15        3.403670   1.000000
   16        3.472250   1.000000
   17        5.264773   1.000000
   18        5.264773   1.000000
   19        6.170660   1.000000
   20        7.743268   0.000000
   21        7.743268   0.000000
   22        8.147181   0.000000
   23        8.147234   0.000000
   24        8.187713   0.000000

  0.4615385E+00 -0.7896130E-17  0.9554927E-17  0.3641329E-02
    1      -33.927504   1.000000
    2      -16.103800   1.000000
    3      -16.103800   1.000000
    4      -16.076477   1.000000
    5      -16.074173   1.000000
    6      -16.074173   1.000000
    7      -11.827868   1.000000
    8      -11.710045   1.000000
    9      -11.710045   1.000000
   10       -4.170110   1.000000
   11        1.382891   1.000000
   12        2.647611   1.000000
   13        2.647611   1.000000
   14        3.355686   1.000000
   15        3.355686   1.000000
   16        3.396823   1.000000
   17        5.248476   1.000000
   18        5.248476   1.000000
   19        6.287664   1.000000
   20        7.815298   0.000000
   21        7.815298   0.000000
   22        8.125143   0.000000
   23        8.125192   0.000000
   24        8.154481   0.000000

  0.7692308E-01  0.7692308E-01  0.2102802E-18  0.2730997E-02
    1      -33.929150   1.000000
    2      -16.099522   1.000000
    3      -16.098583   1.000000
    4      -16.075623   1.000000
    5      -16.075362   1.000000
    6      -16.075362   1.000000
    7      -11.726003   1.000000
    8      -11.722215   1.000000
    9      -11.722215   1.000000
   10       -4.759948   1.000000
   11        2.657076   1.000000
   12        2.989447   1.000000
   13        2.989447   1.000000
   14        3.301359   1.000000
   15        3.357050   1.000000
   16        4.237503   1.000000
   17        5.631041   1.000000
   18        5.631041   1.000000
   19        5.985469   1.000000
   20        6.763816   0.000000
   21        7.128190   0.000000
   22        7.128190   0.000000
   23        7.717468   0.000000
   24        8.177898   0.000000

  0.1538462E+00  0.7692308E-01  0.2733180E-17  0.1092399E-01
    1      -33.928926   1.000000
    2      -16.100446   1.000000
    3      -16.098784   1.000000
    4      -16.075760   1.000000
    5      -16.075208   1.000000
    6      -16.075174   1.000000
    7      -11.739476   1.000000
    8      -11.722581   1.000000
    9      -11.719976   1.000000
   10       -4.683857   1.000000
   11        2.387229   1.000000
   12        2.901305   1.000000
   13        2.948987   1.000000
   14        3.358556   1.000000
   15        3.420375   1.000000
   16        4.158498   1.000000
   17        5.448094   1.000000
   18        5.475929   1.000000
   19        6.125891   1.000000
   20        6.776353   0.000000
   21        7.315524   0.000000
   22        7.346109   0.000000
   23        7.908627   0.000000
   24        8.172876   0.000000

  0.2307692E+00  0.7692308E-01  0.5499818E-17  0.1092399E-01
    1      -33.928561   1.000000
    2      -16.101550   1.000000
    3      -16.099548   1.000000
    4      -16.075911   1.000000
    5      -16.074998   1.000000
    6      -16.074885   1.000000
    7      -11.761896   1.000000
    8      -11.721454   1.000000
    9      -11.716867   1.000000
   10       -4.559485   1.000000
   11        2.091523   1.000000
   12        2.749787   1.000000
   13        2.871603   1.000000
   14        3.416322   1.000000
   15        3.491425   1.000000
   16        3.961348   1.000000
   17        5.268413   1.000000
   18        5.340704   1.000000
   19        6.190837   1.000000
   20        7.043033   0.000000
   21        7.502432   0.000000
   22        7.638612   0.000000
   23        8.089758   0.000000
   24        8.172030   0.000000

  0.3076923E+00  0.7692308E-01 -0.1901693E-17  0.1092399E-01
    1      -33.928140   1.000000
    2      -16.102587   1.000000
    3      -16.100701   1.000000
    4      -16.076080   1.000000
    5      -16.074744   1.000000
    6      -16.074556   1.000000
    7      -11.786820   1.000000
    8      -11.719101   1.000000
    9      -11.714445   1.000000
   10       -4.414695   1.000000
   11        1.811353   1.000000
   12        2.643755   1.000000
   13        2.805079   1.000000
   14        3.417980   1.000000
   15        3.507536   1.000000
   16        3.729886   1.000000
   17        5.161404   1.000000
   18        5.259257   1.000000
   19        6.215298   1.000000
   20        7.392525   0.000000
   21        7.661835   0.000000
   22        7.947242   0.000000
   23        8.167028   0.000000
   24        8.181178   0.000000

  0.3846154E+00  0.7692308E-01  0.7803839E-17  0.1092399E-01
    1      -33.927760   1.000000
    2      -16.103317   1.000000
    3      -16.101974   1.000000
    4      -16.076248   1.000000
    5      -16.074494   1.000000
    6      -16.074270   1.000000
    7      -11.808542   1.000000
    8      -11.716065   1.000000
    9      -11.713244   1.000000
   10       -4.282580   1.000000
   11        1.588368   1.000000
   12        2.600630   1.000000
   13        2.752162   1.000000
   14        3.381533   1.000000
   15        3.464715   1.000000
   16        3.546996   1.000000
   17        5.114848   1.000000
   18        5.225691   1.000000
   19        6.279858   1.000000
   20        7.644534   0.000000
   21        7.775505   0.000000
   22        8.104500   0.000000
   23        8.147960   0.000000
   24        8.208793   0.000000

  0.4615385E+00  0.7692308E-01 -0.1083260E-16  0.1092399E-01
    1      -33.927508   1.000000
    2      -16.103586   1.000000
    3      -16.103071   1.000000
    4      -16.076366   1.000000
    5      -16.074311   1.000000
    6      -16.074105   1.000000
    7      -11.822553   1.000000
    8      -11.713499   1.000000
    9      -11.713033   1.000000
   10       -4.193933   1.000000
   11        1.451065   1.000000
   12        2.612160   1.000000
   13        2.699472   1.000000
   14        3.358163   1.000000
   15        3.401250   1.000000
   16        3.436451   1.000000
   17        5.100285   1.000000
   18        5.217102   1.000000
   19        6.373683   1.000000
   20        7.761153   0.000000
   21        7.836249   0.000000
   22        8.102016   0.000000
   23        8.123343   0.000000
   24        8.199218   0.000000

 -0.4615385E+00  0.7692308E-01  0.2556870E-16  0.1092399E-01
    1      -33.927441   1.000000
    2      -16.103734   1.000000
    3      -16.103308   1.000000
    4      -16.076391   1.000000
    5      -16.074231   1.000000
    6      -16.074093   1.000000
    7      -11.826181   1.000000
    8      -11.715117   1.000000
    9      -11.710694   1.000000
   10       -4.169679   1.000000
   11        1.415056   1.000000
   12        2.640482   1.000000
   13        2.659667   1.000000
   14        3.356859   1.000000
   15        3.383090   1.000000
   16        3.402882   1.000000
   17        5.090879   1.000000
   18        5.220108   1.000000
   19        6.415898   1.000000
   20        7.788610   0.000000
   21        7.836089   0.000000
   22        8.107316   0.000000
   23        8.110729   0.000000
   24        8.180301   0.000000

 -0.3846154E+00  0.7692308E-01  0.9575131E-17  0.1092399E-01
    1      -33.927573   1.000000
    2      -16.103811   1.000000
    3      -16.102557   1.000000
    4      -16.076307   1.000000
    5      -16.074291   1.000000
    6      -16.074244   1.000000
    7      -11.818787   1.000000
    8      -11.717685   1.000000
    9      -11.709580   1.000000
   10       -4.215655   1.000000
   11        1.485449   1.000000
   12        2.590051   1.000000
   13        2.722167   1.000000
   14        3.346184   1.000000
   15        3.448268   1.000000
   16        3.458226   1.000000
   17        5.071495   1.000000
   18        5.239509   1.000000
   19        6.359251   1.000000
   20        7.761141   0.000000
   21        7.789322   0.000000
   22        8.117209   0.000000
   23        8.120109   0.000000
   24        8.210164   0.000000

 -0.3076923E+00  0.7692308E-01 -0.2525717E-17  0.1092399E-01
    1      -33.927878   1.000000
    2      -16.103305   1.000000
    3      -16.101498   1.000000
    4      -16.076147   1.000000
    5      -16.074517   1.000000
    6      -16.074472   1.000000
    7      -11.801806   1.000000
    8      -11.720575   1.000000
    9      -11.709951   1.000000
   10       -4.321035   1.000000
   11        1.657861   1.000000
   12        2.570283   1.000000
   13        2.790140   1.000000
   14        3.374138   1.000000
   15        3.516609   1.000000
   16        3.592752   1.000000
   17        5.047547   1.000000
   18        5.294161   1.000000
   19        6.273540   1.000000
   20        7.607047   0.000000
   21        7.711766   0.000000
   22        8.092251   0.000000
   23        8.141796   0.000000
   24        8.214378   0.000000

 -0.2307692E+00  0.7692308E-01  0.9236288E-17  0.1092399E-01
    1      -33.928283   1.000000
    2      -16.102316   1.000000
    3      -16.100380   1.000000
    4      -16.075954   1.000000
    5      -16.074836   1.000000
    6      -16.074732   1.000000
    7      -11.778676   1.000000
    8      -11.723051   1.000000
    9      -11.711728   1.000000
   10       -4.460979   1.000000
   11        1.917757   1.000000
   12        2.595542   1.000000
   13        2.868576   1.000000
   14        3.396739   1.000000
   15        3.547518   1.000000
   16        3.797963   1.000000
   17        5.055338   1.000000
   18        5.402752   1.000000
   19        6.213432   1.000000
   20        7.392806   0.000000
   21        7.499329   0.000000
   22        7.871366   0.000000
   23        8.165693   0.000000
   24        8.174582   0.000000

 -0.1538462E+00  0.7692308E-01  0.2421168E-17  0.1092399E-01
    1      -33.928695   1.000000
    2      -16.101085   1.000000
    3      -16.099458   1.000000
    4      -16.075778   1.000000
    5      -16.075133   1.000000
    6      -16.075011   1.000000
    7      -11.754580   1.000000
    8      -11.724350   1.000000
    9      -11.714511   1.000000
   10       -4.602916   1.000000
   11        2.237316   1.000000
   12        2.669392   1.000000
   13        2.956838   1.000000
   14        3.370516   1.000000
   15        3.519586   1.000000
   16        4.023486   1.000000
   17        5.162442   1.000000
   18        5.557294   1.000000
   19        6.150231   1.000000
   20        7.162800   0.000000
   21        7.170504   0.000000
   22        7.612024   0.000000
   23        8.039621   0.000000
   24        8.172509   0.000000

 -0.7692308E-01  0.7692308E-01 -0.2337479E-17  0.5461994E-02
    1      -33.929020   1.000000
    2      -16.099885   1.000000
    3      -16.098959   1.000000
    4      -16.075639   1.000000
    5      -16.075345   1.000000
    6      -16.075259   1.000000
    7      -11.735927   1.000000
    8      -11.723473   1.000000
    9      -11.717655   1.000000
   10       -4.714538   1.000000
   11        2.568436   1.000000
   12        2.783962   1.000000
   13        3.001357   1.000000
   14        3.326233   1.000000
   15        3.441050   1.000000
   16        4.176191   1.000000
   17        5.420892   1.000000
   18        5.698653   1.000000
   19        5.989826   1.000000
   20        6.958984   0.000000
   21        7.013383   0.000000
   22        7.328449   0.000000
   23        7.847048   0.000000
   24        8.189359   0.000000

  0.1538462E+00  0.1538462E+00  0.4205604E-18  0.2730997E-02
    1      -33.928771   1.000000
    2      -16.101250   1.000000
    3      -16.098287   1.000000
    4      -16.075987   1.000000
    5      -16.074991   1.000000
    6      -16.074991   1.000000
    7      -11.739634   1.000000
    8      -11.725393   1.000000
    9      -11.725393   1.000000
   10       -4.639647   1.000000
   11        2.151296   1.000000
   12        3.022484   1.000000
   13        3.022484   1.000000
   14        3.342590   1.000000
   15        3.352005   1.000000
   16        4.177600   1.000000
   17        5.341659   1.000000
   18        5.341659   1.000000
   19        6.267904   1.000000
   20        6.619793   0.968809
   21        7.481317   0.000000
   22        7.481317   0.000000
   23        7.977252   0.000000
   24        8.162983   0.000000

  0.2307692E+00  0.1538462E+00  0.2551071E-17  0.1092399E-01
    1      -33.928472   1.000000
    2      -16.102030   1.000000
    3      -16.098432   1.000000
    4      -16.076189   1.000000
    5      -16.074758   1.000000
    6      -16.074705   1.000000
    7      -11.755591   1.000000
    8      -11.726450   1.000000
    9      -11.724003   1.000000
   10       -4.548994   1.000000
   11        1.933974   1.000000
   12        2.929220   1.000000
   13        3.000111   1.000000
   14        3.384843   1.000000
   15        3.394641   1.000000
   16        4.076619   1.000000
   17        5.145093   1.000000
   18        5.229522   1.000000
   19        6.464991   1.000000
   20        6.668901   0.000000
   21        7.628584   0.000000
   22        7.669254   0.000000
   23        8.096919   0.000000
   24        8.157150   0.000000

  0.3076923E+00  0.1538462E+00  0.4731318E-17  0.1092399E-01
    1      -33.928093   1.000000
    2      -16.102602   1.000000
    3      -16.099188   1.000000
    4      -16.076305   1.000000
    5      -16.074571   1.000000
    6      -16.074376   1.000000
    7      -11.777423   1.000000
    8      -11.725519   1.000000
    9      -11.721944   1.000000
   10       -4.433478   1.000000
   11        1.765406   1.000000
   12        2.767016   1.000000
   13        2.942934   1.000000
   14        3.403924   1.000000
   15        3.460172   1.000000
   16        3.885286   1.000000
   17        4.948326   1.000000
   18        5.169224   1.000000
   19        6.496466   1.000000
   20        7.073517   0.000000
   21        7.744430   0.000000
   22        7.878119   0.000000
   23        8.149149   0.000000
   24        8.176423   0.000000

  0.3846154E+00  0.1538462E+00 -0.3405234E-17  0.1092399E-01
    1      -33.927726   1.000000
    2      -16.102846   1.000000
    3      -16.100374   1.000000
    4      -16.076332   1.000000
    5      -16.074457   1.000000
    6      -16.074088   1.000000
    7      -11.797811   1.000000
    8      -11.722816   1.000000
    9      -11.721863   1.000000
   10       -4.319972   1.000000
   11        1.650877   1.000000
   12        2.649524   1.000000
   13        2.872613   1.000000
   14        3.391429   1.000000
   15        3.472017   1.000000
   16        3.682997   1.000000
   17        4.842732   1.000000
   18        5.150744   1.000000
   19        6.485040   1.000000
   20        7.503847   0.000000
   21        7.828134   0.000000
   22        8.040367   0.000000
   23        8.135194   0.000000
   24        8.212972   0.000000

  0.4615385E+00  0.1538462E+00  0.8356771E-17  0.1092399E-01
    1      -33.927451   1.000000
    2      -16.102704   1.000000
    3      -16.101711   1.000000
    4      -16.076290   1.000000
    5      -16.074413   1.000000
    6      -16.073913   1.000000
    7      -11.812219   1.000000
    8      -11.723906   1.000000
    9      -11.718960   1.000000
   10       -4.233737   1.000000
   11        1.582490   1.000000
   12        2.607101   1.000000
   13        2.782493   1.000000
   14        3.392166   1.000000
   15        3.428718   1.000000
   16        3.541682   1.000000
   17        4.801793   1.000000
   18        5.147567   1.000000
   19        6.531486   1.000000
   20        7.692271   0.000000
   21        7.879994   0.000000
   22        8.074550   0.000000
   23        8.113731   0.000000
   24        8.225917   0.000000

 -0.4615385E+00  0.1538462E+00 -0.1339595E-16  0.1092399E-01
    1      -33.927332   1.000000
    2      -16.102890   1.000000
    3      -16.102218   1.000000
    4      -16.076194   1.000000
    5      -16.074425   1.000000
    6      -16.073896   1.000000
    7      -11.817926   1.000000
    8      -11.727451   1.000000
    9      -11.714825   1.000000
   10       -4.193112   1.000000
   11        1.551475   1.000000
   12        2.639513   1.000000
   13        2.678533   1.000000
   14        3.373807   1.000000
   15        3.433633   1.000000
   16        3.479349   1.000000
   17        4.778686   1.000000
   18        5.147760   1.000000
   19        6.603875   0.999981
   20        7.697852   0.000000
   21        7.889860   0.000000
   22        8.093833   0.000000
   23        8.102411   0.000000
   24        8.207857   0.000000

 -0.3846154E+00  0.1538462E+00  0.2612163E-16  0.1092399E-01
    1      -33.927396   1.000000
    2      -16.103641   1.000000
    3      -16.101484   1.000000
    4      -16.076076   1.000000
    5      -16.074474   1.000000
    6      -16.074038   1.000000
    7      -11.814152   1.000000
    8      -11.731406   1.000000
    9      -11.711353   1.000000
   10       -4.206736   1.000000
   11        1.560139   1.000000
   12        2.585317   1.000000
   13        2.728334   1.000000
   14        3.339163   1.000000
   15        3.503278   1.000000
   16        3.504122   1.000000
   17        4.738653   1.000000
   18        5.161068   1.000000
   19        6.628047   0.756885
   20        7.719775   0.000000
   21        7.830632   0.000000
   22        8.092631   0.000000
   23        8.115057   0.000000
   24        8.215554   0.000000

 -0.3076923E+00  0.1538462E+00 -0.1373479E-16  0.1092399E-01
    1      -33.927629   1.000000
    2      -16.103799   1.000000
    3      -16.100671   1.000000
    4      -16.075982   1.000000
    5      -16.074546   1.000000
    6      -16.074304   1.000000
    7      -11.802073   1.000000
    8      -11.734412   1.000000
    9      -11.709338   1.000000
   10       -4.272516   1.000000
   11        1.622992   1.000000
   12        2.527221   1.000000
   13        2.847582   1.000000
   14        3.327826   1.000000
   15        3.571417   1.000000
   16        3.617875   1.000000
   17        4.678424   1.000000
   18        5.209597   1.000000
   19        6.612271   0.998291
   20        7.691046   0.000000
   21        7.718484   0.000000
   22        8.102417   0.000000
   23        8.108548   0.000000
   24        8.236740   0.000000

 -0.2307692E+00  0.1538462E+00 -0.1972785E-17  0.1092399E-01
    1      -33.927979   1.000000
    2      -16.103335   1.000000
    3      -16.099957   1.000000
    4      -16.075921   1.000000
    5      -16.074648   1.000000
    6      -16.074622   1.000000
    7      -11.784853   1.000000
    8      -11.734965   1.000000
    9      -11.709248   1.000000
   10       -4.376953   1.000000
   11        1.757325   1.000000
   12        2.519537   1.000000
   13        2.964692   1.000000
   14        3.329574   1.000000
   15        3.602762   1.000000
   16        3.792827   1.000000
   17        4.652622   1.000000
   18        5.309613   1.000000
   19        6.592956   1.000000
   20        7.493298   0.000000
   21        7.551972   0.000000
   22        8.011189   0.000000
   23        8.130436   0.000000
   24        8.220068   0.000000

 -0.1538462E+00  0.1538462E+00 -0.6145041E-17  0.5461994E-02
    1      -33.928363   1.000000
    2      -16.102360   1.000000
    3      -16.099522   1.000000
    4      -16.075867   1.000000
    5      -16.074924   1.000000
    6      -16.074803   1.000000
    7      -11.767498   1.000000
    8      -11.731540   1.000000
    9      -11.711116   1.000000
   10       -4.496521   1.000000
   11        1.968857   1.000000
   12        2.568117   1.000000
   13        3.029735   1.000000
   14        3.328000   1.000000
   15        3.582897   1.000000
   16        3.945448   1.000000
   17        4.793081   1.000000
   18        5.445868   1.000000
   19        6.487325   1.000000
   20        7.265108   0.000000
   21        7.294023   0.000000
   22        7.852590   0.000000
   23        8.141553   0.000000
   24        8.152903   0.000000

  0.2307692E+00  0.2307692E+00  0.6308407E-18  0.2730997E-02
    1      -33.928247   1.000000
    2      -16.102271   1.000000
    3      -16.097872   1.000000
    4      -16.076505   1.000000
    5      -16.074427   1.000000
    6      -16.074427   1.000000
    7      -11.758924   1.000000
    8      -11.729985   1.000000
    9      -11.729985   1.000000
   10       -4.500346   1.000000
   11        1.786587   1.000000
   12        3.051365   1.000000
   13        3.051365   1.000000
   14        3.265363   1.000000
   15        3.402647   1.000000
   16        4.077468   1.000000
   17        5.137578   1.000000
   18        5.137578   1.000000
   19        6.299019   1.000000
   20        6.797227   0.000000
   21        7.735061   0.000000
   22        7.735061   0.000000
   23        8.139489   0.000000
   24        8.144286   0.000000

  0.3076923E+00  0.2307692E+00  0.5160477E-17  0.1092399E-01
    1      -33.927934   1.000000
    2      -16.102226   1.000000
    3      -16.098004   1.000000
    4      -16.076713   1.000000
    5      -16.074167   1.000000
    6      -16.074103   1.000000
    7      -11.773537   1.000000
    8      -11.731255   1.000000
    9      -11.730717   1.000000
   10       -4.427168   1.000000
   11        1.705225   1.000000
   12        2.933064   1.000000
   13        3.032354   1.000000
   14        3.315147   1.000000
   15        3.429337   1.000000
   16        3.970188   1.000000
   17        4.963299   1.000000
   18        5.094570   1.000000
   19        6.445496   1.000000
   20        6.959461   0.000000
   21        7.814927   0.000000
   22        7.848623   0.000000
   23        8.131215   0.000000
   24        8.152116   0.000000

  0.3846154E+00  0.2307692E+00  0.6605683E-17  0.1092399E-01
    1      -33.927608   1.000000
    2      -16.101894   1.000000
    3      -16.098791   1.000000
    4      -16.076745   1.000000
    5      -16.074062   1.000000
    6      -16.073812   1.000000
    7      -11.789746   1.000000
    8      -11.732193   1.000000
    9      -11.729980   1.000000
   10       -4.347587   1.000000
   11        1.696219   1.000000
   12        2.768014   1.000000
   13        2.971834   1.000000
   14        3.395634   1.000000
   15        3.435716   1.000000
   16        3.807930   1.000000
   17        4.732644   1.000000
   18        5.087799   1.000000
   19        6.554018   1.000000
   20        7.348052   0.000000
   21        7.874751   0.000000
   22        7.976720   0.000000
   23        8.120407   0.000000
   24        8.160124   0.000000

  0.4615385E+00  0.2307692E+00 -0.7958275E-18  0.1092399E-01
    1      -33.927346   1.000000
    2      -16.101367   1.000000
    3      -16.100045   1.000000
    4      -16.076585   1.000000
    5      -16.074136   1.000000
    6      -16.073630   1.000000
    7      -11.801504   1.000000
    8      -11.736526   1.000000
    9      -11.726456   1.000000
   10       -4.278722   1.000000
   11        1.732277   1.000000
   12        2.657792   1.000000
   13        2.873717   1.000000
   14        3.418034   1.000000
   15        3.450112   1.000000
   16        3.658755   1.000000
   17        4.571628   1.000000
   18        5.085039   1.000000
   19        6.605412   0.999951
   20        7.643589   0.000000
   21        7.919777   0.000000
   22        8.042343   0.000000
   23        8.108138   0.000000
   24        8.276888   0.000000

 -0.4615385E+00  0.2307692E+00  0.2172768E-16  0.1092399E-01
    1      -33.927201   1.000000
    2      -16.101467   1.000000
    3      -16.100770   1.000000
    4      -16.076268   1.000000
    5      -16.074362   1.000000
    6      -16.073608   1.000000
    7      -11.806212   1.000000
    8      -11.742923   1.000000
    9      -11.721480   1.000000
   10       -4.233351   1.000000
   11        1.759249   1.000000
   12        2.627116   1.000000
   13        2.751046   1.000000
   14        3.374708   1.000000
   15        3.493947   1.000000
   16        3.593506   1.000000
   17        4.480173   1.000000
   18        5.074647   1.000000
   19        6.698710   0.000000
   20        7.647999   0.000000
   21        7.945457   0.000000
   22        8.078003   0.000000
   23        8.087667   0.000000
   24        8.215127   0.000000

 -0.3846154E+00  0.2307692E+00  0.1101984E-16  0.1092399E-01
    1      -33.927212   1.000000
    2      -16.102734   1.000000
    3      -16.100236   1.000000
    4      -16.075892   1.000000
    5      -16.074647   1.000000
    6      -16.073746   1.000000
    7      -11.803842   1.000000
    8      -11.749102   1.000000
    9      -11.716182   1.000000
   10       -4.219664   1.000000
   11        1.737028   1.000000
   12        2.631992   1.000000
   13        2.678494   1.000000
   14        3.336718   1.000000
   15        3.556096   1.000000
   16        3.607577   1.000000
   17        4.420259   1.000000
   18        5.072934   1.000000
   19        6.803406   0.000000
   20        7.618700   0.000000
   21        7.921466   0.000000
   22        8.072831   0.000000