 vasp.6.0.8 29Jun18 (build Jun 13 2019 12:54:44) complex

 executed on      IFC18_CrayMPICH date 2021.12.05  14:21:48
 running   64 mpi-ranks, with    1 threads/rank
 distrk:  each k-point on   16 cores,    4 groups
 distr:  one band on NCORES_PER_BAND=   4 cores,    4 groups


--------------------------------------------------------------------------------------------------------


 INCAR:
 POTCAR:    PAW_PBE Th 07Sep2000
 POTCAR:    PAW_PBE Bi_d 06Sep2000
 POTCAR:    PAW_PBE Pt 04Feb2005
 POTCAR:    PAW_PBE Th 07Sep2000
   VRHFIN =Th:  [Xe,5d,4f]
   LEXCH  = PE
   EATOM  =   984.7553 eV,   72.3775 Ry

   TITEL  = PAW_PBE Th 07Sep2000
   LULTRA =        F    use ultrasoft PP ?
   IUNSCR =        1    unscreen: 0-lin 1-nonlin 2-no
   RPACOR =    2.200    partial core radius
   POMASS =  232.039; ZVAL   =   12.000    mass and valenz
   RCORE  =    2.800    outmost cutoff radius
   RWIGS  =    3.000; RWIGS  =    1.588    wigner-seitz radius (au A)
   ENMAX  =  247.306; ENMIN  =  185.480 eV
   RCLOC  =    2.211    cutoff for local pot
   LCOR   =        T    correct aug charges
   LPAW   =        T    paw PP
   EAUG   =  535.431
   DEXC   =    0.000
   RMAX   =    2.862    core radius for proj-oper
   RAUG   =    1.300    factor for augmentation sphere
   RDEP   =    2.926    radius for radial grids
   RDEPT  =    2.250    core radius for aug-charge

   Atomic configuration
   18 entries
     n  l   j            E        occ.
     1  0  0.50   -109990.1879   2.0000
     2  0  0.50    -20388.0147   2.0000
     2  1  1.50    -17049.6156   6.0000
     3  0  0.50     -5106.5436   2.0000
     3  1  1.50     -4175.1262   6.0000
     3  2  2.50     -3342.8437  10.0000
     4  0  0.50     -1280.8211   2.0000
     4  1  1.50      -976.4859   6.0000
     4  2  2.50      -661.8358  10.0000
     4  3  3.50      -324.9124  14.0000
     5  0  0.50      -278.7726   2.0000
     5  1  1.50      -186.2212   6.0000
     5  2  2.50       -86.9031  10.0000
     6  0  0.50       -43.3059   2.0000
     7  0  0.50        -4.0783   2.0000
     6  1  1.50       -21.4071   6.0000
     6  2  1.50        -2.3664   1.0000
     5  3  2.50        -1.2804   1.0000
   Description
     l       E           TYP  RCUT    TYP  RCUT
     0    -43.3059201     23  2.800
     0     -4.0782900     23  2.800
     1    -21.4071032     23  2.500
     1    -22.7676858     23  2.500
     2     -2.3664170     23  2.500
     2      3.0546543     23  2.500
     3     -1.2803910     23  2.800
     3      0.1360583     23  2.800
  local pseudopotential read in
  partial core-charges read in
  partial kinetic energy density read in
  atomic valenz-charges read in
  non local Contribution for L=           0  read in
    real space projection operators read in
  non local Contribution for L=           0  read in
    real space projection operators read in
  non local Contribution for L=           1  read in
    real space projection operators read in
  non local Contribution for L=           1  read in
    real space projection operators read in
  non local Contribution for L=           2  read in
    real space projection operators read in
  non local Contribution for L=           2  read in
    real space projection operators read in
  non local Contribution for L=           3  read in
    real space projection operators read in
  non local Contribution for L=           3  read in
    real space projection operators read in
    PAW grid and wavefunctions read in

   number of l-projection  operators is LMAX  =           8
   number of lm-projection operators is LMMAX =          32

 POTCAR:    PAW_PBE Bi_d 06Sep2000
   VRHFIN =Bi:
   LEXCH  = PE
   EATOM  =  1959.2045 eV,  143.9975 Ry

   TITEL  = PAW_PBE Bi_d 06Sep2000
   LULTRA =        F    use ultrasoft PP ?
   IUNSCR =        1    unscreen: 0-lin 1-nonlin 2-no
   RPACOR =    2.200    partial core radius
   POMASS =  208.980; ZVAL   =   15.000    mass and valenz
   RCORE  =    2.500    outmost cutoff radius
   RWIGS  =    3.090; RWIGS  =    1.635    wigner-seitz radius (au A)
   ENMAX  =  242.839; ENMIN  =  182.129 eV
   ICORE  =        3    local potential
   LCOR   =        T    correct aug charges
   LPAW   =        T    paw PP
   EAUG   =  442.899
   DEXC   =    0.000
   RMAX   =    2.551    core radius for proj-oper
   RAUG   =    1.300    factor for augmentation sphere
   RDEP   =    2.650    radius for radial grids
   RDEPT  =    2.039    core radius for aug-charge

   Atomic configuration
   16 entries
     n  l   j            E        occ.
     1  0  0.50    -90639.6581   2.0000
     2  0  0.50    -16282.4666   2.0000
     2  1  1.50    -13922.8286   6.0000
     3  0  0.50     -3930.4763   2.0000
     3  1  1.50     -3256.7013   6.0000
     3  2  2.50     -2581.6168  10.0000
     4  0  0.50      -902.2614   2.0000
     4  1  1.50      -681.5915   6.0000
     4  2  2.50      -429.8249  10.0000
     4  3  3.50      -152.6004  14.0000
     5  0  0.50      -157.7156   2.0000
     5  1  1.50       -95.8054   6.0000
     5  2  2.50       -27.0806  10.0000
     6  0  0.50       -14.4732   2.0000
     6  1  1.50        -4.5702   3.0000
     5  3  2.50        -2.7212   0.0000
   Description
     l       E           TYP  RCUT    TYP  RCUT
     2    -27.0805982     23  2.500
     2     -1.3605826     23  2.500
     0    -14.4732271     23  2.500
     0      6.8029130     23  2.500
     1     -4.5701651     23  2.500
     1     13.6058260     23  2.500
     3     -1.3605826      7  2.500
  local pseudopotential read in
  partial core-charges read in
  partial kinetic energy density read in
  atomic valenz-charges read in
  non local Contribution for L=           2  read in
    real space projection operators read in
  non local Contribution for L=           2  read in
    real space projection operators read in
  non local Contribution for L=           0  read in
    real space projection operators read in
  non local Contribution for L=           0  read in
    real space projection operators read in
  non local Contribution for L=           1  read in
    real space projection operators read in
  non local Contribution for L=           1  read in
    real space projection operators read in
    PAW grid and wavefunctions read in

   number of l-projection  operators is LMAX  =           6
   number of lm-projection operators is LMMAX =          18

 POTCAR:    PAW_PBE Pt 04Feb2005
   VRHFIN =Pt: s1d9
   LEXCH  = PE
   EATOM  =   729.1176 eV,   53.5886 Ry

   TITEL  = PAW_PBE Pt 04Feb2005
   LULTRA =        F    use ultrasoft PP ?
   IUNSCR =        1    unscreen: 0-lin 1-nonlin 2-no
   RPACOR =    2.330    partial core radius
   POMASS =  195.080; ZVAL   =   10.000    mass and valenz
   RCORE  =    2.600    outmost cutoff radius
   RWIGS  =    2.750; RWIGS  =    1.455    wigner-seitz radius (au A)
   ENMAX  =  230.283; ENMIN  =  172.712 eV
   ICORE  =        3    local potential
   LCOR   =        T    correct aug charges
   LPAW   =        T    paw PP
   EAUG   =  358.966
   DEXC   =    0.000
   RMAX   =    2.658    core radius for proj-oper
   RAUG   =    1.300    factor for augmentation sphere
   RDEP   =    2.761    radius for radial grids
   RDEPT  =    2.203    core radius for aug-charge

   Atomic configuration
   16 entries
     n  l   j            E        occ.
     1  0  0.50    -78401.1885   2.0000
     2  0  0.50    -13770.7750   2.0000
     2  1  1.50    -11931.0468   6.0000
     3  0  0.50     -3234.7234   2.0000
     3  1  1.50     -2699.2216   6.0000
     3  2  2.50     -2119.5714  10.0000
     4  0  0.50      -695.1528   2.0000
     4  1  1.50      -519.6034   6.0000
     4  2  2.50      -306.6786  10.0000
     4  3  3.50       -70.1041  14.0000
     5  0  0.50      -101.7747   2.0000
     5  1  1.50       -55.9873   6.0000
     5  2  2.50        -6.1423   9.0000
     6  0  0.50        -5.6573   1.0000
     6  1  1.50        -6.8029   0.0000
     5  3  2.50        -1.3606   0.0000
   Description
     l       E           TYP  RCUT    TYP  RCUT
     2     -6.1423404     23  2.500
     2     -7.5029230     23  2.500
     0     -5.6573207     23  2.500
     0      0.7416693     23  2.500
     1     -2.7211652     23  2.600
     1     20.4087390     23  2.600
     3     -1.3605826     23  2.500
  local pseudopotential read in
  partial core-charges read in
  partial kinetic energy density read in
  atomic valenz-charges read in
  non local Contribution for L=           2  read in
    real space projection operators read in
  non local Contribution for L=           2  read in
    real space projection operators read in
  non local Contribution for L=           0  read in
    real space projection operators read in
  non local Contribution for L=           0  read in
    real space projection operators read in
  non local Contribution for L=           1  read in
    real space projection operators read in
  non local Contribution for L=           1  read in
    real space projection operators read in
    PAW grid and wavefunctions read in

   number of l-projection  operators is LMAX  =           6
   number of lm-projection operators is LMMAX =          18

 WARNING: PSMAXN for non-local potential too small
          PSMAXN should be >   13.5545592237991       NTYP=           1

 -----------------------------------------------------------------------------
|                                                                             |
|  ADVICE TO THIS USER RUNNING 'VASP/VAMP'   (HEAR YOUR MASTER'S VOICE ...):  |
|                                                                             |
|      You enforced a specific xc-type in the INCAR file,                     |
|      a different type was found on the POTCAR file                          |
|          I HOPE YOU KNOW, WHAT YOU ARE  DOING                               |
|                                                                             |
 -----------------------------------------------------------------------------

  PAW_PBE Th 07Sep2000                  :
 energy of atom  1       EATOM= -984.7553
 kinetic energy error for atom=    0.0005 (will be added to EATOM!!)
  PAW_PBE Bi_d 06Sep2000                :
 energy of atom  2       EATOM=-1959.2045
 kinetic energy error for atom=    0.0012 (will be added to EATOM!!)
  PAW_PBE Pt 04Feb2005                  :
 energy of atom  3       EATOM= -729.1176
 kinetic energy error for atom=    0.0010 (will be added to EATOM!!)


 POSCAR: Th1 Bi1 Pt1
  positions in direct lattice
  No initial velocities read in
 exchange correlation table for  LEXCH =       14
   RHO(1)=    0.500       N(1)  =     2000
   RHO(2)=  100.500       N(2)  =     4000



--------------------------------------------------------------------------------------------------------


 ion  position               nearest neighbor table
   1  0.250  0.250  0.250-   3 3.13   3 3.13   3 3.13   3 3.13   2 3.62   2 3.62   2 3.62   2 3.62
                             2 3.62   2 3.62
   2  0.750  0.750  0.750-   3 3.13   3 3.13   3 3.13   3 3.13   1 3.62   1 3.62   1 3.62   1 3.62
                             1 3.62   1 3.62
   3  0.000  0.000  0.000-   2 3.13   2 3.13   2 3.13   1 3.13   2 3.13   1 3.13   1 3.13   1 3.13


  LATTYP: Found a face centered cubic cell.
 ALAT       =     7.2382463705

  Lattice vectors:

 A1 = (   0.0000000000,   3.6191231852,   3.6191231852)
 A2 = (   3.6191231852,   0.0000000000,   3.6191231852)
 A3 = (   3.6191231852,   3.6191231852,   0.0000000000)


Analysis of symmetry for initial positions (statically):
=====================================================================
 Subroutine PRICEL returns:
 Original cell was already a primitive cell.


 Routine SETGRP: Setting up the symmetry group for a
 face centered cubic supercell.


 Subroutine GETGRP returns: Found 24 space group operations
 (whereof 24 operations were pure point group operations)
 out of a pool of 48 trial point group operations.


The static configuration has the point symmetry T_d .


Analysis of symmetry for dynamics (positions and initial velocities):
=====================================================================
 Subroutine PRICEL returns:
 Original cell was already a primitive cell.


 Routine SETGRP: Setting up the symmetry group for a
 face centered cubic supercell.


 Subroutine GETGRP returns: Found 24 space group operations
 (whereof 24 operations were pure point group operations)
 out of a pool of 48 trial point group operations.


The dynamic configuration has the point symmetry T_d .


 Subroutine INISYM returns: Found 24 space group operations
 (whereof 24 operations are pure point group operations),
 and found     1 'primitive' translations


----------------------------------------------------------------------------------------

                                     Primitive cell

  volume of cell :      94.8069

  direct lattice vectors                    reciprocal lattice vectors
     0.000000000  3.619123185  3.619123185    -0.138155010  0.138155010  0.138155010
     3.619123185  0.000000000  3.619123185     0.138155010 -0.138155010  0.138155010
     3.619123185  3.619123185  0.000000000     0.138155010  0.138155010 -0.138155010

  length of vectors
     5.118213092  5.118213092  5.118213092     0.239291497  0.239291497  0.239291497

  position of ions in fractional coordinates (direct lattice)
     0.250000000  0.250000000  0.250000000
     0.750000000  0.750000000  0.750000000
     0.000000000  0.000000000  0.000000000

  ion indices of the primitive-cell ions
   primitive index   ion index
                 1           1
                 2           2
                 3           3

----------------------------------------------------------------------------------------



 KPOINTS: KPOINTS

Automatic generation of k-mesh.
Space group operators:
 irot       det(A)        alpha          n_x          n_y          n_z        tau_x        tau_y        tau_z
    1     1.000000     0.000001     1.000000     0.000000     0.000000     0.000000     0.000000     0.000000
    2     1.000000   120.000000    -0.577350    -0.577350    -0.577350     0.000000     0.000000     0.000000
    3     1.000000   120.000000     0.577350     0.577350     0.577350     0.000000     0.000000     0.000000
    4    -1.000000    90.000000    -0.000000    -0.000000    -1.000000     0.000000     0.000000     0.000000
    5    -1.000000   180.000000    -0.000000     0.707107     0.707107     0.000000     0.000000     0.000000
    6    -1.000000    90.000000    -0.000000     1.000000    -0.000000     0.000000     0.000000     0.000000
    7     1.000000   180.000000    -0.000000     0.000000     1.000000     0.000000     0.000000     0.000000
    8     1.000000   120.000000    -0.577350     0.577350     0.577350     0.000000     0.000000     0.000000
    9     1.000000   120.000000    -0.577350     0.577350    -0.577350     0.000000     0.000000     0.000000
   10    -1.000000    90.000000     0.000000     0.000000     1.000000     0.000000     0.000000     0.000000
   11    -1.000000    90.000000    -1.000000     0.000000    -0.000000     0.000000     0.000000     0.000000
   12    -1.000000   180.000000     0.707107     0.000000     0.707107     0.000000     0.000000     0.000000
   13     1.000000   120.000000     0.577350    -0.577350     0.577350     0.000000     0.000000     0.000000
   14     1.000000   120.000000    -0.577350    -0.577350     0.577350     0.000000     0.000000     0.000000
   15     1.000000   180.000000     1.000000     0.000000     0.000000     0.000000     0.000000     0.000000
   16    -1.000000    90.000000     0.000000    -1.000000     0.000000     0.000000     0.000000     0.000000
   17    -1.000000   180.000000     0.707107     0.707107    -0.000000     0.000000     0.000000     0.000000
   18    -1.000000    90.000000     1.000000     0.000000     0.000000     0.000000     0.000000     0.000000
   19     1.000000   120.000000     0.577350    -0.577350    -0.577350     0.000000     0.000000     0.000000
   20     1.000000   180.000000    -0.000000    -1.000000     0.000000     0.000000     0.000000     0.000000
   21     1.000000   120.000000     0.577350     0.577350    -0.577350     0.000000     0.000000     0.000000
   22    -1.000000   180.000000    -0.000000    -0.707107     0.707107     0.000000     0.000000     0.000000
   23    -1.000000   180.000000     0.707107    -0.707107     0.000000     0.000000     0.000000     0.000000
   24    -1.000000   180.000000    -0.707107     0.000000     0.707107     0.000000     0.000000     0.000000

 Subroutine IBZKPT returns following result:
 ===========================================

 Found     84 irreducible k-points:

 Following reciprocal coordinates:
            Coordinates               Weight
  0.000000  0.000000  0.000000      1.000000
  0.076923 -0.000000  0.000000      8.000000
  0.153846 -0.000000  0.000000      8.000000
  0.230769  0.000000 -0.000000      8.000000
  0.307692 -0.000000  0.000000      8.000000
  0.384615  0.000000 -0.000000      8.000000
  0.461538 -0.000000  0.000000      8.000000
  0.076923  0.076923  0.000000      6.000000
  0.153846  0.076923  0.000000     24.000000
  0.230769  0.076923  0.000000     24.000000
  0.307692  0.076923 -0.000000     24.000000
  0.384615  0.076923  0.000000     24.000000
  0.461538  0.076923 -0.000000     24.000000
 -0.461538  0.076923  0.000000     24.000000
 -0.384615  0.076923  0.000000     24.000000
 -0.307692  0.076923 -0.000000     24.000000
 -0.230769  0.076923  0.000000     24.000000
 -0.153846  0.076923  0.000000     24.000000
 -0.076923  0.076923 -0.000000     12.000000
  0.153846  0.153846  0.000000      6.000000
  0.230769  0.153846  0.000000     24.000000
  0.307692  0.153846  0.000000     24.000000
  0.384615  0.153846 -0.000000     24.000000
  0.461538  0.153846  0.000000     24.000000
 -0.461538  0.153846 -0.000000     24.000000
 -0.384615  0.153846  0.000000     24.000000
 -0.307692  0.153846 -0.000000     24.000000
 -0.230769  0.153846 -0.000000     24.000000
 -0.153846  0.153846 -0.000000     12.000000
  0.230769  0.230769  0.000000      6.000000
  0.307692  0.230769  0.000000     24.000000
  0.384615  0.230769  0.000000     24.000000
  0.461538  0.230769 -0.000000     24.000000
 -0.461538  0.230769  0.000000     24.000000
 -0.384615  0.230769  0.000000     24.000000
 -0.307692  0.230769  0.000000     24.000000
 -0.230769  0.230769  0.000000     12.000000
  0.307692  0.307692  0.000000      6.000000
  0.384615  0.307692  0.000000     24.000000
  0.461538  0.307692  0.000000     24.000000
 -0.461538  0.307692 -0.000000     24.000000
 -0.384615  0.307692  0.000000     24.000000
 -0.307692  0.307692 -0.000000     12.000000
  0.384615  0.384615  0.000000      6.000000
  0.461538  0.384615 -0.000000     24.000000
 -0.461538  0.384615  0.000000     24.000000
 -0.384615  0.384615  0.000000     12.000000
  0.461538  0.461538  0.000000      6.000000
 -0.461538  0.461538 -0.000000     12.000000
  0.230769  0.153846  0.076923     24.000000
  0.307692  0.153846  0.076923     48.000000
  0.384615  0.153846  0.076923     48.000000
  0.461538  0.153846  0.076923     48.000000
 -0.461538  0.153846  0.076923     48.000000
  0.307692  0.230769  0.076923     24.000000
  0.384615  0.230769  0.076923     48.000000
  0.461538  0.230769  0.076923     48.000000
 -0.461538  0.230769  0.076923     48.000000
 -0.384615  0.230769  0.076923     48.000000
 -0.307692  0.230769  0.076923     48.000000
 -0.230769  0.230769  0.076923     48.000000
 -0.153846  0.230769  0.076923     24.000000
  0.384615  0.307692  0.076923     24.000000
  0.461538  0.307692  0.076923     48.000000
 -0.461538  0.307692  0.076923     48.000000
 -0.384615  0.307692  0.076923     48.000000
 -0.307692  0.307692  0.076923     48.000000
 -0.230769  0.307692  0.076923     24.000000
  0.461538  0.384615  0.076923     24.000000
 -0.461538  0.384615  0.076923     48.000000
 -0.384615  0.384615  0.076923     48.000000
 -0.307692  0.384615  0.076923     24.000000
 -0.461538  0.461538  0.076923     24.000000
 -0.384615  0.461538  0.076923     24.000000
  0.461538  0.307692  0.153846     24.000000
 -0.461538  0.307692  0.153846     48.000000
 -0.384615  0.307692  0.153846     48.000000
 -0.461538  0.384615  0.153846     24.000000
 -0.384615  0.384615  0.153846     48.000000
 -0.307692  0.384615  0.153846     48.000000
 -0.230769  0.384615  0.153846     24.000000
 -0.384615  0.461538  0.153846     24.000000
 -0.307692  0.461538  0.153846     24.000000
 -0.307692  0.461538  0.230769     24.000000

 Following cartesian coordinates:
            Coordinates               Weight
  0.000000  0.000000  0.000000      1.000000
 -0.011230  0.011230  0.011230      8.000000
 -0.022460  0.022460  0.022460      8.000000
 -0.033690  0.033690  0.033690      8.000000
 -0.044920  0.044920  0.044920      8.000000
 -0.056151  0.056151  0.056151      8.000000
 -0.067381  0.067381  0.067381      8.000000
  0.000000 -0.000000  0.022460      6.000000
 -0.011230  0.011230  0.033690     24.000000
 -0.022460  0.022460  0.044920     24.000000
 -0.033690  0.033690  0.056151     24.000000
 -0.044920  0.044920  0.067381     24.000000
 -0.056151  0.056151  0.078611     24.000000
  0.078611 -0.078611 -0.056151     24.000000
  0.067381 -0.067381 -0.044920     24.000000
  0.056151 -0.056151 -0.033690     24.000000
  0.044920 -0.044920 -0.022460     24.000000
  0.033690 -0.033690 -0.011230     24.000000
  0.022460 -0.022460  0.000000     12.000000
  0.000000 -0.000000  0.044920      6.000000
 -0.011230  0.011230  0.056151     24.000000
 -0.022460  0.022460  0.067381     24.000000
 -0.033690  0.033690  0.078611     24.000000
 -0.044920  0.044920  0.089841     24.000000
  0.089841 -0.089841 -0.044920     24.000000
  0.078611 -0.078611 -0.033690     24.000000
  0.067381 -0.067381 -0.022460     24.000000
  0.056151 -0.056151 -0.011230     24.000000
  0.044920 -0.044920  0.000000     12.000000
 -0.000000  0.000000  0.067381      6.000000
 -0.011230  0.011230  0.078611     24.000000
 -0.022460  0.022460  0.089841     24.000000
 -0.033690  0.033690  0.101071     24.000000
  0.101071 -0.101071 -0.033690     24.000000
  0.089841 -0.089841 -0.022460     24.000000
  0.078611 -0.078611 -0.011230     24.000000
  0.067381 -0.067381 -0.000000     12.000000
  0.000000 -0.000000  0.089841      6.000000
 -0.011230  0.011230  0.101071     24.000000
 -0.022460  0.022460  0.112301     24.000000
  0.112301 -0.112301 -0.022460     24.000000
  0.101071 -0.101071 -0.011230     24.000000
  0.089841 -0.089841  0.000000     12.000000
 -0.000000  0.000000  0.112301      6.000000
 -0.011230  0.011230  0.123531     24.000000
  0.123531 -0.123531 -0.011230     24.000000
  0.112301 -0.112301 -0.000000     12.000000
  0.000000 -0.000000  0.134761      6.000000
  0.134761 -0.134761  0.000000     12.000000
  0.000000  0.022460  0.044920     24.000000
 -0.011230  0.033690  0.056151     48.000000
 -0.022460  0.044920  0.067381     48.000000
 -0.033690  0.056151  0.078611     48.000000
  0.101071 -0.078611 -0.056151     48.000000
  0.000000  0.022460  0.067381     24.000000
 -0.011230  0.033690  0.078611     48.000000
 -0.022460  0.044920  0.089841     48.000000
  0.112301 -0.089841 -0.044920     48.000000
  0.101071 -0.078611 -0.033690     48.000000
  0.089841 -0.067381 -0.022460     48.000000
  0.078611 -0.056151 -0.011230     48.000000
  0.067381 -0.044920 -0.000000     24.000000
 -0.000000  0.022460  0.089841     24.000000
 -0.011230  0.033690  0.101071     48.000000
  0.123531 -0.101071 -0.033690     48.000000
  0.112301 -0.089841 -0.022460     48.000000
  0.101071 -0.078611 -0.011230     48.000000
  0.089841 -0.067381 -0.000000     24.000000
  0.000000  0.022460  0.112301     24.000000
  0.134761 -0.112301 -0.022460     48.000000
  0.123531 -0.101071 -0.011230     48.000000
  0.112301 -0.089841 -0.000000     24.000000
  0.145991 -0.123531 -0.011230     24.000000
  0.134761 -0.112301 -0.000000     24.000000
  0.000000  0.044920  0.089841     24.000000
  0.134761 -0.089841 -0.044920     48.000000
  0.123531 -0.078611 -0.033690     48.000000
  0.145991 -0.101071 -0.033690     24.000000
  0.134761 -0.089841 -0.022460     48.000000
  0.123531 -0.078611 -0.011230     48.000000
  0.112301 -0.067381  0.000000     24.000000
  0.145991 -0.101071 -0.011230     24.000000
  0.134761 -0.089841  0.000000     24.000000
  0.145991 -0.078611 -0.011230     24.000000



--------------------------------------------------------------------------------------------------------




 Dimension of arrays:
   k-points           NKPTS =     84   k-points in BZ     NKDIM =     84   number of bands    NBANDS=     24
   number of dos      NEDOS =    301   number of ions     NIONS =      3
   non local maximal  LDIM  =      8   non local SUM 2l+1 LMDIM =     32
   total plane-waves  NPLWV = 110592
   max r-space proj   IRMAX =      1   max aug-charges    IRDMAX= 565347
   dimension x,y,z NGX =    48 NGY =   48 NGZ =   48
   dimension x,y,z NGXF=    96 NGYF=   96 NGZF=   96
   support grid    NGXF=   192 NGYF=  192 NGZF=  192
   ions per type =               1   1   1
   NGX,Y,Z   is equivalent  to a cutoff of  15.59, 15.59, 15.59 a.u.
   NGXF,Y,Z  is equivalent  to a cutoff of  31.18, 31.18, 31.18 a.u.

 SYSTEM =  unknown system
 POSCAR =  Th1 Bi1 Pt1

 Startparameter for this run:
   NWRITE =      2    write-flag & timer
   PREC   = acc       normal or accurate (medium, high low for compatibility)
   ISTART =      0    job   : 0-new  1-cont  2-samecut
   ICHARG =      2    charge: 1-file 2-atom 10-const
   ISPIN  =      1    spin polarized calculation?
   LNONCOLLINEAR =      F non collinear calculations
   LSORBIT =      F    spin-orbit coupling
   INIWAV =      1    electr: 0-lowe 1-rand  2-diag
   LASPH  =      F    aspherical Exc in radial PAW
   METAGGA=      F    non-selfconsistent MetaGGA calc.

 Electronic Relaxation 1
   ENCUT  =  700.0 eV  51.45 Ry    7.17 a.u.  11.04 11.04 11.04*2*pi/ulx,y,z
   ENINI  =  700.0     initial cutoff
   ENAUG  =  535.4 eV  augmentation charge cutoff
   NELM   =     60;   NELMIN=  5; NELMDL= -5     # of ELM steps
   EDIFF  = 0.1E-06   stopping-criterion for ELM
   LREAL  =      F    real-space projection
   NLSPLINE    = F    spline interpolate recip. space projectors
   LCOMPAT=      F    compatible to vasp.4.4
   GGA_COMPAT  = T    GGA compatible to vasp.4.4-vasp.4.6
   LMAXPAW     = -100 max onsite density
   LMAXMIX     =    2 max onsite mixed and CHGCAR
   VOSKOWN=      0    Vosko Wilk Nusair interpolation
   ROPT   =    0.00000   0.00000   0.00000
 Ionic relaxation
   EDIFFG = 0.1E-05   stopping-criterion for IOM
   NSW    =      0    number of steps for IOM
   NBLOCK =      1;   KBLOCK =      1    inner block; outer block
   IBRION =     -1    ionic relax: 0-MD 1-quasi-New 2-CG
   NFREE  =      0    steps in history (QN), initial steepest desc. (CG)
   ISIF   =      3    stress and relaxation
   IWAVPR =     10    prediction:  0-non 1-charg 2-wave 3-comb
   ISYM   =      2    0-nonsym 1-usesym 2-fastsym
   LCORR  =      T    Harris-Foulkes like correction to forces

   POTIM  = 0.5000    time-step for ionic-motion
   TEIN   =    0.0    initial temperature
   TEBEG  =    0.0;   TEEND  =   0.0 temperature during run
   SMASS  =  -3.00    Nose mass-parameter (am)
   estimated Nose-frequenzy (Omega)   =  0.10E-29 period in steps = 0.13E+47 mass=  -0.599E-27a.u.
   SCALEE = 1.0000    scale energy and forces
   NPACO  =    256;   APACO  = 16.0  distance and # of slots for P.C.
   PSTRESS=    0.0 pullay stress

  Mass of Ions in am
   POMASS = 232.04208.98195.08
  Ionic Valenz
   ZVAL   =  12.00 15.00 10.00
  Atomic Wigner-Seitz radii
   RWIGS  =  -1.00 -1.00 -1.00
  virtual crystal weights
   VCA    =   1.00  1.00  1.00
   NELECT =      37.0000    total number of electrons
   NUPDOWN=      -1.0000    fix difference up-down

 DOS related values:
   EMIN   =  10.00;   EMAX   =-10.00  energy-range for DOS
   EFERMI =   0.00
   ISMEAR =     0;   SIGMA  =   0.01  broadening in eV -4-tet -1-fermi 0-gaus

 Electronic relaxation 2 (details)
   IALGO  =     38    algorithm
   LDIAG  =      T    sub-space diagonalisation (order eigenvalues)
   LSUBROT=      F    optimize rotation matrix (better conditioning)
   TURBO    =      0    0=normal 1=particle mesh
   IRESTART =      0    0=no restart 2=restart with 2 vectors
   NREBOOT  =      0    no. of reboots
   NMIN     =      0    reboot dimension
   EREF     =   0.00    reference energy to select bands
   IMIX   =      4    mixing-type and parameters
     AMIX     =   0.40;   BMIX     =  1.00
     AMIX_MAG =   1.60;   BMIX_MAG =  1.00
     AMIN     =   0.10
     WC   =   100.;   INIMIX=   1;  MIXPRE=   1;  MAXMIX= -45

 Intra band minimization:
   WEIMIN = 0.0000     energy-eigenvalue tresh-hold
   EBREAK =  0.10E-08  absolut break condition
   DEPER  =   0.30     relativ break condition

   TIME   =   0.40     timestep for ELM

  volume/ion in A,a.u.               =      31.60       213.26
  Fermi-wavevector in a.u.,A,eV,Ry     =   1.196360  2.260793 19.473723  1.431278
  Thomas-Fermi vector in A             =   2.332303

 Write flags
   LWAVE        =      F    write WAVECAR
   LDOWNSAMPLE  =      F    k-point downsampling of WAVECAR
   LCHARG       =      F    write CHGCAR
   LVTOT        =      F    write LOCPOT, total local potential
   LVHAR        =      F    write LOCPOT, Hartree potential only
   LELF         =      F    write electronic localiz. function (ELF)
   LORBIT       =      0    0 simple, 1 ext, 2 COOP (PROOUT), +10 PAW based schemes


 Dipole corrections
   LMONO  =      F    monopole corrections only (constant potential shift)
   LDIPOL =      F    correct potential (dipole corrections)
   IDIPOL =      0    1-x, 2-y, 3-z, 4-all directions
   EPSILON=  1.0000000 bulk dielectric constant

 Exchange correlation treatment:
   GGA     =    PS    GGA type
   LEXCH   =    14    internal setting for exchange type
   VOSKOWN=      0    Vosko Wilk Nusair interpolation
   LHFCALC =     F    Hartree Fock is set to
   LHFONE  =     F    Hartree Fock one center treatment
   AEXX    =    0.0000 exact exchange contribution

 Linear response parameters
   LEPSILON=     F    determine dielectric tensor
   LRPA    =     F    only Hartree local field effects (RPA)
   LNABLA  =     F    use nabla operator in PAW spheres
   LVEL    =     F    velocity operator in full k-point grid
   LINTERFAST=   F  fast interpolation
   KINTER  =     0    interpolate to denser k-point grid
   CSHIFT  =0.1000    complex shift for real part using Kramers Kronig
   OMEGAMAX=  -1.0    maximum frequency
   DEG_THRESHOLD= 0.2000000E-02 threshold for treating states as degnerate
   RTIME   =   -0.100 relaxation time in fs
  (WPLASMAI=    0.000 imaginary part of plasma frequency in eV, 0.658/RTIME)
   DFIELD  = 0.0000000 0.0000000 0.0000000 field for delta impulse in time

 Orbital magnetization related:
   ORBITALMAG=     F  switch on orbital magnetization
   LCHIMAG   =     F  perturbation theory with respect to B field
   DQ        =  0.001000  dq finite difference perturbation B field
   LLRAUG    =     F  two centre corrections for induced B field



--------------------------------------------------------------------------------------------------------


 Static calculation
 charge density and potential will be updated during run
 non-spin polarized calculation
 Variant of blocked Davidson
 Davidson routine will perform the subspace rotation
 perform sub-space diagonalisation
    after iterative eigenvector-optimisation
 modified Broyden-mixing scheme, WC =      100.0
 initial mixing is a Kerker type mixing with AMIX =  0.4000 and BMIX =      1.0000
 Hartree-type preconditioning will be used
 using additional bands            5
 reciprocal scheme for non local part
 use partial core corrections
 calculate Harris-corrections to forces
   (improved forces if not selfconsistent)
 use gradient corrections
 use of overlap-Matrix (Vanderbilt PP)
 Gauss-broadening in eV      SIGMA  =   0.01


--------------------------------------------------------------------------------------------------------


  energy-cutoff  :      700.00
  volume of cell :       94.81
      direct lattice vectors                 reciprocal lattice vectors
     0.000000000  3.619123185  3.619123185    -0.138155010  0.138155010  0.138155010
     3.619123185  0.000000000  3.619123185     0.138155010 -0.138155010  0.138155010
     3.619123185  3.619123185  0.000000000     0.138155010  0.138155010 -0.138155010

  length of vectors
     5.118213092  5.118213092  5.118213092     0.239291497  0.239291497  0.239291497



 k-points in units of 2pi/SCALE and weight: KPOINTS
   0.00000000  0.00000000  0.00000000       0.000
  -0.01123011  0.01123011  0.01123011       0.004
  -0.02246022  0.02246022  0.02246022       0.004
  -0.03369033  0.03369033  0.03369033       0.004
  -0.04492043  0.04492043  0.04492043       0.004
  -0.05615054  0.05615054  0.05615054       0.004
  -0.06738065  0.06738065  0.06738065       0.004
   0.00000000 -0.00000000  0.02246022       0.003
  -0.01123011  0.01123011  0.03369033       0.011
  -0.02246022  0.02246022  0.04492043       0.011
  -0.03369033  0.03369033  0.05615054       0.011
  -0.04492043  0.04492043  0.06738065       0.011
  -0.05615054  0.05615054  0.07861076       0.011
   0.07861076 -0.07861076 -0.05615054       0.011
   0.06738065 -0.06738065 -0.04492043       0.011
   0.05615054 -0.05615054 -0.03369033       0.011
   0.04492043 -0.04492043 -0.02246022       0.011
   0.03369033 -0.03369033 -0.01123011       0.011
   0.02246022 -0.02246022  0.00000000       0.005
   0.00000000 -0.00000000  0.04492043       0.003
  -0.01123011  0.01123011  0.05615054       0.011
  -0.02246022  0.02246022  0.06738065       0.011
  -0.03369033  0.03369033  0.07861076       0.011
  -0.04492043  0.04492043  0.08984087       0.011
   0.08984087 -0.08984087 -0.04492043       0.011
   0.07861076 -0.07861076 -0.03369033       0.011
   0.06738065 -0.06738065 -0.02246022       0.011
   0.05615054 -0.05615054 -0.01123011       0.011
   0.04492043 -0.04492043  0.00000000       0.005
  -0.00000000  0.00000000  0.06738065       0.003
  -0.01123011  0.01123011  0.07861076       0.011
  -0.02246022  0.02246022  0.08984087       0.011
  -0.03369033  0.03369033  0.10107098       0.011
   0.10107098 -0.10107098 -0.03369033       0.011
   0.08984087 -0.08984087 -0.02246022       0.011
   0.07861076 -0.07861076 -0.01123011       0.011
   0.06738065 -0.06738065 -0.00000000       0.005
   0.00000000 -0.00000000  0.08984087       0.003
  -0.01123011  0.01123011  0.10107098       0.011
  -0.02246022  0.02246022  0.11230109       0.011
   0.11230109 -0.11230109 -0.02246022       0.011
   0.10107098 -0.10107098 -0.01123011       0.011
   0.08984087 -0.08984087  0.00000000       0.005
  -0.00000000  0.00000000  0.11230109       0.003
  -0.01123011  0.01123011  0.12353119       0.011
   0.12353119 -0.12353119 -0.01123011       0.011
   0.11230109 -0.11230109 -0.00000000       0.005
   0.00000000 -0.00000000  0.13476130       0.003
   0.13476130 -0.13476130  0.00000000       0.005
   0.00000000  0.02246022  0.04492043       0.011
  -0.01123011  0.03369033  0.05615054       0.022
  -0.02246022  0.04492043  0.06738065       0.022
  -0.03369033  0.05615054  0.07861076       0.022
   0.10107098 -0.07861076 -0.05615054       0.022
   0.00000000  0.02246022  0.06738065       0.011
  -0.01123011  0.03369033  0.07861076       0.022
  -0.02246022  0.04492043  0.08984087       0.022
   0.11230109 -0.08984087 -0.04492043       0.022
   0.10107098 -0.07861076 -0.03369033       0.022
   0.08984087 -0.06738065 -0.02246022       0.022
   0.07861076 -0.05615054 -0.01123011       0.022
   0.06738065 -0.04492043 -0.00000000       0.011
  -0.00000000  0.02246022  0.08984087       0.011
  -0.01123011  0.03369033  0.10107098       0.022
   0.12353119 -0.10107098 -0.03369033       0.022
   0.11230109 -0.08984087 -0.02246022       0.022
   0.10107098 -0.07861076 -0.01123011       0.022
   0.08984087 -0.06738065 -0.00000000       0.011
   0.00000000  0.02246022  0.11230109       0.011
   0.13476130 -0.11230109 -0.02246022       0.022
   0.12353119 -0.10107098 -0.01123011       0.022
   0.11230109 -0.08984087 -0.00000000       0.011
   0.14599141 -0.12353119 -0.01123011       0.011
   0.13476130 -0.11230109 -0.00000000       0.011
   0.00000000  0.04492043  0.08984087       0.011
   0.13476130 -0.08984087 -0.04492043       0.022
   0.12353119 -0.07861076 -0.03369033       0.022
   0.14599141 -0.10107098 -0.03369033       0.011
   0.13476130 -0.08984087 -0.02246022       0.022
   0.12353119 -0.07861076 -0.01123011       0.022
   0.11230109 -0.06738065  0.00000000       0.011
   0.14599141 -0.10107098 -0.01123011       0.011
   0.13476130 -0.08984087  0.00000000       0.011
   0.14599141 -0.07861076 -0.01123011       0.011

 k-points in reciprocal lattice and weights: KPOINTS
   0.00000000  0.00000000  0.00000000       0.000
   0.07692308 -0.00000000  0.00000000       0.004
   0.15384615 -0.00000000  0.00000000       0.004
   0.23076923  0.00000000 -0.00000000       0.004
   0.30769231 -0.00000000  0.00000000       0.004
   0.38461538  0.00000000 -0.00000000       0.004
   0.46153846 -0.00000000  0.00000000       0.004
   0.07692308  0.07692308  0.00000000       0.003
   0.15384615  0.07692308  0.00000000       0.011
   0.23076923  0.07692308  0.00000000       0.011
   0.30769231  0.07692308 -0.00000000       0.011
   0.38461538  0.07692308  0.00000000       0.011
   0.46153846  0.07692308 -0.00000000       0.011
  -0.46153846  0.07692308  0.00000000       0.011
  -0.38461538  0.07692308  0.00000000       0.011
  -0.30769231  0.07692308 -0.00000000       0.011
  -0.23076923  0.07692308  0.00000000       0.011
  -0.15384615  0.07692308  0.00000000       0.011
  -0.07692308  0.07692308 -0.00000000       0.005
   0.15384615  0.15384615  0.00000000       0.003
   0.23076923  0.15384615  0.00000000       0.011
   0.30769231  0.15384615  0.00000000       0.011
   0.38461538  0.15384615 -0.00000000       0.011
   0.46153846  0.15384615  0.00000000       0.011
  -0.46153846  0.15384615 -0.00000000       0.011
  -0.38461538  0.15384615  0.00000000       0.011
  -0.30769231  0.15384615 -0.00000000       0.011
  -0.23076923  0.15384615 -0.00000000       0.011
  -0.15384615  0.15384615 -0.00000000       0.005
   0.23076923  0.23076923  0.00000000       0.003
   0.30769231  0.23076923  0.00000000       0.011
   0.38461538  0.23076923  0.00000000       0.011
   0.46153846  0.23076923 -0.00000000       0.011
  -0.46153846  0.23076923  0.00000000       0.011
  -0.38461538  0.23076923  0.00000000       0.011
  -0.30769231  0.23076923  0.00000000       0.011
  -0.23076923  0.23076923  0.00000000       0.005
   0.30769231  0.30769231  0.00000000       0.003
   0.38461538  0.30769231  0.00000000       0.011
   0.46153846  0.30769231  0.00000000       0.011
  -0.46153846  0.30769231 -0.00000000       0.011
  -0.38461538  0.30769231  0.00000000       0.011
  -0.30769231  0.30769231 -0.00000000       0.005
   0.38461538  0.38461538  0.00000000       0.003
   0.46153846  0.38461538 -0.00000000       0.011
  -0.46153846  0.38461538  0.00000000       0.011
  -0.38461538  0.38461538  0.00000000       0.005
   0.46153846  0.46153846  0.00000000       0.003
  -0.46153846  0.46153846 -0.00000000       0.005
   0.23076923  0.15384615  0.07692308       0.011
   0.30769231  0.15384615  0.07692308       0.022
   0.38461538  0.15384615  0.07692308       0.022
   0.46153846  0.15384615  0.07692308       0.022
  -0.46153846  0.15384615  0.07692308       0.022
   0.30769231  0.23076923  0.07692308       0.011
   0.38461538  0.23076923  0.07692308       0.022
   0.46153846  0.23076923  0.07692308       0.022
  -0.46153846  0.23076923  0.07692308       0.022
  -0.38461538  0.23076923  0.07692308       0.022
  -0.30769231  0.23076923  0.07692308       0.022
  -0.23076923  0.23076923  0.07692308       0.022
  -0.15384615  0.23076923  0.07692308       0.011
   0.38461538  0.30769231  0.07692308       0.011
   0.46153846  0.30769231  0.07692308       0.022
  -0.46153846  0.30769231  0.07692308       0.022
  -0.38461538  0.30769231  0.07692308       0.022
  -0.30769231  0.30769231  0.07692308       0.022
  -0.23076923  0.30769231  0.07692308       0.011
   0.46153846  0.38461538  0.07692308       0.011
  -0.46153846  0.38461538  0.07692308       0.022
  -0.38461538  0.38461538  0.07692308       0.022
  -0.30769231  0.38461538  0.07692308       0.011
  -0.46153846  0.46153846  0.07692308       0.011
  -0.38461538  0.46153846  0.07692308       0.011
   0.46153846  0.30769231  0.15384615       0.011
  -0.46153846  0.30769231  0.15384615       0.022
  -0.38461538  0.30769231  0.15384615       0.022
  -0.46153846  0.38461538  0.15384615       0.011
  -0.38461538  0.38461538  0.15384615       0.022
  -0.30769231  0.38461538  0.15384615       0.022
  -0.23076923  0.38461538  0.15384615       0.011
  -0.38461538  0.46153846  0.15384615       0.011
  -0.30769231  0.46153846  0.15384615       0.011
  -0.30769231  0.46153846  0.23076923       0.011

 position of ions in fractional coordinates (direct lattice)
   0.25000000  0.25000000  0.25000000
   0.75000000  0.75000000  0.75000000
   0.00000000  0.00000000  0.00000000

 position of ions in cartesian coordinates  (Angst):
   1.80956159  1.80956159  1.80956159
   5.42868478  5.42868478  5.42868478
   0.00000000  0.00000000  0.00000000



--------------------------------------------------------------------------------------------------------


 k-point  1 :   0.0000 0.0000 0.0000  plane waves:    3943
 k-point  2 :   0.0769-0.0000 0.0000  plane waves:    3939
 k-point  3 :   0.1538-0.0000 0.0000  plane waves:    3969
 k-point  4 :   0.2308 0.0000-0.0000  plane waves:    3984
 k-point  5 :   0.3077-0.0000 0.0000  plane waves:    3960
 k-point  6 :   0.3846 0.0000-0.0000  plane waves:    3960
 k-point  7 :   0.4615-0.0000 0.0000  plane waves:    3987
 k-point  8 :   0.0769 0.0769 0.0000  plane waves:    3935
 k-point  9 :   0.1538 0.0769 0.0000  plane waves:    3967
 k-point 10 :   0.2308 0.0769 0.0000  plane waves:    3982
 k-point 11 :   0.3077 0.0769-0.0000  plane waves:    3972
 k-point 12 :   0.3846 0.0769 0.0000  plane waves:    3975
 k-point 13 :   0.4615 0.0769-0.0000  plane waves:    3983
 k-point 14 :  -0.4615 0.0769 0.0000  plane waves:    3986
 k-point 15 :  -0.3846 0.0769 0.0000  plane waves:    3972
 k-point 16 :  -0.3077 0.0769-0.0000  plane waves:    3970
 k-point 17 :  -0.2308 0.0769 0.0000  plane waves:    3971
 k-point 18 :  -0.1538 0.0769 0.0000  plane waves:    3972
 k-point 19 :  -0.0769 0.0769-0.0000  plane waves:    3953
 k-point 20 :   0.1538 0.1538 0.0000  plane waves:    3951
 k-point 21 :   0.2308 0.1538 0.0000  plane waves:    3974
 k-point 22 :   0.3077 0.1538 0.0000  plane waves:    3982
 k-point 23 :   0.3846 0.1538-0.0000  plane waves:    3983
 k-point 24 :   0.4615 0.1538 0.0000  plane waves:    3987
 k-point 25 :  -0.4615 0.1538-0.0000  plane waves:    3984
 k-point 26 :  -0.3846 0.1538 0.0000  plane waves:    3978
 k-point 27 :  -0.3077 0.1538-0.0000  plane waves:    3985
 k-point 28 :  -0.2308 0.1538-0.0000  plane waves:    3989
 k-point 29 :  -0.1538 0.1538-0.0000  plane waves:    3991
 k-point 30 :   0.2308 0.2308 0.0000  plane waves:    3976
 k-point 31 :   0.3077 0.2308 0.0000  plane waves:    3996
 k-point 32 :   0.3846 0.2308 0.0000  plane waves:    3997
 k-point 33 :   0.4615 0.2308-0.0000  plane waves:    4000
 k-point 34 :  -0.4615 0.2308 0.0000  plane waves:    3985
 k-point 35 :  -0.3846 0.2308 0.0000  plane waves:    3985
 k-point 36 :  -0.3077 0.2308 0.0000  plane waves:    3989
 k-point 37 :  -0.2308 0.2308 0.0000  plane waves:    3989
 k-point 38 :   0.3077 0.3077 0.0000  plane waves:    4008
 k-point 39 :   0.3846 0.3077 0.0000  plane waves:    4002
 k-point 40 :   0.4615 0.3077 0.0000  plane waves:    3997
 k-point 41 :  -0.4615 0.3077-0.0000  plane waves:    3984
 k-point 42 :  -0.3846 0.3077 0.0000  plane waves:    3987
 k-point 43 :  -0.3077 0.3077-0.0000  plane waves:    3997
 k-point 44 :   0.3846 0.3846 0.0000  plane waves:    3996
 k-point 45 :   0.4615 0.3846-0.0000  plane waves:    4001
 k-point 46 :  -0.4615 0.3846 0.0000  plane waves:    3985
 k-point 47 :  -0.3846 0.3846 0.0000  plane waves:    4003
 k-point 48 :   0.4615 0.4615 0.0000  plane waves:    3996
 k-point 49 :  -0.4615 0.4615-0.0000  plane waves:    3983
 k-point 50 :   0.2308 0.1538 0.0769  plane waves:    3975
 k-point 51 :   0.3077 0.1538 0.0769  plane waves:    3969
 k-point 52 :   0.3846 0.1538 0.0769  plane waves:    3978
 k-point 53 :   0.4615 0.1538 0.0769  plane waves:    3981
 k-point 54 :  -0.4615 0.1538 0.0769  plane waves:    3984
 k-point 55 :   0.3077 0.2308 0.0769  plane waves:    3981
 k-point 56 :   0.3846 0.2308 0.0769  plane waves:    3989
 k-point 57 :   0.4615 0.2308 0.0769  plane waves:    3990
 k-point 58 :  -0.4615 0.2308 0.0769  plane waves:    3995
 k-point 59 :  -0.3846 0.2308 0.0769  plane waves:    3979
 k-point 60 :  -0.3077 0.2308 0.0769  plane waves:    3994
 k-point 61 :  -0.2308 0.2308 0.0769  plane waves:    3980
 k-point 62 :  -0.1538 0.2308 0.0769  plane waves:    3993
 k-point 63 :   0.3846 0.3077 0.0769  plane waves:    3992
 k-point 64 :   0.4615 0.3077 0.0769  plane waves:    3993
 k-point 65 :  -0.4615 0.3077 0.0769  plane waves:    3993
 k-point 66 :  -0.3846 0.3077 0.0769  plane waves:    3993
 k-point 67 :  -0.3077 0.3077 0.0769  plane waves:    3992
 k-point 68 :  -0.2308 0.3077 0.0769  plane waves:    3979
 k-point 69 :   0.4615 0.3846 0.0769  plane waves:    4003
 k-point 70 :  -0.4615 0.3846 0.0769  plane waves:    3995
 k-point 71 :  -0.3846 0.3846 0.0769  plane waves:    4002
 k-point 72 :  -0.3077 0.3846 0.0769  plane waves:    3997
 k-point 73 :  -0.4615 0.4615 0.0769  plane waves:    3999
 k-point 74 :  -0.3846 0.4615 0.0769  plane waves:    3994
 k-point 75 :   0.4615 0.3077 0.1538  plane waves:    3987
 k-point 76 :  -0.4615 0.3077 0.1538  plane waves:    3990
 k-point 77 :  -0.3846 0.3077 0.1538  plane waves:    3990
 k-point 78 :  -0.4615 0.3846 0.1538  plane waves:    3993
 k-point 79 :  -0.3846 0.3846 0.1538  plane waves:    3992
 k-point 80 :  -0.3077 0.3846 0.1538  plane waves:    3994
 k-point 81 :  -0.2308 0.3846 0.1538  plane waves:    3999
 k-point 82 :  -0.3846 0.4615 0.1538  plane waves:    3991
 k-point 83 :  -0.3077 0.4615 0.1538  plane waves:    4001
 k-point 84 :  -0.3077 0.4615 0.2308  plane waves:    4003

 maximum and minimum number of plane-waves per node :      1014      972

 maximum number of plane-waves:      4008
 maximum index in each direction:
   IXMAX=   11   IYMAX=   11   IZMAX=   11
   IXMIN=  -11   IYMIN=  -11   IZMIN=  -11


 parallel 3D FFT for wavefunctions:
    minimum data exchange during FFTs selected (reduces bandwidth)
 parallel 3D FFT for charge:
    minimum data exchange during FFTs selected (reduces bandwidth)


 total amount of memory used by VASP MPI-rank0   117464. kBytes
=======================================================================

   base      :      30000. kBytes
   nonl-proj :      65334. kBytes
   fftplans  :       8954. kBytes
   grid      :       4709. kBytes
   one-center:         49. kBytes
   wavefun   :       8418. kBytes

     INWAV:  cpu time    0.0003: real time    0.0006
 Broyden mixing: mesh for mixing (old mesh)
   NGX = 23   NGY = 23   NGZ = 23
  (NGX  = 96   NGY  = 96   NGZ  = 96)
  gives a total of  12167 points

 initial charge density was supplied:
 charge density of overlapping atoms calculated
 number of electron      37.0000000 magnetization
 keeping initial charge density in first step


--------------------------------------------------------------------------------------------------------


 Maximum index for augmentation-charges        34629 (set IRDMAX)


--------------------------------------------------------------------------------------------------------


 First call to EWALD:  gamma=   0.389
 Maximum number of real-space cells 3x 3x 3
 Maximum number of reciprocal cells 3x 3x 3

    FEWALD:  cpu time    0.0053: real time    0.0059


--------------------------------------- Iteration      1(   1)  ---------------------------------------


    POTLOK:  cpu time    0.0635: real time    0.1637
    SETDIJ:  cpu time    0.1178: real time    0.1181
     EDDAV:  cpu time    1.7125: real time    1.7222
       DOS:  cpu time    0.0040: real time    0.0048
    --------------------------------------------
      LOOP:  cpu time    1.8983: real time    2.0133

 eigenvalue-minimisations  :  4032
 total energy-change (2. order) : 0.4337611E+03  (-0.2014995E+04)
 number of electron      37.0000000 magnetization
 augmentation part       37.0000000 magnetization

 Free energy of the ion-electron system (eV)
  ---------------------------------------------------
  alpha Z        PSCENC =       181.22686425
  Ewald energy   TEWEN  =     -2959.88276170
  -Hartree energ DENC   =      -832.06871588
  -exchange      EXHF   =         0.00000000
  -V(xc)+E(xc)   XCENC  =        66.67587829
  PAW double counting   =      3147.30828992    -3070.62761383
  entropy T*S    EENTRO =        -0.00024119
  eigenvalues    EBANDS =       226.45592923
  atomic energy  EATOM  =      3674.67342263
  Solvation  Ediel_sol  =         0.00000000
  ---------------------------------------------------
  free energy    TOTEN  =       433.76105173 eV

  energy without entropy =      433.76129292  energy(sigma->0) =      433.76117232


--------------------------------------------------------------------------------------------------------




--------------------------------------- Iteration      1(   2)  ---------------------------------------


     EDDAV:  cpu time    1.8063: real time    1.8425
       DOS:  cpu time    0.0032: real time    0.0037
    --------------------------------------------
      LOOP:  cpu time    1.8093: real time    1.8434

 eigenvalue-minimisations  :  4368
 total energy-change (2. order) :-0.3906164E+03  (-0.3835149E+03)
 number of electron      37.0000000 magnetization
 augmentation part       37.0000000 magnetization

 Free energy of the ion-electron system (eV)
  ---------------------------------------------------
  alpha Z        PSCENC =       181.22686425
  Ewald energy   TEWEN  =     -2959.88276170
  -Hartree energ DENC   =      -832.06871588
  -exchange      EXHF   =         0.00000000
  -V(xc)+E(xc)   XCENC  =        66.67587829
  PAW double counting   =      3147.30828992    -3070.62761383
  entropy T*S    EENTRO =        -0.00019191
  eigenvalues    EBANDS =      -164.16053194
  atomic energy  EATOM  =      3674.67342263
  Solvation  Ediel_sol  =         0.00000000
  ---------------------------------------------------
  free energy    TOTEN  =        43.14463985 eV

  energy without entropy =       43.14483175  energy(sigma->0) =       43.14473580


--------------------------------------------------------------------------------------------------------




--------------------------------------- Iteration      1(   3)  ---------------------------------------


     EDDAV:  cpu time    2.1083: real time    2.1405
       DOS:  cpu time    0.0031: real time    0.0032
    --------------------------------------------
      LOOP:  cpu time    2.1114: real time    2.1441

 eigenvalue-minimisations  :  5432
 total energy-change (2. order) :-0.6133028E+02  (-0.6066390E+02)
 number of electron      37.0000000 magnetization
 augmentation part       37.0000000 magnetization

 Free energy of the ion-electron system (eV)
  ---------------------------------------------------
  alpha Z        PSCENC =       181.22686425
  Ewald energy   TEWEN  =     -2959.88276170
  -Hartree energ DENC   =      -832.06871588
  -exchange      EXHF   =         0.00000000
  -V(xc)+E(xc)   XCENC  =        66.67587829
  PAW double counting   =      3147.30828992    -3070.62761383
  entropy T*S    EENTRO =        -0.00018403
  eigenvalues    EBANDS =      -225.49081650
  atomic energy  EATOM  =      3674.67342263
  Solvation  Ediel_sol  =         0.00000000
  ---------------------------------------------------
  free energy    TOTEN  =       -18.18563684 eV

  energy without entropy =      -18.18545281  energy(sigma->0) =      -18.18554482


--------------------------------------------------------------------------------------------------------




--------------------------------------- Iteration      1(   4)  ---------------------------------------


     EDDAV:  cpu time    2.7097: real time    2.7339
       DOS:  cpu time    0.0030: real time    0.0036
    --------------------------------------------
      LOOP:  cpu time    2.7127: real time    2.7375

 eigenvalue-minimisations  :  7352
 total energy-change (2. order) :-0.4220532E+01  (-0.4202218E+01)
 number of electron      37.0000000 magnetization
 augmentation part       37.0000000 magnetization

 Free energy of the ion-electron system (eV)
  ---------------------------------------------------
  alpha Z        PSCENC =       181.22686425
  Ewald energy   TEWEN  =     -2959.88276170
  -Hartree energ DENC   =      -832.06871588
  -exchange      EXHF   =         0.00000000
  -V(xc)+E(xc)   XCENC  =        66.67587829
  PAW double counting   =      3147.30828992    -3070.62761383
  entropy T*S    EENTRO =        -0.00019017
  eigenvalues    EBANDS =      -229.71134217
  atomic energy  EATOM  =      3674.67342263
  Solvation  Ediel_sol  =         0.00000000
  ---------------------------------------------------
  free energy    TOTEN  =       -22.40616866 eV

  energy without entropy =      -22.40597849  energy(sigma->0) =      -22.40607357


--------------------------------------------------------------------------------------------------------




--------------------------------------- Iteration      1(   5)  ---------------------------------------


     EDDAV:  cpu time    2.1268: real time    2.1600
       DOS:  cpu time    0.0030: real time    0.0034
    CHARGE:  cpu time    0.4518: real time    0.4526
    MIXING:  cpu time    0.0061: real time    0.0066
    --------------------------------------------
      LOOP:  cpu time    2.5877: real time    2.6230

 eigenvalue-minimisations  :  5504
 total energy-change (2. order) :-0.1274111E+00  (-0.1273654E+00)
 number of electron      37.0000000 magnetization
 augmentation part        6.0568137 magnetization

 Broyden mixing:
  rms(total) = 0.25115E+01    rms(broyden)= 0.25115E+01
  rms(prec ) = 0.29265E+01
  weight for this iteration     100.00

 Free energy of the ion-electron system (eV)
  ---------------------------------------------------
  alpha Z        PSCENC =       181.22686425
  Ewald energy   TEWEN  =     -2959.88276170
  -Hartree energ DENC   =      -832.06871588
  -exchange      EXHF   =         0.00000000
  -V(xc)+E(xc)   XCENC  =        66.67587829
  PAW double counting   =      3147.30828992    -3070.62761383
  entropy T*S    EENTRO =        -0.00018962
  eigenvalues    EBANDS =      -229.83875380
  atomic energy  EATOM  =      3674.67342263
  Solvation  Ediel_sol  =         0.00000000
  ---------------------------------------------------
  free energy    TOTEN  =       -22.53357973 eV

  energy without entropy =      -22.53339011  energy(sigma->0) =      -22.53348492


--------------------------------------------------------------------------------------------------------




--------------------------------------- Iteration      1(   6)  ---------------------------------------


    POTLOK:  cpu time    0.0471: real time    0.0775
    SETDIJ:  cpu time    0.1186: real time    0.1188
     EDDAV:  cpu time    2.0236: real time    2.0239
       DOS:  cpu time    0.0033: real time    0.0042
    CHARGE:  cpu time    0.4024: real time    0.4025
    MIXING:  cpu time    0.0055: real time    0.0057
    --------------------------------------------
      LOOP:  cpu time    2.6004: real time    2.6314

 eigenvalue-minimisations  :  5160
 total energy-change (2. order) : 0.1130918E+01  (-0.2392222E+00)
 number of electron      37.0000000 magnetization
 augmentation part        6.0675537 magnetization

 Broyden mixing:
  rms(total) = 0.16608E+01    rms(broyden)= 0.16608E+01
  rms(prec ) = 0.17960E+01
  weight for this iteration     100.00

 eigenvalues of (default mixing * dielectric matrix)
  average eigenvalue GAMMA=   2.8116
  2.8116

 Free energy of the ion-electron system (eV)
  ---------------------------------------------------
  alpha Z        PSCENC =       181.22686425
  Ewald energy   TEWEN  =     -2959.88276170
  -Hartree energ DENC   =      -817.54545624
  -exchange      EXHF   =         0.00000000
  -V(xc)+E(xc)   XCENC  =        66.21946394
  PAW double counting   =      3318.81923764    -3245.95100326
  entropy T*S    EENTRO =        -0.00040855
  eigenvalues    EBANDS =      -238.96202015
  atomic energy  EATOM  =      3674.67342263
  Solvation  Ediel_sol  =         0.00000000
  ---------------------------------------------------
  free energy    TOTEN  =       -21.40266144 eV

  energy without entropy =      -21.40225289  energy(sigma->0) =      -21.40245716


--------------------------------------------------------------------------------------------------------




--------------------------------------- Iteration      1(   7)  ---------------------------------------


    POTLOK:  cpu time    0.0541: real time    0.0814
    SETDIJ:  cpu time    0.1135: real time    0.1137
     EDDAV:  cpu time    2.3249: real time    2.3252
       DOS:  cpu time    0.0032: real time    0.0036
    CHARGE:  cpu time    0.3682: real time    0.3686
    MIXING:  cpu time    0.0074: real time    0.0076
    --------------------------------------------
      LOOP:  cpu time    2.8712: real time    2.9006

 eigenvalue-minimisations  :  6176
 total energy-change (2. order) : 0.1061147E+00  (-0.2898368E+00)
 number of electron      37.0000000 magnetization
 augmentation part        6.0650061 magnetization

 Broyden mixing:
  rms(total) = 0.63622E+00    rms(broyden)= 0.63622E+00
  rms(prec ) = 0.76212E+00
  weight for this iteration     100.00

 eigenvalues of (default mixing * dielectric matrix)
  average eigenvalue GAMMA=   2.1803
  1.0645  3.2961

 Free energy of the ion-electron system (eV)
  ---------------------------------------------------
  alpha Z        PSCENC =       181.22686425
  Ewald energy   TEWEN  =     -2959.88276170
  -Hartree energ DENC   =      -802.33602149
  -exchange      EXHF   =         0.00000000
  -V(xc)+E(xc)   XCENC  =        65.91558495
  PAW double counting   =      3534.44191453    -3465.37339487
  entropy T*S    EENTRO =        -0.00022957
  eigenvalues    EBANDS =      -249.96192552
  atomic energy  EATOM  =      3674.67342263
  Solvation  Ediel_sol  =         0.00000000
  ---------------------------------------------------
  free energy    TOTEN  =       -21.29654677 eV

  energy without entropy =      -21.29631721  energy(sigma->0) =      -21.29643199


--------------------------------------------------------------------------------------------------------




--------------------------------------- Iteration      1(   8)  ---------------------------------------


    POTLOK:  cpu time    0.0443: real time    0.0760
    SETDIJ:  cpu time    0.1134: real time    0.1136
     EDDAV:  cpu time    2.0271: real time    2.0274
       DOS:  cpu time    0.0032: real time    0.0054
    CHARGE:  cpu time    0.3729: real time    0.3731
    MIXING:  cpu time    0.0051: real time    0.0058
    --------------------------------------------
      LOOP:  cpu time    2.5659: real time    2.6019

 eigenvalue-minimisations  :  5128
 total energy-change (2. order) : 0.4571218E-01  (-0.1527389E+00)
 number of electron      37.0000000 magnetization
 augmentation part        5.9818427 magnetization

 Broyden mixing:
  rms(total) = 0.13850E+00    rms(broyden)= 0.13850E+00
  rms(prec ) = 0.28706E+00
  weight for this iteration     100.00

 eigenvalues of (default mixing * dielectric matrix)
  average eigenvalue GAMMA=   1.7044
  2.7231  1.1950  1.1950

 Free energy of the ion-electron system (eV)
  ---------------------------------------------------
  alpha Z        PSCENC =       181.22686425
  Ewald energy   TEWEN  =     -2959.88276170
  -Hartree energ DENC   =      -806.79527635
  -exchange      EXHF   =         0.00000000
  -V(xc)+E(xc)   XCENC  =        66.03468538
  PAW double counting   =      3553.41680154    -3483.86314788
  entropy T*S    EENTRO =        -0.00030891
  eigenvalues    EBANDS =      -246.06111356
  atomic energy  EATOM  =      3674.67342263
  Solvation  Ediel_sol  =         0.00000000
  ---------------------------------------------------
  free energy    TOTEN  =       -21.25083460 eV

  energy without entropy =      -21.25052568  energy(sigma->0) =      -21.25068014


--------------------------------------------------------------------------------------------------------




--------------------------------------- Iteration      1(   9)  ---------------------------------------


    POTLOK:  cpu time    0.0620: real time    0.1162
    SETDIJ:  cpu time    0.1074: real time    0.1079
     EDDAV:  cpu time    2.1646: real time    2.1650
       DOS:  cpu time    0.0031: real time    0.0034
    CHARGE:  cpu time    0.3728: real time    0.3731
    MIXING:  cpu time    0.0052: real time    0.0069
    --------------------------------------------
      LOOP:  cpu time    2.7151: real time    2.7726

 eigenvalue-minimisations  :  5608
 total energy-change (2. order) : 0.2656791E-02  (-0.7016934E-01)
 number of electron      37.0000000 magnetization
 augmentation part        5.9703833 magnetization

 Broyden mixing:
  rms(total) = 0.17146E+00    rms(broyden)= 0.17146E+00
  rms(prec ) = 0.32303E+00
  weight for this iteration     100.00

 eigenvalues of (default mixing * dielectric matrix)
  average eigenvalue GAMMA=   1.4541
  2.7723  1.2626  1.2626  0.5189

 Free energy of the ion-electron system (eV)
  ---------------------------------------------------
  alpha Z        PSCENC =       181.22686425
  Ewald energy   TEWEN  =     -2959.88276170
  -Hartree energ DENC   =      -805.57879656
  -exchange      EXHF   =         0.00000000
  -V(xc)+E(xc)   XCENC  =        65.98440526
  PAW double counting   =      3578.36325381    -3509.22426861
  entropy T*S    EENTRO =        -0.00024067
  eigenvalues    EBANDS =      -246.81005622
  atomic energy  EATOM  =      3674.67342263
  Solvation  Ediel_sol  =         0.00000000
  ---------------------------------------------------
  free energy    TOTEN  =       -21.24817781 eV

  energy without entropy =      -21.24793714  energy(sigma->0) =      -21.24805747


--------------------------------------------------------------------------------------------------------




--------------------------------------- Iteration      1(  10)  ---------------------------------------


    POTLOK:  cpu time    0.0437: real time    0.0980
    SETDIJ:  cpu time    0.1098: real time    0.1103
     EDDAV:  cpu time    2.1985: real time    2.1991
       DOS:  cpu time    0.0031: real time    0.0043
    CHARGE:  cpu time    0.3755: real time    0.3757
    MIXING:  cpu time    0.0056: real time    0.0066
    --------------------------------------------
      LOOP:  cpu time    2.7362: real time    2.7949

 eigenvalue-minimisations  :  5648
 total energy-change (2. order) : 0.2430361E-01  (-0.1083860E-01)
 number of electron      37.0000000 magnetization
 augmentation part        5.9674373 magnetization

 Broyden mixing:
  rms(total) = 0.10546E+00    rms(broyden)= 0.10546E+00
  rms(prec ) = 0.14411E+00
  weight for this iteration     100.00

 eigenvalues of (default mixing * dielectric matrix)
  average eigenvalue GAMMA=   1.5233
  3.1689  1.6748  1.3479  0.7126  0.7126

 Free energy of the ion-electron system (eV)
  ---------------------------------------------------
  alpha Z        PSCENC =       181.22686425
  Ewald energy   TEWEN  =     -2959.88276170
  -Hartree energ DENC   =      -806.05789052
  -exchange      EXHF   =         0.00000000
  -V(xc)+E(xc)   XCENC  =        65.98207531
  PAW double counting   =      3582.97014518    -3513.65040528
  entropy T*S    EENTRO =        -0.00041367
  eigenvalues    EBANDS =      -246.48491041
  atomic energy  EATOM  =      3674.67342263
  Solvation  Ediel_sol  =         0.00000000
  ---------------------------------------------------
  free energy    TOTEN  =       -21.22387420 eV

  energy without entropy =      -21.22346053  energy(sigma->0) =      -21.22366737


--------------------------------------------------------------------------------------------------------




--------------------------------------- Iteration      1(  11)  ---------------------------------------


    POTLOK:  cpu time    0.0450: real time    0.0858
    SETDIJ:  cpu time    0.1098: real time    0.1100
     EDDAV:  cpu time    2.4333: real time    2.4349
       DOS:  cpu time    0.0031: real time    0.0045
    CHARGE:  cpu time    0.3730: real time    0.3733
    MIXING:  cpu time    0.0057: real time    0.0061
    --------------------------------------------
      LOOP:  cpu time    2.9701: real time    3.0149

 eigenvalue-minimisations  :  6368
 total energy-change (2. order) : 0.2521766E-02  (-0.2427872E-02)
 number of electron      37.0000000 magnetization
 augmentation part        5.9809010 magnetization

 Broyden mixing:
  rms(total) = 0.51323E-01    rms(broyden)= 0.51323E-01
  rms(prec ) = 0.53048E-01
  weight for this iteration     100.00

 eigenvalues of (default mixing * dielectric matrix)
  average eigenvalue GAMMA=   1.3727
  2.5249  2.1049  1.1363  1.1363  0.6670  0.6670

 Free energy of the ion-electron system (eV)
  ---------------------------------------------------
  alpha Z        PSCENC =       181.22686425
  Ewald energy   TEWEN  =     -2959.88276170
  -Hartree energ DENC   =      -806.76516778
  -exchange      EXHF   =         0.00000000
  -V(xc)+E(xc)   XCENC  =        65.97512470
  PAW double counting   =      3593.56042896    -3524.00415890
  entropy T*S    EENTRO =        -0.00052686
  eigenvalues    EBANDS =      -246.00457774
  atomic energy  EATOM  =      3674.67342263
  Solvation  Ediel_sol  =         0.00000000
  ---------------------------------------------------
  free energy    TOTEN  =       -21.22135244 eV

  energy without entropy =      -21.22082557  energy(sigma->0) =      -21.22108901


--------------------------------------------------------------------------------------------------------




--------------------------------------- Iteration      1(  12)  ---------------------------------------


    POTLOK:  cpu time    0.0628: real time    0.1017
    SETDIJ:  cpu time    0.1057: real time    0.1064
     EDDAV:  cpu time    2.3002: real time    2.3007
       DOS:  cpu time    0.0030: real time    0.0043
    CHARGE:  cpu time    0.3725: real time    0.3729
    MIXING:  cpu time    0.0057: real time    0.0062
    --------------------------------------------
      LOOP:  cpu time    2.8500: real time    2.8942

 eigenvalue-minimisations  :  5968
 total energy-change (2. order) :-0.1408053E-04  (-0.2145109E-03)
 number of electron      37.0000000 magnetization
 augmentation part        5.9823178 magnetization

 Broyden mixing:
  rms(total) = 0.61191E-02    rms(broyden)= 0.61191E-02
  rms(prec ) = 0.11859E-01
  weight for this iteration     100.00

 eigenvalues of (default mixing * dielectric matrix)
  average eigenvalue GAMMA=   1.3637
  2.5031  2.1370  1.3254  1.3254  0.8297  0.8297  0.5957

 Free energy of the ion-electron system (eV)
  ---------------------------------------------------
  alpha Z        PSCENC =       181.22686425
  Ewald energy   TEWEN  =     -2959.88276170
  -Hartree energ DENC   =      -806.89835249
  -exchange      EXHF   =         0.00000000
  -V(xc)+E(xc)   XCENC  =        65.98173676
  PAW double counting   =      3586.10928441    -3516.48166978
  entropy T*S    EENTRO =        -0.00053122
  eigenvalues    EBANDS =      -245.94935939
  atomic energy  EATOM  =      3674.67342263
  Solvation  Ediel_sol  =         0.00000000
  ---------------------------------------------------
  free energy    TOTEN  =       -21.22136652 eV

  energy without entropy =      -21.22083530  energy(sigma->0) =      -21.22110091


--------------------------------------------------------------------------------------------------------




--------------------------------------- Iteration      1(  13)  ---------------------------------------


    POTLOK:  cpu time    0.0498: real time    0.1284
    SETDIJ:  cpu time    0.1065: real time    0.1073
     EDDAV:  cpu time    2.0816: real time    2.0822
       DOS:  cpu time    0.0030: real time    0.0043
    CHARGE:  cpu time    0.3724: real time    0.3728
    MIXING:  cpu time    0.0064: real time    0.0065
    --------------------------------------------
      LOOP:  cpu time    2.6196: real time    2.6970

 eigenvalue-minimisations  :  5384
 total energy-change (2. order) : 0.2532997E-04  (-0.1136146E-04)
 number of electron      37.0000000 magnetization
 augmentation part        5.9826963 magnetization

 Broyden mixing:
  rms(total) = 0.71730E-02    rms(broyden)= 0.71730E-02
  rms(prec ) = 0.91855E-02
  weight for this iteration     100.00

 eigenvalues of (default mixing * dielectric matrix)
  average eigenvalue GAMMA=   1.4621
  2.4099  2.4099  2.0187  1.3564  1.1050  0.8944  0.8944  0.6079

 Free energy of the ion-electron system (eV)
  ---------------------------------------------------
  alpha Z        PSCENC =       181.22686425
  Ewald energy   TEWEN  =     -2959.88276170
  -Hartree energ DENC   =      -806.89442839
  -exchange      EXHF   =         0.00000000
  -V(xc)+E(xc)   XCENC  =        65.98163211
  PAW double counting   =      3586.73654001    -3517.10701838
  entropy T*S    EENTRO =        -0.00052605
  eigenvalues    EBANDS =      -245.95506566
  atomic energy  EATOM  =      3674.67342263
  Solvation  Ediel_sol  =         0.00000000
  ---------------------------------------------------
  free energy    TOTEN  =       -21.22134119 eV

  energy without entropy =      -21.22081514  energy(sigma->0) =      -21.22107816


--------------------------------------------------------------------------------------------------------




--------------------------------------- Iteration      1(  14)  ---------------------------------------


    POTLOK:  cpu time    0.0553: real time    0.0787
    SETDIJ:  cpu time    0.1126: real time    0.1127
     EDDAV:  cpu time    2.2527: real time    2.2530
       DOS:  cpu time    0.0031: real time    0.0035
    CHARGE:  cpu time    0.3668: real time    0.3670
    MIXING:  cpu time    0.0136: real time    0.0143
    --------------------------------------------
      LOOP:  cpu time    2.8042: real time    2.8303

 eigenvalue-minimisations  :  5840
 total energy-change (2. order) : 0.1121945E-04  (-0.1139772E-04)
 number of electron      37.0000000 magnetization
 augmentation part        5.9821330 magnetization

 Broyden mixing:
  rms(total) = 0.35213E-02    rms(broyden)= 0.35213E-02
  rms(prec ) = 0.37334E-02
  weight for this iteration     100.00

 eigenvalues of (default mixing * dielectric matrix)
  average eigenvalue GAMMA=   1.4224
  2.7539  2.2819  1.9303  1.2458  1.2458  0.6098  0.9341  0.9341  0.8662

 Free energy of the ion-electron system (eV)
  ---------------------------------------------------
  alpha Z        PSCENC =       181.22686425
  Ewald energy   TEWEN  =     -2959.88276170
  -Hartree energ DENC   =      -806.86767903
  -exchange      EXHF   =         0.00000000
  -V(xc)+E(xc)   XCENC  =        65.98291853
  PAW double counting   =      3586.31477371    -3516.69129813
  entropy T*S    EENTRO =        -0.00051917
  eigenvalues    EBANDS =      -245.97705108
  atomic energy  EATOM  =      3674.67342263
  Solvation  Ediel_sol  =         0.00000000
  ---------------------------------------------------
  free energy    TOTEN  =       -21.22132997 eV

  energy without entropy =      -21.22081080  energy(sigma->0) =      -21.22107038


--------------------------------------------------------------------------------------------------------




--------------------------------------- Iteration      1(  15)  ---------------------------------------


    POTLOK:  cpu time    0.0606: real time    0.0928
    SETDIJ:  cpu time    0.1127: real time    0.1130
     EDDAV:  cpu time    2.4567: real time    2.4572
       DOS:  cpu time    0.0030: real time    0.0035
    CHARGE:  cpu time    0.3705: real time    0.3707
    MIXING:  cpu time    0.0090: real time    0.0094
    --------------------------------------------
      LOOP:  cpu time    3.0126: real time    3.0475

 eigenvalue-minimisations  :  6544
 total energy-change (2. order) :-0.6119453E-06  (-0.5973324E-06)
 number of electron      37.0000000 magnetization
 augmentation part        5.9817588 magnetization

 Broyden mixing:
  rms(total) = 0.17370E-02    rms(broyden)= 0.17370E-02
  rms(prec ) = 0.20395E-02
  weight for this iteration     100.00

 eigenvalues of (default mixing * dielectric matrix)
  average eigenvalue GAMMA=   1.4304
  2.6397  2.6397  1.6136  1.6136  0.6080  1.3016  0.8681  0.8681  1.0757  1.0757

 Free energy of the ion-electron system (eV)
  ---------------------------------------------------
  alpha Z        PSCENC =       181.22686425
  Ewald energy   TEWEN  =     -2959.88276170
  -Hartree energ DENC   =      -806.86770103
  -exchange      EXHF   =         0.00000000
  -V(xc)+E(xc)   XCENC  =        65.98244963
  PAW double counting   =      3586.66874430    -3517.04252209
  entropy T*S    EENTRO =        -0.00051961
  eigenvalues    EBANDS =      -245.97930698
  atomic energy  EATOM  =      3674.67342263
  Solvation  Ediel_sol  =         0.00000000
  ---------------------------------------------------
  free energy    TOTEN  =       -21.22133058 eV

  energy without entropy =      -21.22081097  energy(sigma->0) =      -21.22107078


--------------------------------------------------------------------------------------------------------




--------------------------------------- Iteration      1(  16)  ---------------------------------------


    POTLOK:  cpu time    0.0525: real time    0.1040
    SETDIJ:  cpu time    0.1096: real time    0.1101
     EDDAV:  cpu time    2.2246: real time    2.2250
       DOS:  cpu time    0.0031: real time    0.0037
    CHARGE:  cpu time    0.3660: real time    0.3661
    MIXING:  cpu time    0.0157: real time    0.0173
    --------------------------------------------
      LOOP:  cpu time    2.7715: real time    2.8265

 eigenvalue-minimisations  :  5784
 total energy-change (2. order) : 0.1870844E-06  (-0.9811381E-07)
 number of electron      37.0000000 magnetization
 augmentation part        5.9818168 magnetization

 Broyden mixing:
  rms(total) = 0.30564E-03    rms(broyden)= 0.30559E-03
  rms(prec ) = 0.46154E-03
  weight for this iteration     100.00

 eigenvalues of (default mixing * dielectric matrix)
  average eigenvalue GAMMA=   1.4590
  2.8258  2.5116  1.8817  1.8817  1.4986  0.6084  0.8825  0.8825  1.0410  1.0410
  0.9941

 Free energy of the ion-electron system (eV)
  ---------------------------------------------------
  alpha Z        PSCENC =       181.22686425
  Ewald energy   TEWEN  =     -2959.88276170
  -Hartree energ DENC   =      -806.87131441
  -exchange      EXHF   =         0.00000000
  -V(xc)+E(xc)   XCENC  =        65.98202382
  PAW double counting   =      3586.86186439    -3517.23204290
  entropy T*S    EENTRO =        -0.00052026
  eigenvalues    EBANDS =      -245.97886622
  atomic energy  EATOM  =      3674.67342263
  Solvation  Ediel_sol  =         0.00000000
  ---------------------------------------------------
  free energy    TOTEN  =       -21.22133039 eV

  energy without entropy =      -21.22081013  energy(sigma->0) =      -21.22107026


--------------------------------------------------------------------------------------------------------




--------------------------------------- Iteration      1(  17)  ---------------------------------------


    POTLOK:  cpu time    0.0530: real time    0.0793
    SETDIJ:  cpu time    0.1117: real time    0.1120
     EDDAV:  cpu time    1.9205: real time    1.9207
       DOS:  cpu time    0.0030: real time    0.0033
    --------------------------------------------
      LOOP:  cpu time    2.0881: real time    2.1122

 eigenvalue-minimisations  :  4768
 total energy-change (2. order) :-0.1861281E-07  (-0.5562795E-07)
 number of electron      37.0000000 magnetization
 augmentation part        5.9818168 magnetization

 Free energy of the ion-electron system (eV)
  ---------------------------------------------------
  alpha Z        PSCENC =       181.22686425
  Ewald energy   TEWEN  =     -2959.88276170
  -Hartree energ DENC   =      -806.87286677
  -exchange      EXHF   =         0.00000000
  -V(xc)+E(xc)   XCENC  =        65.98200377
  PAW double counting   =      3586.91235956    -3517.28201717
  entropy T*S    EENTRO =        -0.00052076
  eigenvalues    EBANDS =      -245.97781423
  atomic energy  EATOM  =      3674.67342263
  Solvation  Ediel_sol  =         0.00000000
  ---------------------------------------------------
  free energy    TOTEN  =       -21.22133041 eV

  energy without entropy =      -21.22080966  energy(sigma->0) =      -21.22107003


--------------------------------------------------------------------------------------------------------




 average (electrostatic) potential at core
  the test charge radii are     1.1985  1.0856  1.2059
  (the norm of the test charge is              1.0000)
       1 -59.6886       2-104.0169       3 -67.2206



 E-fermi :   6.6330     XC(G=0): -10.2361     alpha+bet :-11.8665


 k-point     1 :       0.0000    0.0000    0.0000
  band No.  band energies     occupation
      1     -33.9293      2.00000
      2     -16.0987      2.00000
      3     -16.0987      2.00000
      4     -16.0755      2.00000
      5     -16.0755      2.00000
      6     -16.0755      2.00000
      7     -11.7211      2.00000
      8     -11.7211      2.00000
      9     -11.7211      2.00000
     10      -4.8070      2.00000
     11       2.9754      2.00000
     12       2.9754      2.00000
     13       2.9754      2.00000
     14       3.2867      2.00000
     15       3.2867      2.00000
     16       4.2574      2.00000
     17       5.8069      2.00000
     18       5.8069      2.00000
     19       5.8069      2.00000
     20       6.9200      0.00000
     21       6.9200      0.00000
     22       6.9200      0.00000
     23       7.5379      0.00000
     24       8.1731      0.00000

 k-point     2 :       0.0769   -0.0000    0.0000
  band No.  band energies     occupation
      1     -33.9292      2.00000
      2     -16.0990      2.00000
      3     -16.0990      2.00000
      4     -16.0755      2.00000
      5     -16.0754      2.00000
      6     -16.0754      2.00000
      7     -11.7277      2.00000
      8     -11.7204      2.00000
      9     -11.7204      2.00000
     10      -4.7710      2.00000
     11       2.8209      2.00000
     12       2.9137      2.00000
     13       2.9137      2.00000
     14       3.3451      2.00000
     15       3.3451      2.00000
     16       4.2298      2.00000
     17       5.7312      2.00000
     18       5.7312      2.00000
     19       5.8047      2.00000
     20       6.9848      0.00000
     21       6.9994      0.00000
     22       6.9994      0.00000
     23       7.6906      0.00000
     24       8.1831      0.00000

 k-point     3 :       0.1538   -0.0000    0.0000
  band No.  band energies     occupation
      1     -33.9289      2.00000
      2     -16.0998      2.00000
      3     -16.0998      2.00000
      4     -16.0757      2.00000
      5     -16.0752      2.00000
      6     -16.0752      2.00000
      7     -11.7458      2.00000
      8     -11.7186      2.00000
[...]
  212              fftbas_plan_mpi                       0.099635                     12   6
  213                dfftw_execute                         0.040274                   36   7
  214                map_backward                          0.007034                   12   7
  215                  map_gather                            0.001834                  6   8
  216                  m_alltoallv_z                         0.002775                  6   8
  217                  map_scatter                           0.002115                  6   8
  218                map_forward                           0.048831                   12   7
  219                  map_gather                            0.029140                  6   8
  220                  m_alltoallv_z                         0.008158                  6   8
  221                  map_scatter                           0.011225                  6   8
  222            M_sumb_d                              0.007877                        6   5
  223          M_sumb_d                              0.000026                          1   4
  224        setdij_                               1.907055                           20   3
  225          fft3d_mpi                             0.353667                         40   4
  226            fftbas_plan_mpi                       0.325022                       40   5
  227              dfftw_execute                         0.133249                    120   6
  228              map_backward                          0.021612                     40   6
  229                map_gather                            0.005419                   20   7
  230                m_alltoallv_z                         0.008244                   20   7
  231                map_scatter                           0.006984                   20   7
  232              map_forward                           0.159380                     40   6
  233                map_gather                            0.088121                   20   7
  234                m_alltoallv_z                         0.028941                   20   7
  235                map_scatter                           0.041341                   20   7
  236          M_sumb_d                              0.012147                         20   4
  237        set_dd_magatom                        0.000003                            1   3
  238        set_dd_paw                            0.007074                            1   3
  239          set_rsgf_all                          0.000004                          1   4
  240          M_sumb_d                              0.006911                          8   4
  241        strkin                                0.001589                            1   3
  242          M_sumb_d                              0.000806                          1   4
  243        strelo                                0.003904                            1   3
  244          M_sumb_d                              0.000091                          2   4
  245        strenl                                1.371478                            1   3
  246          spher                                 1.038172                         19   4
  247          phase                                 0.015835                        189   4
  248          proj1                                 0.291603                       1134   4
  249            crexp_mul_wave                        0.037693                     3402   5
  250            M_sumb_d                              0.073371                     1134   5
  251          M_sumb_d                              0.002161                          1   4
  252        M_sumb_d                              0.000247                            6   3
  253        fft3d_mpi                             0.022889                           11   3
  254          fftbas_plan_mpi                       0.021142                         11   4
  255            dfftw_execute                         0.007670                       33   5
  256            map_forward                           0.004404                       10   5
  257              map_gather                            0.001566                      5   6
  258              m_alltoallv_z                         0.001469                      5   6
  259              map_scatter                           0.001052                      5   6
  260            map_backward                          0.006480                       12   5
  261              map_gather                            0.001604                      6   6
  262              m_alltoallv_z                         0.002043                      6   6
  263              map_scatter                           0.002548                      6   6
  264        ggaall_grid                           0.002565                            1   3
  265        forhar                                0.010420                            2   3
  266          M_sumb_d                              0.000178                          2   4
  267        strehar                               0.004229                            1   3
  268          M_sumb_d                              0.000154                          1   4
  269        chggra                                0.009631                            1   3
  270          fft3d_mpi                             0.006175                          3   4
  271            fftbas_plan_mpi                       0.005691                        3   5
  272              dfftw_execute                         0.002108                      9   6
  273              map_backward                          0.001051                      2   6
  274                map_gather                            0.000253                    1   7
  275                m_alltoallv_z                         0.000304                    1   7
  276                map_scatter                           0.000439                    1   7
  277              map_forward                           0.001819                      4   6
  278                map_gather                            0.000698                    2   7
  279                m_alltoallv_z                         0.000613                    2   7
  280                map_scatter                           0.000410                    2   7
  281          M_sumb_d                              0.000118                          3   4
  282        brmix                                 0.011722                            1   3
  283          M_sumb_d                              0.000241                          6   4
  284          brpre                                 0.000060                          1   4
  285          setg0                                 0.002476                          1   4
  286          broyd                                 0.002602                          1   4
  287            M_sumb_d                              0.000700                       19   5
  288            brget                                 0.000354                       69   5
  289            brsav                                 0.000115                       17   5
  290          M_bcast_z                             0.004927                          1   4
  291          M_bcast_d                             0.000068                          1   4
  292        M_bcast_d                             0.000306                            2   3
  293      potlok                                0.040823                              1   2
  294        fft3d_mpi                             0.026454                           13   3
  295          fftbas_plan_mpi                       0.024419                         13   4
  296            dfftw_execute                         0.008904                       39   5
  297            map_forward                           0.005663                       14   5
  298              map_gather                            0.001958                      8   6
  299              m_alltoallv_z                         0.001929                      8   6
  300              map_scatter                           0.001418                      8   6
  301            map_backward                          0.006876                       12   5
  302              map_gather                            0.001667                      6   6
  303              m_alltoallv_z                         0.001864                      6   6
  304              map_scatter                           0.003046                      6   6
  305        ggaall_grid                           0.002644                            1   3
  306        M_sumb_d                              0.000256                            6   3
  307        M_bcast_d                             0.000140                            1   3
  308      potlok_metagga                        0.000004                              1   2
  309      set_dd_magatom                        0.000003                              1   2
  310      set_dd_paw                            0.000699                              1   2
  311        set_rsgf_all                          0.000005                            1   3
  312        M_sumb_d                              0.000318                            8   3
  313      densta                                0.002380                              1   2
  314        M_sumb_d                              0.000833                           41   3
  315      lprj_proall                           0.000007                              1   2

 Flat profile
 ============

             routine name                   CPU           calls
 ---------------------------------------------------------------
 total_time                             15.586092           1
 dfftw_execute                           8.058216       53598
 eddav                                   5.844695          17
 fftbas_plan_mpi                         3.847957       17868
 setdij_                                 3.302384          41
 M_sumb_d                                2.962723       49535
 set_charge                              2.898932          13
 m_alltoallv_z                           2.257860       17893
 elmin                                   1.623130           1
 pdssyex_zheevx                          1.584196         357
 vhamil                                  1.390804        8098
 M_alltoall_d                            1.357124       59458
 proj1                                   1.257483        7216
 spher                                   1.199121          20
 gemm                                    1.171439       24294
 fftwav_mpi                              1.127823        9463
 map_forward                             1.100450       19220
 orth1                                   1.095725       12168
 map_gather                              1.008039       17893
 map_scatter                             0.979324       17893
 vnlac0                                  0.553400        8098
 redis_pw                                0.520217       22908
 M_bcast_z                               0.509048        6602
 hamiltmu                                0.458188        4049
 redis_proj                              0.446743       28885
 w1_copy                                 0.398115       24294
 crpa_reader                             0.352413           1
 fft3d_mpi                               0.341861       17866
 work_mul_crexp                          0.326540       24294
 eccp                                    0.322036        2142
 map_backward                            0.302925       16512
 fftext_mpi                              0.295677        8098
 crexp_mul_wave                          0.256207       21648
 pw_charge                               0.187888        1365
 kinhamil                                0.172877        8098
 overl                                   0.163720       14075
 potlok                                  0.141893          14
 M_bcast_d                               0.134909        4083
 overl1                                  0.098470        8098
 apply_precond                           0.092733        5956
 setup_precond                           0.077560        2142
 lincom                                  0.074984         378
 w1_projall                              0.066217        2978
 force_and_stress                        0.061608           1
 fornl                                   0.058890           1
 phase                                   0.049090         589
 soft_charge                             0.041820          13
 ggaall_grid                             0.039410          15
 brmix                                   0.036804          13
 truncate_high_frequency_w1              0.034866       10240
 densta                                  0.028003          18
 setg0                                   0.025984          14
 strenl                                  0.023707           1
 broyd                                   0.012585          13
 forhar                                  0.010242           2
 depsum                                  0.005629          13
 forloc                                  0.005130           1
 strehar                                 0.004075           1
 strelo                                  0.003813           1
 chggra                                  0.003337           1
 set_dd_paw                              0.002991          15
 brget                                   0.002883         501
 brgrid                                  0.002743           1
 orthch                                  0.002306           1
 choleski                                0.001951          21
 proj                                    0.001575          21
 brsav                                   0.001177         145
 brpre                                   0.000879          13
 strkin                                  0.000783           1
 fordep                                  0.000218           1
 vectorpot                               0.000076          14
 set_rsgf_all                            0.000069          15
 set_dd_magatom                          0.000057          15
 potlok_metagga                          0.000056          14
 set_kineden                             0.000044          12
 rotate_active_occupied_orbital          0.000015           1
 lprj_proall                             0.000007           1
 redis_pw_over_bands                     0.000003           1
 ---------------------------------------------------------------
  summed up times    66.4109671115875

 Accumulative profile
 ====================

             routine name                   CPU           calls
 ---------------------------------------------------------------
 total_time                             66.410967           1
 elmin                                  45.113798           1
 eddav                                  36.837942          17
 fft3d_mpi                              17.876822       17866
 fftbas_plan_mpi                        17.554771       17868
 hamiltmu                               12.132488        4049
 fftwav_mpi                             10.454550        9463
 dfftw_execute                           8.058216       53598
 kinhamil                                7.606340        8098
 fftext_mpi                              7.433463        8098
 set_charge                              4.925645          13
 force_and_stress                        4.456610           1
 setdij_                                 4.115161          41
 map_forward                             3.492498       19220
 M_sumb_d                                2.962723       49535
 vnlac0                                  2.578687        8098
 m_alltoallv_z                           2.257860       17893
 map_backward                            2.156100       16512
 proj1                                   2.009162        7216
 soft_charge                             1.758687          13
 w1_projall                              1.750993        2978
 pdssyex_zheevx                          1.584196         357
 vhamil                                  1.390804        8098
 strenl                                  1.371478           1
 M_alltoall_d                            1.357124       59458
 redis_pw                                1.308558       22908
 spher                                   1.199121          20
 gemm                                    1.171439       24294
 orth1                                   1.095725       12168
 redis_proj                              1.015527       28885
 map_gather                              1.008039       17893
 map_scatter                             0.979324       17893
 fordep                                  0.591665           1
 potlok                                  0.552369          14
 M_bcast_z                               0.509048        6602
 eccp                                    0.458226        2142
 w1_copy                                 0.398115       24294
 crpa_reader                             0.352413           1
 work_mul_crexp                          0.326540       24294
 crexp_mul_wave                          0.256207       21648
 pw_charge                               0.187888        1365
 overl                                   0.163720       14075
 set_dd_paw                              0.146982          15
 M_bcast_d                               0.134909        4083
 setup_precond                           0.129019        2142
 brmix                                   0.101472          13
 overl1                                  0.098470        8098
 apply_precond                           0.092733        5956
 fornl                                   0.075868           1
 lincom                                  0.074984         378
 phase                                   0.049090         589
 densta                                  0.041785          18
 ggaall_grid                             0.039410          15
 truncate_high_frequency_w1              0.034866       10240
 proj                                    0.034358          21
 orthch                                  0.033563           1
 setg0                                   0.025984          14
 broyd                                   0.022690          13
 forhar                                  0.010420           2
 chggra                                  0.009631           1
 depsum                                  0.008549          13
 forloc                                  0.008022           1
 strehar                                 0.004229           1
 strelo                                  0.003904           1
 brget                                   0.002883         501
 brgrid                                  0.002743           1
 choleski                                0.001951          21
 strkin                                  0.001589           1
 brsav                                   0.001177         145
 brpre                                   0.000879          13
 vectorpot                               0.000076          14
 set_rsgf_all                            0.000069          15
 set_dd_magatom                          0.000057          15
 potlok_metagga                          0.000056          14
 set_kineden                             0.000044          12
 rotate_active_occupied_orbital          0.000015           1
 lprj_proall                             0.000007           1
 redis_pw_over_bands                     0.000003           1
 ---------------------------------------------------------------

Profiling took   1.475147  1.713912  0.005802  0.004333 seconds
Profiling took   1.472969 seconds
