 ----------------------------------------------------
    OOO  PPPP  EEEEE N   N M   M PPPP
   O   O P   P E     NN  N MM MM P   P
   O   O PPPP  EEEEE N N N M M M PPPP   -- VERSION
   O   O P     E     N  NN M   M P
    OOO  P     EEEEE N   N M   M P
 ----------------------------------------------------
 running   64 mpi-ranks, with    1 threads/rank
 distrk:  each k-point on   16 cores,    4 groups
 distr:  one band on    4 cores,    4 groups
 using from now: INCAR
 vasp.6.0.8 29Jun18 (build Jun 13 2019 12:54:44) complex

 POSCAR found type information on POSCAR  Th Bi Pt
 POSCAR found :  3 types and       3 ions
 scaLAPACK will be used
 WARNING: PSMAXN for non-local potential too small

 -----------------------------------------------------------------------------
|                                                                             |
|  ADVICE TO THIS USER RUNNING 'VASP/VAMP'   (HEAR YOUR MASTER'S VOICE ...):  |
|                                                                             |
|      You enforced a specific xc-type in the INCAR file,                     |
|      a different type was found on the POTCAR file                          |
|          I HOPE YOU KNOW, WHAT YOU ARE  DOING                               |
|                                                                             |
 -----------------------------------------------------------------------------

 LDA part: xc-table for Pade appr. of Perdew
 POSCAR, INCAR and KPOINTS ok, starting setup
 FFT: planning ...
 WAVECAR not read
 entering main loop
       N       E                     dE             d eps       ncg     rms          rms(c)
 ELPA: falling back to scaLAPACK
 ELPA: falling back to scaLAPACK
 ELPA: falling back to scaLAPACK
 ELPA: falling back to scaLAPACK
DAV:   1     0.433761051730E+03    0.43376E+03   -0.20150E+04  4032   0.194E+03
DAV:   2     0.431446398463E+02   -0.39062E+03   -0.38351E+03  4368   0.477E+02
DAV:   3    -0.181856368360E+02   -0.61330E+02   -0.60664E+02  5432   0.159E+02
DAV:   4    -0.224061686564E+02   -0.42205E+01   -0.42022E+01  7352   0.436E+01
DAV:   5    -0.225335797294E+02   -0.12741E+00   -0.12737E+00  5504   0.587E+00    0.251E+01
DAV:   6    -0.214026614356E+02    0.11309E+01   -0.23922E+00  5160   0.781E+00    0.166E+01
DAV:   7    -0.212965467746E+02    0.10611E+00   -0.28984E+00  6176   0.881E+00    0.636E+00
DAV:   8    -0.212508345990E+02    0.45712E-01   -0.15274E+00  5128   0.521E+00    0.139E+00
DAV:   9    -0.212481778079E+02    0.26568E-02   -0.70169E-01  5608   0.343E+00    0.171E+00
DAV:  10    -0.212238742019E+02    0.24304E-01   -0.10839E-01  5648   0.143E+00    0.105E+00
DAV:  11    -0.212213524360E+02    0.25218E-02   -0.24279E-02  6368   0.701E-01    0.513E-01
DAV:  12    -0.212213665165E+02   -0.14081E-04   -0.21451E-03  5968   0.201E-01    0.612E-02
DAV:  13    -0.212213411865E+02    0.25330E-04   -0.11361E-04  5384   0.534E-02    0.717E-02
DAV:  14    -0.212213299671E+02    0.11219E-04   -0.11398E-04  5840   0.455E-02    0.352E-02
DAV:  15    -0.212213305790E+02   -0.61195E-06   -0.59733E-06  6544   0.121E-02    0.174E-02
DAV:  16    -0.212213303920E+02    0.18708E-06   -0.98114E-07  5784   0.502E-03    0.306E-03
DAV:  17    -0.212213304106E+02   -0.18613E-07   -0.55628E-07  4768   0.281E-03
   1 F= -.21221330E+02 E0= -.21221070E+02  d E =-.520755E-03
